 *******************************************************************************
 ** Site#: 14399        For non-commercial use only    Version 18.184L 64BITS **
 *******************************************************************************
 ** Cite this program as: MOPAC2016, Version: 18.184L, James J. P. Stewart,   **
 ** Stewart Computational Chemistry, web: HTTP://OpenMOPAC.net. Days left:  19**
 *******************************************************************************
 **                                                                           **
 **                                MOPAC2016                                  **
 **                                                                           **
 *******************************************************************************

                              PM3 CALCULATION RESULTS

 *******************************************************************************
 *  CALCULATION DONE:                                Fri Jun 14 02:22:37 2019  *
 *  PM3        - The PM3 Hamiltonian to be used
 *  PRECISE    - CRITERIA TO BE INCREASED BY 100 TIMES
 *  NOSYM      - POINT-GROUP SYMMETRY SET TO C1
 *  THREADS=1  - MULTI-THREADING NOT USED
 *  T=         - A TIME OF 172800.0 SECONDS REQUESTED
 *  DUMP=N     - RESTART FILE WRITTEN EVERY  7200.000 SECONDS
 *******************************************************************************
pm3  precise nosym THREADS=1
 InChI=1S/C7H12O2/c1-2-6-4-5-7(3-1)9-8-6/h6-7H,1-5H2

   ATOM   CHEMICAL          X               Y               Z
  NUMBER   SYMBOL      (ANGSTROMS)     (ANGSTROMS)     (ANGSTROMS)
 
     1       O          0.48870000  *  -0.20260000  *   1.82020000  *
     2       O          0.46860000  *  -1.45370000  *   1.34200000  *
     3       C          0.93950000  *   0.74870000  *   0.85420000  *
     4       C         -0.20670000  *  -1.50590000  *   0.09520000  *
     5       C         -0.28020000  *   1.59620000  *   0.45720000  *
     6       C         -1.52440000  *  -0.67040000  *   0.08880000  *
     7       C          1.63100000  *   0.11530000  *  -0.38590000  *
     8       C          0.80810000  *  -1.05340000  *  -0.95880000  *
     9       C         -1.36050000  *   0.81460000  *  -0.32090000  *
    10       H          1.67310000  *   1.42090000  *   1.34980000  *
    11       H         -0.47510000  *  -2.56630000  *  -0.10380000  *
    12       H         -1.14120000  *   0.87810000  *  -1.40760000  *
    13       H         -2.33670000  *   1.32770000  *  -0.18200000  *
    14       H          0.05190000  *   2.46430000  *  -0.15310000  *
    15       H         -0.73660000  *   2.00820000  *   1.38410000  *
    16       H         -2.23330000  *  -1.13870000  *  -0.62830000  *
    17       H         -2.00230000  *  -0.72660000  *   1.09100000  *
    18       H          1.80370000  *   0.88360000  *  -1.17070000  *
    19       H          1.49540000  *  -1.89690000  *  -1.19010000  *
    20       H          2.62670000  *  -0.26580000  *  -0.06890000  *
    21       H          0.31040000  *  -0.77730000  *  -1.91230000  *
 


          CARTESIAN COORDINATES 

    NO.       ATOM           X           Y           Z

     1         O          0.4887     -0.2026      1.8202
     2         O          0.4686     -1.4537      1.3420
     3         C          0.9395      0.7487      0.8542
     4         C         -0.2067     -1.5059      0.0952
     5         C         -0.2802      1.5962      0.4572
     6         C         -1.5244     -0.6704      0.0888
     7         C          1.6310      0.1153     -0.3859
     8         C          0.8081     -1.0534     -0.9588
     9         C         -1.3605      0.8146     -0.3209
    10         H          1.6731      1.4209      1.3498
    11         H         -0.4751     -2.5663     -0.1038
    12         H         -1.1412      0.8781     -1.4076
    13         H         -2.3367      1.3277     -0.1820
    14         H          0.0519      2.4643     -0.1531
    15         H         -0.7366      2.0082      1.3841
    16         H         -2.2333     -1.1387     -0.6283
    17         H         -2.0023     -0.7266      1.0910
    18         H          1.8037      0.8836     -1.1707
    19         H          1.4954     -1.8969     -1.1901
    20         H          2.6267     -0.2658     -0.0689
    21         H          0.3104     -0.7773     -1.9123

  H: (PM3): J. J. P. STEWART, J. COMP. CHEM. 10, 209 (1989).
  C: (PM3): J. J. P. STEWART, J. COMP. CHEM. 10, 209 (1989).
  O: (PM3): J. J. P. STEWART, J. COMP. CHEM. 10, 209 (1989).

           Empirical Formula: C7 H12 O2  =    21 atoms



      MOLECULAR POINT GROUP   :   C1  


      RHF CALCULATION, NO. OF DOUBLY OCCUPIED LEVELS = 26


          Geometry optimization using EF

          DIAGONAL MATRIX USED AS START HESSIAN

 CYCLE:     1 TIME:   0.020 TIME LEFT:  2.00D  GRAD.:   138.760 HEAT: -21.27602
 CYCLE:     2 TIME:   0.033 TIME LEFT:  2.00D  GRAD.:   109.358 HEAT: -27.27745
 CYCLE:     3 TIME:   0.040 TIME LEFT:  2.00D  GRAD.:    77.313 HEAT: -29.68562
 CYCLE:     4 TIME:   0.023 TIME LEFT:  2.00D  GRAD.:    59.943 HEAT: -31.27818
 CYCLE:     5 TIME:   0.037 TIME LEFT:  2.00D  GRAD.:    41.383 HEAT: -32.40369
 CYCLE:     6 TIME:   0.025 TIME LEFT:  2.00D  GRAD.:    57.333 HEAT: -32.56335
 CYCLE:     7 TIME:   0.021 TIME LEFT:  2.00D  GRAD.:    60.809 HEAT: -32.85853
 CYCLE:     8 TIME:   0.023 TIME LEFT:  2.00D  GRAD.:    44.523 HEAT: -33.91832
 CYCLE:     9 TIME:   0.030 TIME LEFT:  2.00D  GRAD.:    24.965 HEAT: -34.51712
 CYCLE:    10 TIME:   0.036 TIME LEFT:  2.00D  GRAD.:    19.882 HEAT: -34.76262
 CYCLE:    11 TIME:   0.027 TIME LEFT:  2.00D  GRAD.:    19.705 HEAT: -34.98129
 CYCLE:    12 TIME:   0.028 TIME LEFT:  2.00D  GRAD.:    27.006 HEAT: -35.17950
 CYCLE:    13 TIME:   0.043 TIME LEFT:  2.00D  GRAD.:    25.931 HEAT: -35.30422
 CYCLE:    14 TIME:   0.026 TIME LEFT:  2.00D  GRAD.:    27.357 HEAT: -35.38391
 CYCLE:    15 TIME:   0.030 TIME LEFT:  2.00D  GRAD.:    28.771 HEAT: -35.41242
 CYCLE:    16 TIME:   0.038 TIME LEFT:  2.00D  GRAD.:    13.197 HEAT: -35.63451
 CYCLE:    17 TIME:   0.040 TIME LEFT:  2.00D  GRAD.:     9.879 HEAT: -35.68828
 CYCLE:    18 TIME:   0.028 TIME LEFT:  2.00D  GRAD.:     6.570 HEAT: -35.75201
 CYCLE:    19 TIME:   0.028 TIME LEFT:  2.00D  GRAD.:     6.920 HEAT: -35.81725
 CYCLE:    20 TIME:   0.029 TIME LEFT:  2.00D  GRAD.:     7.174 HEAT: -35.89679
 CYCLE:    21 TIME:   0.028 TIME LEFT:  2.00D  GRAD.:    10.650 HEAT: -35.99600
 CYCLE:    22 TIME:   0.029 TIME LEFT:  2.00D  GRAD.:    11.715 HEAT: -36.07745
 CYCLE:    23 TIME:   0.027 TIME LEFT:  2.00D  GRAD.:     7.863 HEAT: -36.14657
 CYCLE:    24 TIME:   0.030 TIME LEFT:  2.00D  GRAD.:    11.611 HEAT: -36.18321
 CYCLE:    25 TIME:   0.028 TIME LEFT:  2.00D  GRAD.:     9.457 HEAT: -36.27304
 CYCLE:    26 TIME:   0.028 TIME LEFT:  2.00D  GRAD.:    10.562 HEAT: -36.38912
 CYCLE:    27 TIME:   0.027 TIME LEFT:  2.00D  GRAD.:    13.605 HEAT: -36.44908
 CYCLE:    28 TIME:   0.030 TIME LEFT:  2.00D  GRAD.:     8.449 HEAT: -36.54484
 CYCLE:    29 TIME:   0.026 TIME LEFT:  2.00D  GRAD.:     7.643 HEAT: -36.63269
 CYCLE:    30 TIME:   0.030 TIME LEFT:  2.00D  GRAD.:     9.427 HEAT: -36.70520
 CYCLE:    31 TIME:   0.028 TIME LEFT:  2.00D  GRAD.:     6.085 HEAT: -36.74868
 CYCLE:    32 TIME:   0.028 TIME LEFT:  2.00D  GRAD.:     4.620 HEAT: -36.77904
 CYCLE:    33 TIME:   0.027 TIME LEFT:  2.00D  GRAD.:     4.533 HEAT: -36.81192
 CYCLE:    34 TIME:   0.030 TIME LEFT:  2.00D  GRAD.:     3.649 HEAT: -36.83853
 CYCLE:    35 TIME:   0.027 TIME LEFT:  2.00D  GRAD.:     3.316 HEAT: -36.86174
 CYCLE:    36 TIME:   0.029 TIME LEFT:  2.00D  GRAD.:     4.052 HEAT: -36.89301
 CYCLE:    37 TIME:   0.028 TIME LEFT:  2.00D  GRAD.:     4.475 HEAT: -36.92564
 CYCLE:    38 TIME:   0.028 TIME LEFT:  2.00D  GRAD.:     4.764 HEAT: -36.96513
 CYCLE:    39 TIME:   0.028 TIME LEFT:  2.00D  GRAD.:     4.705 HEAT: -37.00753
 CYCLE:    40 TIME:   0.030 TIME LEFT:  2.00D  GRAD.:     4.732 HEAT: -37.05342
 CYCLE:    41 TIME:   0.028 TIME LEFT:  2.00D  GRAD.:     4.942 HEAT: -37.09186
 CYCLE:    42 TIME:   0.027 TIME LEFT:  2.00D  GRAD.:     4.143 HEAT: -37.12563
 CYCLE:    43 TIME:   0.029 TIME LEFT:  2.00D  GRAD.:     3.061 HEAT: -37.15264
 CYCLE:    44 TIME:   0.028 TIME LEFT:  2.00D  GRAD.:     3.052 HEAT: -37.17407
 CYCLE:    45 TIME:   0.029 TIME LEFT:  2.00D  GRAD.:     2.934 HEAT: -37.19216
 CYCLE:    46 TIME:   0.028 TIME LEFT:  2.00D  GRAD.:     2.734 HEAT: -37.21092
 CYCLE:    47 TIME:   0.030 TIME LEFT:  2.00D  GRAD.:     2.661 HEAT: -37.22601
 CYCLE:    48 TIME:   0.029 TIME LEFT:  2.00D  GRAD.:     2.747 HEAT: -37.24258
 CYCLE:    49 TIME:   0.027 TIME LEFT:  2.00D  GRAD.:     2.655 HEAT: -37.25732
 CYCLE:    50 TIME:   0.027 TIME LEFT:  2.00D  GRAD.:     2.395 HEAT: -37.27309
 CYCLE:    51 TIME:   0.029 TIME LEFT:  2.00D  GRAD.:     2.211 HEAT: -37.28485
 CYCLE:    52 TIME:   0.027 TIME LEFT:  2.00D  GRAD.:     1.871 HEAT: -37.29520
 CYCLE:    53 TIME:   0.029 TIME LEFT:  2.00D  GRAD.:     1.674 HEAT: -37.30260
 CYCLE:    54 TIME:   0.026 TIME LEFT:  2.00D  GRAD.:     1.330 HEAT: -37.30730
 CYCLE:    55 TIME:   0.030 TIME LEFT:  2.00D  GRAD.:     1.097 HEAT: -37.31031
 CYCLE:    56 TIME:   0.035 TIME LEFT:  2.00D  GRAD.:     0.911 HEAT: -37.31263
 CYCLE:    57 TIME:   0.028 TIME LEFT:  2.00D  GRAD.:     0.767 HEAT: -37.31459
 CYCLE:    58 TIME:   0.028 TIME LEFT:  2.00D  GRAD.:     0.610 HEAT: -37.31587
 CYCLE:    59 TIME:   0.027 TIME LEFT:  2.00D  GRAD.:     0.540 HEAT: -37.31660
 CYCLE:    60 TIME:   0.030 TIME LEFT:  2.00D  GRAD.:     0.451 HEAT: -37.31710
 CYCLE:    61 TIME:   0.026 TIME LEFT:  2.00D  GRAD.:     0.411 HEAT: -37.31752
 CYCLE:    62 TIME:   0.030 TIME LEFT:  2.00D  GRAD.:     0.366 HEAT: -37.31790
 CYCLE:    63 TIME:   0.027 TIME LEFT:  2.00D  GRAD.:     0.276 HEAT: -37.31815
 CYCLE:    64 TIME:   0.028 TIME LEFT:  2.00D  GRAD.:     0.221 HEAT: -37.31828
 CYCLE:    65 TIME:   0.033 TIME LEFT:  2.00D  GRAD.:     0.165 HEAT: -37.31837
 CYCLE:    66 TIME:   0.032 TIME LEFT:  2.00D  GRAD.:     0.122 HEAT: -37.31842
 CYCLE:    67 TIME:   0.028 TIME LEFT:  2.00D  GRAD.:     0.073 HEAT: -37.31845
 CYCLE:    68 TIME:   0.027 TIME LEFT:  2.00D  GRAD.:     0.047 HEAT: -37.31845

     GRADIENT =  0.04662  IS LESS THAN CUTOFF =  0.05000



 -------------------------------------------------------------------------------
 pm3  precise nosym THREADS=1
 InChI=1S/C7H12O2/c1-2-6-4-5-7(3-1)9-8-6/h6-7H,1-5H2



     GEOMETRY OPTIMISED USING EIGENVECTOR FOLLOWING (EF).     
     SCF FIELD WAS ACHIEVED                                   


                              PM3 CALCULATION
                                                       MOPAC2016 (Version: 18.184L)
                                                       Fri Jun 14 02:22:39 2019
                                                       No. of days remaining =  19




          FINAL HEAT OF FORMATION =        -37.31845 KCAL/MOL =    -156.14041 KJ/MOL


          TOTAL ENERGY            =      -1599.94320 EV
          ELECTRONIC ENERGY       =      -8310.27281 EV  POINT GROUP:     C1  
          CORE-CORE REPULSION     =       6710.32961 EV
          COSMO AREA              =        153.72 SQUARE ANGSTROMS
          COSMO VOLUME            =        158.93 CUBIC ANGSTROMS

          GRADIENT NORM           =          0.04662 = 0.01017 PER ATOM
          IONIZATION POTENTIAL    =         10.642338 EV
          HOMO LUMO ENERGIES (EV) =        -10.642  0.636
          NO. OF FILLED LEVELS    =         26
          MOLECULAR WEIGHT        =        128.1706

          MOLECULAR DIMENSIONS (Angstroms)

            Atom       Atom       Distance
            H    16    H    10     5.10700
            H    19    H    13     4.99190
            H    18    O     2     3.69431


          SCF CALCULATIONS        =         76
 
          WALL-CLOCK TIME         =          2.051 SECONDS
          COMPUTATION TIME        =          0.990 SECONDS




   ATOM   CHEMICAL          X               Y               Z
  NUMBER   SYMBOL      (ANGSTROMS)     (ANGSTROMS)     (ANGSTROMS)
 
     1       O          0.92789967  *  -0.15409333  *   1.84976282  *
     2       O          0.18799779  *  -1.48988190  *   1.44254335  *
     3       C          0.97837100  *   0.77247918  *   0.81017319  *
     4       C         -0.26601495  *  -1.47439759  *   0.12517805  *
     5       C         -0.35826030  *   1.50672883  *   0.59635195  *
     6       C         -1.54630073  *  -0.63846357  *  -0.05771135  *
     7       C          1.55202375  *   0.17835162  *  -0.48454034  *
     8       C          0.83870757  *  -1.10943192  *  -0.87717468  *
     9       C         -1.29929115  *   0.82434356  *  -0.38018080  *
    10       H          1.71161189  *   1.48106162  *   1.27077707  *
    11       H         -0.52600509  *  -2.55924005  *   0.03901187  *
    12       H         -0.90360381  *   0.92011874  *  -1.41283573  *
    13       H         -2.26762945  *   1.36352627  *  -0.38960862  *
    14       H         -0.14238896  *   2.52971434  *   0.23027826  *
    15       H         -0.86370021  *   1.63618462  *   1.57476838  *
    16       H         -2.14616867  *  -1.08867568  *  -0.87292045  *
    17       H         -2.16873551  *  -0.72018411  *   0.85629436  *
    18       H          1.48291539  *   0.93357822  *  -1.29084976  *
    19       H          1.56852050  *  -1.94000471  *  -0.93781022  *
    20       H          2.63390378  *  -0.01668346  *  -0.35138546  *
    21       H          0.39671557  *  -1.02739043  *  -1.88870907  *

                             CARTESIAN COORDINATES

   1    O        0.927899669    -0.154093334     1.849762816
   2    O        0.187997789    -1.489881897     1.442543345
   3    C        0.978370998     0.772479177     0.810173185
   4    C       -0.266014946    -1.474397591     0.125178053
   5    C       -0.358260296     1.506728835     0.596351953
   6    C       -1.546300733    -0.638463575    -0.057711353
   7    C        1.552023754     0.178351616    -0.484540339
   8    C        0.838707572    -1.109431918    -0.877174679
   9    C       -1.299291148     0.824343565    -0.380180801
  10    H        1.711611890     1.481061624     1.270777070
  11    H       -0.526005095    -2.559240047     0.039011868
  12    H       -0.903603807     0.920118737    -1.412835733
  13    H       -2.267629453     1.363526270    -0.389608621
  14    H       -0.142388964     2.529714338     0.230278259
  15    H       -0.863700215     1.636184616     1.574768380
  16    H       -2.146168675    -1.088675675    -0.872920447
  17    H       -2.168735515    -0.720184113     0.856294357
  18    H        1.482915390     0.933578218    -1.290849765
  19    H        1.568520497    -1.940004707    -0.937810221
  20    H        2.633903783    -0.016683463    -0.351385463
  21    H        0.396715567    -1.027390426    -1.888709068


           Empirical Formula: C7 H12 O2  =    21 atoms



      MOLECULAR POINT GROUP   :   C1  


                  EIGENVALUES  
 -42.00254 -35.19122 -33.57911 -31.82851 -29.13604 -24.22610 -23.93587 -19.76427
 -18.82579 -18.46968 -17.76085 -16.51666 -15.14837 -14.99196 -14.83867 -14.63743
 -14.48418 -14.22770 -13.70207 -12.71967 -12.23342 -12.22551 -11.79227 -11.71266
 -11.20563 -10.64234   0.63620   2.87873   3.03703   3.25670   3.29076   3.36897
   3.37774   3.50594   3.63205   3.90183   4.04258   4.06447   4.13915   4.28635
   4.29241   4.30126   4.35635   4.78441   4.82999   4.96723   5.01991   5.68789


              NET ATOMIC CHARGES AND DIPOLE CONTRIBUTIONS

  ATOM NO.   TYPE          CHARGE      No. of ELECS.   s-Pop       p-Pop       
    1          O          -0.142210        6.1422     1.91169     4.23052
    2          O          -0.142207        6.1422     1.91169     4.23052
    3          C           0.055421        3.9446     1.17982     2.76476
    4          C           0.055417        3.9446     1.17981     2.76477
    5          C          -0.126820        4.1268     1.17052     2.95630
    6          C          -0.126832        4.1268     1.17052     2.95631
    7          C          -0.112417        4.1124     1.16438     2.94804
    8          C          -0.112429        4.1124     1.16438     2.94805
    9          C          -0.092081        4.0921     1.15876     2.93332
   10          H           0.078559        0.9214     0.92144
   11          H           0.078560        0.9214     0.92144
   12          H           0.050623        0.9494     0.94938
   13          H           0.051255        0.9487     0.94874
   14          H           0.052853        0.9471     0.94715
   15          H           0.069397        0.9306     0.93060
   16          H           0.052861        0.9471     0.94714
   17          H           0.069397        0.9306     0.93060
   18          H           0.059369        0.9406     0.94063
   19          H           0.060946        0.9391     0.93905
   20          H           0.060962        0.9390     0.93904
   21          H           0.059375        0.9406     0.94062
 DIPOLE           X         Y         Z       TOTAL
 POINT-CHG.    -0.285     0.770    -2.007     2.168
 HYBRID        -0.152     0.258    -0.572     0.646
 SUM           -0.437     1.028    -2.579     2.810


          ATOMIC ORBITAL ELECTRON POPULATIONS

     Atom    s        px        py        pz   
    1  O   1.91169   1.74095   1.20234   1.28724
    2  O   1.91169   1.75011   1.19936   1.28105
    3  C   1.17982   0.95448   0.90768   0.90260
    4  C   1.17981   0.92676   0.97620   0.86181
    5  C   1.17052   0.96163   0.98447   1.01020
    6  C   1.17052   0.97132   0.95724   1.02775
    7  C   1.16438   0.99747   0.97377   0.97679
    8  C   1.16438   0.98134   0.98045   0.98626
    9  C   1.15876   0.99235   0.95389   0.98708
   10  H   0.92144
   11  H   0.92144
   12  H   0.94938
   13  H   0.94874
   14  H   0.94715
   15  H   0.93060
   16  H   0.94714
   17  H   0.93060
   18  H   0.94063
   19  H   0.93905
   20  H   0.93904
   21  H   0.94062
 *******************************************************************************
 ** Site#: 14399        For non-commercial use only    Version 18.184L 64BITS **
 *******************************************************************************
 ** Cite this program as: MOPAC2016, Version: 18.184L, James J. P. Stewart,   **
 ** Stewart Computational Chemistry, web: HTTP://OpenMOPAC.net. Days left:  19**
 *******************************************************************************
 **                                                                           **
 **                                MOPAC2016                                  **
 **                                                                           **
 *******************************************************************************

                              PM3 CALCULATION RESULTS

 *******************************************************************************
 *  CALCULATION DONE:                                Fri Jun 14 02:22:39 2019  *
 *  PM3        - The PM3 Hamiltonian to be used
 *  OLDGEO     - PREVIOUS GEOMETRY TO BE USED
 *  PRECISE    - CRITERIA TO BE INCREASED BY 100 TIMES
 *  NOSYM      - POINT-GROUP SYMMETRY SET TO C1
 *  THREADS=1  - MULTI-THREADING NOT USED
 *  T=         - A TIME OF 172800.0 SECONDS REQUESTED
 *  DUMP=N     - RESTART FILE WRITTEN EVERY  7200.000 SECONDS
 *  THERMO     - THERMODYNAMIC QUANTITIES TO BE CALCULATED
 *******************************************************************************
oldgeo thermo nosym precise THREADS=1  pm3
 InChI=1S/C7H12O2/c1-2-6-4-5-7(3-1)9-8-6/h6-7H,1-5H2

   ATOM   CHEMICAL          X               Y               Z
  NUMBER   SYMBOL      (ANGSTROMS)     (ANGSTROMS)     (ANGSTROMS)
 
     1       O          0.92789967  *  -0.15409333  *   1.84976282  *
     2       O          0.18799779  *  -1.48988190  *   1.44254335  *
     3       C          0.97837100  *   0.77247918  *   0.81017319  *
     4       C         -0.26601495  *  -1.47439759  *   0.12517805  *
     5       C         -0.35826030  *   1.50672883  *   0.59635195  *
     6       C         -1.54630073  *  -0.63846357  *  -0.05771135  *
     7       C          1.55202375  *   0.17835162  *  -0.48454034  *
     8       C          0.83870757  *  -1.10943192  *  -0.87717468  *
     9       C         -1.29929115  *   0.82434356  *  -0.38018080  *
    10       H          1.71161189  *   1.48106162  *   1.27077707  *
    11       H         -0.52600509  *  -2.55924005  *   0.03901187  *
    12       H         -0.90360381  *   0.92011874  *  -1.41283573  *
    13       H         -2.26762945  *   1.36352627  *  -0.38960862  *
    14       H         -0.14238896  *   2.52971434  *   0.23027826  *
    15       H         -0.86370021  *   1.63618462  *   1.57476838  *
    16       H         -2.14616867  *  -1.08867568  *  -0.87292045  *
    17       H         -2.16873551  *  -0.72018411  *   0.85629436  *
    18       H          1.48291539  *   0.93357822  *  -1.29084976  *
    19       H          1.56852050  *  -1.94000471  *  -0.93781022  *
    20       H          2.63390378  *  -0.01668346  *  -0.35138546  *
    21       H          0.39671557  *  -1.02739043  *  -1.88870907  *
 


          CARTESIAN COORDINATES 

    NO.       ATOM           X           Y           Z

     1         O          0.9279     -0.1541      1.8498
     2         O          0.1880     -1.4899      1.4425
     3         C          0.9784      0.7725      0.8102
     4         C         -0.2660     -1.4744      0.1252
     5         C         -0.3583      1.5067      0.5964
     6         C         -1.5463     -0.6385     -0.0577
     7         C          1.5520      0.1784     -0.4845
     8         C          0.8387     -1.1094     -0.8772
     9         C         -1.2993      0.8243     -0.3802
    10         H          1.7116      1.4811      1.2708
    11         H         -0.5260     -2.5592      0.0390
    12         H         -0.9036      0.9201     -1.4128
    13         H         -2.2676      1.3635     -0.3896
    14         H         -0.1424      2.5297      0.2303
    15         H         -0.8637      1.6362      1.5748
    16         H         -2.1462     -1.0887     -0.8729
    17         H         -2.1687     -0.7202      0.8563
    18         H          1.4829      0.9336     -1.2908
    19         H          1.5685     -1.9400     -0.9378
    20         H          2.6339     -0.0167     -0.3514
    21         H          0.3967     -1.0274     -1.8887

  H: (PM3): J. J. P. STEWART, J. COMP. CHEM. 10, 209 (1989).
  C: (PM3): J. J. P. STEWART, J. COMP. CHEM. 10, 209 (1989).
  O: (PM3): J. J. P. STEWART, J. COMP. CHEM. 10, 209 (1989).

           Empirical Formula: C7 H12 O2  =    21 atoms



      MOLECULAR POINT GROUP   :   C1  


      RHF CALCULATION, NO. OF DOUBLY OCCUPIED LEVELS = 26



          HEAT OF FORMATION =     -37.318455 KCALS/MOLE


          CARTESIAN COORDINATE DERIVATIVES

   NUMBER  ATOM         X            Y            Z

     1       O      0.003783     0.004838    -0.005141
     2       O     -0.000593     0.005268    -0.014262
     3       C      0.000716     0.002163    -0.005732
     4       C      0.001160    -0.003489     0.000993
     5       C      0.005031    -0.000298    -0.006476
     6       C      0.004628     0.000987     0.003566
     7       C     -0.007013     0.001476     0.009238
     8       C     -0.006402     0.006686    -0.004304
     9       C      0.003723    -0.002615     0.002861
    10       H      0.001223    -0.001559     0.002588
    11       H      0.004450    -0.000943    -0.000616
    12       H     -0.004900     0.002740    -0.008024
    13       H     -0.003037    -0.005502     0.007066
    14       H      0.001368     0.000117    -0.005622
    15       H      0.000348     0.000109     0.004102
    16       H      0.002152    -0.004797     0.004047
    17       H     -0.009912     0.001081     0.009210
    18       H      0.004048    -0.003519    -0.002643
    19       H      0.012306     0.002861    -0.010813
    20       H     -0.016093    -0.001579     0.019228
    21       H      0.003015    -0.004026     0.000732
 


          GRADIENT NORM =   0.04675


          TIME FOR SCF CALCULATION =    0.02

          TIME FOR DERIVATIVES     =    0.01

          MOLECULAR WEIGHT =  128.17



          ROTATIONAL CONSTANTS IN CM(-1)

          A =    0.06818239   B =    0.06510862   C =    0.05587065



           PRINCIPAL MOMENTS OF INERTIA IN UNITS OF 10**(-40)*GRAM-CM**2

          A =      410.5573   B =      429.9396   C =      501.0283


          ORIENTATION OF MOLECULE IN FORCE CALCULATION

    NO.       ATOM         X         Y         Z

     1          O      -0.7902   -1.4799    0.2361
     2          O       0.7902   -1.4799    0.2361
     3          C      -1.3291   -0.1948    0.2361
     4          C       1.3291   -0.1948    0.2362
     5          C      -1.2689    0.4804   -1.1467
     6          C       1.2691    0.4804   -1.1465
     7          C      -0.7619    0.6846    1.3600
     8          C       0.7617    0.6847    1.3600
     9          C       0.0001    1.2736   -1.4024
    10          H      -2.3900   -0.4726    0.4579
    11          H       2.3900   -0.4726    0.4582
    12          H      -0.0000    2.1935   -0.7812
    13          H       0.0002    1.6320   -2.4512
    14          H      -2.1403    1.1572   -1.2453
    15          H      -1.3938   -0.2900   -1.9343
    16          H       2.1405    1.1572   -1.2449
    17          H       1.3940   -0.2899   -1.9341
    18          H      -1.1601    1.7117    1.2517
    19          H       1.1377    0.3212    2.3361
    20          H      -1.1379    0.3211    2.3361
    21          H       1.1599    1.7118    1.2517


    FIRST DERIVATIVES WILL BE USED IN THE CALCULATION OF SECOND DERIVATIVES

          ESTIMATED TIME TO COMPLETE CALCULATION =        8.12 SECONDS

    FOR POINT-GROUP C1   THERE ARE   1 UNIQUE SYMMETRY FUNCTIONS.

 STEP:   1 TIME =     0.06 SECS, INTEGRAL =      0.06 TIME LEFT: 172799.91
 STEP:   2 TIME =     0.04 SECS, INTEGRAL =      0.10 TIME LEFT: 172799.87
 STEP:   3 TIME =     0.04 SECS, INTEGRAL =      0.14 TIME LEFT: 172799.83
 STEP:   4 TIME =     0.04 SECS, INTEGRAL =      0.18 TIME LEFT: 172799.79
 STEP:   5 TIME =     0.05 SECS, INTEGRAL =      0.23 TIME LEFT: 172799.74
 STEP:   6 TIME =     0.05 SECS, INTEGRAL =      0.28 TIME LEFT: 172799.69
 STEP:   7 TIME =     0.04 SECS, INTEGRAL =      0.32 TIME LEFT: 172799.65
 STEP:   8 TIME =     0.04 SECS, INTEGRAL =      0.36 TIME LEFT: 172799.61
 STEP:   9 TIME =     0.04 SECS, INTEGRAL =      0.40 TIME LEFT: 172799.57
 STEP:  10 TIME =     0.04 SECS, INTEGRAL =      0.44 TIME LEFT: 172799.53
 STEP:  11 TIME =     0.04 SECS, INTEGRAL =      0.48 TIME LEFT: 172799.49
 STEP:  12 TIME =     0.04 SECS, INTEGRAL =      0.52 TIME LEFT: 172799.45
 STEP:  13 TIME =     0.04 SECS, INTEGRAL =      0.56 TIME LEFT: 172799.41
 STEP:  14 TIME =     0.04 SECS, INTEGRAL =      0.60 TIME LEFT: 172799.37
 STEP:  15 TIME =     0.04 SECS, INTEGRAL =      0.64 TIME LEFT: 172799.33
 STEP:  16 TIME =     0.05 SECS, INTEGRAL =      0.68 TIME LEFT: 172799.29
 STEP:  17 TIME =     0.04 SECS, INTEGRAL =      0.73 TIME LEFT: 172799.24
 STEP:  18 TIME =     0.04 SECS, INTEGRAL =      0.76 TIME LEFT: 172799.20
 STEP:  19 TIME =     0.04 SECS, INTEGRAL =      0.80 TIME LEFT: 172799.16
 STEP:  20 TIME =     0.04 SECS, INTEGRAL =      0.84 TIME LEFT: 172799.12
 STEP:  21 TIME =     0.04 SECS, INTEGRAL =      0.88 TIME LEFT: 172799.09
 STEP:  22 TIME =     0.04 SECS, INTEGRAL =      0.92 TIME LEFT: 172799.05
 STEP:  23 TIME =     0.04 SECS, INTEGRAL =      0.96 TIME LEFT: 172799.01
 STEP:  24 TIME =     0.04 SECS, INTEGRAL =      1.00 TIME LEFT: 172798.97
 STEP:  25 TIME =     0.04 SECS, INTEGRAL =      1.04 TIME LEFT: 172798.93
 STEP:  26 TIME =     0.04 SECS, INTEGRAL =      1.08 TIME LEFT: 172798.89
 STEP:  27 TIME =     0.04 SECS, INTEGRAL =      1.11 TIME LEFT: 172798.85
 STEP:  28 TIME =     0.04 SECS, INTEGRAL =      1.15 TIME LEFT: 172798.82
 STEP:  29 TIME =     0.04 SECS, INTEGRAL =      1.19 TIME LEFT: 172798.78
 STEP:  30 TIME =     0.04 SECS, INTEGRAL =      1.23 TIME LEFT: 172798.74
 STEP:  31 TIME =     0.04 SECS, INTEGRAL =      1.27 TIME LEFT: 172798.70
 STEP:  32 TIME =     0.04 SECS, INTEGRAL =      1.31 TIME LEFT: 172798.66
 STEP:  33 TIME =     0.04 SECS, INTEGRAL =      1.35 TIME LEFT: 172798.62
 STEP:  34 TIME =     0.04 SECS, INTEGRAL =      1.39 TIME LEFT: 172798.58
 STEP:  35 TIME =     0.04 SECS, INTEGRAL =      1.43 TIME LEFT: 172798.54
 STEP:  36 TIME =     0.04 SECS, INTEGRAL =      1.47 TIME LEFT: 172798.50
 STEP:  37 TIME =     0.04 SECS, INTEGRAL =      1.51 TIME LEFT: 172798.46
 STEP:  38 TIME =     0.04 SECS, INTEGRAL =      1.55 TIME LEFT: 172798.42
 STEP:  39 TIME =     0.04 SECS, INTEGRAL =      1.58 TIME LEFT: 172798.38
 STEP:  40 TIME =     0.04 SECS, INTEGRAL =      1.62 TIME LEFT: 172798.35
 STEP:  41 TIME =     0.04 SECS, INTEGRAL =      1.66 TIME LEFT: 172798.30
 STEP:  42 TIME =     0.04 SECS, INTEGRAL =      1.70 TIME LEFT: 172798.26
 STEP:  43 TIME =     0.04 SECS, INTEGRAL =      1.75 TIME LEFT: 172798.22
 STEP:  44 TIME =     0.04 SECS, INTEGRAL =      1.79 TIME LEFT: 172798.18
 STEP:  45 TIME =     0.04 SECS, INTEGRAL =      1.82 TIME LEFT: 172798.14
 STEP:  46 TIME =     0.04 SECS, INTEGRAL =      1.86 TIME LEFT: 172798.11
 STEP:  47 TIME =     0.04 SECS, INTEGRAL =      1.90 TIME LEFT: 172798.06
 STEP:  48 TIME =     0.04 SECS, INTEGRAL =      1.94 TIME LEFT: 172798.02
 STEP:  49 TIME =     0.06 SECS, INTEGRAL =      2.00 TIME LEFT: 172797.97
 STEP:  50 TIME =     0.19 SECS, INTEGRAL =      2.19 TIME LEFT: 172797.78
 STEP:  51 TIME =     0.06 SECS, INTEGRAL =      2.25 TIME LEFT: 172797.72
 STEP:  52 TIME =     0.06 SECS, INTEGRAL =      2.31 TIME LEFT: 172797.66
 STEP:  53 TIME =     0.05 SECS, INTEGRAL =      2.36 TIME LEFT: 172797.60
 STEP:  54 TIME =     0.04 SECS, INTEGRAL =      2.41 TIME LEFT: 172797.56
 STEP:  55 TIME =     0.04 SECS, INTEGRAL =      2.45 TIME LEFT: 172797.52
 STEP:  56 TIME =     0.04 SECS, INTEGRAL =      2.49 TIME LEFT: 172797.48
 STEP:  57 TIME =     0.04 SECS, INTEGRAL =      2.52 TIME LEFT: 172797.44
 STEP:  58 TIME =     0.04 SECS, INTEGRAL =      2.56 TIME LEFT: 172797.40
 STEP:  59 TIME =     0.04 SECS, INTEGRAL =      2.60 TIME LEFT: 172797.37
 STEP:  60 TIME =     0.04 SECS, INTEGRAL =      2.64 TIME LEFT: 172797.33
 STEP:  61 TIME =     0.04 SECS, INTEGRAL =      2.68 TIME LEFT: 172797.29
 STEP:  62 TIME =     0.04 SECS, INTEGRAL =      2.72 TIME LEFT: 172797.25
 STEP:  63 TIME =     0.04 SECS, INTEGRAL =      2.76 TIME LEFT: 172797.21

(To convert to Hartree/Bohr^2, multiply by (10^(-21) x N x a0^2)/(4.184 x 627.51) =  0.0642)


           FORCE MATRIX IN MILLIDYNES/ANGSTROM


                  O  1       O  2       C  3       C  4       C  5       C  6
 ------------------------------------------------------------------------------
     O    1   8.474732
     O    2   2.085797   8.475010
     C    3   5.387728   1.042950  14.415982
     C    4   1.043111   5.387750   0.101637  14.415429
     C    5   0.878001   0.046485   3.501983   0.039839  14.172930
     C    6   0.046599   0.878178   0.039840   3.502495   0.619102  14.173252
     C    7   0.919436   0.085655   3.613946   0.629083   0.548263   0.025985
     C    8   0.085741   0.919299   0.628970   3.614256   0.025919   0.548363
     C    9   0.023006   0.023024   0.575101   0.575296   4.246072   4.246031
     H   10   0.747978   0.123182   4.139337   0.015210   0.403941   0.003856
     H   11   0.123159   0.747848   0.015199   4.139138   0.003868   0.403961
     H   12   0.002024   0.002037   0.013944   0.013980   0.444237   0.444157
     H   13   0.003614   0.003623   0.047911   0.047879   0.432045   0.432028
     H   14   0.061059   0.006666   0.412053   0.005743   4.480419   0.050762
     H   15   0.068774   0.005572   0.461091   0.006241   4.462014   0.011335
     H   16   0.006638   0.060995   0.005822   0.411964   0.050796   4.480589
     H   17   0.005613   0.068794   0.006188   0.461103   0.011352   4.462212
     H   18   0.069514   0.008420   0.428051   0.028212   0.030655   0.001446
     H   19   0.004263   0.022927   0.027593   0.447587   0.001069   0.046754
     H   20   0.022921   0.004247   0.447608   0.027556   0.046750   0.001087
     H   21   0.008403   0.069435   0.028224   0.428077   0.001447   0.030668


                  C  7       C  8       C  9       H 10       H 11       H 12
 ------------------------------------------------------------------------------
     C    7  14.222060
     C    8   4.106824  14.222722
     C    9   0.062917   0.062891  14.327654
     H   10   0.417379   0.047435   0.043091   4.828557
     H   11   0.047429   0.417461   0.043113   0.007539   4.828355
     H   12   0.028605   0.028621   4.387483   0.001573   0.001569   5.016397
     H   13   0.003612   0.003597   4.459596   0.007789   0.007777   0.578856
     H   14   0.012442   0.001651   0.431725   0.038853   0.001273   0.036382
     H   15   0.044714   0.001569   0.441473   0.021757   0.000878   0.045409
     H   16   0.001636   0.012438   0.431626   0.001283   0.038852   0.036414
     H   17   0.001540   0.044708   0.441398   0.000893   0.021751   0.045421
     H   18   4.503911   0.442120   0.017201   0.016860   0.004875   0.027973
     H   19   0.436417   4.505152   0.004225   0.003807   0.037992   0.000573
     H   20   4.504250   0.436431   0.004219   0.038016   0.003823   0.000574
     H   21   0.442156   4.503778   0.017180   0.004883   0.016854   0.027977


                  H 13       H 14       H 15       H 16       H 17       H 18
 ------------------------------------------------------------------------------
     H   13   5.072738
     H   14   0.032194   5.074731
     H   15   0.036197   0.562647   5.072628
     H   16   0.032215   0.008534   0.001685   5.074796
     H   17   0.036217   0.001698   0.006085   0.562530   5.072724
     H   18   0.000686   0.006845   0.002275   0.000480   0.000395   5.107823
     H   19   0.000385   0.000455   0.000412   0.000747   0.007474   0.025859
     H   20   0.000378   0.000723   0.007477   0.000472   0.000423   0.573962
     H   21   0.000683   0.000475   0.000384   0.006873   0.002284   0.027554


                  H 19       H 20       H 21
 ------------------------------------------
     H   19   5.095217
     H   20   0.022022   5.094322
     H   21   0.574088   0.025870   5.107781


          HEAT OF FORMATION =     -37.318455 KCALS/MOLE

          ZERO POINT ENERGY     113.986 KCAL/MOL


           NORMAL COORDINATE ANALYSIS (Total motion = 1 Angstrom)


   Root No.       1         2         3         4         5         6         7         8

                 1 A       2 A       3 A       4 A       5 A       6 A       7 A       8 A   

                 109.3     238.4     253.8     314.4     363.8     427.4     474.5     497.6
  
           1    0.0091    0.0215   -0.0012    0.0181   -0.0019   -0.0006   -0.0219   -0.0108
           2   -0.0017    0.0043   -0.0044   -0.0026    0.0184   -0.0205   -0.0275    0.0213
           3   -0.0451   -0.0227    0.0165    0.0430    0.0084    0.0502   -0.0313    0.0190
           4    0.0091    0.0215    0.0011    0.0181    0.0019    0.0006   -0.0218    0.0109
           5    0.0017   -0.0044   -0.0044    0.0026    0.0184   -0.0205    0.0276    0.0212
           6    0.0451    0.0228    0.0164   -0.0430    0.0084    0.0502    0.0312    0.0190
           7    0.0018    0.0070    0.0007   -0.0035    0.0034    0.0116   -0.0128   -0.0354
           8   -0.0041   -0.0006   -0.0032   -0.0110    0.0207   -0.0142   -0.0259    0.0059
           9   -0.0054   -0.0071   -0.0111    0.0055   -0.0050   -0.0216    0.0336   -0.0158
          10    0.0018    0.0070   -0.0007   -0.0035   -0.0034   -0.0116   -0.0127    0.0355
          11    0.0041    0.0006   -0.0032    0.0110    0.0207   -0.0142    0.0259    0.0058
          12    0.0054    0.0070   -0.0111   -0.0055   -0.0050   -0.0217   -0.0336   -0.0158
          13   -0.0110   -0.0253    0.0205    0.0099    0.0127    0.0093    0.0312   -0.0339
          14    0.0343    0.0124   -0.0141    0.0273   -0.0092    0.0343   -0.0153    0.0025
          15    0.0131   -0.0007   -0.0179    0.0243   -0.0224   -0.0036    0.0396   -0.0123
          16   -0.0110   -0.0254   -0.0204    0.0099   -0.0127   -0.0092    0.0313    0.0339
          17   -0.0343   -0.0124   -0.0140   -0.0274   -0.0092    0.0343    0.0153    0.0025
          18   -0.0131    0.0006   -0.0178   -0.0244   -0.0224   -0.0037   -0.0396   -0.0123
          19   -0.0038    0.0038   -0.0009   -0.0391   -0.0003   -0.0002   -0.0041   -0.0036
          20   -0.0271    0.0318    0.0046    0.0062   -0.0249   -0.0207    0.0071   -0.0180
          21    0.0147   -0.0296   -0.0151    0.0016    0.0334   -0.0158    0.0022   -0.0159
          22   -0.0039    0.0038    0.0010   -0.0391    0.0003    0.0002   -0.0041    0.0036
          23    0.0271   -0.0318    0.0047   -0.0062   -0.0249   -0.0207   -0.0071   -0.0180
          24   -0.0147    0.0295   -0.0152   -0.0017    0.0334   -0.0158   -0.0022   -0.0159
          25    0.0078   -0.0179    0.0000    0.0268    0.0000    0.0000    0.0199   -0.0000
          26    0.0000    0.0001    0.0391    0.0000    0.0021    0.0407   -0.0000   -0.0352
          27    0.0000    0.0001    0.0492    0.0000   -0.0325   -0.0339    0.0000    0.0291
          28    0.0037    0.0153   -0.0021   -0.0026   -0.0025    0.0036   -0.0163   -0.0332
          29   -0.0164   -0.0203    0.0030   -0.0383    0.0314   -0.0088   -0.0079    0.0026
          30   -0.0107    0.0089   -0.0186   -0.0210   -0.0198   -0.0475    0.0312   -0.0091
          31    0.0037    0.0153    0.0020   -0.0026    0.0025   -0.0036   -0.0163    0.0332
          32    0.0164    0.0203    0.0029    0.0383    0.0314   -0.0088    0.0079    0.0026
          33    0.0107   -0.0090   -0.0186    0.0210   -0.0198   -0.0475   -0.0312   -0.0090
          34    0.0378   -0.0052   -0.0000    0.0648    0.0000    0.0000    0.0398   -0.0000
          35    0.0000   -0.0000   -0.0150   -0.0000    0.0002    0.0637   -0.0001   -0.0716
          36   -0.0000    0.0003    0.1290    0.0001   -0.0309   -0.0685    0.0001    0.0861
          37    0.0066   -0.0126    0.0000    0.0101    0.0000   -0.0000   -0.0314   -0.0000
          38   -0.0000    0.0003    0.1346    0.0001   -0.0030    0.0020    0.0000    0.0300
          39   -0.0000    0.0002    0.0823    0.0001   -0.0341   -0.0478    0.0001    0.0522
          40    0.0082   -0.0202   -0.0095    0.0330   -0.0007    0.0130    0.0307   -0.0010
          41    0.0654    0.0233   -0.0610    0.0647   -0.0329    0.0494   -0.0179    0.0490
          42    0.0561    0.0284   -0.0663    0.0706   -0.0612    0.0566    0.0300    0.0036
          43   -0.0575   -0.0492    0.1037   -0.0392    0.0432   -0.0270    0.0411   -0.0776
          44    0.0604    0.0266   -0.0258    0.0557   -0.0391    0.0659   -0.0183    0.0233
          45   -0.0050   -0.0101   -0.0198    0.0059    0.0005   -0.0267    0.0399   -0.0238
          46    0.0082   -0.0202    0.0095    0.0330    0.0007   -0.0130    0.0307    0.0010
          47   -0.0654   -0.0236   -0.0608   -0.0649   -0.0329    0.0494    0.0179    0.0490
          48   -0.0561   -0.0287   -0.0661   -0.0708   -0.0612    0.0566   -0.0300    0.0037
          49   -0.0574   -0.0498   -0.1034   -0.0394   -0.0431    0.0271    0.0411    0.0776
          50   -0.0604   -0.0267   -0.0256   -0.0557   -0.0391    0.0659    0.0182    0.0233
          51    0.0049    0.0100   -0.0199   -0.0059    0.0004   -0.0268   -0.0399   -0.0238
          52   -0.0400    0.0516   -0.0043   -0.0366   -0.0011    0.0010    0.0114   -0.0018
          53   -0.0366    0.0437    0.0033    0.0052   -0.0208   -0.0200    0.0070   -0.0132
          54    0.0585   -0.1019   -0.0152   -0.0207    0.0890   -0.0093   -0.0701    0.0309
          55    0.0273   -0.0505   -0.0004   -0.0493   -0.0010    0.0016   -0.0146   -0.0141
          56    0.0764   -0.1067    0.0070   -0.0265   -0.0828   -0.0298   -0.0829   -0.0533
          57   -0.0084    0.0231   -0.0138   -0.0051    0.0133   -0.0197   -0.0251   -0.0213
          58    0.0273   -0.0505    0.0007   -0.0493    0.0011   -0.0016   -0.0145    0.0141
          59   -0.0764    0.1067    0.0064    0.0265   -0.0828   -0.0298    0.0829   -0.0533
          60    0.0084   -0.0232   -0.0137    0.0051    0.0134   -0.0197    0.0251   -0.0213
          61   -0.0400    0.0516    0.0041   -0.0366    0.0011   -0.0010    0.0114    0.0017
          62    0.0366   -0.0437    0.0035   -0.0052   -0.0208   -0.0200   -0.0070   -0.0132
          63   -0.0585    0.1019   -0.0158    0.0207    0.0890   -0.0092    0.0701    0.0308


   Root No.       9        10        11        12        13        14        15        16

                 9 A      10 A      11 A      12 A      13 A      14 A      15 A      16 A   

                 532.7     655.6     737.1     793.4     849.2     874.8     876.8     914.4
  
           1   -0.0280   -0.0312    0.0743    0.0105   -0.0135   -0.0034    0.0096   -0.0052
           2   -0.0406    0.0059    0.0290    0.0077    0.0020    0.0149   -0.0194   -0.0093
           3    0.0212   -0.0021    0.0042    0.0026   -0.0039    0.0012    0.0015    0.0043
           4   -0.0280    0.0312   -0.0743   -0.0105   -0.0135   -0.0034   -0.0097    0.0052
           5    0.0406    0.0059    0.0290    0.0077   -0.0019   -0.0149   -0.0194   -0.0094
           6   -0.0212   -0.0021    0.0042    0.0026    0.0039   -0.0012    0.0015    0.0043
           7    0.0024   -0.0426   -0.0119   -0.0082    0.0350    0.0088   -0.0182    0.0284
           8   -0.0354   -0.0039   -0.0035   -0.0053    0.0088    0.0115   -0.0117    0.0117
           9   -0.0270    0.0104   -0.0023    0.0037   -0.0066   -0.0126    0.0147   -0.0193
          10    0.0024    0.0426    0.0118    0.0082    0.0350    0.0088    0.0183   -0.0285
          11    0.0354   -0.0039   -0.0035   -0.0053   -0.0087   -0.0115   -0.0117    0.0117
          12    0.0270    0.0104   -0.0023    0.0037    0.0066    0.0126    0.0147   -0.0193
          13   -0.0066    0.0063   -0.0000   -0.0074    0.0137    0.0064   -0.0428   -0.0287
          14    0.0067    0.0053   -0.0012    0.0035   -0.0286    0.0058    0.0157    0.0128
          15   -0.0110    0.0179    0.0201   -0.0158    0.0013    0.0370   -0.0182   -0.0050
          16   -0.0066   -0.0063    0.0000    0.0074    0.0136    0.0064    0.0428    0.0287
          17   -0.0067    0.0053   -0.0012    0.0035    0.0285   -0.0058    0.0158    0.0129
          18    0.0110    0.0179    0.0201   -0.0158   -0.0013   -0.0370   -0.0183   -0.0050
          19    0.0385   -0.0021   -0.0044   -0.0051   -0.0125    0.0011   -0.0041    0.0069
          20   -0.0267   -0.0159   -0.0183   -0.0213    0.0116   -0.0120    0.0156   -0.0026
          21   -0.0362   -0.0145   -0.0250    0.0234    0.0046   -0.0346    0.0096    0.0065
          22    0.0385    0.0021    0.0044    0.0051   -0.0125    0.0011    0.0041   -0.0069
          23    0.0267   -0.0159   -0.0183   -0.0213   -0.0116    0.0119    0.0156   -0.0026
          24    0.0361   -0.0144   -0.0250    0.0234   -0.0047    0.0346    0.0097    0.0065
          25    0.0042   -0.0000   -0.0000   -0.0000   -0.0120   -0.0145   -0.0000    0.0000
          26   -0.0000    0.0194    0.0039    0.0033   -0.0000   -0.0000    0.0257   -0.0136
          27    0.0000   -0.0017    0.0157   -0.0116    0.0000    0.0000   -0.0241    0.0465
          28   -0.0069   -0.0460    0.0086   -0.0068    0.0221    0.0031    0.0035    0.0269
          29    0.0125    0.0080   -0.0859   -0.0220    0.0392    0.0139   -0.0520    0.0323
          30   -0.0127    0.0069   -0.0132   -0.0138   -0.0181   -0.0215    0.0630   -0.0005
          31   -0.0069    0.0460   -0.0086    0.0068    0.0220    0.0030   -0.0034   -0.0269
          32   -0.0125    0.0080   -0.0859   -0.0220   -0.0392   -0.0137   -0.0521    0.0324
          33    0.0127    0.0069   -0.0132   -0.0139    0.0180    0.0214    0.0631   -0.0005
          34    0.0085    0.0000    0.0000   -0.0000   -0.0714    0.0450    0.0000   -0.0000
          35   -0.0001    0.0817    0.0577   -0.0224    0.0000   -0.0000    0.0081    0.0621
          36    0.0001   -0.0988   -0.0685    0.0285   -0.0000    0.0000   -0.0007   -0.0722
          37    0.0182    0.0000   -0.0000   -0.0000   -0.0324   -0.1190   -0.0002    0.0000
          38    0.0000   -0.0882   -0.0935    0.0581   -0.0001   -0.0001    0.0571   -0.1561
          39    0.0000   -0.0409   -0.0190    0.0074   -0.0000    0.0000   -0.0128   -0.0037
          40    0.0129   -0.0131   -0.0193   -0.0034    0.0321   -0.0292   -0.0768   -0.0521
          41    0.0439   -0.0315   -0.0335    0.0086    0.0163   -0.0446   -0.0384   -0.0264
          42    0.0588   -0.0484   -0.0177   -0.0170    0.1150    0.0091   -0.0745   -0.0656
          43   -0.0598    0.0784    0.0525   -0.0145   -0.0973    0.0662    0.0170    0.0357
          44    0.0550   -0.0222   -0.0190    0.0043    0.0102   -0.0225   -0.0135   -0.0038
          45   -0.0468    0.0305    0.0266   -0.0147   -0.0166    0.0519    0.0005   -0.0023
          46    0.0130    0.0131    0.0193    0.0034    0.0321   -0.0294    0.0767    0.0522
          47   -0.0438   -0.0315   -0.0334    0.0086   -0.0162    0.0446   -0.0383   -0.0264
          48   -0.0588   -0.0484   -0.0176   -0.0170   -0.1149   -0.0089   -0.0747   -0.0657
          49   -0.0597   -0.0784   -0.0524    0.0145   -0.0973    0.0662   -0.0169   -0.0358
          50   -0.0550   -0.0222   -0.0190    0.0043   -0.0102    0.0225   -0.0135   -0.0038
          51    0.0468    0.0305    0.0266   -0.0147    0.0166   -0.0519    0.0004   -0.0023
          52    0.0269    0.0239   -0.0030    0.0868   -0.0204   -0.0197   -0.0455    0.0402
          53   -0.0338   -0.0078   -0.0167    0.0035    0.0116   -0.0179    0.0018    0.0089
          54   -0.0603   -0.0396   -0.0028   -0.1131    0.0294   -0.0116    0.0431   -0.0125
          55    0.0240   -0.0007   -0.0149    0.1029   -0.0302   -0.0368   -0.0479    0.0497
          56    0.0208    0.0200   -0.0371    0.1216    0.0164    0.0701   -0.0095    0.0050
          57    0.0401   -0.0007   -0.0244    0.0354    0.0113    0.0700    0.0219   -0.0131
          58    0.0240    0.0007    0.0149   -0.1029   -0.0302   -0.0369    0.0477   -0.0497
          59   -0.0210    0.0200   -0.0371    0.1216   -0.0164   -0.0700   -0.0097    0.0049
          60   -0.0401   -0.0007   -0.0244    0.0354   -0.0114   -0.0700    0.0217   -0.0132
          61    0.0269   -0.0239    0.0030   -0.0868   -0.0204   -0.0198    0.0454   -0.0401
          62    0.0337   -0.0077   -0.0167    0.0035   -0.0116    0.0179    0.0019    0.0089
          63    0.0603   -0.0396   -0.0028   -0.1131   -0.0294    0.0115    0.0430   -0.0126


   Root No.      17        18        19        20        21        22        23        24

                17 A      18 A      19 A      20 A      21 A      22 A      23 A      24 A   

                 929.2     936.8     974.5    1019.3    1029.0    1046.3    1072.2    1077.8
  
           1   -0.0136   -0.0023    0.0027   -0.0075    0.0011   -0.0082   -0.0095   -0.0051
           2   -0.0224    0.0074   -0.0303    0.0180   -0.0087    0.0029    0.0161    0.0129
           3    0.0022    0.0010   -0.0014   -0.0011   -0.0007   -0.0005    0.0014   -0.0005
           4   -0.0136    0.0024    0.0027    0.0075    0.0011    0.0082    0.0095   -0.0051
           5    0.0224    0.0073    0.0303    0.0180    0.0087    0.0029    0.0161   -0.0129
           6   -0.0022    0.0010    0.0014   -0.0011    0.0007   -0.0005    0.0014    0.0005
           7    0.0489    0.0215   -0.0069    0.0006    0.0081    0.0068    0.0191   -0.0005
           8    0.0017    0.0111   -0.0056   -0.0103    0.0044    0.0038   -0.0050   -0.0067
           9   -0.0019    0.0143   -0.0111   -0.0033    0.0176   -0.0098    0.0001    0.0031
          10    0.0488   -0.0217   -0.0069   -0.0006    0.0081   -0.0068   -0.0191   -0.0005
          11   -0.0017    0.0112    0.0056   -0.0103   -0.0044    0.0038   -0.0050    0.0067
          12    0.0019    0.0143    0.0111   -0.0033   -0.0176   -0.0098    0.0001   -0.0031
          13   -0.0120   -0.0118   -0.0013   -0.0088   -0.0090   -0.0131   -0.0047   -0.0000
          14    0.0291   -0.0003    0.0066   -0.0303    0.0002   -0.0015    0.0074   -0.0042
          15   -0.0034    0.0071    0.0060   -0.0137   -0.0025    0.0224    0.0002   -0.0067
          16   -0.0120    0.0118   -0.0013    0.0088   -0.0090    0.0131    0.0047   -0.0000
          17   -0.0291   -0.0002   -0.0066   -0.0303   -0.0003   -0.0015    0.0074    0.0042
          18    0.0034    0.0071   -0.0060   -0.0137    0.0025    0.0223    0.0002    0.0066
          19   -0.0123    0.0283   -0.0018    0.0010   -0.0070   -0.0164   -0.0113   -0.0012
          20   -0.0002   -0.0252    0.0427    0.0017    0.0057    0.0041   -0.0105    0.0078
          21    0.0210   -0.0242   -0.0021    0.0070   -0.0205   -0.0030    0.0049   -0.0057
          22   -0.0124   -0.0283   -0.0018   -0.0010   -0.0070    0.0164    0.0113   -0.0012
          23    0.0001   -0.0252   -0.0426    0.0017   -0.0057    0.0041   -0.0105   -0.0078
          24   -0.0210   -0.0242    0.0021    0.0069    0.0205   -0.0030    0.0049    0.0057
          25   -0.0127    0.0000   -0.0022   -0.0000    0.0173    0.0000    0.0000    0.0062
          26   -0.0000    0.0096    0.0000    0.0330    0.0000    0.0038   -0.0096   -0.0000
          27    0.0000   -0.0177    0.0000    0.0118    0.0000   -0.0192    0.0021    0.0000
          28    0.0362    0.0277   -0.0043    0.0102    0.0223   -0.0018    0.0093    0.0199
          29    0.0399    0.0604   -0.0109   -0.0187    0.0433   -0.0339   -0.0168   -0.0410
          30   -0.0147    0.1034   -0.0179    0.0507    0.1279   -0.0743   -0.0434    0.0761
          31    0.0361   -0.0278   -0.0043   -0.0102    0.0223    0.0018   -0.0093    0.0198
          32   -0.0397    0.0605    0.0108   -0.0186   -0.0433   -0.0339   -0.0169    0.0410
          33    0.0149    0.1034    0.0178    0.0508   -0.1278   -0.0743   -0.0434   -0.0760
          34    0.0259   -0.0000    0.0314    0.0000   -0.0055   -0.0000    0.0000    0.0607
          35    0.0000   -0.0264    0.0000    0.0801    0.0000   -0.0327   -0.0141   -0.0000
          36   -0.0000    0.0377   -0.0000   -0.0632   -0.0000    0.0346    0.0079    0.0000
          37    0.0097    0.0000   -0.0311   -0.0001    0.1068    0.0000   -0.0000    0.0173
          38   -0.0000    0.0790   -0.0000   -0.0374   -0.0000    0.0619   -0.0114   -0.0000
          39    0.0000    0.0083   -0.0000   -0.0127    0.0000    0.0038    0.0021   -0.0000
          40   -0.0699   -0.0352   -0.0171   -0.0585    0.0100   -0.0682   -0.0208   -0.0518
          41   -0.0527   -0.0311   -0.0157   -0.0720    0.0175   -0.0695   -0.0152   -0.0604
          42   -0.0420    0.0093   -0.0034    0.1365   -0.0396    0.0418   -0.0119    0.0827
          43    0.0776   -0.0162    0.0432   -0.0259   -0.0346    0.0015    0.0136    0.0609
          44    0.0026   -0.0330    0.0163    0.0538   -0.0349   -0.0385   -0.0049    0.0692
          45    0.0061    0.0403   -0.0113   -0.0910    0.0371    0.0547    0.0081   -0.0862
          46   -0.0697    0.0353   -0.0172    0.0585    0.0101    0.0682    0.0209   -0.0518
          47    0.0526   -0.0312    0.0157   -0.0720   -0.0176   -0.0695   -0.0152    0.0605
          48    0.0420    0.0092    0.0035    0.1365    0.0397    0.0418   -0.0118   -0.0827
          49    0.0776    0.0160    0.0432    0.0260   -0.0346   -0.0015   -0.0136    0.0609
          50   -0.0027   -0.0330   -0.0163    0.0538    0.0349   -0.0385   -0.0048   -0.0692
          51   -0.0060    0.0404    0.0112   -0.0909   -0.0372    0.0547    0.0081    0.0862
          52   -0.0342    0.0469    0.0653   -0.0040   -0.0584   -0.0020   -0.1795   -0.0461
          53   -0.0125   -0.0188    0.0833   -0.0014   -0.0103    0.0111   -0.0886   -0.0089
          54   -0.0340   -0.0403    0.1630    0.0032    0.0128    0.0104   -0.1093    0.0034
          55   -0.0268   -0.0400    0.0023    0.0021   -0.0168    0.0868   -0.0723    0.0415
          56   -0.0478   -0.0068    0.0733   -0.0022    0.0535   -0.0292    0.0365    0.0062
          57   -0.0335   -0.0121    0.0421    0.0046    0.0438   -0.0432    0.0539   -0.0059
          58   -0.0268    0.0401    0.0024   -0.0021   -0.0167   -0.0867    0.0721    0.0416
          59    0.0477   -0.0069   -0.0732   -0.0022   -0.0535   -0.0292    0.0365   -0.0062
          60    0.0335   -0.0122   -0.0421    0.0047   -0.0438   -0.0432    0.0539    0.0059
          61   -0.0344   -0.0467    0.0654    0.0040   -0.0584    0.0020    0.1797   -0.0460
          62    0.0124   -0.0189   -0.0833   -0.0014    0.0102    0.0111   -0.0887    0.0089
          63    0.0339   -0.0404   -0.1629    0.0032   -0.0128    0.0104   -0.1092   -0.0034


   Root No.      25        26        27        28        29        30        31        32

                25 A      26 A      27 A      28 A      29 A      30 A      31 A      32 A   

                1110.7    1120.3    1138.3    1151.6    1152.4    1180.1    1180.2    1228.9
  
           1   -0.0041    0.0034   -0.0025   -0.0147   -0.0038    0.0181    0.0112   -0.0000
           2    0.0058   -0.0010    0.0031    0.0067    0.0062   -0.0149   -0.0056   -0.0012
           3   -0.0002    0.0003    0.0004   -0.0002    0.0011   -0.0012   -0.0008    0.0014
           4   -0.0041    0.0034    0.0025   -0.0148    0.0036   -0.0199    0.0086   -0.0000
           5   -0.0058    0.0010    0.0031   -0.0068    0.0061   -0.0157    0.0036    0.0012
           6    0.0002   -0.0003    0.0004    0.0002    0.0011   -0.0013    0.0007   -0.0014
           7    0.0010   -0.0011    0.0010    0.0149    0.0030   -0.0153   -0.0101   -0.0049
           8   -0.0023    0.0023   -0.0039   -0.0048   -0.0071    0.0084    0.0067    0.0020
           9    0.0060    0.0008   -0.0051   -0.0043    0.0039   -0.0010   -0.0048   -0.0372
          10    0.0010   -0.0011   -0.0010    0.0150   -0.0028    0.0169   -0.0080   -0.0050
          11    0.0023   -0.0023   -0.0039    0.0049   -0.0070    0.0095   -0.0055   -0.0021
          12   -0.0060   -0.0008   -0.0051    0.0043    0.0040   -0.0018    0.0046    0.0372
          13   -0.0021   -0.0034   -0.0004   -0.0152    0.0076   -0.0023   -0.0107    0.0054
          14    0.0020   -0.0081    0.0095   -0.0125    0.0148    0.0014   -0.0117    0.0061
          15    0.0077   -0.0103    0.0061   -0.0032    0.0030    0.0046    0.0047    0.0072
          16   -0.0021   -0.0034    0.0004   -0.0151   -0.0078    0.0042   -0.0103    0.0054
          17   -0.0020    0.0081    0.0095    0.0122    0.0150   -0.0007    0.0117   -0.0061
          18   -0.0077    0.0103    0.0061    0.0031    0.0030    0.0054   -0.0040   -0.0072
          19    0.0022   -0.0031    0.0174    0.0026   -0.0075   -0.0082   -0.0022   -0.0106
          20   -0.0129   -0.0181    0.0010    0.0052    0.0011   -0.0011    0.0001   -0.0076
          21    0.0044    0.0130    0.0022    0.0024   -0.0026    0.0023   -0.0005    0.0030
          22    0.0022   -0.0032   -0.0174    0.0025    0.0076    0.0085   -0.0011   -0.0106
          23    0.0129    0.0182    0.0009   -0.0052    0.0011   -0.0010   -0.0003    0.0076
          24   -0.0044   -0.0130    0.0023   -0.0024   -0.0026    0.0022    0.0008   -0.0030
          25    0.0064    0.0046    0.0000    0.0222    0.0002   -0.0012    0.0132    0.0139
          26   -0.0000    0.0000   -0.0227    0.0003   -0.0306   -0.0078   -0.0005    0.0000
          27   -0.0000   -0.0000   -0.0090    0.0001   -0.0126   -0.0057   -0.0004    0.0000
          28    0.0033    0.0060   -0.0050    0.0374    0.0282   -0.0546   -0.0480    0.0266
          29   -0.0476    0.0463   -0.0351   -0.1588   -0.0265    0.1954    0.1328   -0.0061
          30   -0.0205    0.0788   -0.0685   -0.0369    0.1138   -0.0178   -0.0669    0.1085
          31    0.0034    0.0060    0.0050    0.0380   -0.0277    0.0626   -0.0401    0.0266
          32    0.0477   -0.0464   -0.0351    0.1594   -0.0242    0.2168   -0.1052    0.0061
          33    0.0204   -0.0789   -0.0685    0.0347    0.1144   -0.0297    0.0637   -0.1086
          34   -0.0935    0.1385    0.0000    0.1929    0.0016   -0.0118    0.1310   -0.0668
          35   -0.0000   -0.0000   -0.0455    0.0005   -0.0570   -0.0180   -0.0012    0.0000
          36    0.0000    0.0000    0.0231   -0.0002    0.0256    0.0077    0.0005   -0.0000
          37    0.1793   -0.1012   -0.0000    0.0078    0.0001   -0.0092    0.1008   -0.0166
          38    0.0000    0.0000    0.0091   -0.0001    0.0082    0.0068    0.0005   -0.0000
          39    0.0000   -0.0000    0.0021    0.0000   -0.0009   -0.0003   -0.0000    0.0000
          40   -0.0400    0.0072   -0.0410   -0.0065   -0.0010   -0.0386   -0.0561   -0.0284
          41   -0.0435    0.0064   -0.0401   -0.0071    0.0003   -0.0373   -0.0622   -0.0341
          42    0.0415    0.0003    0.0299   -0.0251    0.0009    0.0455    0.0627    0.0306
          43    0.0156   -0.0042    0.0718   -0.0687    0.1103    0.0377   -0.0264   -0.0228
          44    0.0019    0.0151    0.0414   -0.0719    0.0727    0.0390   -0.0248   -0.0466
          45    0.0062   -0.0330   -0.0369    0.0606   -0.0681   -0.0376    0.0194    0.0622
          46   -0.0400    0.0073    0.0410   -0.0065    0.0008    0.0482   -0.0503   -0.0284
          47    0.0434   -0.0064   -0.0401    0.0071    0.0004   -0.0481    0.0566    0.0341
          48   -0.0415   -0.0003    0.0299    0.0251    0.0012    0.0562   -0.0559   -0.0306
          49    0.0156   -0.0042   -0.0718   -0.0666   -0.1113   -0.0324   -0.0310   -0.0228
          50   -0.0019   -0.0151    0.0414    0.0705    0.0738    0.0340    0.0296    0.0467
          51   -0.0063    0.0331   -0.0370   -0.0594   -0.0690   -0.0336   -0.0242   -0.0623
          52    0.0830    0.0879    0.0677    0.0011   -0.0298   -0.0403   -0.0088    0.0484
          53    0.0185    0.0158    0.0232    0.0040   -0.0080   -0.0145   -0.0034    0.0165
          54    0.0109    0.0025    0.0275    0.0082   -0.0065   -0.0182   -0.0102    0.0146
          55   -0.0906   -0.1064   -0.0924    0.0085    0.0855    0.0052    0.0334    0.0554
          56    0.0184    0.0048    0.0375    0.0073   -0.0380    0.0120   -0.0101   -0.0477
          57    0.0328    0.0202    0.0441    0.0007   -0.0463    0.0087   -0.0151   -0.0483
          58   -0.0905   -0.1064    0.0925    0.0100   -0.0854   -0.0111    0.0323    0.0554
          59   -0.0184   -0.0048    0.0375   -0.0067   -0.0381    0.0101    0.0116    0.0476
          60   -0.0328   -0.0202    0.0441    0.0001   -0.0463    0.0059    0.0162    0.0482
          61    0.0828    0.0876   -0.0678    0.0006    0.0300    0.0414   -0.0034    0.0484
          62   -0.0185   -0.0157    0.0232   -0.0038   -0.0081   -0.0150    0.0014   -0.0165
          63   -0.0109   -0.0024    0.0276   -0.0080   -0.0067   -0.0198    0.0077   -0.0146


   Root No.      33        34        35        36        37        38        39        40

                33 A      34 A      35 A      36 A      37 A      38 A      39 A      40 A   

                1257.3    1283.6    1311.7    1318.3    1339.8    1358.3    1363.1    1389.6
  
           1   -0.0015   -0.0029    0.0016   -0.0037    0.0029   -0.0028    0.0013   -0.0033
           2    0.0024    0.0077    0.0132    0.0067   -0.0061    0.0134   -0.0204    0.0207
           3   -0.0028    0.0003    0.0009   -0.0010    0.0004   -0.0000    0.0006   -0.0004
           4    0.0015   -0.0029   -0.0016   -0.0037   -0.0029   -0.0028   -0.0013   -0.0033
           5    0.0024   -0.0077    0.0132   -0.0067   -0.0061   -0.0134   -0.0204   -0.0207
           6   -0.0028   -0.0003    0.0009    0.0010    0.0004    0.0000    0.0006    0.0004
           7    0.0123    0.0094   -0.0033    0.0180   -0.0184    0.0097   -0.0109    0.0035
           8   -0.0008   -0.0071   -0.0318   -0.0075    0.0047   -0.0215    0.0501   -0.0398
           9    0.0561   -0.0181   -0.0255    0.0343    0.0007   -0.0047   -0.0065    0.0024
          10   -0.0124    0.0094    0.0033    0.0180    0.0184    0.0097    0.0109    0.0035
          11   -0.0008    0.0071   -0.0318    0.0075    0.0047    0.0215    0.0501    0.0398
          12    0.0560    0.0181   -0.0255   -0.0343    0.0008    0.0047   -0.0065   -0.0024
          13   -0.0101   -0.0105   -0.0171    0.0048    0.0184   -0.0188   -0.0120    0.0080
          14   -0.0035   -0.0182   -0.0165    0.0088    0.0185   -0.0119   -0.0188    0.0127
          15   -0.0134    0.0243    0.0265   -0.0150   -0.0189    0.0236    0.0096   -0.0114
          16    0.0101   -0.0105    0.0171    0.0048   -0.0184   -0.0188    0.0120    0.0080
          17   -0.0035    0.0182   -0.0165   -0.0087    0.0185    0.0119   -0.0188   -0.0127
          18   -0.0134   -0.0243    0.0265    0.0150   -0.0189   -0.0235    0.0096    0.0114
          19    0.0101   -0.0081    0.0441   -0.0341    0.0372   -0.0000    0.0061    0.0101
          20   -0.0000   -0.0031    0.0171   -0.0194    0.0095    0.0028   -0.0033   -0.0023
          21   -0.0128   -0.0003    0.0202   -0.0317    0.0117    0.0012    0.0054   -0.0100
          22   -0.0101   -0.0081   -0.0441   -0.0342   -0.0371   -0.0000   -0.0062    0.0101
          23   -0.0000    0.0031    0.0171    0.0194    0.0094   -0.0028   -0.0033    0.0023
          24   -0.0127    0.0003    0.0202    0.0317    0.0117   -0.0012    0.0054    0.0100
          25   -0.0000   -0.0279    0.0000   -0.0055    0.0000    0.0570    0.0000   -0.0164
          26    0.0015   -0.0000    0.0104   -0.0000   -0.0073    0.0000   -0.0013   -0.0000
          27    0.0033   -0.0000   -0.0129    0.0000    0.0082    0.0000   -0.0028   -0.0000
          28   -0.0285    0.0108   -0.0205   -0.0027   -0.0091   -0.0107    0.0212   -0.0192
          29    0.0016    0.0192    0.0462    0.0168   -0.0350    0.0469   -0.0787    0.0502
          30   -0.1393    0.0224   -0.0199   -0.0345   -0.0038   -0.0204   -0.0022    0.0020
          31    0.0285    0.0108    0.0205   -0.0027    0.0091   -0.0107   -0.0211   -0.0192
          32    0.0015   -0.0192    0.0462   -0.0168   -0.0351   -0.0468   -0.0786   -0.0502
          33   -0.1392   -0.0224   -0.0199    0.0345   -0.0038    0.0204   -0.0022   -0.0020
          34    0.0000    0.0703   -0.0000    0.0070   -0.0000   -0.0892   -0.0000    0.0292
          35    0.0209    0.0000    0.0260   -0.0000   -0.0334    0.0000    0.0415    0.0000
          36   -0.0244   -0.0000   -0.0300    0.0000    0.0408   -0.0000   -0.0566   -0.0000
          37    0.0000    0.1390   -0.0000   -0.0321   -0.0000   -0.0688   -0.0000    0.0078
          38    0.0053    0.0000    0.0746   -0.0000   -0.0661    0.0000    0.0780    0.0001
          39    0.0020    0.0000    0.0053   -0.0000   -0.0075    0.0000    0.0186    0.0000
          40    0.0042    0.0765    0.0437   -0.0109   -0.0420   -0.0365    0.0352    0.0006
          41    0.0141    0.0795    0.0481   -0.0094   -0.0479   -0.0431    0.0414    0.0032
          42   -0.0331   -0.0465   -0.0715   -0.0082    0.0618   -0.1139    0.0331    0.0134
          43    0.0034    0.0653    0.0201   -0.0197   -0.0270   -0.0563    0.0563   -0.0031
          44    0.0505    0.0292    0.0177    0.0023   -0.0409    0.0702    0.0198   -0.0419
          45   -0.0677   -0.0315   -0.0140   -0.0051    0.0463   -0.0603   -0.0342    0.0447
          46   -0.0042    0.0765   -0.0438   -0.0108    0.0419   -0.0366   -0.0352    0.0005
          47    0.0141   -0.0796    0.0481    0.0093   -0.0479    0.0432    0.0415   -0.0031
          48   -0.0332    0.0465   -0.0715    0.0082    0.0619    0.1139    0.0331   -0.0134
          49   -0.0033    0.0652   -0.0201   -0.0197    0.0269   -0.0564   -0.0564   -0.0031
          50    0.0504   -0.0292    0.0177   -0.0023   -0.0410   -0.0702    0.0198    0.0419
          51   -0.0676    0.0315   -0.0140    0.0052    0.0463    0.0603   -0.0341   -0.0448
          52    0.0057    0.0307   -0.0258    0.1422   -0.0316    0.0002   -0.0150   -0.0466
          53   -0.0045    0.0127   -0.0183    0.0502   -0.0261    0.0053   -0.0213   -0.0009
          54   -0.0222    0.0117   -0.0410    0.0203   -0.0608    0.0205   -0.0704    0.1300
          55    0.0380    0.0352    0.0286    0.1302    0.0323   -0.0038   -0.0170   -0.0579
          56   -0.0695   -0.0185   -0.0427    0.0149   -0.0495   -0.0093   -0.0234   -0.0953
          57   -0.0582   -0.0237   -0.0317   -0.0295   -0.0389   -0.0031   -0.0013   -0.0109
          58   -0.0380    0.0352   -0.0287    0.1302   -0.0324   -0.0038    0.0170   -0.0579
          59   -0.0696    0.0184   -0.0427   -0.0150   -0.0495    0.0094   -0.0235    0.0954
          60   -0.0583    0.0237   -0.0317    0.0295   -0.0389    0.0031   -0.0013    0.0109
          61   -0.0057    0.0307    0.0257    0.1422    0.0315    0.0002    0.0151   -0.0465
          62   -0.0045   -0.0127   -0.0182   -0.0502   -0.0261   -0.0053   -0.0213    0.0008
          63   -0.0222   -0.0118   -0.0410   -0.0204   -0.0608   -0.0204   -0.0703   -0.1300


   Root No.      41        42        43        44        45        46        47        48

                41 A      42 A      43 A      44 A      45 A      46 A      47 A      48 A   

                1396.6    1404.4    1408.7    1412.2    1428.1    2911.9    2912.7    2939.0
  
           1    0.0003   -0.0024   -0.0012    0.0001    0.0001   -0.0016   -0.0024   -0.0001
           2   -0.0052    0.0165    0.0055   -0.0030    0.0004    0.0018    0.0015   -0.0000
           3    0.0006   -0.0002   -0.0005    0.0002    0.0002    0.0002    0.0002    0.0001
           4   -0.0003   -0.0024   -0.0012   -0.0001   -0.0001   -0.0018    0.0022    0.0001
           5   -0.0052   -0.0165   -0.0055   -0.0030    0.0004   -0.0019    0.0013   -0.0000
           6    0.0006    0.0002    0.0005    0.0002    0.0002   -0.0002    0.0002    0.0001
           7   -0.0044    0.0002    0.0055   -0.0019   -0.0019   -0.0297   -0.0315   -0.0010
           8    0.0142   -0.0360   -0.0110    0.0106   -0.0014   -0.0082   -0.0086   -0.0004
           9   -0.0048   -0.0076    0.0018    0.0018    0.0019    0.0061    0.0065    0.0003
          10    0.0044    0.0002    0.0054    0.0019    0.0019   -0.0321    0.0292    0.0010
          11    0.0142    0.0360    0.0110    0.0106   -0.0015    0.0089   -0.0080   -0.0004
          12   -0.0048    0.0076   -0.0018    0.0018    0.0019   -0.0066    0.0060    0.0003
          13    0.0203    0.0130   -0.0309   -0.0066    0.0101    0.0010    0.0012   -0.0035
          14   -0.0029    0.0119   -0.0053   -0.0084    0.0093   -0.0012   -0.0015    0.0080
          15    0.0220   -0.0040   -0.0104    0.0041   -0.0050    0.0004    0.0003    0.0044
          16   -0.0205    0.0130   -0.0308    0.0066   -0.0102    0.0011   -0.0011    0.0035
          17   -0.0029   -0.0119    0.0053   -0.0084    0.0093    0.0013   -0.0014    0.0080
          18    0.0220    0.0040    0.0103    0.0041   -0.0050   -0.0004    0.0003    0.0044
          19    0.0010   -0.0022   -0.0019    0.0229    0.0131    0.0003   -0.0000    0.0001
          20   -0.0010    0.0219    0.0042   -0.0097   -0.0048    0.0008    0.0007   -0.0008
          21    0.0012    0.0229    0.0041   -0.0110   -0.0068   -0.0018   -0.0016    0.0003
          22   -0.0010   -0.0021   -0.0018   -0.0229   -0.0131    0.0003    0.0001   -0.0001
          23   -0.0010   -0.0219   -0.0042   -0.0097   -0.0048   -0.0008    0.0007   -0.0008
          24    0.0012   -0.0229   -0.0040   -0.0110   -0.0068    0.0020   -0.0014    0.0003
          25    0.0001   -0.0193    0.0399    0.0000    0.0000    0.0002    0.0000    0.0000
          26    0.0017   -0.0000    0.0000    0.0191   -0.0337   -0.0000    0.0008   -0.0157
          27   -0.0046    0.0000    0.0000   -0.0073    0.0129   -0.0000    0.0009   -0.0359
          28    0.0090   -0.0135   -0.0080    0.0016   -0.0015    0.3822    0.4039    0.0111
          29   -0.0261    0.0441    0.0255   -0.0190   -0.0045    0.0803    0.0850    0.0026
          30    0.0128    0.0232   -0.0189   -0.0166   -0.0009   -0.0781   -0.0826   -0.0022
          31   -0.0090   -0.0135   -0.0080   -0.0016    0.0016    0.4128   -0.3739   -0.0112
          32   -0.0261   -0.0441   -0.0254   -0.0190   -0.0045   -0.0867    0.0787    0.0026
          33    0.0128   -0.0232    0.0189   -0.0166   -0.0009    0.0845   -0.0765   -0.0023
          34   -0.0001    0.0189   -0.0671   -0.0000   -0.0000    0.0002    0.0000   -0.0000
          35   -0.0222    0.0001    0.0000   -0.0523    0.1122    0.0004   -0.0090    0.2798
          36    0.0269   -0.0001   -0.0000    0.0829   -0.1734    0.0003   -0.0061    0.1880
          37   -0.0001    0.0196   -0.0649   -0.0000   -0.0000    0.0006    0.0000   -0.0000
          38   -0.0156    0.0001    0.0000   -0.0918    0.1796   -0.0002    0.0037   -0.0897
          39   -0.0079    0.0000    0.0000   -0.0367    0.0686    0.0004   -0.0093    0.2416
          40   -0.0533   -0.0090    0.0368    0.0159   -0.0241   -0.0137   -0.0166    0.0489
          41   -0.0975   -0.0162    0.0791    0.0191   -0.0322    0.0094    0.0117   -0.0378
          42   -0.1315   -0.0149    0.0923    0.0001   -0.0007    0.0010    0.0007    0.0062
          43   -0.1402   -0.0315    0.1246    0.0165   -0.0277   -0.0001    0.0001   -0.0075
          44    0.1021   -0.0194   -0.0663    0.0106   -0.0048   -0.0003    0.0013   -0.0572
          45   -0.0729    0.0309    0.0395   -0.0169    0.0121    0.0016    0.0035   -0.0621
          46    0.0534   -0.0089    0.0366   -0.0158    0.0241   -0.0150    0.0155   -0.0487
          47   -0.0977    0.0161   -0.0788    0.0190   -0.0322   -0.0103    0.0109   -0.0377
          48   -0.1317    0.0148   -0.0920   -0.0000   -0.0008   -0.0010    0.0007    0.0062
          49    0.1406   -0.0313    0.1242   -0.0164    0.0278   -0.0001   -0.0001    0.0074
          50    0.1023    0.0195    0.0660    0.0107   -0.0048    0.0002    0.0013   -0.0570
          51   -0.0730   -0.0309   -0.0393   -0.0170    0.0121   -0.0019    0.0033   -0.0619
          52   -0.0023    0.0325    0.0116   -0.0774   -0.0490    0.0021    0.0005   -0.0035
          53   -0.0049    0.0106    0.0047   -0.0252   -0.0135   -0.0070   -0.0031    0.0086
          54   -0.0193   -0.1090   -0.0201    0.1027    0.0758   -0.0000   -0.0006   -0.0008
          55   -0.0054    0.0235    0.0083    0.0715    0.0466   -0.0079    0.0076   -0.0013
          56   -0.0049    0.1238    0.0256    0.1103    0.0671    0.0085   -0.0079    0.0008
          57    0.0004    0.0322    0.0054    0.0092    0.0051   -0.0164    0.0148   -0.0032
          58    0.0054    0.0237    0.0085   -0.0714   -0.0466   -0.0073   -0.0082    0.0013
          59   -0.0048   -0.1240   -0.0258    0.1100    0.0671   -0.0079   -0.0086    0.0008
          60    0.0004   -0.0322   -0.0054    0.0092    0.0051    0.0153    0.0162   -0.0032
          61    0.0023    0.0324    0.0115    0.0775    0.0490    0.0022   -0.0003    0.0035
          62   -0.0050   -0.0106   -0.0047   -0.0252   -0.0135    0.0072   -0.0025    0.0086
          63   -0.0194    0.1088    0.0199    0.1029    0.0759    0.0001   -0.0006   -0.0008


   Root No.      49        50        51        52        53        54        55        56

                49 A      50 A      51 A      52 A      53 A      54 A      55 A      56 A   

                2957.6    2958.6    2960.5    2972.3    3026.4    3034.0    3037.0    3043.7
  
           1   -0.0000   -0.0001    0.0000   -0.0000    0.0000   -0.0000   -0.0000    0.0000
           2   -0.0001    0.0002    0.0001    0.0002   -0.0000    0.0000   -0.0000    0.0001
           3    0.0002    0.0000   -0.0002    0.0001    0.0000   -0.0000   -0.0000    0.0000
           4   -0.0000   -0.0001   -0.0000    0.0000   -0.0000   -0.0000    0.0000    0.0000
           5    0.0001   -0.0002    0.0002    0.0002   -0.0000   -0.0000   -0.0000   -0.0001
           6   -0.0002   -0.0000   -0.0002    0.0001    0.0000    0.0000   -0.0000   -0.0000
           7   -0.0009   -0.0006    0.0006   -0.0008    0.0002   -0.0007   -0.0006    0.0002
           8   -0.0002   -0.0003   -0.0000   -0.0004   -0.0001    0.0001   -0.0000   -0.0002
           9    0.0003    0.0001   -0.0002    0.0003    0.0002   -0.0003   -0.0001   -0.0005
          10   -0.0008   -0.0006   -0.0006    0.0008   -0.0002   -0.0007    0.0006    0.0002
          11    0.0002    0.0003   -0.0000   -0.0004   -0.0001   -0.0001   -0.0000    0.0002
          12   -0.0003   -0.0001   -0.0002    0.0003    0.0002    0.0003   -0.0001    0.0005
          13   -0.0089    0.0036    0.0101    0.0003    0.0072   -0.0158   -0.0111   -0.0001
          14    0.0178   -0.0072   -0.0196   -0.0005    0.0016   -0.0010    0.0000    0.0000
          15    0.0086   -0.0035   -0.0093   -0.0003    0.0066   -0.0136   -0.0091   -0.0001
          16   -0.0087    0.0035   -0.0103   -0.0003   -0.0072   -0.0157    0.0112   -0.0001
          17   -0.0175    0.0070   -0.0199   -0.0005    0.0016    0.0010    0.0000   -0.0000
          18   -0.0084    0.0034   -0.0095   -0.0003    0.0067    0.0135   -0.0091    0.0000
          19    0.0000    0.0001    0.0001    0.0001   -0.0005   -0.0001   -0.0004    0.0127
          20   -0.0067   -0.0172    0.0001   -0.0225    0.0002   -0.0001    0.0000   -0.0111
          21    0.0052    0.0136   -0.0001    0.0179    0.0007    0.0004    0.0008   -0.0136
          22    0.0000    0.0001   -0.0001   -0.0001    0.0004   -0.0001    0.0004    0.0124
          23    0.0066    0.0170    0.0001   -0.0227    0.0002    0.0001    0.0000    0.0107
          24   -0.0052   -0.0135   -0.0001    0.0181    0.0006   -0.0004    0.0008    0.0133
          25   -0.0000    0.0000    0.0000    0.0000   -0.0000   -0.0005    0.0000   -0.0000
          26    0.0000   -0.0000   -0.0035   -0.0001    0.0202    0.0000    0.0105    0.0000
          27    0.0001   -0.0001   -0.0114    0.0012   -0.0097   -0.0000   -0.0068   -0.0000
          28    0.0111    0.0079   -0.0077    0.0114   -0.0030    0.0087    0.0071   -0.0067
          29    0.0031    0.0013   -0.0025    0.0024   -0.0009    0.0024    0.0019   -0.0026
          30   -0.0023   -0.0007    0.0020   -0.0013    0.0016   -0.0035   -0.0025   -0.0000
          31    0.0109    0.0079    0.0078   -0.0115    0.0030    0.0087   -0.0071   -0.0065
          32   -0.0030   -0.0013   -0.0025    0.0024   -0.0009   -0.0024    0.0019    0.0025
          33    0.0022    0.0007    0.0021   -0.0013    0.0016    0.0035   -0.0025    0.0001
          34   -0.0031    0.0017   -0.0000   -0.0000    0.0000   -0.0003    0.0000    0.0003
          35   -0.0006    0.0003    0.0738   -0.0024   -0.1752   -0.0000   -0.0869   -0.0004
          36   -0.0004    0.0002    0.0462   -0.0023   -0.1390   -0.0000   -0.0709   -0.0003
          37   -0.0000    0.0000   -0.0000    0.0000   -0.0000   -0.0039   -0.0000   -0.0000
          38    0.0003   -0.0001   -0.0330    0.0043   -0.0681   -0.0000   -0.0440   -0.0001
          39   -0.0008    0.0004    0.0898   -0.0132    0.2546    0.0001    0.1541    0.0005
          40    0.1275   -0.0526   -0.1421   -0.0050   -0.0741    0.1800    0.1285    0.0017
          41   -0.0969    0.0399    0.1082    0.0037    0.0661   -0.1518   -0.1067   -0.0015
          42    0.0162   -0.0067   -0.0182   -0.0006   -0.0042    0.0095    0.0067   -0.0001
          43   -0.0206    0.0081    0.0237    0.0003   -0.0070    0.0127    0.0083    0.0001
          44   -0.1154    0.0448    0.1253    0.0015   -0.0809    0.1637    0.1084    0.0012
          45   -0.1210    0.0469    0.1306    0.0015   -0.0790    0.1578    0.1037    0.0013
          46    0.1255   -0.0513    0.1449    0.0051    0.0744    0.1792   -0.1290    0.0013
          47    0.0953   -0.0389    0.1103    0.0038    0.0664    0.1511   -0.1072    0.0012
          48   -0.0159    0.0065   -0.0185   -0.0007   -0.0042   -0.0094    0.0067    0.0001
          49   -0.0203    0.0079   -0.0242   -0.0004    0.0071    0.0126   -0.0084    0.0001
          50    0.1136   -0.0437    0.1278    0.0016   -0.0811   -0.1630    0.1089   -0.0009
          51    0.1191   -0.0457    0.1333    0.0017   -0.0793   -0.1572    0.1042   -0.0010
          52   -0.0226   -0.0579    0.0004   -0.0797    0.0021   -0.0002    0.0014   -0.0781
          53    0.0588    0.1513   -0.0008    0.1981   -0.0061    0.0001   -0.0047    0.2249
          54   -0.0055   -0.0132    0.0004   -0.0169    0.0012   -0.0000    0.0009   -0.0368
          55    0.0216    0.0555    0.0007   -0.0782   -0.0034    0.0011   -0.0034   -0.0681
          56   -0.0206   -0.0529   -0.0007    0.0707    0.0041   -0.0013    0.0040    0.0870
          57    0.0579    0.1479    0.0022   -0.1988   -0.0098    0.0029   -0.0094   -0.1975
          58    0.0219    0.0561   -0.0009    0.0777    0.0035    0.0011    0.0036   -0.0699
          59    0.0208    0.0535   -0.0009    0.0702    0.0041    0.0013    0.0041   -0.0894
          60   -0.0584   -0.1494    0.0027   -0.1975   -0.0098   -0.0030   -0.0097    0.2028
          61   -0.0225   -0.0574   -0.0002    0.0806   -0.0020   -0.0002   -0.0012   -0.0757
          62   -0.0585   -0.1502   -0.0002    0.2003   -0.0060   -0.0001   -0.0043   -0.2181
          63    0.0054    0.0131    0.0004   -0.0171    0.0012    0.0000    0.0009    0.0357


   Root No.      57

                57 A   

                3048.8
  
           1    0.0000
           2    0.0001
           3    0.0000
           4   -0.0000
           5    0.0001
           6    0.0000
           7    0.0006
           8   -0.0001
           9   -0.0004
          10   -0.0006
          11   -0.0001
          12   -0.0004
          13   -0.0002
          14    0.0001
          15   -0.0001
          16    0.0002
          17    0.0001
          18   -0.0001
          19    0.0112
          20   -0.0104
          21   -0.0125
          22   -0.0116
          23   -0.0106
          24   -0.0129
          25   -0.0000
          26    0.0017
          27   -0.0003
          28   -0.0080
          29   -0.0026
          30    0.0006
          31    0.0081
          32   -0.0027
          33    0.0006
          34    0.0000
          35   -0.0161
          36   -0.0129
          37    0.0000
          38   -0.0042
          39    0.0163
          40    0.0034
          41   -0.0026
          42    0.0000
          43    0.0000
          44    0.0015
          45    0.0015
          46   -0.0034
          47   -0.0026
          48   -0.0000
          49   -0.0000
          50    0.0016
          51    0.0015
          52   -0.0736
          53    0.2085
          54   -0.0345
          55    0.0671
          56   -0.0854
          57    0.1922
          58   -0.0651
          59   -0.0828
          60    0.1864
          61    0.0756
          62    0.2143
          63   -0.0355


           MASS-WEIGHTED COORDINATE ANALYSIS (NORMAL COORDINATES)


   Root No.       1         2         3         4         5         6         7         8

                 1 A       2 A       3 A       4 A       5 A       6 A       7 A       8 A   

                 109.3     238.4     253.8     314.4     363.8     427.4     474.5     497.6
  
           1    0.0847    0.2063   -0.0114    0.1606   -0.0197   -0.0049   -0.1808   -0.1005
           2   -0.0162    0.0416   -0.0421   -0.0227    0.1904   -0.1684   -0.2276    0.1983
           3   -0.4181   -0.2173    0.1585    0.3817    0.0866    0.4125   -0.2586    0.1768
[...]
 TRAVEL      0.0888         C  4 -- C  8         +10.5% ( 44.9%)     76.7%
 RED. MASS   0.8503         C  3 -- C  7         +10.5% ( 44.9%)     76.7%
 EFF. MASS   6.4931

 VIBRATION   37   37A         ATOM PAIR      ENERGY CONTRIBUTION    RADIAL
 FREQ.      1339.76         C  7 -- C  8         +12.6% ( 49.9%)    100.0%
 T-DIPOLE    0.0757         C  7 -- H 18          +6.8% ( 36.7%)      0.4%
 TRAVEL      0.0852         C  8 -- H 21          +6.8% ( 36.6%)      0.4%
 RED. MASS   0.7852         C  7 -- H 20          +6.7% ( 36.4%)      0.3%
 EFF. MASS   6.9302

 VIBRATION   38   38A         ATOM PAIR      ENERGY CONTRIBUTION    RADIAL
 FREQ.      1358.31         C  5 -- C  9         +13.9% ( 50.2%)     84.0%
 T-DIPOLE    0.0287         C  6 -- C  9         +13.9% ( 50.2%)     84.0%
 TRAVEL      0.0867         C  9 -- H 12         +12.2% ( 47.1%)      0.0%
 RED. MASS   0.9576         C  9 -- H 13         +11.0% ( 44.7%)      0.0%
 EFF. MASS   6.6024

 VIBRATION   39   39A         ATOM PAIR      ENERGY CONTRIBUTION    RADIAL
 FREQ.      1363.05         O  1 -- C  3         +11.4% ( 47.8%)     94.0%
 T-DIPOLE    0.5673         O  2 -- C  4         +11.4% ( 47.8%)     94.0%
 TRAVEL      0.0794         C  3 -- H 10         +10.2% ( 45.3%)      0.2%
 RED. MASS   1.2427         C  4 -- H 11         +10.2% ( 45.2%)      0.2%
 EFF. MASS   7.8395

 VIBRATION   40   40A         ATOM PAIR      ENERGY CONTRIBUTION    RADIAL
 FREQ.      1389.57         O  2 -- C  4          +9.8% ( 39.4%)     92.0%
 T-DIPOLE    0.0565         O  1 -- C  3          +9.8% ( 39.3%)     92.0%
 TRAVEL      0.0884         C  4 -- C  6          +7.3% ( 33.8%)     42.8%
 RED. MASS   0.5631         C  3 -- C  5          +7.2% ( 33.8%)     42.7%
 EFF. MASS   6.2161

 VIBRATION   41   41A         ATOM PAIR      ENERGY CONTRIBUTION    RADIAL
 FREQ.      1396.59         C  6 -- H 17         +19.5% ( 44.8%)      3.4%
 T-DIPOLE    0.1601         C  5 -- H 15         +19.4% ( 44.7%)      3.4%
 TRAVEL      0.1343         C  6 -- H 16         +15.9% ( 40.5%)      5.9%
 RED. MASS   0.2755         C  5 -- H 14         +15.8% ( 40.4%)      5.9%
 EFF. MASS   2.6782

 VIBRATION   42   42A         ATOM PAIR      ENERGY CONTRIBUTION    RADIAL
 FREQ.      1404.41         C  3 -- C  7          +8.3% ( 38.0%)     69.5%
 T-DIPOLE    0.0562         C  4 -- C  8          +8.3% ( 38.0%)     69.5%
 TRAVEL      0.0848         C  7 -- H 20          +7.8% ( 36.9%)      3.5%
 RED. MASS   0.5353         C  8 -- H 19          +7.8% ( 36.8%)      3.5%
 EFF. MASS   6.6737

 VIBRATION   43   43A         ATOM PAIR      ENERGY CONTRIBUTION    RADIAL
 FREQ.      1408.66         C  5 -- C  9         +12.5% ( 42.7%)     70.4%
 T-DIPOLE    0.1673         C  6 -- C  9         +12.5% ( 42.6%)     70.4%
 TRAVEL      0.1002         C  5 -- H 15         +12.0% ( 41.7%)      3.5%
 RED. MASS   0.5143         C  6 -- H 17         +11.9% ( 41.6%)      3.5%
 EFF. MASS   4.7638

 VIBRATION   44   44A         ATOM PAIR      ENERGY CONTRIBUTION    RADIAL
 FREQ.      1412.19         C  8 -- H 21         +12.5% ( 38.4%)      5.7%
 T-DIPOLE    0.1323         C  8 -- H 19         +12.4% ( 38.4%)      4.6%
 TRAVEL      0.1190         C  7 -- H 18         +12.4% ( 38.3%)      5.7%
 RED. MASS   0.2497         C  7 -- H 20         +12.4% ( 38.3%)      4.6%
 EFF. MASS   3.3741

 VIBRATION   45   45A         ATOM PAIR      ENERGY CONTRIBUTION    RADIAL
 FREQ.      1428.08         C  9 -- H 12         +27.0% ( 53.4%)      4.6%
 T-DIPOLE    0.0279         C  9 -- H 13         +23.2% ( 49.5%)      6.0%
 TRAVEL      0.1292         C  6 -- C  9          +8.3% ( 29.7%)     50.9%
 RED. MASS   0.3351         C  5 -- C  9          +8.3% ( 29.7%)     50.7%
 EFF. MASS   2.8284

 VIBRATION   46   46A         ATOM PAIR      ENERGY CONTRIBUTION    RADIAL
 FREQ.      2911.86         C  4 -- H 11         +52.0% ( 73.2%)     99.9%
 T-DIPOLE    0.2605         C  3 -- H 10         +44.6% ( 67.8%)     99.9%
 TRAVEL      0.1280         C  4 -- C  8          +0.5% (  7.3%)     10.4%
 RED. MASS   0.4635         C  4 -- C  6          +0.5% (  7.3%)      8.6%
 EFF. MASS   1.4138

 VIBRATION   47   47A         ATOM PAIR      ENERGY CONTRIBUTION    RADIAL
 FREQ.      2912.68         C  3 -- H 10         +52.0% ( 73.1%)     99.9%
 T-DIPOLE    0.0238         C  4 -- H 11         +44.5% ( 67.7%)     99.9%
 TRAVEL      0.1279         C  3 -- C  5          +0.5% (  7.3%)      8.6%
 RED. MASS   0.4624         C  3 -- C  7          +0.5% (  7.3%)     10.8%
 EFF. MASS   1.4151

 VIBRATION   48   48A         ATOM PAIR      ENERGY CONTRIBUTION    RADIAL
 FREQ.      2939.01         C  9 -- H 12         +53.8% ( 76.3%)     97.5%
 T-DIPOLE    0.0454         C  9 -- H 13         +32.9% ( 59.7%)     94.7%
 TRAVEL      0.1217         C  5 -- H 15          +3.4% ( 19.3%)     97.3%
 RED. MASS   0.4347         C  6 -- H 17          +3.4% ( 19.2%)     97.3%
 EFF. MASS   1.5483

 VIBRATION   49   49A         ATOM PAIR      ENERGY CONTRIBUTION    RADIAL
 FREQ.      2957.58         C  5 -- H 15         +22.3% ( 49.1%)     96.8%
 T-DIPOLE    0.0163         C  6 -- H 17         +21.6% ( 48.3%)     96.8%
 TRAVEL      0.1216         C  5 -- H 14         +20.5% ( 47.1%)     96.3%
 RED. MASS   0.1986         C  6 -- H 16         +19.9% ( 46.3%)     96.2%
 EFF. MASS   1.5425

 VIBRATION   50   50A         ATOM PAIR      ENERGY CONTRIBUTION    RADIAL
 FREQ.      2958.57         C  7 -- H 20         +21.9% ( 48.8%)     96.4%
 T-DIPOLE    0.0187         C  8 -- H 19         +21.5% ( 48.3%)     96.4%
 TRAVEL      0.1206         C  7 -- H 18         +20.6% ( 47.3%)     96.2%
 RED. MASS   0.1994         C  8 -- H 21         +20.3% ( 46.9%)     96.2%
 EFF. MASS   1.5660

 VIBRATION   51   51A         ATOM PAIR      ENERGY CONTRIBUTION    RADIAL
 FREQ.      2960.52         C  6 -- H 17         +22.5% ( 49.1%)     96.7%
 T-DIPOLE    0.1369         C  6 -- H 16         +21.8% ( 48.4%)     96.5%
 TRAVEL      0.1214         C  5 -- H 15         +21.6% ( 48.2%)     96.7%
 RED. MASS   0.2117         C  5 -- H 14         +21.0% ( 47.5%)     96.5%
 EFF. MASS   1.5466

 VIBRATION   52   52A         ATOM PAIR      ENERGY CONTRIBUTION    RADIAL
 FREQ.      2972.30         C  8 -- H 19         +25.5% ( 52.3%)     96.8%
 T-DIPOLE    0.1381         C  7 -- H 20         +25.1% ( 51.9%)     96.8%
 TRAVEL      0.1215         C  8 -- H 21         +23.7% ( 50.4%)     96.4%
 RED. MASS   0.2584         C  7 -- H 18         +23.2% ( 49.9%)     96.4%
 EFF. MASS   1.5356

 VIBRATION   53   53A         ATOM PAIR      ENERGY CONTRIBUTION    RADIAL
 FREQ.      3026.38         C  9 -- H 13         +41.9% ( 63.8%)     98.7%
 T-DIPOLE    0.0712         C  9 -- H 12         +29.4% ( 53.4%)     96.5%
 TRAVEL      0.1320         C  6 -- H 17          +7.8% ( 27.5%)     98.1%
 RED. MASS   0.2775         C  5 -- H 15          +7.7% ( 27.4%)     98.1%
 EFF. MASS   1.2778

 VIBRATION   54   54A         ATOM PAIR      ENERGY CONTRIBUTION    RADIAL
 FREQ.      3034.01         C  5 -- H 14         +25.7% ( 49.9%)     97.9%
 T-DIPOLE    0.0962         C  6 -- H 16         +25.5% ( 49.7%)     97.9%
 TRAVEL      0.1324         C  5 -- H 15         +23.9% ( 48.1%)     97.4%
 RED. MASS   0.2418         C  6 -- H 17         +23.7% ( 47.9%)     97.4%
 EFF. MASS   1.2678

 VIBRATION   55   55A         ATOM PAIR      ENERGY CONTRIBUTION    RADIAL
 FREQ.      3036.99         C  6 -- H 16         +20.0% ( 44.0%)     98.2%
 T-DIPOLE    0.1091         C  5 -- H 14         +19.8% ( 43.8%)     98.2%
 TRAVEL      0.1319         C  9 -- H 13         +18.3% ( 42.1%)     99.1%
 RED. MASS   0.1683         C  6 -- H 17         +16.0% ( 39.3%)     96.8%
 EFF. MASS   1.2766         C  5 -- H 15         +15.8% ( 39.1%)     96.8%

 VIBRATION   56   56A         ATOM PAIR      ENERGY CONTRIBUTION    RADIAL
 FREQ.      3043.70         C  7 -- H 18         +26.4% ( 50.6%)     97.8%
 T-DIPOLE    0.0814         C  8 -- H 21         +24.8% ( 49.1%)     97.8%
 TRAVEL      0.1317         C  7 -- H 20         +24.4% ( 48.7%)     97.4%
 RED. MASS   0.2424         C  8 -- H 19         +23.2% ( 47.4%)     97.5%
 EFF. MASS   1.2779

 VIBRATION   57   57A         ATOM PAIR      ENERGY CONTRIBUTION    RADIAL
 FREQ.      3048.79         C  8 -- H 21         +26.4% ( 50.5%)     97.9%
 T-DIPOLE    0.1253         C  7 -- H 18         +25.0% ( 49.2%)     98.0%
 TRAVEL      0.1317         C  8 -- H 19         +24.2% ( 48.4%)     97.5%
 RED. MASS   0.2405         C  7 -- H 20         +22.7% ( 46.9%)     97.5%
 EFF. MASS   1.2743

      SYMMETRY NUMBER FOR POINT-GROUP C1  =  1


          SYSTEM IS A GROUND STATE



 InChI=1S/C7H12O2/c1-2-6-4-5-7(3-1)9-8-6/h6-7H,1-5H2


          MOLECULE IS NOT LINEAR

          THERE ARE 57 GENUINE VIBRATIONS IN THIS SYSTEM
          THIS THERMODYNAMICS CALCULATION IS LIMITED TO
          MOLECULES WHICH HAVE NO INTERNAL ROTATIONS




                    CALCULATED THERMODYNAMIC PROPERTIES
                                          *
   TEMP. (K)   PARTITION FUNCTION   H.O.F.    ENTHALPY  HEAT CAPACITY ENTROPY
                                   KCAL/MOL   CAL/MOLE    CAL/K/MOL  CAL/K/MOL


 298.00  VIB.     0.1546D+02                  2829.9416    24.7064    14.9378
         ROT.     0.3355D+06                   888.2813     2.9808    28.2646
         INT.     0.5186D+07                  3718.2229    27.6872    43.2025
         TRA.     0.1403D+28                  1480.4688     4.9680    40.4556
         TOT.                      -37.318    5198.6917    32.6552    83.6581

 200.00  VIB.     0.3790D+01                   996.7167    13.1275     7.6314
         ROT.     0.1845D+06                   596.1620     2.9808    27.0760
         INT.     0.6991D+06                  1592.8787    16.1083    34.7074
         TRA.     0.7713D+27                   993.6033     4.9680    38.4745
         TOT.                      -39.931    2586.4819    21.0763    73.1819

 210.00  VIB.     0.4305D+01                  1133.2057    14.1764     8.2972
         ROT.     0.1985D+06                   625.9700     2.9808    27.2214
         INT.     0.8544D+06                  1759.1757    17.1572    35.5186
         TRA.     0.8299D+27                  1043.2834     4.9680    38.7168
         TOT.                      -39.715    2802.4591    22.1252    74.2354

 220.00  VIB.     0.4909D+01                  1280.3662    15.2617     8.9816
         ROT.     0.2128D+06                   655.7781     2.9808    27.3601
         INT.     0.1045D+07                  1936.1443    18.2425    36.3416
         TRA.     0.8899D+27                  1092.9636     4.9680    38.9480
         TOT.                      -39.488    3029.1079    23.2105    75.2896

 230.00  VIB.     0.5618D+01                  1438.5564    16.3821     9.6846
         ROT.     0.2275D+06                   685.5862     2.9808    27.4926
         INT.     0.1278D+07                  2124.1427    19.3629    37.1771
         TRA.     0.9512D+27                  1142.6437     4.9680    39.1688
         TOT.                      -39.250    3266.7864    24.3309    76.3459

 240.00  VIB.     0.6454D+01                  1608.1173    17.5354    10.4060
         ROT.     0.2425D+06                   715.3943     2.9808    27.6194
         INT.     0.1565D+07                  2323.5116    20.5162    38.0255
         TRA.     0.1014D+28                  1192.3239     4.9680    39.3802
         TOT.                      -39.001    3515.8355    25.4842    77.4057

 250.00  VIB.     0.7441D+01                  1789.3648    18.7189    11.1458
         ROT.     0.2578D+06                   745.2024     2.9808    27.7411
         INT.     0.1918D+07                  2534.5672    21.6997    38.8869
         TRA.     0.1078D+28                  1242.0041     4.9680    39.5830
         TOT.                      -38.741    3776.5713    26.6677    78.4699

 260.00  VIB.     0.8609D+01                  1982.5842    19.9292    11.9034
         ROT.     0.2734D+06                   775.0105     2.9808    27.8580
         INT.     0.2354D+07                  2757.5947    22.9100    39.7615
         TRA.     0.1143D+28                  1291.6842     4.9680    39.7779
         TOT.                      -38.468    4049.2790    27.8780    79.5393

 270.00  VIB.     0.9996D+01                  2188.0259    21.1627    12.6786
         ROT.     0.2893D+06                   804.8186     2.9808    27.9705
         INT.     0.2892D+07                  2992.8445    24.1435    40.6492
         TRA.     0.1210D+28                  1341.3644     4.9680    39.9654
         TOT.                      -38.183    4334.2089    29.1115    80.6145

 280.00  VIB.     0.1164D+02                  2405.9021    22.4155    13.4709
         ROT.     0.3055D+06                   834.6267     2.9808    28.0789
         INT.     0.3558D+07                  3240.5289    25.3963    41.5498
         TRA.     0.1278D+28                  1391.0445     4.9680    40.1461
         TOT.                      -37.886    4631.5734    30.3643    81.6958

 290.00  VIB.     0.1361D+02                  2636.3860    23.6835    14.2795
         ROT.     0.3221D+06                   864.4348     2.9808    28.1835
         INT.     0.4384D+07                  3500.8209    26.6644    42.4631
         TRA.     0.1347D+28                  1440.7247     4.9680    40.3204
         TOT.                      -37.576    4941.5456    31.6324    82.7834

 300.00  VIB.     0.1596D+02                  2879.6109    24.9630    15.1040
         ROT.     0.3389D+06                   894.2429     2.9808    28.2846
         INT.     0.5410D+07                  3773.8538    27.9438    43.3886
         TRA.     0.1417D+28                  1490.4049     4.9680    40.4888
         TOT.                      -37.253    5264.2587    32.9118    83.8774

 310.00  VIB.     0.1878D+02                  3135.6711    26.2500    15.9435
         ROT.     0.3559D+06                   924.0510     2.9808    28.3823
         INT.     0.6686D+07                  4059.7221    29.2308    44.3258
         TRA.     0.1488D+28                  1540.0850     4.9680    40.6517
         TOT.                      -36.917    5599.8071    34.1988    84.9775

 320.00  VIB.     0.2217D+02                  3404.6231    27.5408    16.7972
         ROT.     0.3733D+06                   953.8591     2.9808    28.4770
         INT.     0.8276D+07                  4358.4822    30.5216    45.2742
         TRA.     0.1561D+28                  1589.7652     4.9680    40.8094
         TOT.                      -36.569    5948.2474    35.4896    86.0837

 330.00  VIB.     0.2625D+02                  3686.4881    28.8320    17.6645
         ROT.     0.3909D+06                   983.6672     2.9808    28.5687
         INT.     0.1026D+08                  4670.1554    31.8128    46.2332
         TRA.     0.1635D+28                  1639.4454     4.9680    40.9623
         TOT.                      -36.208    6309.6007    36.7808    87.1955

 340.00  VIB.     0.3117D+02                  3981.2538    30.1204    18.5444
         ROT.     0.4088D+06                  1013.4753     2.9808    28.6577
         INT.     0.1274D+08                  4994.7292    33.1012    47.2020
         TRA.     0.1710D+28                  1689.1255     4.9680    41.1106
         TOT.                      -35.833    6683.8547    38.0692    88.3127

 350.00  VIB.     0.3712D+02                  4288.8774    31.4031    19.4360
         ROT.     0.4270D+06                  1043.2834     2.9808    28.7441
         INT.     0.1585D+08                  5332.1609    34.3839    48.1801
         TRA.     0.1786D+28                  1738.8057     4.9680    41.2546
         TOT.                      -35.446    7070.9665    39.3519    89.4347

 360.00  VIB.     0.4433D+02                  4609.2884    32.6775    20.3385
         ROT.     0.4454D+06                  1073.0915     2.9808    28.8281
         INT.     0.1975D+08                  5682.3799    35.6583    49.1666
         TRA.     0.1863D+28                  1788.4859     4.9680    41.3946
         TOT.                      -35.046    7470.8658    40.6263    90.5612

 370.00  VIB.     0.5309D+02                  4942.3915    33.9412    21.2511
         ROT.     0.4641D+06                  1102.8996     2.9808    28.9097
         INT.     0.2464D+08                  6045.2911    36.9220    50.1608
         TRA.     0.1941D+28                  1838.1660     4.9680    41.5307
         TOT.                      -34.634    7883.4571    41.8900    91.6916

 380.00  VIB.     0.6376D+02                  5288.0694    35.1921    22.1729
         ROT.     0.4831D+06                  1132.7077     2.9808    28.9892
         INT.     0.3080D+08                  6420.7771    38.1729    51.1621
         TRA.     0.2020D+28                  1887.8462     4.9680    41.6632
         TOT.                      -34.209    8308.6233    43.1410    92.8253

 390.00  VIB.     0.7675D+02                  5646.1858    36.4286    23.1031
         ROT.     0.5023D+06                  1162.5158     2.9808    29.0666
         INT.     0.3855D+08                  6808.7016    39.4094    52.1697
         TRA.     0.2100D+28                  1937.5263     4.9680    41.7923
         TOT.                      -33.771    8746.2279    44.3774    93.9620

 400.00  VIB.     0.9263D+02                  6016.5879    37.6490    24.0408
         ROT.     0.5217D+06                  1192.3239     2.9808    29.1421
         INT.     0.4833D+08                  7208.9118    40.6299    53.1829
         TRA.     0.2182D+28                  1987.2065     4.9680    41.9180
         TOT.                      -33.321    9196.1183    45.5979    95.1009

   *: NOTE: HEATS OF FORMATION ARE RELATIVE TO THE
            ELEMENTS IN THEIR STANDARD STATE AT 298K
              (=  Standard Enthalpy of Formation).

            Hvib:  Zero-point energy is not included.
                   frequencies of less than zero cm-1 are not included.
            Hrot = (3/2)RT
            Htra = (3/2)RT + pV = (5/2)RT

            Heat capacity is Cp, not Cv

          For more information, see: HTTP://OpenMOPAC.net/Manual/thermochemistry.html


           FORCE CONSTANT IN CARTESIAN COORDINATES (Millidynes/A)

    ATOM   CHEMICAL       X               Y               Z
   NUMBER   SYMBOL  FORCE CONSTANT  FORCE CONSTANT  FORCE CONSTANT

      1       O        4.158305        7.233972        0.859808
      2       O        4.158679        7.234089        0.859509
      3       C        8.672711        8.883204        7.326435
      4       C        8.672278        8.883596        7.325384
      5       C        8.373519        8.394925        7.753424
      6       C        8.373255        8.394754        7.754477
      7       C        8.024404        8.391073        8.182028
      8       C        8.024771        8.390783        8.183113
      9       C        8.138729        8.232499        8.439424
     10       H        4.406271        0.923588        0.861844
     11       H        4.405846        0.923561        0.862076
     12       H        0.753560        3.494434        2.141589
     13       H        0.736433        1.086154        4.588844
     14       H        3.304307        2.375269        0.709815
     15       H        0.720821        2.829435        2.872345
     16       H        3.304639        2.375168        0.709667
     17       H        0.720897        2.829258        2.872509
     18       H        1.234380        4.436067        0.763364
     19       H        1.169307        1.206614        4.032479
     20       H        1.169290        1.206678        4.031688
     21       H        1.234294        4.436040        0.763446

 **********************
 *                    *
 * JOB ENDED NORMALLY *
 *                    *
 **********************



 TOTAL JOB TIME:             7.62 SECONDS

 == MOPAC DONE ==
