 *******************************************************************************
 ** Site#: 14399        For non-commercial use only    Version 18.184L 64BITS **
 *******************************************************************************
 ** Cite this program as: MOPAC2016, Version: 18.184L, James J. P. Stewart,   **
 ** Stewart Computational Chemistry, web: HTTP://OpenMOPAC.net. Days left:  20**
 *******************************************************************************
 **                                                                           **
 **                                MOPAC2016                                  **
 **                                                                           **
 *******************************************************************************

                              PM3 CALCULATION RESULTS

 *******************************************************************************
 *  CALCULATION DONE:                                Thu Jun 13 15:38:51 2019  *
 *  PM3        - The PM3 Hamiltonian to be used
 *  PRECISE    - CRITERIA TO BE INCREASED BY 100 TIMES
 *  NOSYM      - POINT-GROUP SYMMETRY SET TO C1
 *  THREADS=1  - MULTI-THREADING NOT USED
 *  T=         - A TIME OF 172800.0 SECONDS REQUESTED
 *  DUMP=N     - RESTART FILE WRITTEN EVERY  7200.000 SECONDS
 *******************************************************************************
pm3  precise nosym THREADS=1
 InChI=1S/C10H10/c1-2-3-7-10-8-5-4-6-9-10/h2-9H,1H2

   ATOM   CHEMICAL          X               Y               Z
  NUMBER   SYMBOL      (ANGSTROMS)     (ANGSTROMS)     (ANGSTROMS)
 
     1       C          0.56530000  *   0.03050000  *   0.49200000  *
     2       C         -0.68990000  *   0.18480000  *   1.23540000  *
     3       C          0.90360000  *   0.95900000  *  -0.48140000  *
     4       C          1.51040000  *  -0.92610000  *   0.84150000  *
     5       C          2.18740000  *   1.04190000  *  -1.00620000  *
     6       C          2.71060000  *  -0.97350000  *   0.14410000  *
     7       C          3.13100000  *   0.08960000  *  -0.64330000  *
     8       C         -1.82370000  *  -0.39660000  *   0.84320000  *
     9       C         -2.57450000  *   0.20230000  *  -0.26310000  *
    10       C         -3.62720000  *  -0.45690000  *  -0.73700000  *
    11       H         -0.82690000  *   1.09890000  *   1.81520000  *
    12       H          0.13280000  *   1.50180000  *  -1.00940000  *
    13       H          1.48120000  *  -1.35810000  *   1.84350000  *
    14       H         -2.21650000  *  -1.24280000  *   1.40870000  *
    15       H          2.57880000  *   2.04580000  *  -1.18710000  *
    16       H          3.21310000  *  -1.93990000  *   0.11440000  *
    17       H          4.06490000  *   0.03260000  *  -1.19870000  *
    18       H         -2.60070000  *   1.28620000  *  -0.28050000  *
    19       H         -3.55880000  *  -0.83150000  *  -1.74310000  *
    20       H         -4.56100000  *  -0.34800000  *  -0.18820000  *
 


          CARTESIAN COORDINATES 

    NO.       ATOM           X           Y           Z

     1         C          0.5653      0.0305      0.4920
     2         C         -0.6899      0.1848      1.2354
     3         C          0.9036      0.9590     -0.4814
     4         C          1.5104     -0.9261      0.8415
     5         C          2.1874      1.0419     -1.0062
     6         C          2.7106     -0.9735      0.1441
     7         C          3.1310      0.0896     -0.6433
     8         C         -1.8237     -0.3966      0.8432
     9         C         -2.5745      0.2023     -0.2631
    10         C         -3.6272     -0.4569     -0.7370
    11         H         -0.8269      1.0989      1.8152
    12         H          0.1328      1.5018     -1.0094
    13         H          1.4812     -1.3581      1.8435
    14         H         -2.2165     -1.2428      1.4087
    15         H          2.5788      2.0458     -1.1871
    16         H          3.2131     -1.9399      0.1144
    17         H          4.0649      0.0326     -1.1987
    18         H         -2.6007      1.2862     -0.2805
    19         H         -3.5588     -0.8315     -1.7431
    20         H         -4.5610     -0.3480     -0.1882

  H: (PM3): J. J. P. STEWART, J. COMP. CHEM. 10, 209 (1989).
  C: (PM3): J. J. P. STEWART, J. COMP. CHEM. 10, 209 (1989).

           Empirical Formula: C10 H10  =    20 atoms



      MOLECULAR POINT GROUP   :   C1  


      RHF CALCULATION, NO. OF DOUBLY OCCUPIED LEVELS = 25


          Geometry optimization using EF

          DIAGONAL MATRIX USED AS START HESSIAN

 CYCLE:     1 TIME:   0.043 TIME LEFT:  2.00D  GRAD.:   212.060 HEAT:  201.9124
 CYCLE:     2 TIME:   0.031 TIME LEFT:  2.00D  GRAD.:   261.843 HEAT:  192.4080
 CYCLE:     3 TIME:   0.027 TIME LEFT:  2.00D  GRAD.:   170.354 HEAT:  181.3303
 CYCLE:     4 TIME:   0.027 TIME LEFT:  2.00D  GRAD.:   184.081 HEAT:  176.5506
 CYCLE:     5 TIME:   0.020 TIME LEFT:  2.00D  GRAD.:   143.719 HEAT:  168.9910
 CYCLE:     6 TIME:   0.023 TIME LEFT:  2.00D  GRAD.:   233.283 HEAT:  167.2240
 CYCLE:     7 TIME:   0.023 TIME LEFT:  2.00D  GRAD.:   164.056 HEAT:  153.9790
 CYCLE:     8 TIME:   0.031 TIME LEFT:  2.00D  GRAD.:   147.741 HEAT:  147.2768
 CYCLE:     9 TIME:   0.023 TIME LEFT:  2.00D  GRAD.:   105.457 HEAT:  138.9688
 CYCLE:    10 TIME:   0.027 TIME LEFT:  2.00D  GRAD.:   193.354 HEAT:  132.0765
 CYCLE:    11 TIME:   0.020 TIME LEFT:  2.00D  GRAD.:   129.383 HEAT:  117.9379
 CYCLE:    12 TIME:   0.031 TIME LEFT:  2.00D  GRAD.:   211.758 HEAT:  115.6231
 CYCLE:    13 TIME:   0.027 TIME LEFT:  2.00D  GRAD.:   135.137 HEAT:  104.9902
 CYCLE:    14 TIME:   0.031 TIME LEFT:  2.00D  GRAD.:   169.791 HEAT:  102.6704
 CYCLE:    15 TIME:   0.020 TIME LEFT:  2.00D  GRAD.:    83.847 HEAT:  95.74383
 CYCLE:    16 TIME:   0.023 TIME LEFT:  2.00D  GRAD.:   174.247 HEAT:  93.83355
 CYCLE:    17 TIME:   0.023 TIME LEFT:  2.00D  GRAD.:   153.596 HEAT:  87.67869
 CYCLE:    18 TIME:   0.035 TIME LEFT:  2.00D  GRAD.:    83.624 HEAT:  84.49612
 CYCLE:    19 TIME:   0.027 TIME LEFT:  2.00D  GRAD.:    50.908 HEAT:  82.29196
 CYCLE:    20 TIME:   0.023 TIME LEFT:  2.00D  GRAD.:    70.831 HEAT:  80.47709
 CYCLE:    21 TIME:   0.023 TIME LEFT:  2.00D  GRAD.:    45.481 HEAT:  77.25121
 CYCLE:    22 TIME:   0.020 TIME LEFT:  2.00D  GRAD.:    64.931 HEAT:  73.99986
 CYCLE:    23 TIME:   0.023 TIME LEFT:  2.00D  GRAD.:    90.836 HEAT:  71.44960
 CYCLE:    24 TIME:   0.031 TIME LEFT:  2.00D  GRAD.:    78.713 HEAT:  70.39759
 CYCLE:    25 TIME:   0.020 TIME LEFT:  2.00D  GRAD.:    78.470 HEAT:  69.69364
 CYCLE:    26 TIME:   0.023 TIME LEFT:  2.00D  GRAD.:    56.331 HEAT:  68.42449
 CYCLE:    27 TIME:   0.023 TIME LEFT:  2.00D  GRAD.:    36.365 HEAT:  67.56359
 CYCLE:    28 TIME:   0.023 TIME LEFT:  2.00D  GRAD.:    34.425 HEAT:  66.98085
 CYCLE:    29 TIME:   0.023 TIME LEFT:  2.00D  GRAD.:    32.811 HEAT:  66.17576
 CYCLE:    30 TIME:   0.023 TIME LEFT:  2.00D  GRAD.:    33.953 HEAT:  64.80321
 CYCLE:    31 TIME:   0.020 TIME LEFT:  2.00D  GRAD.:    40.013 HEAT:  63.53740
 CYCLE:    32 TIME:   0.023 TIME LEFT:  2.00D  GRAD.:    45.530 HEAT:  62.96623
 CYCLE:    33 TIME:   0.023 TIME LEFT:  2.00D  GRAD.:    42.277 HEAT:  62.30536
 CYCLE:    34 TIME:   0.023 TIME LEFT:  2.00D  GRAD.:    43.019 HEAT:  61.53833
 CYCLE:    35 TIME:   0.023 TIME LEFT:  2.00D  GRAD.:    25.522 HEAT:  60.89517
 CYCLE:    36 TIME:   0.023 TIME LEFT:  2.00D  GRAD.:    24.111 HEAT:  60.43850
 CYCLE:    37 TIME:   0.023 TIME LEFT:  2.00D  GRAD.:    15.584 HEAT:  60.02289
 CYCLE:    38 TIME:   0.020 TIME LEFT:  2.00D  GRAD.:    15.995 HEAT:  59.65625
 CYCLE:    39 TIME:   0.023 TIME LEFT:  2.00D  GRAD.:    17.624 HEAT:  59.41212
 CYCLE:    40 TIME:   0.023 TIME LEFT:  2.00D  GRAD.:    16.579 HEAT:  59.15356
 CYCLE:    41 TIME:   0.023 TIME LEFT:  2.00D  GRAD.:    10.208 HEAT:  58.92953
 CYCLE:    42 TIME:   0.023 TIME LEFT:  2.00D  GRAD.:    11.542 HEAT:  58.77858
 CYCLE:    43 TIME:   0.023 TIME LEFT:  2.00D  GRAD.:    11.537 HEAT:  58.64677
 CYCLE:    44 TIME:   0.020 TIME LEFT:  2.00D  GRAD.:    10.807 HEAT:  58.45919
 CYCLE:    45 TIME:   0.023 TIME LEFT:  2.00D  GRAD.:    12.206 HEAT:  58.20813
 CYCLE:    46 TIME:   0.023 TIME LEFT:  2.00D  GRAD.:    13.911 HEAT:  58.05522
 CYCLE:    47 TIME:   0.023 TIME LEFT:  2.00D  GRAD.:    12.576 HEAT:  57.87133
 CYCLE:    48 TIME:   0.023 TIME LEFT:  2.00D  GRAD.:    10.562 HEAT:  57.68527
 CYCLE:    49 TIME:   0.023 TIME LEFT:  2.00D  GRAD.:     8.665 HEAT:  57.54639
 CYCLE:    50 TIME:   0.023 TIME LEFT:  2.00D  GRAD.:     8.951 HEAT:  57.34621
 CYCLE:    51 TIME:   0.020 TIME LEFT:  2.00D  GRAD.:    17.069 HEAT:  57.25993
 CYCLE:    52 TIME:   0.023 TIME LEFT:  2.00D  GRAD.:    14.602 HEAT:  57.13527
 CYCLE:    53 TIME:   0.023 TIME LEFT:  2.00D  GRAD.:     8.660 HEAT:  57.01508
 CYCLE:    54 TIME:   0.023 TIME LEFT:  2.00D  GRAD.:     6.930 HEAT:  56.88711
 CYCLE:    55 TIME:   0.023 TIME LEFT:  2.00D  GRAD.:     6.684 HEAT:  56.79884
 CYCLE:    56 TIME:   0.023 TIME LEFT:  2.00D  GRAD.:     5.665 HEAT:  56.69761
 CYCLE:    57 TIME:   0.020 TIME LEFT:  2.00D  GRAD.:     6.527 HEAT:  56.56790
 CYCLE:    58 TIME:   0.023 TIME LEFT:  2.00D  GRAD.:     6.631 HEAT:  56.48014
 CYCLE:    59 TIME:   0.023 TIME LEFT:  2.00D  GRAD.:     6.820 HEAT:  56.37281
 CYCLE:    60 TIME:   0.023 TIME LEFT:  2.00D  GRAD.:     6.010 HEAT:  56.29128
 CYCLE:    61 TIME:   0.023 TIME LEFT:  2.00D  GRAD.:     4.557 HEAT:  56.22838
 CYCLE:    62 TIME:   0.023 TIME LEFT:  2.00D  GRAD.:     3.960 HEAT:  56.19206
 CYCLE:    63 TIME:   0.023 TIME LEFT:  2.00D  GRAD.:     3.330 HEAT:  56.17035
 CYCLE:    64 TIME:   0.020 TIME LEFT:  2.00D  GRAD.:     2.753 HEAT:  56.15235
 CYCLE:    65 TIME:   0.023 TIME LEFT:  2.00D  GRAD.:     2.511 HEAT:  56.13855
 CYCLE:    66 TIME:   0.023 TIME LEFT:  2.00D  GRAD.:     2.456 HEAT:  56.12838
 CYCLE:    67 TIME:   0.023 TIME LEFT:  2.00D  GRAD.:     2.346 HEAT:  56.11851
 CYCLE:    68 TIME:   0.023 TIME LEFT:  2.00D  GRAD.:     2.224 HEAT:  56.10730
 CYCLE:    69 TIME:   0.023 TIME LEFT:  2.00D  GRAD.:     1.894 HEAT:  56.09666
 CYCLE:    70 TIME:   0.023 TIME LEFT:  2.00D  GRAD.:     1.997 HEAT:  56.08863
 CYCLE:    71 TIME:   0.020 TIME LEFT:  2.00D  GRAD.:     2.100 HEAT:  56.08182
 CYCLE:    72 TIME:   0.031 TIME LEFT:  2.00D  GRAD.:     2.398 HEAT:  56.07370
 CYCLE:    73 TIME:   0.020 TIME LEFT:  2.00D  GRAD.:     2.684 HEAT:  56.06158
 CYCLE:    74 TIME:   0.023 TIME LEFT:  2.00D  GRAD.:     3.104 HEAT:  56.04413
 CYCLE:    75 TIME:   0.023 TIME LEFT:  2.00D  GRAD.:     3.785 HEAT:  56.02216
 CYCLE:    76 TIME:   0.023 TIME LEFT:  2.00D  GRAD.:     4.353 HEAT:  55.99402
 CYCLE:    77 TIME:   0.023 TIME LEFT:  2.00D  GRAD.:     4.635 HEAT:  55.96107
 CYCLE:    78 TIME:   0.023 TIME LEFT:  2.00D  GRAD.:     4.879 HEAT:  55.91413
 CYCLE:    79 TIME:   0.023 TIME LEFT:  2.00D  GRAD.:     4.469 HEAT:  55.88307
 CYCLE:    80 TIME:   0.020 TIME LEFT:  2.00D  GRAD.:     5.697 HEAT:  55.82935
 CYCLE:    81 TIME:   0.023 TIME LEFT:  2.00D  GRAD.:     5.543 HEAT:  55.80193
 CYCLE:    82 TIME:   0.023 TIME LEFT:  2.00D  GRAD.:     4.933 HEAT:  55.76026
 CYCLE:    83 TIME:   0.023 TIME LEFT:  2.00D  GRAD.:     5.729 HEAT:  55.71376
 CYCLE:    84 TIME:   0.023 TIME LEFT:  2.00D  GRAD.:     3.857 HEAT:  55.69199
 CYCLE:    85 TIME:   0.023 TIME LEFT:  2.00D  GRAD.:     4.008 HEAT:  55.67351
 CYCLE:    86 TIME:   0.023 TIME LEFT:  2.00D  GRAD.:     2.685 HEAT:  55.66203
 CYCLE:    87 TIME:   0.020 TIME LEFT:  2.00D  GRAD.:     2.129 HEAT:  55.65457
 CYCLE:    88 TIME:   0.023 TIME LEFT:  2.00D  GRAD.:     1.919 HEAT:  55.64926
 CYCLE:    89 TIME:   0.023 TIME LEFT:  2.00D  GRAD.:     2.256 HEAT:  55.64410
 CYCLE:    90 TIME:   0.023 TIME LEFT:  2.00D  GRAD.:     2.076 HEAT:  55.63955
 CYCLE:    91 TIME:   0.023 TIME LEFT:  2.00D  GRAD.:     1.713 HEAT:  55.63380
 CYCLE:    92 TIME:   0.023 TIME LEFT:  2.00D  GRAD.:     2.058 HEAT:  55.62624
 CYCLE:    93 TIME:   0.023 TIME LEFT:  2.00D  GRAD.:     3.373 HEAT:  55.61568
 CYCLE:    94 TIME:   0.023 TIME LEFT:  2.00D  GRAD.:     3.815 HEAT:  55.59729
 CYCLE:    95 TIME:   0.020 TIME LEFT:  2.00D  GRAD.:     9.614 HEAT:  55.58471
 CYCLE:    96 TIME:   0.023 TIME LEFT:  2.00D  GRAD.:     4.690 HEAT:  55.53993
 CYCLE:    97 TIME:   0.023 TIME LEFT:  2.00D  GRAD.:     5.936 HEAT:  55.50632
 CYCLE:    98 TIME:   0.023 TIME LEFT:  2.00D  GRAD.:     5.483 HEAT:  55.46272
 CYCLE:    99 TIME:   0.023 TIME LEFT:  2.00D  GRAD.:     5.612 HEAT:  55.43975
 CYCLE:   100 TIME:   0.023 TIME LEFT:  2.00D  GRAD.:     7.095 HEAT:  55.42470
 CYCLE:   101 TIME:   0.020 TIME LEFT:  2.00D  GRAD.:     5.225 HEAT:  55.39798
 CYCLE:   102 TIME:   0.023 TIME LEFT:  2.00D  GRAD.:     3.349 HEAT:  55.38483
 CYCLE:   103 TIME:   0.023 TIME LEFT:  2.00D  GRAD.:     1.484 HEAT:  55.38048
 CYCLE:   104 TIME:   0.023 TIME LEFT:  2.00D  GRAD.:     1.124 HEAT:  55.37796
 CYCLE:   105 TIME:   0.023 TIME LEFT:  2.00D  GRAD.:     0.924 HEAT:  55.37576
 CYCLE:   106 TIME:   0.023 TIME LEFT:  2.00D  GRAD.:     0.993 HEAT:  55.37452
 CYCLE:   107 TIME:   0.023 TIME LEFT:  2.00D  GRAD.:     0.951 HEAT:  55.37294
 CYCLE:   108 TIME:   0.023 TIME LEFT:  2.00D  GRAD.:     0.843 HEAT:  55.37195
 CYCLE:   109 TIME:   0.020 TIME LEFT:  2.00D  GRAD.:     0.805 HEAT:  55.37100
 CYCLE:   110 TIME:   0.023 TIME LEFT:  2.00D  GRAD.:     0.604 HEAT:  55.37055
 CYCLE:   111 TIME:   0.023 TIME LEFT:  2.00D  GRAD.:     0.406 HEAT:  55.37028
 CYCLE:   112 TIME:   0.023 TIME LEFT:  2.00D  GRAD.:     0.355 HEAT:  55.37016
 CYCLE:   113 TIME:   0.023 TIME LEFT:  2.00D  GRAD.:     0.477 HEAT:  55.36984
 CYCLE:   114 TIME:   0.020 TIME LEFT:  2.00D  GRAD.:     0.419 HEAT:  55.36967
 CYCLE:   115 TIME:   0.031 TIME LEFT:  2.00D  GRAD.:     2.825 HEAT:  55.37302
 CYCLE:   116 TIME:   0.023 TIME LEFT:  2.00D  GRAD.:     0.843 HEAT:  55.36805
 CYCLE:   117 TIME:   0.023 TIME LEFT:  2.00D  GRAD.:     0.664 HEAT:  55.36760
 CYCLE:   118 TIME:   0.020 TIME LEFT:  2.00D  GRAD.:     0.507 HEAT:  55.36677
 CYCLE:   119 TIME:   0.023 TIME LEFT:  2.00D  GRAD.:     0.971 HEAT:  55.36549
 CYCLE:   120 TIME:   0.023 TIME LEFT:  2.00D  GRAD.:     0.570 HEAT:  55.36513
 CYCLE:   121 TIME:   0.023 TIME LEFT:  2.00D  GRAD.:     0.393 HEAT:  55.36447
 CYCLE:   122 TIME:   0.023 TIME LEFT:  2.00D  GRAD.:     0.207 HEAT:  55.36432
 CYCLE:   123 TIME:   0.023 TIME LEFT:  2.00D  GRAD.:     0.121 HEAT:  55.36424
 CYCLE:   124 TIME:   0.023 TIME LEFT:  2.00D  GRAD.:     0.090 HEAT:  55.36421
 CYCLE:   125 TIME:   0.020 TIME LEFT:  2.00D  GRAD.:     0.134 HEAT:  55.36421
 CYCLE:   126 TIME:   0.023 TIME LEFT:  2.00D  GRAD.:     0.069 HEAT:  55.36420
 CYCLE:   127 TIME:   0.023 TIME LEFT:  2.00D  GRAD.:     0.066 HEAT:  55.36419
 CYCLE:   128 TIME:   0.023 TIME LEFT:  2.00D  GRAD.:     0.058 HEAT:  55.36419
 CYCLE:   129 TIME:   0.023 TIME LEFT:  2.00D  GRAD.:     0.075 HEAT:  55.36419
 CYCLE:   130 TIME:   0.023 TIME LEFT:  2.00D  GRAD.:     0.048 HEAT:  55.36418

     GRADIENT =  0.04813  IS LESS THAN CUTOFF =  0.05000



 -------------------------------------------------------------------------------
 pm3  precise nosym THREADS=1
 InChI=1S/C10H10/c1-2-3-7-10-8-5-4-6-9-10/h2-9H,1H2



     GEOMETRY OPTIMISED USING EIGENVECTOR FOLLOWING (EF).     
     SCF FIELD WAS ACHIEVED                                   


                              PM3 CALCULATION
                                                       MOPAC2016 (Version: 18.184L)
                                                       Thu Jun 13 15:38:54 2019
                                                       No. of days remaining =  20




          FINAL HEAT OF FORMATION =         55.36418 KCAL/MOL =     231.64374 KJ/MOL


          TOTAL ENERGY            =      -1337.33012 EV
          ELECTRONIC ENERGY       =      -6767.95932 EV  POINT GROUP:     C1  
          CORE-CORE REPULSION     =       5430.62920 EV
          COSMO AREA              =        183.04 SQUARE ANGSTROMS
          COSMO VOLUME            =        180.11 CUBIC ANGSTROMS

          GRADIENT NORM           =          0.04813 = 0.01076 PER ATOM
          IONIZATION POTENTIAL    =          8.874661 EV
          HOMO LUMO ENERGIES (EV) =         -8.875 -0.330
          NO. OF FILLED LEVELS    =         25
          MOLECULAR WEIGHT        =        130.1890

          MOLECULAR DIMENSIONS (Angstroms)

            Atom       Atom       Distance
            H    19    H    17     8.48676
            H    13    H    15     4.83210
            H    20    H    11     2.43371


          SCF CALCULATIONS        =        139
 
          WALL-CLOCK TIME         =          3.117 SECONDS
          COMPUTATION TIME        =          1.181 SECONDS




   ATOM   CHEMICAL          X               Y               Z
  NUMBER   SYMBOL      (ANGSTROMS)     (ANGSTROMS)     (ANGSTROMS)
 
     1       C          0.58013008  *  -0.11249421  *   0.58254691  *
     2       C         -0.64781900  *  -0.30439144  *   1.34884806  *
     3       C          0.70042032  *   0.83850217  *  -0.43330795  *
     4       C          1.69298467  *  -0.89660808  *   0.91398871  *
     5       C          1.90780492  *   1.00604591  *  -1.10183877  *
     6       C          2.89432260  *  -0.73290133  *   0.23722859  *
     7       C          3.00587472  *   0.22120970  *  -0.76976136  *
     8       C         -1.91698082  *  -0.21758543  *   0.92870129  *
     9       C         -2.36332270  *   0.10314368  *  -0.41602858  *
    10       C         -3.63386524  *  -0.03479460  *  -0.79112738  *
    11       H         -0.47297048  *  -0.57584201  *   2.40006179  *
    12       H         -0.17311169  *   1.44470185  *  -0.71316446  *
    13       H          1.61422154  *  -1.64437131  *   1.71144411  *
    14       H         -2.71737782  *  -0.41835625  *   1.65507745  *
    15       H          1.99124088  *   1.75811841  *  -1.89315506  *
    16       H          3.75687083  *  -1.35442625  *   0.49903092  *
    17       H          3.95545182  *   0.35268342  *  -1.29824674  *
    18       H         -1.60291483  *   0.47590017  *  -1.11950914  *
    19       H         -4.41716553  *  -0.39125423  *  -0.12741509  *
    20       H         -3.97378790  *   0.20042073  *  -1.79494866  *

                             CARTESIAN COORDINATES

   1    C        0.580130083    -0.112494206     0.582546911
   2    C       -0.647819002    -0.304391440     1.348848056
   3    C        0.700420322     0.838502167    -0.433307950
   4    C        1.692984671    -0.896608076     0.913988708
   5    C        1.907804920     1.006045911    -1.101838766
   6    C        2.894322597    -0.732901332     0.237228592
   7    C        3.005874725     0.221209695    -0.769761359
   8    C       -1.916980818    -0.217585427     0.928701289
   9    C       -2.363322701     0.103143682    -0.416028576
  10    C       -3.633865244    -0.034794598    -0.791127380
  11    H       -0.472970484    -0.575842007     2.400061791
  12    H       -0.173111686     1.444701851    -0.713164463
  13    H        1.614221535    -1.644371306     1.711444110
  14    H       -2.717377821    -0.418356249     1.655077445
  15    H        1.991240882     1.758118408    -1.893155061
  16    H        3.756870831    -1.354426249     0.499030920
  17    H        3.955451822     0.352683420    -1.298246744
  18    H       -1.602914827     0.475900169    -1.119509137
  19    H       -4.417165533    -0.391254231    -0.127415087
  20    H       -3.973787899     0.200420729    -1.794948661


           Empirical Formula: C10 H10  =    20 atoms



      MOLECULAR POINT GROUP   :   C1  


                  EIGENVALUES  
 -40.19477 -35.80763 -31.28973 -29.64710 -27.41593 -22.70378 -21.60435 -20.45869
 -19.54045 -17.44285 -16.94977 -16.05183 -15.88447 -14.95178 -14.66129 -14.14691
 -13.60099 -13.30124 -12.76782 -12.34475 -11.97301 -11.75451 -10.20782  -9.78842
  -8.87466  -0.32976   0.38429   0.76325   2.08273   2.89448   3.05747   3.30560
   3.34357   3.45614   3.51978   3.68432   3.80978   3.92782   4.01223   4.10595
   4.72787   4.86444   5.01400   5.19164   5.27904   5.32709   5.85436   5.93543
   6.23713   6.35892


              NET ATOMIC CHARGES AND DIPOLE CONTRIBUTIONS

  ATOM NO.   TYPE          CHARGE      No. of ELECS.   s-Pop       p-Pop       
    1          C          -0.038657        4.0387     1.16565     2.87300
    2          C          -0.088312        4.0883     1.17870     2.90961
    3          C          -0.102078        4.1021     1.18056     2.92152
    4          C          -0.095558        4.0956     1.18029     2.91527
    5          C          -0.100330        4.1003     1.17855     2.92178
    6          C          -0.101344        4.1013     1.17888     2.92247
    7          C          -0.101666        4.1017     1.17936     2.92230
    8          C          -0.098931        4.0989     1.18096     2.91797
    9          C          -0.121216        4.1212     1.18259     2.93863
   10          C          -0.142299        4.1423     1.18372     2.95858
   11          H           0.096120        0.9039     0.90388
   12          H           0.114803        0.8852     0.88520
   13          H           0.105302        0.8947     0.89470
   14          H           0.095272        0.9047     0.90473
   15          H           0.102623        0.8974     0.89738
   16          H           0.102721        0.8973     0.89728
   17          H           0.102971        0.8970     0.89703
   18          H           0.111539        0.8885     0.88846
   19          H           0.080413        0.9196     0.91959
   20          H           0.078629        0.9214     0.92137
 DIPOLE           X         Y         Z       TOTAL
 POINT-CHG.     0.006     0.041    -0.072     0.084
 HYBRID        -0.025    -0.065     0.038     0.079
 SUM           -0.019    -0.023    -0.035     0.046


          ATOMIC ORBITAL ELECTRON POPULATIONS

     Atom    s        px        py        pz   
    1  C   1.16565   0.93960   0.96983   0.96357
    2  C   1.17870   0.92662   1.00274   0.98025
    3  C   1.18056   0.97457   0.98295   0.96399
    4  C   1.18029   0.93774   0.98552   0.99200
    5  C   1.17855   0.94433   0.98808   0.98937
    6  C   1.17888   0.97044   0.98182   0.97021
    7  C   1.17936   0.97665   0.96841   0.97724
    8  C   1.18096   0.95952   1.00001   0.95844
    9  C   1.18259   0.97338   1.00265   0.96259
   10  C   1.18372   0.95993   0.99432   1.00433
   11  H   0.90388
   12  H   0.88520
   13  H   0.89470
   14  H   0.90473
   15  H   0.89738
   16  H   0.89728
   17  H   0.89703
   18  H   0.88846
   19  H   0.91959
   20  H   0.92137
 *******************************************************************************
 ** Site#: 14399        For non-commercial use only    Version 18.184L 64BITS **
 *******************************************************************************
 ** Cite this program as: MOPAC2016, Version: 18.184L, James J. P. Stewart,   **
 ** Stewart Computational Chemistry, web: HTTP://OpenMOPAC.net. Days left:  20**
 *******************************************************************************
 **                                                                           **
 **                                MOPAC2016                                  **
 **                                                                           **
 *******************************************************************************

                              PM3 CALCULATION RESULTS

 *******************************************************************************
 *  CALCULATION DONE:                                Thu Jun 13 15:38:54 2019  *
 *  PM3        - The PM3 Hamiltonian to be used
 *  OLDGEO     - PREVIOUS GEOMETRY TO BE USED
 *  PRECISE    - CRITERIA TO BE INCREASED BY 100 TIMES
 *  NOSYM      - POINT-GROUP SYMMETRY SET TO C1
 *  THREADS=1  - MULTI-THREADING NOT USED
 *  T=         - A TIME OF 172800.0 SECONDS REQUESTED
 *  DUMP=N     - RESTART FILE WRITTEN EVERY  7200.000 SECONDS
 *  THERMO     - THERMODYNAMIC QUANTITIES TO BE CALCULATED
 *******************************************************************************
oldgeo thermo nosym precise THREADS=1  pm3
 InChI=1S/C10H10/c1-2-3-7-10-8-5-4-6-9-10/h2-9H,1H2

   ATOM   CHEMICAL          X               Y               Z
  NUMBER   SYMBOL      (ANGSTROMS)     (ANGSTROMS)     (ANGSTROMS)
 
     1       C          0.58013008  *  -0.11249421  *   0.58254691  *
     2       C         -0.64781900  *  -0.30439144  *   1.34884806  *
     3       C          0.70042032  *   0.83850217  *  -0.43330795  *
     4       C          1.69298467  *  -0.89660808  *   0.91398871  *
     5       C          1.90780492  *   1.00604591  *  -1.10183877  *
     6       C          2.89432260  *  -0.73290133  *   0.23722859  *
     7       C          3.00587472  *   0.22120970  *  -0.76976136  *
     8       C         -1.91698082  *  -0.21758543  *   0.92870129  *
     9       C         -2.36332270  *   0.10314368  *  -0.41602858  *
    10       C         -3.63386524  *  -0.03479460  *  -0.79112738  *
    11       H         -0.47297048  *  -0.57584201  *   2.40006179  *
    12       H         -0.17311169  *   1.44470185  *  -0.71316446  *
    13       H          1.61422154  *  -1.64437131  *   1.71144411  *
    14       H         -2.71737782  *  -0.41835625  *   1.65507745  *
    15       H          1.99124088  *   1.75811841  *  -1.89315506  *
    16       H          3.75687083  *  -1.35442625  *   0.49903092  *
    17       H          3.95545182  *   0.35268342  *  -1.29824674  *
    18       H         -1.60291483  *   0.47590017  *  -1.11950914  *
    19       H         -4.41716553  *  -0.39125423  *  -0.12741509  *
    20       H         -3.97378790  *   0.20042073  *  -1.79494866  *
 


          CARTESIAN COORDINATES 

    NO.       ATOM           X           Y           Z

     1         C          0.5801     -0.1125      0.5825
     2         C         -0.6478     -0.3044      1.3488
     3         C          0.7004      0.8385     -0.4333
     4         C          1.6930     -0.8966      0.9140
     5         C          1.9078      1.0060     -1.1018
     6         C          2.8943     -0.7329      0.2372
     7         C          3.0059      0.2212     -0.7698
     8         C         -1.9170     -0.2176      0.9287
     9         C         -2.3633      0.1031     -0.4160
    10         C         -3.6339     -0.0348     -0.7911
    11         H         -0.4730     -0.5758      2.4001
    12         H         -0.1731      1.4447     -0.7132
    13         H          1.6142     -1.6444      1.7114
    14         H         -2.7174     -0.4184      1.6551
    15         H          1.9912      1.7581     -1.8932
    16         H          3.7569     -1.3544      0.4990
    17         H          3.9555      0.3527     -1.2982
    18         H         -1.6029      0.4759     -1.1195
    19         H         -4.4172     -0.3913     -0.1274
    20         H         -3.9738      0.2004     -1.7949

  H: (PM3): J. J. P. STEWART, J. COMP. CHEM. 10, 209 (1989).
  C: (PM3): J. J. P. STEWART, J. COMP. CHEM. 10, 209 (1989).

           Empirical Formula: C10 H10  =    20 atoms



      MOLECULAR POINT GROUP   :   C1  


      RHF CALCULATION, NO. OF DOUBLY OCCUPIED LEVELS = 25



          HEAT OF FORMATION =      55.364183 KCALS/MOLE


          CARTESIAN COORDINATE DERIVATIVES

   NUMBER  ATOM         X            Y            Z

     1       C      0.012239    -0.002644    -0.000252
     2       C     -0.004222     0.002724    -0.003663
     3       C     -0.002011     0.007310     0.006984
     4       C      0.012969     0.006455    -0.007537
     5       C      0.003724     0.005590    -0.001677
     6       C     -0.009725     0.009569    -0.003366
     7       C      0.003032    -0.010878     0.002230
     8       C      0.005524     0.003534     0.007480
     9       C      0.017795    -0.001912     0.022898
    10       C     -0.011689    -0.003942    -0.016846
    11       H     -0.003350    -0.002308     0.001830
    12       H     -0.005809    -0.000379     0.001454
    13       H     -0.007859    -0.006627    -0.000944
    14       H     -0.002255     0.002056    -0.002836
    15       H     -0.003175    -0.002051    -0.004163
    16       H     -0.000619    -0.003352     0.004273
    17       H     -0.000162    -0.001889     0.000943
    18       H     -0.002494     0.002464    -0.005710
    19       H     -0.001932    -0.004312     0.001258
    20       H      0.000018     0.000594    -0.002356
 


          GRADIENT NORM =   0.05144


          TIME FOR SCF CALCULATION =    0.02

          TIME FOR DERIVATIVES     =    0.01

          MOLECULAR WEIGHT =  130.19



          ROTATIONAL CONSTANTS IN CM(-1)

          A =    0.11071406   B =    0.02520341   C =    0.02150678



           PRINCIPAL MOMENTS OF INERTIA IN UNITS OF 10**(-40)*GRAM-CM**2

          A =      252.8385   B =     1110.6740   C =     1301.5792


          ORIENTATION OF MOLECULE IN FORCE CALCULATION

    NO.       ATOM         X         Y         Z

     1          C      -0.0316   -0.5304   -0.4172
     2          C       1.4285   -0.5304   -0.4172
     3          C      -0.7909    0.6419   -0.4172
     4          C      -0.6905   -1.7662   -0.4567
     5          C      -2.1792    0.5819   -0.4598
     6          C      -2.0775   -1.8221   -0.4893
     7          C      -2.8252   -0.6483   -0.4946
     8          C       2.2640    0.3150    0.2009
     9          C       1.8915    1.4534    1.0230
    10          C       2.7813    2.1125    1.7632
    11          H       1.8689   -1.3583   -0.9916
    12          H      -0.2828    1.6157   -0.3668
    13          H      -0.1074   -2.6943   -0.4608
    14          H       3.3447    0.1406    0.1003
    15          H      -2.7635    1.5078   -0.4642
    16          H      -2.5838   -2.7926   -0.5139
    17          H      -3.9185   -0.6944   -0.5261
    18          H       0.8338    1.7583    1.0047
    19          H       3.8352    1.8505    1.8042
    20          H       2.5094    2.9622    2.3817


    FIRST DERIVATIVES WILL BE USED IN THE CALCULATION OF SECOND DERIVATIVES

          ESTIMATED TIME TO COMPLETE CALCULATION =        8.44 SECONDS

    FOR POINT-GROUP C1   THERE ARE   1 UNIQUE SYMMETRY FUNCTIONS.

 STEP:   1 TIME =     0.05 SECS, INTEGRAL =      0.05 TIME LEFT: 172799.91
 STEP:   2 TIME =     0.05 SECS, INTEGRAL =      0.10 TIME LEFT: 172799.87
 STEP:   3 TIME =     0.05 SECS, INTEGRAL =      0.14 TIME LEFT: 172799.82
 STEP:   4 TIME =     0.06 SECS, INTEGRAL =      0.20 TIME LEFT: 172799.76
 STEP:   5 TIME =     0.04 SECS, INTEGRAL =      0.25 TIME LEFT: 172799.72
 STEP:   6 TIME =     0.05 SECS, INTEGRAL =      0.29 TIME LEFT: 172799.67
 STEP:   7 TIME =     0.05 SECS, INTEGRAL =      0.34 TIME LEFT: 172799.62
 STEP:   8 TIME =     0.05 SECS, INTEGRAL =      0.39 TIME LEFT: 172799.58
 STEP:   9 TIME =     0.05 SECS, INTEGRAL =      0.43 TIME LEFT: 172799.53
 STEP:  10 TIME =     0.05 SECS, INTEGRAL =      0.48 TIME LEFT: 172799.48
 STEP:  11 TIME =     0.05 SECS, INTEGRAL =      0.53 TIME LEFT: 172799.43
 STEP:  12 TIME =     0.05 SECS, INTEGRAL =      0.58 TIME LEFT: 172799.39
 STEP:  13 TIME =     0.05 SECS, INTEGRAL =      0.62 TIME LEFT: 172799.34
 STEP:  14 TIME =     0.04 SECS, INTEGRAL =      0.67 TIME LEFT: 172799.30
 STEP:  15 TIME =     0.04 SECS, INTEGRAL =      0.71 TIME LEFT: 172799.25
 STEP:  16 TIME =     0.05 SECS, INTEGRAL =      0.76 TIME LEFT: 172799.21
 STEP:  17 TIME =     0.05 SECS, INTEGRAL =      0.80 TIME LEFT: 172799.16
 STEP:  18 TIME =     0.05 SECS, INTEGRAL =      0.85 TIME LEFT: 172799.11
 STEP:  19 TIME =     0.04 SECS, INTEGRAL =      0.89 TIME LEFT: 172799.07
 STEP:  20 TIME =     0.05 SECS, INTEGRAL =      0.94 TIME LEFT: 172799.02
 STEP:  21 TIME =     0.05 SECS, INTEGRAL =      0.99 TIME LEFT: 172798.98
 STEP:  22 TIME =     0.05 SECS, INTEGRAL =      1.04 TIME LEFT: 172798.93
 STEP:  23 TIME =     0.05 SECS, INTEGRAL =      1.08 TIME LEFT: 172798.88
 STEP:  24 TIME =     0.04 SECS, INTEGRAL =      1.12 TIME LEFT: 172798.84
 STEP:  25 TIME =     0.04 SECS, INTEGRAL =      1.17 TIME LEFT: 172798.80
 STEP:  26 TIME =     0.04 SECS, INTEGRAL =      1.21 TIME LEFT: 172798.75
 STEP:  27 TIME =     0.05 SECS, INTEGRAL =      1.26 TIME LEFT: 172798.71
 STEP:  28 TIME =     0.04 SECS, INTEGRAL =      1.30 TIME LEFT: 172798.66
 STEP:  29 TIME =     0.04 SECS, INTEGRAL =      1.34 TIME LEFT: 172798.62
 STEP:  30 TIME =     0.04 SECS, INTEGRAL =      1.39 TIME LEFT: 172798.58
 STEP:  31 TIME =     0.04 SECS, INTEGRAL =      1.43 TIME LEFT: 172798.54
 STEP:  32 TIME =     0.05 SECS, INTEGRAL =      1.48 TIME LEFT: 172798.49
 STEP:  33 TIME =     0.05 SECS, INTEGRAL =      1.52 TIME LEFT: 172798.44
 STEP:  34 TIME =     0.05 SECS, INTEGRAL =      1.57 TIME LEFT: 172798.39
 STEP:  35 TIME =     0.04 SECS, INTEGRAL =      1.61 TIME LEFT: 172798.35
 STEP:  36 TIME =     0.05 SECS, INTEGRAL =      1.66 TIME LEFT: 172798.30
 STEP:  37 TIME =     0.05 SECS, INTEGRAL =      1.71 TIME LEFT: 172798.26
 STEP:  38 TIME =     0.04 SECS, INTEGRAL =      1.75 TIME LEFT: 172798.21
 STEP:  39 TIME =     0.04 SECS, INTEGRAL =      1.79 TIME LEFT: 172798.17
 STEP:  40 TIME =     0.05 SECS, INTEGRAL =      1.84 TIME LEFT: 172798.12
 STEP:  41 TIME =     0.04 SECS, INTEGRAL =      1.88 TIME LEFT: 172798.08
 STEP:  42 TIME =     0.05 SECS, INTEGRAL =      1.93 TIME LEFT: 172798.04
 STEP:  43 TIME =     0.04 SECS, INTEGRAL =      1.97 TIME LEFT: 172797.99
 STEP:  44 TIME =     0.04 SECS, INTEGRAL =      2.02 TIME LEFT: 172797.95
 STEP:  45 TIME =     0.05 SECS, INTEGRAL =      2.06 TIME LEFT: 172797.90
 STEP:  46 TIME =     0.04 SECS, INTEGRAL =      2.11 TIME LEFT: 172797.86
 STEP:  47 TIME =     0.04 SECS, INTEGRAL =      2.15 TIME LEFT: 172797.82
 STEP:  48 TIME =     0.05 SECS, INTEGRAL =      2.20 TIME LEFT: 172797.77
 STEP:  49 TIME =     0.04 SECS, INTEGRAL =      2.24 TIME LEFT: 172797.73
 STEP:  50 TIME =     0.04 SECS, INTEGRAL =      2.28 TIME LEFT: 172797.68
 STEP:  51 TIME =     0.05 SECS, INTEGRAL =      2.33 TIME LEFT: 172797.64
 STEP:  52 TIME =     0.04 SECS, INTEGRAL =      2.37 TIME LEFT: 172797.59
 STEP:  53 TIME =     0.04 SECS, INTEGRAL =      2.41 TIME LEFT: 172797.55
 STEP:  54 TIME =     0.05 SECS, INTEGRAL =      2.46 TIME LEFT: 172797.50
 STEP:  55 TIME =     0.04 SECS, INTEGRAL =      2.50 TIME LEFT: 172797.46
 STEP:  56 TIME =     0.05 SECS, INTEGRAL =      2.55 TIME LEFT: 172797.41
 STEP:  57 TIME =     0.05 SECS, INTEGRAL =      2.60 TIME LEFT: 172797.37
 STEP:  58 TIME =     0.05 SECS, INTEGRAL =      2.64 TIME LEFT: 172797.32
 STEP:  59 TIME =     0.05 SECS, INTEGRAL =      2.69 TIME LEFT: 172797.27
 STEP:  60 TIME =     0.04 SECS, INTEGRAL =      2.73 TIME LEFT: 172797.23

(To convert to Hartree/Bohr^2, multiply by (10^(-21) x N x a0^2)/(4.184 x 627.51) =  0.0642)


           FORCE MATRIX IN MILLIDYNES/ANGSTROM


                  C  1       C  2       C  3       C  4       C  5       C  6
 ------------------------------------------------------------------------------
     C    1  18.040056
     C    2   5.416957  18.296826
     C    3   6.828724   0.751854  17.413840
     C    4   6.637318   0.911552   2.271723  17.428844
     C    5   2.333612   0.104153   7.058525   1.735935  17.373027
     C    6   2.323554   0.112751   1.727345   7.136003   2.453578  17.376598
     C    7   1.677939   0.024752   2.396278   2.398270   7.111553   7.055397
     C    8   0.848999  10.148309   0.060502   0.075193   0.015904   0.027203
     C    9   0.107278   0.962673   0.095237   0.020500   0.006824   0.008412
     C   10   0.027767   0.123069   0.010049   0.007192   0.004779   0.004848
     H   11   0.431843   4.702575   0.034678   0.056490   0.009643   0.007325
     H   12   0.447527   0.044352   4.704708   0.083038   0.432206   0.010225
     H   13   0.447252   0.054262   0.081317   4.827694   0.010430   0.435309
     H   14   0.122842   0.428683   0.007372   0.009969   0.005589   0.005419
     H   15   0.089800   0.008195   0.435032   0.009930   4.862463   0.089103
     H   16   0.090728   0.008494   0.009685   0.436162   0.087851   4.862469
     H   17   0.008100   0.009679   0.088044   0.087277   0.437844   0.437549
     H   18   0.019612   0.021601   0.125394   0.003008   0.004711   0.001541
     H   19   0.005103   0.008438   0.002051   0.000929   0.001672   0.001073
     H   20   0.004958   0.011607   0.001825   0.000631   0.000934   0.000668


                  C  7       C  8       C  9       C 10       H 11       H 12
 ------------------------------------------------------------------------------
     C    7  17.387144
     C    8   0.009670  18.324778
     C    9   0.003835   5.645192  18.377212
     C   10   0.003151   1.103561  10.755499  17.880337
     H   11   0.003649   0.431746   0.123522   0.009710   5.047812
     H   12   0.088208   0.011370   0.092100   0.003543   0.003161   5.136191
     H   13   0.090441   0.004442   0.002419   0.000586   0.029588   0.006629
     H   14   0.001148   4.713431   0.446056   0.046978   0.073976   0.003501
     H   15   0.436730   0.001088   0.001217   0.000643   0.001078   0.041963
     H   16   0.436731   0.001709   0.000577   0.000464   0.000612   0.007775
     H   17   4.868985   0.001046   0.000900   0.000507   0.000729   0.006633
     H   18   0.001253   0.446362   4.636129   0.445426   0.003641   0.203345
     H   19   0.001204   0.102385   0.490365   5.071002   0.005549   0.000849
     H   20   0.001127   0.137341   0.458551   5.112050   0.008521   0.001143


                  H 13       H 14       H 15       H 16       H 17       H 18
 ------------------------------------------------------------------------------
     H   13   5.201177
     H   14   0.001994   5.067941
     H   15   0.007763   0.000426   5.226053
     H   16   0.042968   0.000545   0.006828   5.226104
     H   17   0.006934   0.000690   0.041292   0.040868   5.235943
     H   18   0.000871   0.036359   0.000998   0.000541   0.000513   5.115232
     H   19   0.000277   0.027616   0.000178   0.000220   0.000195   0.115573
     H   20   0.000273   0.002858   0.000232   0.000242   0.000247   0.077287


                  H 19       H 20
 ------------------------------
     H   19   5.465551
     H   20   0.420704   5.495187


          HEAT OF FORMATION =      55.364183 KCALS/MOLE

          ZERO POINT ENERGY     104.181 KCAL/MOL


           NORMAL COORDINATE ANALYSIS (Total motion = 1 Angstrom)


   Root No.       1         2         3         4         5         6         7         8

                 1 A       2 A       3 A       4 A       5 A       6 A       7 A       8 A   

                  57.8     113.4     165.8     217.2     277.7     359.8     394.1     401.3
  
           1    0.0059   -0.0131   -0.0033   -0.0102   -0.0016   -0.0003   -0.0002    0.0041
           2    0.0071    0.0066    0.0071    0.0314   -0.0337   -0.0027    0.0258   -0.0068
           3   -0.0173    0.0283    0.0172   -0.0345   -0.0121    0.0140    0.0271   -0.0121
           4    0.0062   -0.0132   -0.0033   -0.0103   -0.0039    0.0054   -0.0061    0.0011
           5    0.0131    0.0143    0.0172    0.0192    0.0062   -0.0024   -0.0254    0.0015
           6   -0.0347    0.0157   -0.0237   -0.0029    0.0105    0.0167    0.0398   -0.0271
           7    0.0053   -0.0235   -0.0062   -0.0279    0.0168   -0.0099   -0.0025    0.0078
           8    0.0067   -0.0004    0.0053    0.0191   -0.0226   -0.0076    0.0257   -0.0051
           9   -0.0423    0.0198    0.0138   -0.0351   -0.0199    0.0165    0.0138    0.0592
          10    0.0080   -0.0025    0.0029    0.0116   -0.0143   -0.0117    0.0216    0.0046
          11    0.0051    0.0004    0.0038    0.0186   -0.0263    0.0028    0.0184   -0.0061
          12    0.0296    0.0240    0.0376   -0.0208   -0.0247   -0.0382   -0.0194   -0.0245
          13    0.0049   -0.0223   -0.0049   -0.0290    0.0177   -0.0099   -0.0011    0.0117
          14    0.0039   -0.0139   -0.0001   -0.0117   -0.0002   -0.0046    0.0065    0.0051
          15   -0.0244   -0.0165   -0.0239   -0.0268   -0.0211   -0.0380   -0.0219   -0.0096
          16    0.0075   -0.0009    0.0037    0.0132   -0.0179   -0.0145    0.0261    0.0025
          17    0.0027   -0.0129   -0.0011   -0.0115   -0.0038    0.0013    0.0009    0.0024
          18    0.0507   -0.0106    0.0127    0.0236    0.0097    0.0184    0.0023    0.0442
          19    0.0063   -0.0109    0.0009   -0.0076   -0.0002   -0.0185    0.0178    0.0103
          20    0.0017   -0.0194   -0.0030   -0.0246    0.0077   -0.0014   -0.0047    0.0071
          21    0.0226   -0.0377   -0.0351    0.0192    0.0178    0.0149    0.0159   -0.0262
          22    0.0021    0.0023    0.0019   -0.0036   -0.0326    0.0366   -0.0086   -0.0195
          23    0.0120    0.0236    0.0054   -0.0287    0.0453    0.0007    0.0082   -0.0098
          24   -0.0282   -0.0190   -0.0156    0.0515   -0.0026   -0.0223   -0.0145    0.0149
          25   -0.0115    0.0337   -0.0052    0.0161   -0.0125    0.0396   -0.0392   -0.0153
          26   -0.0053    0.0374   -0.0381   -0.0057    0.0273   -0.0134   -0.0058    0.0120
          27   -0.0097   -0.0242    0.0408    0.0271    0.0348   -0.0018   -0.0144   -0.0117
          28   -0.0311    0.0446    0.0127    0.0413    0.0384   -0.0092   -0.0090   -0.0078
          29   -0.0433   -0.0305    0.0025    0.0006   -0.0039    0.0249   -0.0376   -0.0041
          30    0.0474    0.0237   -0.0170   -0.0073    0.0049    0.0220   -0.0253   -0.0069
          31    0.0047   -0.0202   -0.0136   -0.0104    0.0283   -0.0086   -0.0156    0.0110
          32    0.0227    0.0044    0.0450    0.0234    0.0171   -0.0132   -0.0689    0.0188
          33   -0.0492    0.0238   -0.0713   -0.0099    0.0197    0.0205    0.0952   -0.0439
          34    0.0068   -0.0333   -0.0048   -0.0364    0.0388   -0.0150   -0.0159   -0.0038
          35    0.0075    0.0042    0.0034    0.0231   -0.0341   -0.0064    0.0321   -0.0020
          36   -0.0716    0.0322    0.0416   -0.0163   -0.0065    0.0460    0.0138    0.1002
          37    0.0100    0.0056    0.0075    0.0300   -0.0261   -0.0169    0.0365    0.0027
          38    0.0063    0.0053    0.0067    0.0299   -0.0332   -0.0003    0.0274   -0.0070
          39    0.0503    0.0416    0.0651   -0.0299   -0.0475   -0.1040   -0.0645   -0.0734
          40    0.0036   -0.0010    0.0024   -0.0071   -0.0297    0.0338   -0.0062   -0.0181
          41    0.0255    0.0154    0.0333   -0.0799    0.0762    0.0101    0.0296   -0.0259
          42   -0.0338   -0.0423   -0.0563    0.0986   -0.0367   -0.0608   -0.0242    0.0544
          43    0.0036   -0.0308   -0.0084   -0.0483    0.0328   -0.0039   -0.0161    0.0175
          44    0.0030   -0.0193   -0.0024   -0.0239    0.0091   -0.0011   -0.0032    0.0086
          45   -0.0461   -0.0305   -0.0449   -0.0420   -0.0397   -0.1011   -0.0695   -0.0458
          46    0.0082    0.0086    0.0071    0.0320   -0.0351   -0.0130    0.0372   -0.0062
          47    0.0014   -0.0177   -0.0031   -0.0222    0.0046   -0.0004   -0.0047    0.0050
          48    0.0887   -0.0192    0.0245    0.0607    0.0294    0.0510    0.0021    0.1219
          49    0.0059   -0.0095    0.0022   -0.0077   -0.0018   -0.0193    0.0177    0.0117
          50   -0.0006   -0.0289   -0.0070   -0.0461    0.0244   -0.0004   -0.0199    0.0122
          51    0.0378   -0.0727   -0.0744    0.0513    0.0499    0.0428    0.0415   -0.0820
          52   -0.0059    0.0519   -0.0263    0.0192   -0.0143    0.0271   -0.0431    0.0004
          53    0.0128    0.0985   -0.1044    0.0087    0.0239   -0.0519   -0.0230    0.0584
          54   -0.0473   -0.0662    0.1219    0.0071    0.0820    0.0076    0.0290   -0.0244
          55   -0.0375    0.0261    0.0320    0.0356    0.0376    0.0068   -0.0085   -0.0212
          56   -0.0633   -0.0992    0.0666   -0.0244   -0.0208    0.0959   -0.0482   -0.0524
          57    0.0839    0.0641   -0.1073   -0.0125   -0.0680    0.0394   -0.0921    0.0335
          58   -0.0426    0.0733    0.0105    0.0723    0.0914   -0.0817    0.0291    0.0142
          59   -0.0578   -0.0240   -0.0247    0.0307   -0.0189   -0.0034   -0.0653    0.0282
          60    0.0622    0.0271    0.0193   -0.0354    0.0484    0.0303    0.0278   -0.0418


   Root No.       9        10        11        12        13        14        15        16

                 9 A      10 A      11 A      12 A      13 A      14 A      15 A      16 A   

                 485.8     542.3     626.6     631.8     656.3     727.0     773.9     823.8
  
           1   -0.0088    0.0450    0.0010    0.0065   -0.0094   -0.0149    0.0049    0.0016
           2   -0.0079   -0.0020   -0.0038    0.0353   -0.0052   -0.0050    0.0011   -0.0012
           3    0.0512    0.0108   -0.0189   -0.0020    0.0348   -0.0289    0.0253    0.0284
           4   -0.0123    0.0611    0.0004    0.0064   -0.0082   -0.0089    0.0002   -0.0051
           5    0.0196    0.0105    0.0017   -0.0066    0.0351    0.0468   -0.0182    0.0192
           6   -0.0237   -0.0070   -0.0195   -0.0153    0.0062    0.0295    0.0018   -0.0267
           7    0.0058   -0.0101   -0.0031    0.0602    0.0040    0.0004    0.0032    0.0036
           8   -0.0003   -0.0354   -0.0069    0.0595    0.0006    0.0042   -0.0012   -0.0049
           9    0.0115    0.0066    0.0216    0.0147   -0.0189    0.0135   -0.0068   -0.0047
          10    0.0033   -0.0086    0.0032   -0.0637   -0.0060   -0.0109    0.0045    0.0026
          11   -0.0122    0.0271   -0.0066    0.0639   -0.0101   -0.0194    0.0084   -0.0011
          12    0.0063    0.0055    0.0165    0.0052   -0.0123   -0.0048   -0.0109    0.0054
          13    0.0094   -0.0163   -0.0020    0.0698    0.0051    0.0060    0.0029    0.0049
          14    0.0067   -0.0234    0.0041   -0.0664    0.0012    0.0112   -0.0068   -0.0068
          15   -0.0286   -0.0077   -0.0165   -0.0043    0.0155   -0.0113   -0.0132   -0.0099
          16    0.0041   -0.0163    0.0036   -0.0625   -0.0082   -0.0131    0.0056    0.0023
          17   -0.0032    0.0293    0.0044   -0.0630   -0.0104   -0.0210    0.0095    0.0057
          18   -0.0275   -0.0060   -0.0156   -0.0071    0.0150   -0.0141   -0.0135   -0.0035
          19    0.0127   -0.0584    0.0001   -0.0043    0.0073    0.0215   -0.0080   -0.0065
          20    0.0032    0.0006    0.0033   -0.0376    0.0003    0.0032   -0.0006    0.0002
          21    0.0342    0.0060    0.0162    0.0051   -0.0119   -0.0021   -0.0208   -0.0143
          22   -0.0084    0.0392   -0.0087   -0.0083    0.0225    0.0455   -0.0145   -0.0047
          23   -0.0128    0.0116   -0.0063    0.0002   -0.0040    0.0095   -0.0125    0.0181
          24    0.0115    0.0213    0.0069   -0.0003    0.0169    0.0055    0.0101   -0.0267
          25   -0.0040   -0.0344    0.0070   -0.0021   -0.0029   -0.0105    0.0024    0.0002
          26   -0.0051    0.0041    0.0214    0.0080    0.0085   -0.0116    0.0092   -0.0088
          27    0.0025   -0.0020   -0.0222   -0.0015   -0.0199   -0.0091   -0.0075    0.0098
          28   -0.0026   -0.0029    0.0003   -0.0007   -0.0040   -0.0125    0.0010    0.0021
          29    0.0015   -0.0216    0.0006    0.0027   -0.0095   -0.0150    0.0028   -0.0016
          30   -0.0063   -0.0195    0.0062    0.0028   -0.0063   -0.0143    0.0013    0.0025
          31   -0.0273    0.0713    0.0084   -0.0014   -0.0214   -0.0090   -0.0128   -0.0074
          32    0.0799    0.0309   -0.0241   -0.0141    0.0606    0.0445    0.0493   -0.1006
          33   -0.1213   -0.0268    0.0237   -0.0091   -0.0401    0.0335   -0.1054    0.1439
          34    0.0152   -0.0415   -0.0063    0.0180    0.0229   -0.0062   -0.0087    0.0102
          35   -0.0034   -0.0185   -0.0076    0.0810   -0.0049    0.0030    0.0029   -0.0080
          36   -0.0264   -0.0012    0.0657    0.0145   -0.1009    0.0880    0.0324   -0.0050
          37    0.0075   -0.0380   -0.0012   -0.0374   -0.0020   -0.0067    0.0033   -0.0044
          38   -0.0090    0.0089   -0.0096    0.0801   -0.0071   -0.0171    0.0074   -0.0054
          39   -0.0324   -0.0008    0.0721    0.0136   -0.1102    0.1321    0.0501   -0.0628
          40   -0.0093    0.0491   -0.0114   -0.0070    0.0190    0.0441   -0.0134   -0.0104
          41   -0.0062    0.0437   -0.0842   -0.0089   -0.0513    0.0009    0.0283   -0.1160
          42   -0.0061    0.0622    0.1093    0.0275    0.0635    0.0036   -0.0448    0.1456
          43    0.0120    0.0128    0.0037    0.0445    0.0040   -0.0024    0.0032    0.0115
          44    0.0078   -0.0048    0.0075   -0.0822    0.0005    0.0062   -0.0060   -0.0023
          45   -0.1109   -0.0317   -0.0635   -0.0339    0.0324    0.0385    0.1438    0.0952
          46   -0.0035    0.0082   -0.0000   -0.0250   -0.0192   -0.0431    0.0139    0.0042
          47    0.0028    0.0167    0.0072   -0.0817   -0.0049   -0.0080    0.0012    0.0035
          48   -0.1051   -0.0273   -0.0543   -0.0264    0.0212    0.0732    0.1559    0.0462
          49    0.0109   -0.0585   -0.0011   -0.0084    0.0086    0.0176   -0.0128   -0.0094
          50    0.0059   -0.0008   -0.0010    0.0539    0.0114    0.0200   -0.0063    0.0011
          51    0.0934    0.0179    0.0625    0.0138   -0.0776    0.1069    0.1585    0.0894
          52    0.0082   -0.0335   -0.0008    0.0014   -0.0128   -0.0152    0.0080   -0.0065
          53    0.0340   -0.0001   -0.0039    0.0185   -0.0254   -0.0358    0.0281   -0.0284
          54   -0.0408   -0.0207    0.0303    0.0189   -0.0216   -0.0004   -0.0071    0.0391
          55   -0.0167   -0.0160    0.0230    0.0013    0.0099   -0.0249    0.0080   -0.0027
          56   -0.0461   -0.0845    0.0791    0.0095    0.0318   -0.0635    0.0283   -0.0136
          57    0.0534   -0.0475   -0.0829   -0.0066   -0.0912    0.0034   -0.0205    0.0417
          58    0.0132    0.0662   -0.0354   -0.0022   -0.0103    0.0151   -0.0150    0.0023
          59    0.0571   -0.0018   -0.1064   -0.0097   -0.0876    0.0171   -0.0350    0.0447
          60   -0.0757   -0.0190    0.1380    0.0195    0.0967   -0.0487    0.0468   -0.0604


   Root No.      17        18        19        20        21        22        23        24

                17 A      18 A      19 A      20 A      21 A      22 A      23 A      24 A   

                 858.8     867.4     931.5     939.8     956.7     989.8     993.1    1024.0
  
           1    0.0008    0.0015   -0.0008   -0.0074    0.0007    0.0013   -0.0005    0.0014
           2    0.0001    0.0007   -0.0000    0.0007   -0.0003    0.0004   -0.0001    0.0001
           3   -0.0005    0.0167    0.0167   -0.0146    0.0169    0.0155    0.0007    0.0252
           4    0.0289    0.0290    0.0008   -0.0138   -0.0001   -0.0001   -0.0009    0.0019
           5   -0.0220   -0.0210   -0.0146   -0.0006   -0.0005    0.0273    0.0023    0.0071
           6   -0.0113   -0.0239    0.0015   -0.0058   -0.0052   -0.0386   -0.0018   -0.0148
           7   -0.0153   -0.0161    0.0007    0.0054    0.0005   -0.0007    0.0020    0.0010
           8    0.0071    0.0054    0.0012    0.0036   -0.0011   -0.0030    0.0029    0.0011
           9   -0.0096    0.0100   -0.0199    0.0139   -0.0037   -0.0008   -0.0296   -0.0377
          10   -0.0148   -0.0131    0.0005    0.0057    0.0005   -0.0001    0.0013    0.0013
          11   -0.0024    0.0005    0.0012   -0.0069   -0.0010   -0.0006   -0.0070   -0.0046
          12    0.0230   -0.0151   -0.0173    0.0113   -0.0290   -0.0058    0.0315   -0.0258
          13   -0.0185   -0.0228   -0.0013    0.0079    0.0026    0.0014    0.0042    0.0013
          14    0.0299    0.0285    0.0003   -0.0113   -0.0008   -0.0000   -0.0048   -0.0039
          15   -0.0240    0.0193    0.0018   -0.0001   -0.0234   -0.0134    0.0145    0.0408
          16   -0.0157   -0.0131    0.0014    0.0068   -0.0001   -0.0013    0.0015   -0.0010
          17   -0.0292   -0.0272    0.0007    0.0110    0.0002   -0.0018    0.0032    0.0006
          18    0.0170   -0.0217   -0.0031    0.0034    0.0101   -0.0091   -0.0394    0.0325
          19    0.0313    0.0266   -0.0010   -0.0102    0.0013    0.0008    0.0006    0.0040
          20    0.0011   -0.0005   -0.0005    0.0001    0.0011    0.0001    0.0019    0.0025
          21   -0.0053   -0.0033    0.0178   -0.0131    0.0247    0.0180    0.0198   -0.0365
          22    0.0106    0.0065    0.0030    0.0161    0.0044   -0.0034    0.0049    0.0018
          23   -0.0033    0.0026   -0.0019   -0.0195    0.0015   -0.0255   -0.0035   -0.0081
          24    0.0037   -0.0068   -0.0112   -0.0064   -0.0118    0.0368   -0.0015    0.0065
          25   -0.0037   -0.0039    0.0045    0.0027   -0.0041    0.0014   -0.0018   -0.0018
          26    0.0103    0.0034    0.0201    0.0045   -0.0105    0.0030   -0.0032    0.0007
          27   -0.0010    0.0143   -0.0156    0.0079    0.0150   -0.0052    0.0018   -0.0008
          28   -0.0013    0.0024   -0.0048   -0.0225   -0.0081    0.0041   -0.0079   -0.0030
          29    0.0063    0.0099    0.0165    0.0317   -0.0004    0.0115   -0.0043   -0.0012
          30    0.0038    0.0096    0.0042    0.0212    0.0114   -0.0171    0.0080    0.0012
          31    0.0370    0.0316   -0.0289   -0.0548   -0.0221    0.0108   -0.0098   -0.0177
          32   -0.0069   -0.0484    0.0191   -0.0403   -0.0201   -0.1091   -0.0095   -0.0419
          33   -0.0277    0.0166   -0.0709    0.0177    0.0057    0.1661    0.0080    0.0404
          34   -0.0309    0.0113    0.0020    0.0065   -0.0294    0.0010   -0.0610   -0.0548
          35    0.0092   -0.0013   -0.0044    0.0062    0.0113   -0.0042    0.0248    0.0204
          36    0.1030   -0.1300    0.0805   -0.0524    0.0484    0.0049    0.1766    0.1499
          37   -0.0061   -0.0083    0.0004    0.0007   -0.0046   -0.0068   -0.0056   -0.0114
          38    0.0039    0.0031    0.0008   -0.0101   -0.0050   -0.0051   -0.0109   -0.0132
          39   -0.1425    0.0807    0.0760   -0.0497    0.1290    0.0274   -0.1277    0.0766
          40    0.0196    0.0136   -0.0012    0.0065    0.0029    0.0020    0.0051    0.0045
          41    0.0431    0.0102   -0.0610   -0.0344   -0.0295    0.1163    0.0003    0.0252
          42    0.0087    0.0460    0.0472   -0.0813    0.0248   -0.1486   -0.0079   -0.0232
          43   -0.0572   -0.0519   -0.0024    0.0173    0.0002    0.0042    0.0051    0.0025
          44    0.0074    0.0106   -0.0003   -0.0058   -0.0017    0.0020   -0.0046   -0.0039
          45    0.1465   -0.1100   -0.0015   -0.0042    0.1092    0.0563   -0.0690   -0.1371
          46   -0.0399   -0.0382    0.0039    0.0114   -0.0042   -0.0075   -0.0202   -0.0187
          47   -0.0140   -0.0191   -0.0012    0.0095    0.0038    0.0002    0.0097    0.0133
          48   -0.1198    0.1422    0.0227   -0.0199   -0.0466    0.0374    0.1591   -0.1049
          49    0.0299    0.0263    0.0024   -0.0126    0.0052    0.0031    0.0028   -0.0008
          50   -0.0017   -0.0097   -0.0036   -0.0000    0.0081    0.0080    0.0162    0.0136
          51    0.0445    0.0174   -0.0971    0.0678   -0.1172   -0.0734   -0.0764    0.1194
          52   -0.0046   -0.0014   -0.0406   -0.0025    0.0315   -0.0063    0.0215    0.0116
          53    0.0042    0.0125   -0.1279   -0.0214    0.1023   -0.0227    0.0694    0.0435
          54    0.0237   -0.0384    0.1493   -0.0518   -0.0985    0.0182   -0.0244    0.0063
          55   -0.0077    0.0025   -0.0388   -0.0483    0.0082   -0.0161    0.0033    0.0004
          56   -0.0241   -0.0024   -0.1176   -0.1120    0.0441   -0.0556    0.0288    0.0099
          57   -0.0047   -0.0347    0.0642   -0.1227   -0.1047    0.0710   -0.0658   -0.0172
          58    0.0324    0.0501    0.0674    0.1865    0.0410   -0.0247    0.0210    0.0022
          59    0.0052    0.0180    0.0208    0.0490    0.0304   -0.0650    0.0247    0.0019
          60    0.0200    0.0193    0.0293    0.0854   -0.0098    0.0750   -0.0194   -0.0005


   Root No.      25        26        27        28        29        30        31        32

                25 A      26 A      27 A      28 A      29 A      30 A      31 A      32 A   

                1037.6    1043.2    1110.1    1116.9    1138.6    1155.4    1163.9    1212.5
  
           1   -0.0070   -0.0121   -0.0083   -0.0231   -0.0035   -0.0004   -0.0028   -0.0183
           2   -0.0007   -0.0012    0.0067   -0.0021   -0.0141   -0.0137   -0.0028   -0.0043
           3   -0.0018    0.0021    0.0026   -0.0000    0.0104   -0.0003    0.0001   -0.0011
           4    0.0066    0.0125    0.0052    0.0060    0.0010   -0.0009   -0.0024   -0.0239
           5   -0.0101   -0.0062   -0.0082   -0.0074    0.0052    0.0022    0.0029   -0.0013
           6    0.0057   -0.0109   -0.0018   -0.0077    0.0023   -0.0001    0.0007   -0.0011
           7    0.0053    0.0090   -0.0143    0.0108    0.0097   -0.0024    0.0074   -0.0049
           8    0.0269    0.0449    0.0028    0.0259    0.0188    0.0027   -0.0100   -0.0204
           9   -0.0001    0.0076    0.0011   -0.0016   -0.0047   -0.0006   -0.0022   -0.0011
          10    0.0072    0.0111    0.0233    0.0034   -0.0034    0.0001    0.0031   -0.0119
          11   -0.0255   -0.0395   -0.0201   -0.0222   -0.0034    0.0005    0.0105    0.0174
          12    0.0008   -0.0032   -0.0007   -0.0003   -0.0025   -0.0001    0.0007    0.0003
          13    0.0028    0.0017    0.0004   -0.0049    0.0001    0.0004   -0.0027    0.0129
          14   -0.0110   -0.0149   -0.0077    0.0168    0.0141    0.0061   -0.0039   -0.0142
          15    0.0007   -0.0054   -0.0010    0.0011    0.0023    0.0004    0.0008    0.0005
          16    0.0021    0.0026   -0.0057   -0.0019   -0.0072    0.0015   -0.0042    0.0066
          17    0.0117    0.0178   -0.0186   -0.0115    0.0015    0.0046    0.0070    0.0188
          18   -0.0003    0.0010    0.0001   -0.0001    0.0008    0.0002   -0.0001    0.0003
          19   -0.0081   -0.0160   -0.0170   -0.0354   -0.0123    0.0007   -0.0038    0.0192
          20   -0.0000   -0.0022    0.0071   -0.0024   -0.0015    0.0041    0.0010    0.0035
          21   -0.0002    0.0012   -0.0004   -0.0012   -0.0009    0.0001   -0.0001    0.0007
          22    0.0072    0.0053   -0.0053    0.0207   -0.0233    0.0026    0.0073   -0.0137
          23    0.0109   -0.0040    0.0016   -0.0066    0.0073   -0.0008   -0.0062   -0.0021
          24   -0.0156    0.0108   -0.0003   -0.0030    0.0027    0.0000   -0.0032   -0.0042
          25   -0.0081    0.0005    0.0040   -0.0097    0.0248   -0.0003   -0.0019    0.0277
          26   -0.0201    0.0172   -0.0004    0.0044   -0.0219   -0.0007   -0.0029   -0.0238
          27    0.0269   -0.0151   -0.0016    0.0029   -0.0099   -0.0002   -0.0003   -0.0161
          28    0.0089    0.0019    0.0024    0.0005   -0.0154   -0.0017   -0.0082   -0.0070
          29    0.0272   -0.0181    0.0008   -0.0006    0.0044   -0.0001    0.0006    0.0063
          30   -0.0342    0.0187    0.0024   -0.0014   -0.0008   -0.0007   -0.0025    0.0043
          31    0.0070    0.0308    0.0673   -0.0340    0.2882    0.0001    0.0032   -0.0032
          32    0.0144   -0.0093    0.0171   -0.0290    0.1135    0.0015   -0.0007    0.0085
          33   -0.0293    0.0077    0.0087   -0.0086    0.0706    0.0021    0.0091    0.0054
          34   -0.0439   -0.0124   -0.0807    0.1142    0.0136    0.0398    0.1872   -0.0182
          35    0.0532    0.0609    0.0388   -0.0268    0.0157   -0.0207   -0.1069   -0.0172
          36    0.0084   -0.0442   -0.0211    0.0258    0.0384    0.0082    0.0271    0.0090
          37   -0.0250   -0.0412    0.1947    0.0655    0.0352   -0.1011    0.1643    0.0168
          38   -0.0465   -0.0737    0.0843    0.0139    0.0208   -0.0638    0.1121    0.0380
          39   -0.0053    0.0106    0.0067    0.0000    0.0107   -0.0018    0.0018   -0.0001
          40    0.0128    0.0168   -0.0011    0.0424   -0.0352    0.0027    0.0057    0.0666
          41   -0.0090    0.0641    0.0164    0.0810   -0.0504   -0.0013   -0.0139    0.3306
          42    0.0707    0.0064    0.0148    0.0562   -0.0263   -0.0001   -0.0125    0.2499
          43   -0.0537   -0.0971    0.0812    0.0987   -0.0237   -0.1903   -0.1671   -0.0195
          44   -0.0466   -0.0770    0.0448    0.0837    0.0001   -0.1127   -0.1090   -0.0375
          45   -0.0059    0.0162    0.0072    0.0004   -0.0059   -0.0085   -0.0099   -0.0025
          46   -0.0551   -0.0816   -0.0492    0.1276    0.0665    0.2596   -0.1090    0.0177
          47    0.0416    0.0617    0.0042   -0.0808   -0.0376   -0.1289    0.0631    0.0158
          48    0.0003   -0.0039   -0.0014    0.0020    0.0003    0.0045   -0.0014    0.0008
          49   -0.0089   -0.0168   -0.0292   -0.0344   -0.0090   -0.0093   -0.0058    0.0223
          50   -0.0003   -0.0177    0.2683   -0.0678   -0.1012    0.2491    0.0098   -0.0191
          51   -0.0003   -0.0058    0.0028   -0.0014   -0.0014    0.0028    0.0000    0.0002
          52    0.0206   -0.0224   -0.0104    0.0130    0.0241    0.0058    0.0290    0.0173
          53    0.0733   -0.0552   -0.0482    0.0805   -0.0346    0.0194    0.1018   -0.0747
          54   -0.0677    0.0530   -0.0224    0.0470   -0.0422    0.0112    0.0671   -0.0573
          55   -0.0246    0.0243    0.0026    0.0044   -0.0281   -0.0022   -0.0108   -0.0084
          56   -0.0853    0.0638   -0.0005    0.0163   -0.0553   -0.0020   -0.0084   -0.0177
          57    0.1140   -0.0390    0.0009    0.0119   -0.0539   -0.0027   -0.0109   -0.0213
          58   -0.0316    0.0039    0.0077   -0.0000    0.0216   -0.0003    0.0010    0.0673
          59   -0.1054    0.0561    0.0044   -0.0025    0.0036   -0.0007   -0.0010    0.0136
          60    0.1305   -0.0815   -0.0003    0.0026    0.0125    0.0007    0.0040    0.0255


   Root No.      33        34        35        36        37        38        39        40

                33 A      34 A      35 A      36 A      37 A      38 A      39 A      40 A   

                1226.8    1285.1    1334.5    1351.5    1390.5    1428.8    1539.7    1612.0
  
           1   -0.0009   -0.0276    0.0241    0.0335   -0.0161   -0.0322    0.0032    0.0972
           2   -0.0162   -0.0074    0.0050    0.0140    0.0777    0.0010    0.0804   -0.0008
           3   -0.0019    0.0015    0.0003   -0.0023    0.0046   -0.0005    0.0031    0.0010
           4    0.0010   -0.0170   -0.0015   -0.0089   -0.0029    0.0509    0.0031   -0.0264
           5    0.0005   -0.0075    0.0093    0.0131   -0.0100   -0.0008   -0.0070    0.0160
           6   -0.0031   -0.0054    0.0067    0.0098   -0.0056   -0.0010    0.0024    0.0110
           7    0.0157   -0.0173    0.0146    0.0232    0.0650   -0.0259   -0.0615   -0.0112
           8   -0.0087   -0.0076    0.0041   -0.0150   -0.0299    0.0118   -0.0253    0.0428
           9    0.0008    0.0005   -0.0013    0.0059   -0.0008   -0.0001   -0.0028    0.0000
          10   -0.0142   -0.0114    0.0145   -0.0074   -0.0711   -0.0306    0.0539   -0.0193
          11   -0.0090    0.0126   -0.0012   -0.0155   -0.0358   -0.0175   -0.0315   -0.0430
          12    0.0001   -0.0007    0.0007   -0.0003   -0.0020   -0.0011    0.0004   -0.0006
          13    0.0112    0.0118   -0.0074   -0.0157   -0.0659   -0.0014    0.0593   -0.0523
          14    0.0076   -0.0182    0.0178    0.0043   -0.0489   -0.0354   -0.0259   -0.0372
          15    0.0004   -0.0005    0.0008   -0.0023   -0.0021   -0.0006    0.0015   -0.0019
          16   -0.0110    0.0064   -0.0038    0.0025    0.0744    0.0015   -0.0635   -0.0513
          17    0.0076    0.0223   -0.0195   -0.0205   -0.0299    0.0320   -0.0204    0.0455
          18   -0.0004    0.0005   -0.0003   -0.0001    0.0014    0.0004   -0.0017   -0.0008
          19   -0.0015    0.0221   -0.0191   -0.0072    0.0014    0.0304    0.0023    0.0467
          20    0.0190   -0.0027   -0.0026    0.0262    0.0732    0.0052    0.0718   -0.0125
          21    0.0002    0.0005   -0.0004   -0.0003    0.0011    0.0009    0.0010    0.0012
          22    0.0057    0.0302   -0.0164   -0.0092    0.0051   -0.0141   -0.0051   -0.0105
          23    0.0018   -0.0280    0.0056   -0.0081   -0.0028    0.0417   -0.0065   -0.0308
          24    0.0021   -0.0181    0.0031   -0.0036   -0.0038    0.0302   -0.0061   -0.0222
          25   -0.0115   -0.0335   -0.0078    0.0191   -0.0122    0.0226   -0.0025   -0.0115
          26    0.0114    0.0151   -0.0175   -0.0228    0.0131   -0.0270    0.0015    0.0063
          27    0.0065    0.0039   -0.0145   -0.0181    0.0096   -0.0162    0.0013    0.0022
          28    0.0114    0.0072   -0.0075   -0.0228    0.0116   -0.0220    0.0026    0.0100
          29   -0.0018   -0.0019   -0.0073   -0.0002    0.0012   -0.0095    0.0018    0.0064
          30    0.0012    0.0002   -0.0082   -0.0040    0.0031   -0.0128    0.0019    0.0075
          31   -0.0643    0.1556   -0.0343   -0.0129    0.0916   -0.0701    0.0377   -0.0115
          32   -0.0321    0.0567   -0.0008    0.0161    0.0317   -0.0489    0.0147    0.0260
          33   -0.0088    0.0346   -0.0015    0.0062    0.0096   -0.0276   -0.0011    0.0144
          34   -0.1258   -0.0442    0.0549   -0.1608    0.0883    0.0303    0.0472    0.0936
          35    0.0643    0.0065   -0.0190    0.0928   -0.0475   -0.0177   -0.0920   -0.0053
          36   -0.0034   -0.0276    0.0418   -0.1101    0.0513   -0.0096    0.0039    0.0192
          37    0.1448   -0.0082   -0.0183    0.0120   -0.0267    0.0452   -0.0169    0.0884
          38    0.0893    0.0179   -0.0236   -0.0055   -0.0056    0.0313   -0.0863    0.0169
          39    0.0012    0.0033   -0.0018   -0.0005   -0.0021    0.0005   -0.0009    0.0008
          40   -0.0012    0.0339   -0.0210   -0.0011    0.0040   -0.0396   -0.0041    0.0009
          41   -0.0247   -0.0220   -0.0005    0.0297   -0.0081   -0.0603    0.0022    0.0307
          42   -0.0194   -0.0160   -0.0031    0.0188   -0.0102   -0.0470   -0.0028    0.0227
          43   -0.0894    0.0409   -0.0350   -0.0298    0.0002    0.0642   -0.0142    0.0687
          44   -0.0556   -0.0030    0.0032   -0.0017   -0.0087    0.0005   -0.0840    0.0381
          45   -0.0034    0.0033   -0.0036    0.0055   -0.0009    0.0024   -0.0018    0.0020
          46    0.0853    0.0269   -0.0374    0.0068    0.0154    0.0651    0.0415    0.0732
          47   -0.0422    0.0150   -0.0051   -0.0254    0.0023    0.0041   -0.0852   -0.0158
          48    0.0019    0.0011   -0.0013    0.0001    0.0008    0.0019   -0.0001    0.0015
          49    0.0035    0.0250   -0.0223   -0.0065    0.0041    0.0360    0.0117    0.0540
          50   -0.1013    0.0027    0.0034   -0.0202    0.0277    0.0016   -0.1266    0.0150
          51   -0.0011    0.0008   -0.0009    0.0007    0.0005    0.0010   -0.0011    0.0016
          52   -0.0346   -0.0234   -0.0184    0.0672   -0.0334    0.0391   -0.0036   -0.0172
          53   -0.0675    0.0694   -0.0692    0.1873   -0.0810    0.0271   -0.0037   -0.0170
          54   -0.0600    0.0676   -0.0867    0.2378   -0.1057    0.0355   -0.0074   -0.0277
          55    0.0180    0.0376    0.0391   -0.0216    0.0111   -0.0096    0.0018    0.0080
          56    0.0267    0.1222    0.1713    0.0055   -0.0019    0.0420   -0.0023   -0.0069
          57    0.0266    0.1104    0.1444    0.0064   -0.0012    0.0321   -0.0016   -0.0047
          58   -0.0070    0.1026    0.2167    0.0635   -0.0293    0.0869   -0.0051   -0.0164
          59   -0.0028    0.0129    0.0174    0.0132   -0.0046    0.0013    0.0010    0.0045
          60   -0.0041    0.0334    0.0696    0.0185   -0.0079    0.0215   -0.0001    0.0005


   Root No.      41        42        43        44        45        46        47        48

                41 A      42 A      43 A      44 A      45 A      46 A      47 A      48 A   

                1776.6    1799.8    1836.2    1894.6    3001.1    3015.6    3023.0    3027.5
  
           1    0.0066   -0.0696    0.0408   -0.0522    0.0000   -0.0000    0.0003   -0.0015
           2   -0.1370    0.0170    0.0024   -0.0075   -0.0001   -0.0003    0.0002    0.0020
           3   -0.0038   -0.0005    0.0018   -0.0039    0.0000   -0.0001    0.0001   -0.0000
           4   -0.0075   -0.0065   -0.0638    0.1458    0.0156    0.0058   -0.0057    0.0007
           5    0.0048   -0.0182   -0.0409    0.1006   -0.0300   -0.0150    0.0174   -0.0012
           6   -0.0011   -0.0121   -0.0288    0.0713   -0.0207   -0.0105    0.0121   -0.0007
           7   -0.0302    0.1096   -0.0235    0.0101   -0.0001    0.0010    0.0006   -0.0275
           8    0.0700   -0.0401    0.0087   -0.0048    0.0006    0.0024    0.0009   -0.0534
           9    0.0005    0.0028   -0.0012    0.0014   -0.0000    0.0000    0.0001   -0.0025
          10    0.0543    0.1007   -0.0179    0.0021    0.0004    0.0002   -0.0003    0.0013
          11    0.0771    0.0301   -0.0104    0.0068   -0.0003   -0.0001    0.0001   -0.0016
          12    0.0026    0.0023   -0.0006    0.0002   -0.0001   -0.0000    0.0000   -0.0000
          13   -0.0499   -0.0913    0.0151   -0.0020    0.0000    0.0002    0.0001   -0.0036
          14   -0.0853   -0.0265    0.0050   -0.0012   -0.0000   -0.0004   -0.0001    0.0097
          15   -0.0026   -0.0032    0.0004    0.0001   -0.0000   -0.0000    0.0000    0.0000
          16    0.0187   -0.1046    0.0135    0.0025   -0.0000   -0.0000   -0.0000    0.0000
          17   -0.0681    0.0339   -0.0037   -0.0005    0.0000   -0.0000   -0.0001   -0.0001
          18   -0.0002   -0.0021    0.0002    0.0003   -0.0000   -0.0000    0.0000    0.0000
          19    0.0033    0.0424   -0.0056   -0.0002   -0.0000   -0.0000   -0.0001    0.0004
          20    0.1444   -0.0124    0.0002    0.0009    0.0000    0.0000   -0.0000    0.0000
          21    0.0020    0.0010   -0.0002    0.0000    0.0000   -0.0000   -0.0000    0.0000
          22    0.0047    0.0141    0.0349   -0.0890   -0.0298    0.0171   -0.0319    0.0000
          23    0.0018    0.0201    0.0250   -0.1427    0.0057   -0.0015    0.0025    0.0001
          24    0.0023    0.0141    0.0177   -0.1059    0.0034   -0.0007    0.0011    0.0001
          25    0.0006    0.0166    0.0899    0.0384    0.0064   -0.0364   -0.0227   -0.0045
          26    0.0016    0.0123    0.0943    0.0739   -0.0015    0.0092    0.0051    0.0011
          27    0.0011    0.0140    0.0965    0.0665    0.0003   -0.0016   -0.0015   -0.0002
          28   -0.0013   -0.0173   -0.0952   -0.0416   -0.0007    0.0026    0.0014    0.0003
          29   -0.0013   -0.0136   -0.0746   -0.0301    0.0001   -0.0008   -0.0004   -0.0001
          30   -0.0013   -0.0151   -0.0826   -0.0340   -0.0000   -0.0000    0.0000   -0.0000
          31   -0.0328    0.0181    0.0326   -0.0661   -0.1913   -0.0867    0.0937   -0.0054
          32   -0.0131   -0.0138   -0.0144    0.0422    0.3492    0.1632   -0.1780    0.0105
          33    0.0005   -0.0066   -0.0138    0.0418    0.2434    0.1136   -0.1241    0.0074
          34    0.0527   -0.0384    0.0057   -0.0124   -0.0014   -0.0217   -0.0098    0.3181
          35    0.0349    0.0403   -0.0054    0.0060   -0.0048   -0.0283   -0.0113    0.6067
          36    0.0072   -0.0025   -0.0042   -0.0034    0.0011   -0.0082   -0.0047    0.0336
          37   -0.0485   -0.0224    0.0130   -0.0144   -0.0008   -0.0006    0.0010   -0.0158
          38    0.0182   -0.0532    0.0075    0.0009    0.0038    0.0023   -0.0028    0.0257
          39   -0.0005   -0.0003    0.0009   -0.0017   -0.0001   -0.0001    0.0001    0.0001
          40    0.0061    0.0118    0.0427   -0.0685    0.3576   -0.1852    0.3528    0.0008
          41    0.0005   -0.0089    0.0052    0.0504   -0.0617    0.0279   -0.0589   -0.0005
          42    0.0061   -0.0067    0.0083    0.0433   -0.0368    0.0159   -0.0347   -0.0005
          43    0.0591    0.0113   -0.0012    0.0003   -0.0001   -0.0028   -0.0013    0.0659
          44   -0.0268    0.0439   -0.0059   -0.0002    0.0002    0.0048    0.0022   -0.1121
          45    0.0010    0.0014    0.0000   -0.0004    0.0000   -0.0000   -0.0000    0.0004
          46   -0.0432    0.0261   -0.0018   -0.0009   -0.0001   -0.0000    0.0005    0.0002
          47   -0.0467   -0.0384    0.0046    0.0021   -0.0003   -0.0000    0.0010   -0.0001
          48   -0.0020    0.0002    0.0001   -0.0001    0.0000    0.0000    0.0000    0.0000
          49    0.0139    0.0493   -0.0066   -0.0003   -0.0001   -0.0002    0.0008   -0.0015
          50   -0.0602    0.0068   -0.0011    0.0007   -0.0000   -0.0000    0.0000    0.0008
          51   -0.0002    0.0015   -0.0000   -0.0003    0.0000   -0.0000    0.0000   -0.0000
          52    0.0012    0.0154    0.0748    0.0150   -0.0721    0.4213    0.2602    0.0464
          53   -0.0023   -0.0086   -0.0513   -0.0458    0.0190   -0.1172   -0.0748   -0.0163
          54   -0.0053   -0.0016   -0.0185   -0.0249   -0.0031    0.0141    0.0071   -0.0035
          55   -0.0008   -0.0149   -0.0852   -0.0405    0.0024    0.0001    0.0047    0.0012
          56    0.0015    0.0123    0.0670    0.0307   -0.0001    0.0007    0.0002   -0.0001
          57    0.0007    0.0068    0.0343    0.0129    0.0005    0.0006    0.0013    0.0002
          58    0.0009    0.0145    0.0686    0.0212    0.0013   -0.0105   -0.0077   -0.0014
          59   -0.0014   -0.0136   -0.0761   -0.0315   -0.0024    0.0244    0.0190    0.0033
          60   -0.0009   -0.0076   -0.0448   -0.0177   -0.0016    0.0171    0.0135    0.0023


   Root No.      49        50        51        52        53        54

                49 A      50 A      51 A      52 A      53 A      54 A   

                3051.7    3059.3    3066.7    3079.2    3135.0    3146.5
  
           1    0.0007   -0.0008    0.0002    0.0008    0.0000    0.0000
           2    0.0011   -0.0003    0.0009    0.0002   -0.0000   -0.0000
           3    0.0001   -0.0000    0.0000    0.0000    0.0000    0.0000
           4   -0.0004    0.0002   -0.0001   -0.0002    0.0000   -0.0002
           5    0.0001   -0.0001   -0.0000    0.0000   -0.0001   -0.0003
           6    0.0002   -0.0001    0.0000    0.0000   -0.0001   -0.0002
           7    0.0003   -0.0031   -0.0032    0.0029    0.0000    0.0000
           8    0.0011   -0.0045   -0.0038    0.0037    0.0000    0.0001
           9    0.0000   -0.0002   -0.0002    0.0002   -0.0000    0.0000
          10    0.0202   -0.0084    0.0096    0.0059   -0.0000   -0.0000
          11   -0.0335    0.0129   -0.0132   -0.0076    0.0000    0.0000
          12   -0.0002    0.0001   -0.0000   -0.0000    0.0000   -0.0000
          13    0.0026    0.0132    0.0146   -0.0098    0.0000    0.0000
          14   -0.0038   -0.0188   -0.0231    0.0174   -0.0000   -0.0000
          15    0.0000    0.0001    0.0001   -0.0000   -0.0000   -0.0000
          16    0.0104    0.0054   -0.0134   -0.0095    0.0000    0.0000
          17    0.0224    0.0072   -0.0235   -0.0199    0.0001    0.0000
          18    0.0005    0.0002   -0.0006   -0.0005    0.0000    0.0000
          19   -0.0096   -0.0272    0.0060   -0.0290    0.0000    0.0000
          20   -0.0009   -0.0007    0.0024   -0.0011    0.0000    0.0000
          21   -0.0003   -0.0008    0.0002   -0.0008   -0.0000    0.0000
          22   -0.0001    0.0000   -0.0000    0.0000    0.0003    0.0009
          23    0.0000   -0.0000    0.0000   -0.0000   -0.0003    0.0005
          24    0.0000   -0.0000    0.0000   -0.0000   -0.0003    0.0005
          25    0.0001   -0.0001   -0.0000    0.0001    0.0019    0.0082
          26   -0.0000    0.0000    0.0000   -0.0000    0.0028    0.0018
          27    0.0000   -0.0000    0.0000    0.0000    0.0027    0.0034
          28   -0.0000    0.0000   -0.0000   -0.0000   -0.0678    0.0021
          29   -0.0000    0.0000    0.0000   -0.0000    0.0213   -0.0481
          30   -0.0000    0.0000   -0.0000   -0.0000    0.0010   -0.0382
          31    0.0010   -0.0006    0.0001    0.0000   -0.0001   -0.0003
          32   -0.0044    0.0021   -0.0010   -0.0006    0.0002    0.0006
          33   -0.0024    0.0012   -0.0005   -0.0003    0.0003    0.0005
          34   -0.0038    0.0281    0.0246   -0.0211   -0.0007    0.0002
          35   -0.0078    0.0499    0.0431   -0.0375   -0.0006   -0.0007
          36   -0.0004    0.0029    0.0025   -0.0022   -0.0004    0.0006
          37   -0.2354    0.0925   -0.0963   -0.0534    0.0002    0.0002
          38    0.3816   -0.1474    0.1514    0.0833   -0.0003   -0.0003
          39    0.0016   -0.0006    0.0006    0.0003   -0.0000   -0.0000
          40    0.0010   -0.0005    0.0001   -0.0006   -0.0061   -0.0066
          41   -0.0001    0.0000    0.0000    0.0001   -0.0007    0.0017
          42   -0.0001    0.0000   -0.0000    0.0001   -0.0009    0.0012
          43   -0.0287   -0.1427   -0.1647    0.1131   -0.0001   -0.0003
          44    0.0443    0.2221    0.2615   -0.1822    0.0002    0.0005
          45   -0.0002   -0.0012   -0.0012    0.0008   -0.0000    0.0000
          46   -0.1325   -0.0491    0.1427    0.1087   -0.0003   -0.0002
          47   -0.2583   -0.0879    0.2708    0.2111   -0.0006   -0.0005
          48   -0.0065   -0.0023    0.0069    0.0053   -0.0000   -0.0000
          49    0.1115    0.3181   -0.0699    0.3157   -0.0005   -0.0006
          50    0.0061    0.0124   -0.0064    0.0131   -0.0000   -0.0000
          51    0.0032    0.0091   -0.0020    0.0090   -0.0000   -0.0000
          52   -0.0008    0.0009   -0.0003   -0.0011    0.0120   -0.0493
          53    0.0002   -0.0005   -0.0001    0.0004   -0.0003    0.0115
          54   -0.0000   -0.0004   -0.0004    0.0002    0.0033   -0.0033
          55    0.0000    0.0000    0.0003    0.0005    0.7630    0.1186
          56   -0.0000    0.0000   -0.0000   -0.0002   -0.1905   -0.0430
          57   -0.0000   -0.0000    0.0000    0.0000    0.0282   -0.0063
          58    0.0000   -0.0000   -0.0000   -0.0001    0.0127   -0.1940
          59   -0.0000    0.0000   -0.0000    0.0003   -0.0906    0.5783
          60   -0.0000    0.0000   -0.0000    0.0002   -0.0695    0.4188


           MASS-WEIGHTED COORDINATE ANALYSIS (NORMAL COORDINATES)


   Root No.       1         2         3         4         5         6         7         8

                 1 A       2 A       3 A       4 A       5 A       6 A       7 A       8 A   

                  57.8     113.4     165.8     217.2     277.7     359.8     394.1     401.3
  
           1    0.0429   -0.0966   -0.0275   -0.0727   -0.0122   -0.0028   -0.0014    0.0338
           2    0.0521    0.0484    0.0582    0.2231   -0.2615   -0.0220    0.2027   -0.0569
           3   -0.1264    0.2089    0.1417   -0.2450   -0.0941    0.1157    0.2130   -0.1006
           4    0.0451   -0.0971   -0.0268   -0.0733   -0.0305    0.0448   -0.0483    0.0092
           5    0.0952    0.1053    0.1415    0.1367    0.0483   -0.0196   -0.1999    0.0125
           6   -0.2534    0.1155   -0.1952   -0.0206    0.0819    0.1378    0.3133   -0.2259
           7    0.0385   -0.1733   -0.0507   -0.1983    0.1302   -0.0818   -0.0199    0.0647
           8    0.0489   -0.0032    0.0434    0.1357   -0.1753   -0.0629    0.2025   -0.0422
           9   -0.3084    0.1461    0.1134   -0.2494   -0.1542    0.1359    0.1088    0.4930
          10    0.0587   -0.0183    0.0239    0.0822   -0.1110   -0.0967    0.1699    0.0379
          11    0.0370    0.0033    0.0316    0.1321   -0.2046    0.0234    0.1451   -0.0509
          12    0.2163    0.1771    0.3096   -0.1476   -0.1917   -0.3148   -0.1530   -0.2044
          13    0.0360   -0.1644   -0.0402   -0.2062    0.1374   -0.0814   -0.0084    0.0973
[...]
 EFF. MASS   2.5690

 VIBRATION   34   34A         ATOM PAIR      ENERGY CONTRIBUTION    RADIAL
 FREQ.      1285.11         C  8 -- C  9         +16.2% ( 53.2%)     61.1%
 T-DIPOLE    0.0837         C  2 -- H 11         +11.1% ( 44.1%)      0.0%
 TRAVEL      0.0872         C  2 -- C  8          +8.5% ( 38.6%)      4.0%
 RED. MASS   0.5346         C 10 -- H 19          +7.3% ( 35.6%)      0.7%
 EFF. MASS   6.9009

 VIBRATION   35   35A         ATOM PAIR      ENERGY CONTRIBUTION    RADIAL
 FREQ.      1334.53         C 10 -- H 19         +19.9% ( 49.2%)      0.7%
 T-DIPOLE    0.0654         C 10 -- H 20         +19.2% ( 48.3%)      1.1%
 TRAVEL      0.1156         C  9 -- H 18          +8.0% ( 31.1%)      6.7%
 RED. MASS   0.2838         C  8 -- C  9          +6.2% ( 27.5%)     99.9%
 EFF. MASS   3.7823

 VIBRATION   36   36A         ATOM PAIR      ENERGY CONTRIBUTION    RADIAL
 FREQ.      1351.49         C  9 -- H 18         +29.2% ( 66.8%)      2.8%
 T-DIPOLE    0.0348         C  3 -- H 12         +14.9% ( 47.7%)      0.1%
 TRAVEL      0.1049         C  1 -- C  4          +7.1% ( 33.1%)     80.2%
 RED. MASS   0.4038         C  1 -- C  2          +6.2% ( 30.7%)     92.4%
 EFF. MASS   4.5325

 VIBRATION   37   37A         ATOM PAIR      ENERGY CONTRIBUTION    RADIAL
 FREQ.      1390.48         C  4 -- C  6         +13.0% ( 62.2%)    100.0%
 T-DIPOLE    0.0641         C  5 -- C  7         +12.0% ( 59.7%)    100.0%
 TRAVEL      0.0665         C  1 -- C  4         +11.4% ( 58.1%)     99.8%
 RED. MASS   1.6084         C  3 -- C  5         +11.4% ( 58.1%)     98.9%
 EFF. MASS  10.9564         C  1 -- C  3         +11.3% ( 57.9%)     99.3%
                            C  6 -- C  7         +10.8% ( 56.6%)     99.8%

 VIBRATION   38   38A         ATOM PAIR      ENERGY CONTRIBUTION    RADIAL
 FREQ.      1428.83         C  8 -- C  9         +12.5% ( 52.8%)     97.4%
 T-DIPOLE    0.3289         C  1 -- C  2         +10.9% ( 49.2%)    100.0%
 TRAVEL      0.0689         C  2 -- C  8          +9.3% ( 45.4%)      0.0%
 RED. MASS   0.9437         C  8 -- H 14          +7.5% ( 40.8%)      4.7%
 EFF. MASS   9.9457

 VIBRATION   39   39A         ATOM PAIR      ENERGY CONTRIBUTION    RADIAL
 FREQ.      1539.71         C  3 -- C  5         +12.9% ( 53.1%)     99.8%
 T-DIPOLE    0.4777         C  4 -- C  6         +12.4% ( 52.0%)     98.2%
 TRAVEL      0.0634         C  1 -- C  4         +12.0% ( 51.3%)     37.2%
 RED. MASS   1.5365         C  1 -- C  3         +11.9% ( 50.9%)     18.6%
 EFF. MASS  10.8892         C  5 -- C  7         +10.4% ( 47.5%)     28.1%
                            C  6 -- C  7         +10.1% ( 46.9%)     14.0%

 VIBRATION   40   40A         ATOM PAIR      ENERGY CONTRIBUTION    RADIAL
 FREQ.      1611.99         C  1 -- C  4         +14.8% ( 56.3%)     55.2%
 T-DIPOLE    0.5266         C  1 -- C  3         +14.5% ( 55.7%)     66.8%
 TRAVEL      0.0617         C  1 -- C  2         +13.1% ( 53.0%)     97.6%
 RED. MASS   1.8481         C  6 -- C  7         +10.0% ( 46.3%)     79.6%
 EFF. MASS  10.9769

 VIBRATION   41   41A         ATOM PAIR      ENERGY CONTRIBUTION    RADIAL
 FREQ.      1776.63         C  5 -- C  7         +17.3% ( 57.8%)     93.6%
 T-DIPOLE    0.0939         C  1 -- C  4         +15.1% ( 54.0%)     92.9%
 TRAVEL      0.0566         C  6 -- C  7         +13.8% ( 51.6%)     77.4%
 RED. MASS   2.4395         C  1 -- C  3         +13.5% ( 51.1%)     84.9%
 EFF. MASS  11.8569

 VIBRATION   42   42A         ATOM PAIR      ENERGY CONTRIBUTION    RADIAL
 FREQ.      1799.76         C  4 -- C  6         +16.2% ( 56.2%)     99.7%
 T-DIPOLE    0.2816         C  3 -- C  5         +15.6% ( 55.1%)     98.8%
 TRAVEL      0.0563         C  1 -- C  3         +12.2% ( 48.8%)     59.7%
 RED. MASS   2.1116         C  1 -- C  4          +9.6% ( 43.3%)     28.8%
 EFF. MASS  11.8278

 VIBRATION   43   43A         ATOM PAIR      ENERGY CONTRIBUTION    RADIAL
 FREQ.      1836.18         C  9 -- C 10         +37.6% ( 90.5%)     99.2%
 T-DIPOLE    0.0685         C  8 -- C  9         +12.4% ( 52.1%)     51.2%
 TRAVEL      0.0557         C  9 -- H 18         +12.2% ( 51.6%)      5.1%
 RED. MASS   3.6564         C 10 -- H 19          +9.7% ( 45.9%)     10.8%
 EFF. MASS  11.8490

 VIBRATION   44   44A         ATOM PAIR      ENERGY CONTRIBUTION    RADIAL
 FREQ.      1894.62         C  2 -- C  8         +35.1% ( 87.8%)    100.0%
 T-DIPOLE    0.1329         C  8 -- C  9         +17.0% ( 61.1%)     59.3%
 TRAVEL      0.0547         C  1 -- C  2         +12.6% ( 52.6%)     69.3%
 RED. MASS   3.9482         C  8 -- H 14         +11.4% ( 50.0%)      2.4%
 EFF. MASS  11.8780         C  2 -- H 11         +10.5% ( 48.0%)      2.6%

 VIBRATION   45   45A         ATOM PAIR      ENERGY CONTRIBUTION    RADIAL
 FREQ.      3001.06         C  2 -- H 11         +59.6% ( 78.4%)    100.0%
 T-DIPOLE    0.2500         C  8 -- H 14         +36.4% ( 61.3%)    100.0%
 TRAVEL      0.1237         C  9 -- H 18          +1.5% ( 12.6%)     99.8%
 RED. MASS   0.4770         C  2 -- C  8          +1.1% ( 10.6%)      0.7%
 EFF. MASS   1.4687

 VIBRATION   46   46A         ATOM PAIR      ENERGY CONTRIBUTION    RADIAL
 FREQ.      3015.59         C  9 -- H 18         +67.2% ( 83.2%)     99.9%
 T-DIPOLE    0.1955         C  2 -- H 11         +16.5% ( 41.2%)     99.9%
 TRAVEL      0.1213         C  8 -- H 14         +12.5% ( 35.9%)     99.9%
 RED. MASS   0.4876         C  8 -- C  9          +1.3% ( 11.5%)     15.6%
 EFF. MASS   1.5197

 VIBRATION   47   47A         ATOM PAIR      ENERGY CONTRIBUTION    RADIAL
 FREQ.      3023.05         C  8 -- H 14         +48.4% ( 70.3%)    100.0%
 T-DIPOLE    0.3976         C  9 -- H 18         +27.4% ( 52.9%)     99.9%
 TRAVEL      0.1208         C  2 -- H 11         +21.0% ( 46.3%)     99.8%
 RED. MASS   0.3487         C  2 -- C  8          +1.3% ( 11.4%)     92.2%
 EFF. MASS   1.5287

 VIBRATION   48   48A         ATOM PAIR      ENERGY CONTRIBUTION    RADIAL
 FREQ.      3027.46         C  3 -- H 12         +92.9% ( 97.9%)    100.0%
 T-DIPOLE    0.3513         C  5 -- H 15          +3.4% ( 18.6%)     99.5%
 TRAVEL      0.1212         C  1 -- C  3          +1.5% ( 12.4%)     27.9%
 RED. MASS   0.8561         C  3 -- C  5          +1.5% ( 12.3%)     15.6%
 EFF. MASS   1.5156

 VIBRATION   49   49A         ATOM PAIR      ENERGY CONTRIBUTION    RADIAL
 FREQ.      3051.74         C  4 -- H 13         +64.9% ( 81.9%)    100.0%
 T-DIPOLE    0.1965         C  6 -- H 16         +27.3% ( 53.1%)    100.0%
 TRAVEL      0.1213         C  7 -- H 17          +4.1% ( 20.5%)     99.9%
 RED. MASS   0.4910         C  4 -- C  6          +1.3% ( 11.5%)      1.8%
 EFF. MASS   1.5005

 VIBRATION   50   50A         ATOM PAIR      ENERGY CONTRIBUTION    RADIAL
 FREQ.      3059.29         C  7 -- H 17         +45.8% ( 68.8%)    100.0%
 T-DIPOLE    0.1815         C  5 -- H 15         +31.5% ( 57.1%)    100.0%
 TRAVEL      0.1211         C  4 -- H 13         +13.6% ( 37.5%)    100.0%
 RED. MASS   0.3252         C  6 -- H 16          +4.6% ( 21.8%)     99.6%
 EFF. MASS   1.5034

 VIBRATION   51   51A         ATOM PAIR      ENERGY CONTRIBUTION    RADIAL
 FREQ.      3066.73         C  5 -- H 15         +40.4% ( 64.5%)    100.0%
 T-DIPOLE    0.5367         C  6 -- H 16         +39.6% ( 63.9%)    100.0%
 TRAVEL      0.1196         C  4 -- H 13         +13.6% ( 37.4%)    100.0%
 RED. MASS   0.3366         C  7 -- H 17          +2.1% ( 14.7%)     98.6%
 EFF. MASS   1.5362

 VIBRATION   52   52A         ATOM PAIR      ENERGY CONTRIBUTION    RADIAL
 FREQ.      3079.15         C  7 -- H 17         +45.0% ( 68.0%)    100.0%
 T-DIPOLE    0.4237         C  6 -- H 16         +25.4% ( 51.1%)    100.0%
 TRAVEL      0.1172         C  5 -- H 15         +20.7% ( 46.2%)    100.0%
 RED. MASS   0.3126         C  4 -- H 13          +4.4% ( 21.3%)     99.9%
 EFF. MASS   1.5954

 VIBRATION   53   53A         ATOM PAIR      ENERGY CONTRIBUTION    RADIAL
 FREQ.      3135.01         C 10 -- H 19         +94.8% ( 98.9%)    100.0%
 T-DIPOLE    0.2441         C 10 -- H 20          +3.9% ( 19.9%)     57.7%
 TRAVEL      0.1189         C  9 -- C 10          +1.3% ( 11.7%)     28.3%
 RED. MASS   0.8956
 EFF. MASS   1.5219

 VIBRATION   54   54A         ATOM PAIR      ENERGY CONTRIBUTION    RADIAL
 FREQ.      3146.55         C 10 -- H 20         +94.8% ( 98.2%)     99.8%
 T-DIPOLE    0.2930         C 10 -- H 19          +3.1% ( 17.9%)     15.9%
 TRAVEL      0.1206         C  9 -- C 10          +1.5% ( 12.4%)     63.2%
 RED. MASS   0.8721         C  9 -- H 18          +0.5% (  7.0%)     92.6%
 EFF. MASS   1.4732

      SYMMETRY NUMBER FOR POINT-GROUP C1  =  1


          SYSTEM IS A GROUND STATE



 InChI=1S/C10H10/c1-2-3-7-10-8-5-4-6-9-10/h2-9H,1H2


          MOLECULE IS NOT LINEAR

          THERE ARE 54 GENUINE VIBRATIONS IN THIS SYSTEM
          THIS THERMODYNAMICS CALCULATION IS LIMITED TO
          MOLECULES WHICH HAVE NO INTERNAL ROTATIONS




                    CALCULATED THERMODYNAMIC PROPERTIES
                                          *
   TEMP. (K)   PARTITION FUNCTION   H.O.F.    ENTHALPY  HEAT CAPACITY ENTROPY
                                   KCAL/MOL   CAL/MOLE    CAL/K/MOL  CAL/K/MOL


 298.00  VIB.     0.1040D+03                  3662.0838    27.8908    21.5185
         ROT.     0.6820D+06                   888.2813     2.9808    29.6746
         INT.     0.7094D+08                  4550.3651    30.8716    51.1930
         TRA.     0.1436D+28                  1480.4688     4.9680    40.5022
         TOT.                       55.364    6030.8339    35.8396    91.6952

 200.00  VIB.     0.1499D+02                  1488.5224    16.6562    12.8228
         ROT.     0.3750D+06                   596.1620     2.9808    28.4859
         INT.     0.5621D+07                  2084.6844    19.6370    41.3087
         TRA.     0.7896D+27                   993.6033     4.9680    38.5210
         TOT.                       52.412    3078.2876    24.6050    79.8297

 210.00  VIB.     0.1810D+02                  1660.4547    17.7342    13.6615
         ROT.     0.4035D+06                   625.9700     2.9808    28.6313
         INT.     0.7302D+07                  2286.4247    20.7150    42.2928
         TRA.     0.8496D+27                  1043.2834     4.9680    38.7634
         TOT.                       52.663    3329.7081    25.6831    81.0562

 220.00  VIB.     0.2190D+02                  1843.2827    18.8350    14.5118
         ROT.     0.4326D+06                   655.7781     2.9808    28.7700
         INT.     0.9473D+07                  2499.0608    21.8158    43.2818
         TRA.     0.9110D+27                  1092.9636     4.9680    38.9945
         TOT.                       52.925    3592.0244    26.7838    82.2763

 230.00  VIB.     0.2655D+02                  2037.2215    19.9560    15.3737
         ROT.     0.4624D+06                   685.5862     2.9808    28.9025
         INT.     0.1228D+08                  2722.8078    22.9368    44.2762
         TRA.     0.9738D+27                  1142.6437     4.9680    39.2154
         TOT.                       53.199    3865.4515    27.9048    83.4916

 240.00  VIB.     0.3226D+02                  2242.4607    21.0945    16.2470
         ROT.     0.4929D+06                   715.3943     2.9808    29.0293
         INT.     0.1590D+08                  2957.8550    24.0753    45.2764
         TRA.     0.1038D+28                  1192.3239     4.9680    39.4268
         TOT.                       53.484    4150.1789    29.0434    84.7032

 250.00  VIB.     0.3929D+02                  2459.1611    22.2477    17.1315
         ROT.     0.5241D+06                   745.2024     2.9808    29.1510
         INT.     0.2059D+08                  3204.3635    25.2285    46.2825
         TRA.     0.1103D+28                  1242.0041     4.9680    39.6296
         TOT.                       53.780    4446.3676    30.1966    85.9121

 260.00  VIB.     0.4794D+02                  2687.4538    23.4125    18.0267
         ROT.     0.5558D+06                   775.0105     2.9808    29.2679
         INT.     0.2665D+08                  3462.4643    26.3933    47.2947
         TRA.     0.1170D+28                  1291.6842     4.9680    39.8245
         TOT.                       54.087    4754.1486    31.3613    87.1191

 270.00  VIB.     0.5862D+02                  2927.4392    24.5857    18.9323
         ROT.     0.5882D+06                   804.8186     2.9808    29.3804
         INT.     0.3448D+08                  3732.2578    27.5666    48.3127
         TRA.     0.1239D+28                  1341.3644     4.9680    40.0120
         TOT.                       54.407    5073.6222    32.5346    88.3247

 280.00  VIB.     0.7181D+02                  3179.1869    25.7645    19.8477
         ROT.     0.6212D+06                   834.6267     2.9808    29.4888
         INT.     0.4461D+08                  4013.8137    28.7453    49.3365
         TRA.     0.1308D+28                  1391.0445     4.9680    40.1926
         TOT.                       54.738    5404.8582    33.7133    89.5292

 290.00  VIB.     0.8816D+02                  3442.7371    26.9458    20.7724
         ROT.     0.6547D+06                   864.4348     2.9808    29.5934
         INT.     0.5772D+08                  4307.1720    29.9266    50.3659
         TRA.     0.1379D+28                  1440.7247     4.9680    40.3670
         TOT.                       55.081    5747.8967    34.8946    90.7328

 300.00  VIB.     0.1084D+03                  3718.1014    28.1268    21.7058
         ROT.     0.6889D+06                   894.2429     2.9808    29.6945
         INT.     0.7469D+08                  4612.3443    31.1077    51.4003
         TRA.     0.1451D+28                  1490.4049     4.9680    40.5354
         TOT.                       55.436    6102.7492    36.0757    91.9357

 310.00  VIB.     0.1336D+03                  4005.2646    29.3051    22.6473
         ROT.     0.7236D+06                   924.0510     2.9808    29.7922
         INT.     0.9668D+08                  4929.3157    32.2860    52.4396
         TRA.     0.1524D+28                  1540.0850     4.9680    40.6983
         TOT.                       55.803    6469.4007    37.2540    93.1379

 320.00  VIB.     0.1649D+03                  4304.1870    30.4783    23.5963
         ROT.     0.7589D+06                   953.8591     2.9808    29.8869
         INT.     0.1252D+09                  5258.0461    33.4591    53.4831
         TRA.     0.1598D+28                  1589.7652     4.9680    40.8560
         TOT.                       56.181    6847.8113    38.4271    94.3392

 330.00  VIB.     0.2040D+03                  4614.8060    31.6441    24.5520
         ROT.     0.7948D+06                   983.6672     2.9808    29.9786
         INT.     0.1621D+09                  5598.4732    34.6249    54.5306
         TRA.     0.1674D+28                  1639.4454     4.9680    41.0089
         TOT.                       56.571    7237.9185    39.5929    95.5395

 340.00  VIB.     0.2526D+03                  4937.0386    32.8007    25.5139
         ROT.     0.8312D+06                  1013.4753     2.9808    30.0676
         INT.     0.2100D+09                  5950.5139    35.7815    55.5815
         TRA.     0.1750D+28                  1689.1255     4.9680    41.1572
         TOT.                       56.973    7639.6394    40.7495    96.7387

 350.00  VIB.     0.3135D+03                  5270.7835    33.9463    26.4812
         ROT.     0.8681D+06                  1043.2834     2.9808    30.1540
         INT.     0.2721D+09                  6314.0670    36.9271    56.6352
         TRA.     0.1828D+28                  1738.8057     4.9680    41.3012
         TOT.                       57.386    8052.8726    41.8952    97.9365

 360.00  VIB.     0.3896D+03                  5615.9236    35.0795    27.4535
         ROT.     0.9056D+06                  1073.0915     2.9808    30.2380
         INT.     0.3528D+09                  6689.0151    38.0603    57.6914
         TRA.     0.1907D+28                  1788.4859     4.9680    41.4412
         TOT.                       57.811    8477.5010    43.0283    99.1326

 370.00  VIB.     0.4848D+03                  5972.3275    36.1989    28.4299
         ROT.     0.9436D+06                  1102.8996     2.9808    30.3196
         INT.     0.4575D+09                  7075.2271    39.1797    58.7495
         TRA.     0.1987D+28                  1838.1660     4.9680    41.5773
         TOT.                       58.247    8913.3931    44.1477   100.3268

 380.00  VIB.     0.6043D+03                  6339.8519    37.3034    29.4100
         ROT.     0.9821D+06                  1132.7077     2.9808    30.3991
         INT.     0.5934D+09                  7472.5596    40.2842    59.8091
         TRA.     0.2068D+28                  1887.8462     4.9680    41.7098
         TOT.                       58.694    9360.4058    45.2523   101.5189

 390.00  VIB.     0.7542D+03                  6718.3435    38.3922    30.3930
         ROT.     0.1021D+07                  1162.5158     2.9808    30.4766
         INT.     0.7701D+09                  7880.8593    41.3730    60.8696
         TRA.     0.2150D+28                  1937.5263     4.9680    41.8388
         TOT.                       59.152    9818.3857    46.3410   102.7084

 400.00  VIB.     0.9425D+03                  7107.6406    39.4644    31.3786
         ROT.     0.1061D+07                  1192.3239     2.9808    30.5520
         INT.     0.9996D+09                  8299.9645    42.4452    61.9306
         TRA.     0.2233D+28                  1987.2065     4.9680    41.9646
         TOT.                       59.621   10287.1710    47.4132   103.8952

   *: NOTE: HEATS OF FORMATION ARE RELATIVE TO THE
            ELEMENTS IN THEIR STANDARD STATE AT 298K
              (=  Standard Enthalpy of Formation).

            Hvib:  Zero-point energy is not included.
                   frequencies of less than zero cm-1 are not included.
            Hrot = (3/2)RT
            Htra = (3/2)RT + pV = (5/2)RT

            Heat capacity is Cp, not Cv

          For more information, see: HTTP://OpenMOPAC.net/Manual/thermochemistry.html


           FORCE CONSTANT IN CARTESIAN COORDINATES (Millidynes/A)

    ATOM   CHEMICAL       X               Y               Z
   NUMBER   SYMBOL  FORCE CONSTANT  FORCE CONSTANT  FORCE CONSTANT

      1       C       12.892914       12.304296        2.720050
      2       C       12.317214        9.383404        5.636040
      3       C       12.492045       11.878256        2.381400
      4       C       12.564798       11.842269        2.348828
      5       C       12.140202       12.194614        2.346897
      6       C       12.205943       12.137742        2.344272
      7       C       12.134351       12.222775        2.342692
      8       C       11.396334        9.688795        6.256105
      9       C       11.786031        8.509725        7.120710
     10       C       11.412101        8.013391        6.905259
     11       H        1.480338        3.004865        1.626053
     12       H        1.751714        4.119701        0.493033
     13       H        2.000656        3.917951        0.355254
     14       H        4.839821        0.752455        0.546671
     15       H        2.011050        3.906620        0.355879
     16       H        1.699780        4.216764        0.358831
     17       H        5.156846        0.766569        0.358956
     18       H        4.691473        0.965090        0.665536
     19       H        5.113385        0.848987        0.501084
     20       H        0.997052        3.463748        2.017747

 **********************
 *                    *
 * JOB ENDED NORMALLY *
 *                    *
 **********************



 TOTAL JOB TIME:             9.79 SECONDS

 == MOPAC DONE ==
