 *******************************************************************************
 ** Site#: 14399        For non-commercial use only    Version 18.184L 64BITS **
 *******************************************************************************
 ** Cite this program as: MOPAC2016, Version: 18.184L, James J. P. Stewart,   **
 ** Stewart Computational Chemistry, web: HTTP://OpenMOPAC.net. Days left:  20**
 *******************************************************************************
 **                                                                           **
 **                                MOPAC2016                                  **
 **                                                                           **
 *******************************************************************************

                              PM3 CALCULATION RESULTS

 *******************************************************************************
 *  CALCULATION DONE:                                Thu Jun 13 16:03:47 2019  *
 *  PM3        - The PM3 Hamiltonian to be used
 *  PRECISE    - CRITERIA TO BE INCREASED BY 100 TIMES
 *  NOSYM      - POINT-GROUP SYMMETRY SET TO C1
 *  THREADS=1  - MULTI-THREADING NOT USED
 *  T=         - A TIME OF 172800.0 SECONDS REQUESTED
 *  DUMP=N     - RESTART FILE WRITTEN EVERY  7200.000 SECONDS
 *******************************************************************************
pm3  precise nosym THREADS=1
 InChI=1S/C10H12/c1-2-6-10-7-3-5-9(10)8(10)4-1/h1-3,5,8-9H,4,6-7H2

   ATOM   CHEMICAL          X               Y               Z
  NUMBER   SYMBOL      (ANGSTROMS)     (ANGSTROMS)     (ANGSTROMS)
 
     1       C          0.31220000  *   0.33970000  *  -0.37480000  *
     2       C          0.05600000  *  -1.14830000  *  -0.16490000  *
     3       C          0.58500000  *  -0.29770000  *   0.99170000  *
     4       C          1.67370000  *   0.76760000  *  -0.93960000  *
     5       C         -0.85000000  *   1.34290000  *  -0.39780000  *
     6       C         -1.38770000  *  -1.62280000  *   0.03790000  *
     7       C          2.06650000  *  -0.22290000  *   1.13740000  *
     8       C          2.65310000  *   0.36370000  *   0.10560000  *
     9       C         -2.20230000  *   0.75890000  *  -0.09600000  *
    10       C         -2.43820000  *  -0.54530000  *   0.09620000  *
    11       H          0.79950000  *  -1.86310000  *  -0.58070000  *
    12       H         -0.08360000  *   0.08080000  *   1.79550000  *
    13       H          1.88460000  *   0.24150000  *  -1.89460000  *
    14       H          1.71960000  *   1.86720000  *  -1.08980000  *
    15       H         -0.64030000  *   2.15230000  *   0.33370000  *
    16       H         -0.89730000  *   1.80530000  *  -1.40620000  *
    17       H         -1.43640000  *  -2.21650000  *   0.97540000  *
    18       H         -1.64640000  *  -2.30440000  *  -0.79910000  *
    19       H          2.60920000  *  -0.60030000  *   1.99730000  *
    20       H          3.72490000  *   0.51380000  *   0.02990000  *
    21       H         -3.04240000  *   1.44540000  *  -0.04840000  *
    22       H         -3.45990000  *  -0.85770000  *   0.29130000  *
 


          CARTESIAN COORDINATES 

    NO.       ATOM           X           Y           Z

     1         C          0.3122      0.3397     -0.3748
     2         C          0.0560     -1.1483     -0.1649
     3         C          0.5850     -0.2977      0.9917
     4         C          1.6737      0.7676     -0.9396
     5         C         -0.8500      1.3429     -0.3978
     6         C         -1.3877     -1.6228      0.0379
     7         C          2.0665     -0.2229      1.1374
     8         C          2.6531      0.3637      0.1056
     9         C         -2.2023      0.7589     -0.0960
    10         C         -2.4382     -0.5453      0.0962
    11         H          0.7995     -1.8631     -0.5807
    12         H         -0.0836      0.0808      1.7955
    13         H          1.8846      0.2415     -1.8946
    14         H          1.7196      1.8672     -1.0898
    15         H         -0.6403      2.1523      0.3337
    16         H         -0.8973      1.8053     -1.4062
    17         H         -1.4364     -2.2165      0.9754
    18         H         -1.6464     -2.3044     -0.7991
    19         H          2.6092     -0.6003      1.9973
    20         H          3.7249      0.5138      0.0299
    21         H         -3.0424      1.4454     -0.0484
    22         H         -3.4599     -0.8577      0.2913

  H: (PM3): J. J. P. STEWART, J. COMP. CHEM. 10, 209 (1989).
  C: (PM3): J. J. P. STEWART, J. COMP. CHEM. 10, 209 (1989).

           Empirical Formula: C10 H12  =    22 atoms



      MOLECULAR POINT GROUP   :   C1  


      RHF CALCULATION, NO. OF DOUBLY OCCUPIED LEVELS = 26


          Geometry optimization using EF

          DIAGONAL MATRIX USED AS START HESSIAN

 CYCLE:     1 TIME:   0.035 TIME LEFT:  2.00D  GRAD.:    89.579 HEAT:  55.42370
 CYCLE:     2 TIME:   0.051 TIME LEFT:  2.00D  GRAD.:    69.725 HEAT:  53.40054
 CYCLE:     3 TIME:   0.023 TIME LEFT:  2.00D  GRAD.:    77.730 HEAT:  52.29959
 CYCLE:     4 TIME:   0.020 TIME LEFT:  2.00D  GRAD.:    71.435 HEAT:  51.15232
 CYCLE:     5 TIME:   0.023 TIME LEFT:  2.00D  GRAD.:    86.725 HEAT:  50.77565
 CYCLE:     6 TIME:   0.023 TIME LEFT:  2.00D  GRAD.:    58.995 HEAT:  49.71605
 CYCLE:     7 TIME:   0.031 TIME LEFT:  2.00D  GRAD.:    30.840 HEAT:  48.83611
 CYCLE:     8 TIME:   0.035 TIME LEFT:  2.00D  GRAD.:    23.337 HEAT:  48.52764
 CYCLE:     9 TIME:   0.027 TIME LEFT:  2.00D  GRAD.:    35.564 HEAT:  48.38561
 CYCLE:    10 TIME:   0.020 TIME LEFT:  2.00D  GRAD.:    21.384 HEAT:  47.99996
 CYCLE:    11 TIME:   0.023 TIME LEFT:  2.00D  GRAD.:    33.556 HEAT:  47.96274
 CYCLE:    12 TIME:   0.023 TIME LEFT:  2.00D  GRAD.:    30.552 HEAT:  47.68625
 CYCLE:    13 TIME:   0.023 TIME LEFT:  2.00D  GRAD.:    34.456 HEAT:  47.67133
 CYCLE:    14 TIME:   0.023 TIME LEFT:  2.00D  GRAD.:    27.913 HEAT:  47.47577
 CYCLE:    15 TIME:   0.031 TIME LEFT:  2.00D  GRAD.:    13.831 HEAT:  47.26861
 CYCLE:    16 TIME:   0.031 TIME LEFT:  2.00D  GRAD.:    11.257 HEAT:  47.21121
 CYCLE:    17 TIME:   0.027 TIME LEFT:  2.00D  GRAD.:    15.306 HEAT:  47.17613
 CYCLE:    18 TIME:   0.023 TIME LEFT:  2.00D  GRAD.:    10.585 HEAT:  47.09216
 CYCLE:    19 TIME:   0.023 TIME LEFT:  2.00D  GRAD.:    15.584 HEAT:  47.03212
 CYCLE:    20 TIME:   0.023 TIME LEFT:  2.00D  GRAD.:     8.014 HEAT:  46.92196
 CYCLE:    21 TIME:   0.023 TIME LEFT:  2.00D  GRAD.:    13.270 HEAT:  46.90755
 CYCLE:    22 TIME:   0.023 TIME LEFT:  2.00D  GRAD.:     6.149 HEAT:  46.85282
 CYCLE:    23 TIME:   0.027 TIME LEFT:  2.00D  GRAD.:     4.969 HEAT:  46.84112
 CYCLE:    24 TIME:   0.027 TIME LEFT:  2.00D  GRAD.:     4.116 HEAT:  46.83062
 CYCLE:    25 TIME:   0.023 TIME LEFT:  2.00D  GRAD.:     4.928 HEAT:  46.81889
 CYCLE:    26 TIME:   0.023 TIME LEFT:  2.00D  GRAD.:     2.953 HEAT:  46.80763
 CYCLE:    27 TIME:   0.023 TIME LEFT:  2.00D  GRAD.:     5.935 HEAT:  46.80622
 CYCLE:    28 TIME:   0.020 TIME LEFT:  2.00D  GRAD.:     2.970 HEAT:  46.79454
 CYCLE:    29 TIME:   0.023 TIME LEFT:  2.00D  GRAD.:     2.349 HEAT:  46.78960
 CYCLE:    30 TIME:   0.023 TIME LEFT:  2.00D  GRAD.:     1.725 HEAT:  46.78417
 CYCLE:    31 TIME:   0.023 TIME LEFT:  2.00D  GRAD.:     1.809 HEAT:  46.77927
 CYCLE:    32 TIME:   0.023 TIME LEFT:  2.00D  GRAD.:     1.715 HEAT:  46.77676
 CYCLE:    33 TIME:   0.023 TIME LEFT:  2.00D  GRAD.:     1.456 HEAT:  46.77325
 CYCLE:    34 TIME:   0.023 TIME LEFT:  2.00D  GRAD.:     0.937 HEAT:  46.77006
 CYCLE:    35 TIME:   0.020 TIME LEFT:  2.00D  GRAD.:     0.910 HEAT:  46.76938
 CYCLE:    36 TIME:   0.023 TIME LEFT:  2.00D  GRAD.:     0.599 HEAT:  46.76871
 CYCLE:    37 TIME:   0.023 TIME LEFT:  2.00D  GRAD.:     0.628 HEAT:  46.76785
 CYCLE:    38 TIME:   0.023 TIME LEFT:  2.00D  GRAD.:     0.610 HEAT:  46.76732
 CYCLE:    39 TIME:   0.023 TIME LEFT:  2.00D  GRAD.:     0.618 HEAT:  46.76655
 CYCLE:    40 TIME:   0.023 TIME LEFT:  2.00D  GRAD.:     0.608 HEAT:  46.76579
 CYCLE:    41 TIME:   0.023 TIME LEFT:  2.00D  GRAD.:     0.414 HEAT:  46.76530
 CYCLE:    42 TIME:   0.020 TIME LEFT:  2.00D  GRAD.:     0.335 HEAT:  46.76506
 CYCLE:    43 TIME:   0.031 TIME LEFT:  2.00D  GRAD.:     0.337 HEAT:  46.76493
 CYCLE:    44 TIME:   0.023 TIME LEFT:  2.00D  GRAD.:     0.227 HEAT:  46.76480
 CYCLE:    45 TIME:   0.020 TIME LEFT:  2.00D  GRAD.:     0.156 HEAT:  46.76468
 CYCLE:    46 TIME:   0.023 TIME LEFT:  2.00D  GRAD.:     0.147 HEAT:  46.76463
 CYCLE:    47 TIME:   0.023 TIME LEFT:  2.00D  GRAD.:     0.141 HEAT:  46.76458
 CYCLE:    48 TIME:   0.023 TIME LEFT:  2.00D  GRAD.:     0.144 HEAT:  46.76451
 CYCLE:    49 TIME:   0.023 TIME LEFT:  2.00D  GRAD.:     0.139 HEAT:  46.76447
 CYCLE:    50 TIME:   0.023 TIME LEFT:  2.00D  GRAD.:     0.120 HEAT:  46.76442
 CYCLE:    51 TIME:   0.023 TIME LEFT:  2.00D  GRAD.:     0.162 HEAT:  46.76435
 CYCLE:    52 TIME:   0.020 TIME LEFT:  2.00D  GRAD.:     0.182 HEAT:  46.76429
 CYCLE:    53 TIME:   0.023 TIME LEFT:  2.00D  GRAD.:     0.203 HEAT:  46.76417
 CYCLE:    54 TIME:   0.023 TIME LEFT:  2.00D  GRAD.:     0.229 HEAT:  46.76404
 CYCLE:    55 TIME:   0.023 TIME LEFT:  2.00D  GRAD.:     0.238 HEAT:  46.76390
 CYCLE:    56 TIME:   0.023 TIME LEFT:  2.00D  GRAD.:     0.236 HEAT:  46.76376
 CYCLE:    57 TIME:   0.023 TIME LEFT:  2.00D  GRAD.:     0.225 HEAT:  46.76362
 CYCLE:    58 TIME:   0.023 TIME LEFT:  2.00D  GRAD.:     0.202 HEAT:  46.76349
 CYCLE:    59 TIME:   0.023 TIME LEFT:  2.00D  GRAD.:     0.241 HEAT:  46.76332
 CYCLE:    60 TIME:   0.020 TIME LEFT:  2.00D  GRAD.:     0.215 HEAT:  46.76322
 CYCLE:    61 TIME:   0.023 TIME LEFT:  2.00D  GRAD.:     0.160 HEAT:  46.76309
 CYCLE:    62 TIME:   0.023 TIME LEFT:  2.00D  GRAD.:     0.115 HEAT:  46.76306
 CYCLE:    63 TIME:   0.023 TIME LEFT:  2.00D  GRAD.:     0.086 HEAT:  46.76302
 CYCLE:    64 TIME:   0.023 TIME LEFT:  2.00D  GRAD.:     0.066 HEAT:  46.76301
 CYCLE:    65 TIME:   0.023 TIME LEFT:  2.00D  GRAD.:     0.199 HEAT:  46.76302
 CYCLE:    66 TIME:   0.020 TIME LEFT:  2.00D  GRAD.:     0.027 HEAT:  46.76299

     GRADIENT =  0.02744  IS LESS THAN CUTOFF =  0.05000



 -------------------------------------------------------------------------------
 pm3  precise nosym THREADS=1
 InChI=1S/C10H12/c1-2-6-10-7-3-5-9(10)8(10)4-1/h1-3,5,8-9H,4,6-7H2



     GEOMETRY OPTIMISED USING EIGENVECTOR FOLLOWING (EF).     
     SCF FIELD WAS ACHIEVED                                   


                              PM3 CALCULATION
                                                       MOPAC2016 (Version: 18.184L)
                                                       Thu Jun 13 16:03:49 2019
                                                       No. of days remaining =  20




          FINAL HEAT OF FORMATION =         46.76299 KCAL/MOL =     195.65636 KJ/MOL


          TOTAL ENERGY            =      -1368.36846 EV
          ELECTRONIC ENERGY       =      -7701.01127 EV  POINT GROUP:     C1  
          CORE-CORE REPULSION     =       6332.64281 EV
          COSMO AREA              =        171.38 SQUARE ANGSTROMS
          COSMO VOLUME            =        176.28 CUBIC ANGSTROMS

          GRADIENT NORM           =          0.02744 = 0.00585 PER ATOM
          IONIZATION POTENTIAL    =          9.485021 EV
          HOMO LUMO ENERGIES (EV) =         -9.485  0.974
          NO. OF FILLED LEVELS    =         26
          MOLECULAR WEIGHT        =        132.2048

          MOLECULAR DIMENSIONS (Angstroms)

            Atom       Atom       Distance
            H    22    H    20     7.27319
            H    16    H    19     4.75557
            H    15    H    18     3.99300


          SCF CALCULATIONS        =         74
 
          WALL-CLOCK TIME         =          1.664 SECONDS
          COMPUTATION TIME        =          0.722 SECONDS




   ATOM   CHEMICAL          X               Y               Z
  NUMBER   SYMBOL      (ANGSTROMS)     (ANGSTROMS)     (ANGSTROMS)
 
     1       C          0.28406509  *   0.38796305  *  -0.27509919  *
     2       C          0.04452800  *  -1.09142206  *  -0.09111394  *
     3       C          0.61511138  *  -0.28168505  *   1.05351243  *
     4       C          1.61543210  *   0.78305138  *  -0.91065855  *
     5       C         -0.86144892  *   1.33222604  *  -0.47148586  *
     6       C         -1.36700295  *  -1.60114453  *   0.00925318  *
     7       C          2.09876389  *  -0.26363001  *   1.15661932  *
     8       C          2.64774020  *   0.32900675  *   0.08398478  *
     9       C         -2.18575359  *   0.75292910  *  -0.12899617  *
    10       C         -2.40748632  *  -0.54380232  *   0.08715425  *
    11       H          0.71411419  *  -1.80147987  *  -0.61231166  *
    12       H          0.04079700  *  -0.13242317  *   1.97831079  *
    13       H          1.76076598  *   0.29630271  *  -1.89227466  *
    14       H          1.67890215  *   1.87357220  *  -1.08097131  *
    15       H         -0.68937384  *   2.24522412  *   0.13365088  *
    16       H         -0.88509497  *   1.66322977  *  -1.53003851  *
    17       H         -1.44908575  *  -2.26330666  *   0.89477132  *
    18       H         -1.59350347  *  -2.23610557  *  -0.87120507  *
    19       H          2.61950344  *  -0.67705315  *   2.01873767  *
    20       H          3.70991886  *   0.48814389  *  -0.09749676  *
    21       H         -3.01189449  *   1.47128513  *  -0.06939819  *
    22       H         -3.41757030  *  -0.89676882  *   0.32700880  *

                             CARTESIAN COORDINATES

   1    C        0.284065094     0.387963051    -0.275099194
   2    C        0.044528003    -1.091422060    -0.091113937
   3    C        0.615111382    -0.281685052     1.053512428
   4    C        1.615432104     0.783051377    -0.910658550
   5    C       -0.861448924     1.332226040    -0.471485859
   6    C       -1.367002954    -1.601144527     0.009253183
   7    C        2.098763889    -0.263630007     1.156619319
   8    C        2.647740202     0.329006753     0.083984778
   9    C       -2.185753586     0.752929096    -0.128996174
  10    C       -2.407486320    -0.543802320     0.087154251
  11    H        0.714114190    -1.801479866    -0.612311662
  12    H        0.040796996    -0.132423171     1.978310795
  13    H        1.760765975     0.296302712    -1.892274657
  14    H        1.678902146     1.873572199    -1.080971310
  15    H       -0.689373841     2.245224117     0.133650879
  16    H       -0.885094969     1.663229772    -1.530038506
  17    H       -1.449085752    -2.263306664     0.894771319
  18    H       -1.593503473    -2.236105568    -0.871205075
  19    H        2.619503437    -0.677053145     2.018737667
  20    H        3.709918858     0.488143892    -0.097496756
  21    H       -3.011894492     1.471285129    -0.069398194
  22    H       -3.417570296    -0.896768820     0.327008800


           Empirical Formula: C10 H12  =    22 atoms



      MOLECULAR POINT GROUP   :   C1  


                  EIGENVALUES  
 -43.14367 -35.71138 -31.38626 -29.09067 -27.23770 -23.62556 -21.35409 -19.77392
 -18.92918 -17.78352 -16.69661 -16.12313 -15.67598 -14.90861 -14.33323 -14.07405
 -13.79818 -13.43405 -13.32799 -13.24715 -12.60456 -11.81554 -11.54064 -10.68708
  -9.65569  -9.48502   0.97354   1.10631   2.79401   3.13529   3.17833   3.36259
   3.45579   3.62516   3.67432   3.81801   3.96263   4.03178   4.16709   4.29296
   4.31398   4.46397   4.54269   4.62997   4.75020   4.92709   5.04095   5.30909
   5.59207   5.73444   5.98849   6.02327


              NET ATOMIC CHARGES AND DIPOLE CONTRIBUTIONS

  ATOM NO.   TYPE          CHARGE      No. of ELECS.   s-Pop       p-Pop       
    1          C          -0.124624        4.1246     1.19364     2.93098
    2          C          -0.104575        4.1046     1.17943     2.92515
    3          C          -0.112052        4.1121     1.17939     2.93266
    4          C          -0.031328        4.0313     1.14860     2.88273
    5          C          -0.008564        4.0086     1.13179     2.87678
    6          C          -0.028812        4.0288     1.13716     2.89166
    7          C          -0.121203        4.1212     1.19498     2.92622
    8          C          -0.160223        4.1602     1.20638     2.95384
    9          C          -0.147415        4.1474     1.19276     2.95466
   10          C          -0.148856        4.1489     1.19297     2.95588
   11          H           0.097341        0.9027     0.90266
   12          H           0.112733        0.8873     0.88727
   13          H           0.063357        0.9366     0.93664
   14          H           0.060719        0.9393     0.93928
   15          H           0.058537        0.9415     0.94146
   16          H           0.060096        0.9399     0.93990
   17          H           0.058252        0.9417     0.94175
   18          H           0.058221        0.9418     0.94178
   19          H           0.113868        0.8861     0.88613
   20          H           0.111338        0.8887     0.88866
   21          H           0.096775        0.9032     0.90322
   22          H           0.096414        0.9036     0.90359
 DIPOLE           X         Y         Z       TOTAL
 POINT-CHG.    -0.017     0.007    -0.243     0.243
 HYBRID        -0.011     0.002     0.012     0.017
 SUM           -0.028     0.009    -0.230     0.232


          ATOMIC ORBITAL ELECTRON POPULATIONS

     Atom    s        px        py        pz   
    1  C   1.19364   0.97045   0.95342   1.00711
    2  C   1.17943   0.97412   0.93736   1.01366
    3  C   1.17939   0.94895   1.05094   0.93276
    4  C   1.14860   0.91267   1.00153   0.96853
    5  C   1.13179   0.91127   0.96093   1.00458
    6  C   1.13716   0.91978   0.96155   1.01032
    7  C   1.19498   0.94586   1.00085   0.97952
    8  C   1.20638   0.98332   1.00617   0.96435
    9  C   1.19276   0.97660   0.96394   1.01412
   10  C   1.19297   0.98534   0.95409   1.01646
   11  H   0.90266
   12  H   0.88727
   13  H   0.93664
   14  H   0.93928
   15  H   0.94146
   16  H   0.93990
   17  H   0.94175
   18  H   0.94178
   19  H   0.88613
   20  H   0.88866
   21  H   0.90322
   22  H   0.90359
 *******************************************************************************
 ** Site#: 14399        For non-commercial use only    Version 18.184L 64BITS **
 *******************************************************************************
 ** Cite this program as: MOPAC2016, Version: 18.184L, James J. P. Stewart,   **
 ** Stewart Computational Chemistry, web: HTTP://OpenMOPAC.net. Days left:  20**
 *******************************************************************************
 **                                                                           **
 **                                MOPAC2016                                  **
 **                                                                           **
 *******************************************************************************

                              PM3 CALCULATION RESULTS

 *******************************************************************************
 *  CALCULATION DONE:                                Thu Jun 13 16:03:49 2019  *
 *  PM3        - The PM3 Hamiltonian to be used
 *  OLDGEO     - PREVIOUS GEOMETRY TO BE USED
 *  PRECISE    - CRITERIA TO BE INCREASED BY 100 TIMES
 *  NOSYM      - POINT-GROUP SYMMETRY SET TO C1
 *  THREADS=1  - MULTI-THREADING NOT USED
 *  T=         - A TIME OF 172800.0 SECONDS REQUESTED
 *  DUMP=N     - RESTART FILE WRITTEN EVERY  7200.000 SECONDS
 *  THERMO     - THERMODYNAMIC QUANTITIES TO BE CALCULATED
 *******************************************************************************
oldgeo thermo nosym precise THREADS=1  pm3
 InChI=1S/C10H12/c1-2-6-10-7-3-5-9(10)8(10)4-1/h1-3,5,8-9H,4,6-7H2

   ATOM   CHEMICAL          X               Y               Z
  NUMBER   SYMBOL      (ANGSTROMS)     (ANGSTROMS)     (ANGSTROMS)
 
     1       C          0.28406509  *   0.38796305  *  -0.27509919  *
     2       C          0.04452800  *  -1.09142206  *  -0.09111394  *
     3       C          0.61511138  *  -0.28168505  *   1.05351243  *
     4       C          1.61543210  *   0.78305138  *  -0.91065855  *
     5       C         -0.86144892  *   1.33222604  *  -0.47148586  *
     6       C         -1.36700295  *  -1.60114453  *   0.00925318  *
     7       C          2.09876389  *  -0.26363001  *   1.15661932  *
     8       C          2.64774020  *   0.32900675  *   0.08398478  *
     9       C         -2.18575359  *   0.75292910  *  -0.12899617  *
    10       C         -2.40748632  *  -0.54380232  *   0.08715425  *
    11       H          0.71411419  *  -1.80147987  *  -0.61231166  *
    12       H          0.04079700  *  -0.13242317  *   1.97831079  *
    13       H          1.76076598  *   0.29630271  *  -1.89227466  *
    14       H          1.67890215  *   1.87357220  *  -1.08097131  *
    15       H         -0.68937384  *   2.24522412  *   0.13365088  *
    16       H         -0.88509497  *   1.66322977  *  -1.53003851  *
    17       H         -1.44908575  *  -2.26330666  *   0.89477132  *
    18       H         -1.59350347  *  -2.23610557  *  -0.87120507  *
    19       H          2.61950344  *  -0.67705315  *   2.01873767  *
    20       H          3.70991886  *   0.48814389  *  -0.09749676  *
    21       H         -3.01189449  *   1.47128513  *  -0.06939819  *
    22       H         -3.41757030  *  -0.89676882  *   0.32700880  *
 


          CARTESIAN COORDINATES 

    NO.       ATOM           X           Y           Z

     1         C          0.2841      0.3880     -0.2751
     2         C          0.0445     -1.0914     -0.0911
     3         C          0.6151     -0.2817      1.0535
     4         C          1.6154      0.7831     -0.9107
     5         C         -0.8614      1.3322     -0.4715
     6         C         -1.3670     -1.6011      0.0093
     7         C          2.0988     -0.2636      1.1566
     8         C          2.6477      0.3290      0.0840
     9         C         -2.1858      0.7529     -0.1290
    10         C         -2.4075     -0.5438      0.0872
    11         H          0.7141     -1.8015     -0.6123
    12         H          0.0408     -0.1324      1.9783
    13         H          1.7608      0.2963     -1.8923
    14         H          1.6789      1.8736     -1.0810
    15         H         -0.6894      2.2452      0.1337
    16         H         -0.8851      1.6632     -1.5300
    17         H         -1.4491     -2.2633      0.8948
    18         H         -1.5935     -2.2361     -0.8712
    19         H          2.6195     -0.6771      2.0187
    20         H          3.7099      0.4881     -0.0975
    21         H         -3.0119      1.4713     -0.0694
    22         H         -3.4176     -0.8968      0.3270

  H: (PM3): J. J. P. STEWART, J. COMP. CHEM. 10, 209 (1989).
  C: (PM3): J. J. P. STEWART, J. COMP. CHEM. 10, 209 (1989).

           Empirical Formula: C10 H12  =    22 atoms



      MOLECULAR POINT GROUP   :   C1  


      RHF CALCULATION, NO. OF DOUBLY OCCUPIED LEVELS = 26



          HEAT OF FORMATION =      46.762992 KCALS/MOLE


          CARTESIAN COORDINATE DERIVATIVES

   NUMBER  ATOM         X            Y            Z

     1       C     -0.001195     0.000060    -0.001874
     2       C     -0.000536    -0.002182     0.000467
     3       C      0.001918     0.002702    -0.000949
     4       C      0.001591     0.000066     0.000398
     5       C     -0.002147     0.001683    -0.003623
     6       C     -0.003160     0.000435     0.001511
     7       C      0.003584     0.001472    -0.000336
     8       C      0.001338     0.000687    -0.004183
     9       C     -0.004564    -0.001389     0.002339
    10       C     -0.004896     0.001855    -0.002344
    11       H      0.006837    -0.000601     0.004064
    12       H     -0.002865    -0.003255     0.004845
    13       H      0.002236     0.001792     0.001492
    14       H      0.004707    -0.002587     0.010386
    15       H      0.001896    -0.003809     0.003773
    16       H      0.001207    -0.000345     0.000925
    17       H     -0.002887     0.002415    -0.010033
    18       H     -0.001086     0.004170    -0.005003
    19       H      0.006522    -0.002206    -0.002290
    20       H     -0.005507    -0.000323     0.004266
    21       H     -0.005261     0.000552    -0.001451
    22       H      0.002269    -0.001191    -0.002381
 


          GRADIENT NORM =   0.02727


          TIME FOR SCF CALCULATION =    0.02

          TIME FOR DERIVATIVES     =    0.01

          MOLECULAR WEIGHT =  132.20



          ROTATIONAL CONSTANTS IN CM(-1)

          A =    0.09741409   B =    0.03879848   C =    0.03233648



           PRINCIPAL MOMENTS OF INERTIA IN UNITS OF 10**(-40)*GRAM-CM**2

          A =      287.3586   B =      721.4916   C =      865.6716


          ORIENTATION OF MOLECULE IN FORCE CALCULATION

    NO.       ATOM         X         Y         Z

     1          C      -0.4746   -0.1873   -0.2518
     2          C       1.0353   -0.1873   -0.2518
     3          C       0.2909    1.1308   -0.2518
     4          C      -1.1503   -0.3018   -1.6166
     5          C      -1.2419   -0.7070    0.9244
     6          C       1.7709   -0.6089    0.9906
     7          C       0.0504    1.7378   -1.5881
     8          C      -0.7480    0.9571   -2.3338
     9          C      -0.4225   -0.8760    2.1519
    10          C       0.9095   -0.8286    2.1807
    11          H       1.5613   -0.4892   -1.1772
    12          H       0.3485    1.8095    0.6104
    13          H      -0.8161   -1.2016   -2.1646
    14          H      -2.2496   -0.3731   -1.5233
    15          H      -2.0900   -0.0251    1.1367
    16          H      -1.6915   -1.6871    0.6635
    17          H       2.5406    0.1525    1.2297
    18          H       2.3217   -1.5506    0.7917
    19          H       0.4779    2.6994   -1.8673
    20          H      -1.0946    1.1614   -3.3461
    21          H      -0.9880   -1.0599    3.0730
    22          H       1.4448   -0.9721    3.1269


    FIRST DERIVATIVES WILL BE USED IN THE CALCULATION OF SECOND DERIVATIVES

          ESTIMATED TIME TO COMPLETE CALCULATION =        9.28 SECONDS

    FOR POINT-GROUP C1   THERE ARE   1 UNIQUE SYMMETRY FUNCTIONS.

 STEP:   1 TIME =     0.05 SECS, INTEGRAL =      0.05 TIME LEFT: 172799.91
 STEP:   2 TIME =     0.05 SECS, INTEGRAL =      0.11 TIME LEFT: 172799.86
 STEP:   3 TIME =     0.05 SECS, INTEGRAL =      0.16 TIME LEFT: 172799.81
 STEP:   4 TIME =     0.05 SECS, INTEGRAL =      0.21 TIME LEFT: 172799.76
 STEP:   5 TIME =     0.05 SECS, INTEGRAL =      0.26 TIME LEFT: 172799.71
 STEP:   6 TIME =     0.05 SECS, INTEGRAL =      0.31 TIME LEFT: 172799.66
 STEP:   7 TIME =     0.05 SECS, INTEGRAL =      0.36 TIME LEFT: 172799.61
 STEP:   8 TIME =     0.06 SECS, INTEGRAL =      0.42 TIME LEFT: 172799.55
 STEP:   9 TIME =     0.05 SECS, INTEGRAL =      0.47 TIME LEFT: 172799.50
 STEP:  10 TIME =     0.05 SECS, INTEGRAL =      0.52 TIME LEFT: 172799.45
 STEP:  11 TIME =     0.05 SECS, INTEGRAL =      0.57 TIME LEFT: 172799.39
 STEP:  12 TIME =     0.05 SECS, INTEGRAL =      0.62 TIME LEFT: 172799.34
 STEP:  13 TIME =     0.05 SECS, INTEGRAL =      0.67 TIME LEFT: 172799.29
 STEP:  14 TIME =     0.05 SECS, INTEGRAL =      0.72 TIME LEFT: 172799.24
 STEP:  15 TIME =     0.05 SECS, INTEGRAL =      0.77 TIME LEFT: 172799.19
 STEP:  16 TIME =     0.05 SECS, INTEGRAL =      0.83 TIME LEFT: 172799.14
 STEP:  17 TIME =     0.05 SECS, INTEGRAL =      0.88 TIME LEFT: 172799.09
 STEP:  18 TIME =     0.05 SECS, INTEGRAL =      0.93 TIME LEFT: 172799.03
 STEP:  19 TIME =     0.05 SECS, INTEGRAL =      0.98 TIME LEFT: 172798.98
 STEP:  20 TIME =     0.05 SECS, INTEGRAL =      1.04 TIME LEFT: 172798.93
 STEP:  21 TIME =     0.05 SECS, INTEGRAL =      1.09 TIME LEFT: 172798.88
 STEP:  22 TIME =     0.05 SECS, INTEGRAL =      1.14 TIME LEFT: 172798.83
 STEP:  23 TIME =     0.05 SECS, INTEGRAL =      1.19 TIME LEFT: 172798.78
 STEP:  24 TIME =     0.05 SECS, INTEGRAL =      1.24 TIME LEFT: 172798.73
 STEP:  25 TIME =     0.05 SECS, INTEGRAL =      1.29 TIME LEFT: 172798.68
 STEP:  26 TIME =     0.05 SECS, INTEGRAL =      1.34 TIME LEFT: 172798.62
 STEP:  27 TIME =     0.05 SECS, INTEGRAL =      1.39 TIME LEFT: 172798.57
 STEP:  28 TIME =     0.05 SECS, INTEGRAL =      1.44 TIME LEFT: 172798.52
 STEP:  29 TIME =     0.05 SECS, INTEGRAL =      1.50 TIME LEFT: 172798.47
 STEP:  30 TIME =     0.05 SECS, INTEGRAL =      1.55 TIME LEFT: 172798.42
 STEP:  31 TIME =     0.05 SECS, INTEGRAL =      1.60 TIME LEFT: 172798.37
 STEP:  32 TIME =     0.05 SECS, INTEGRAL =      1.65 TIME LEFT: 172798.31
 STEP:  33 TIME =     0.05 SECS, INTEGRAL =      1.70 TIME LEFT: 172798.26
 STEP:  34 TIME =     0.05 SECS, INTEGRAL =      1.75 TIME LEFT: 172798.21
 STEP:  35 TIME =     0.05 SECS, INTEGRAL =      1.80 TIME LEFT: 172798.16
 STEP:  36 TIME =     0.05 SECS, INTEGRAL =      1.86 TIME LEFT: 172798.11
 STEP:  37 TIME =     0.05 SECS, INTEGRAL =      1.91 TIME LEFT: 172798.06
 STEP:  38 TIME =     0.05 SECS, INTEGRAL =      1.96 TIME LEFT: 172798.01
 STEP:  39 TIME =     0.05 SECS, INTEGRAL =      2.01 TIME LEFT: 172797.95
 STEP:  40 TIME =     0.05 SECS, INTEGRAL =      2.06 TIME LEFT: 172797.91
 STEP:  41 TIME =     0.05 SECS, INTEGRAL =      2.11 TIME LEFT: 172797.85
 STEP:  42 TIME =     0.05 SECS, INTEGRAL =      2.17 TIME LEFT: 172797.80
 STEP:  43 TIME =     0.05 SECS, INTEGRAL =      2.22 TIME LEFT: 172797.74
 STEP:  44 TIME =     0.05 SECS, INTEGRAL =      2.27 TIME LEFT: 172797.69
 STEP:  45 TIME =     0.05 SECS, INTEGRAL =      2.32 TIME LEFT: 172797.64
 STEP:  46 TIME =     0.05 SECS, INTEGRAL =      2.38 TIME LEFT: 172797.59
 STEP:  47 TIME =     0.05 SECS, INTEGRAL =      2.43 TIME LEFT: 172797.54
 STEP:  48 TIME =     0.05 SECS, INTEGRAL =      2.48 TIME LEFT: 172797.49
 STEP:  49 TIME =     0.05 SECS, INTEGRAL =      2.53 TIME LEFT: 172797.44
 STEP:  50 TIME =     0.05 SECS, INTEGRAL =      2.58 TIME LEFT: 172797.39
 STEP:  51 TIME =     0.05 SECS, INTEGRAL =      2.63 TIME LEFT: 172797.34
 STEP:  52 TIME =     0.05 SECS, INTEGRAL =      2.68 TIME LEFT: 172797.29
 STEP:  53 TIME =     0.05 SECS, INTEGRAL =      2.73 TIME LEFT: 172797.23
 STEP:  54 TIME =     0.05 SECS, INTEGRAL =      2.78 TIME LEFT: 172797.18
 STEP:  55 TIME =     0.05 SECS, INTEGRAL =      2.83 TIME LEFT: 172797.13
 STEP:  56 TIME =     0.05 SECS, INTEGRAL =      2.88 TIME LEFT: 172797.08
 STEP:  57 TIME =     0.05 SECS, INTEGRAL =      2.93 TIME LEFT: 172797.03
 STEP:  58 TIME =     0.05 SECS, INTEGRAL =      2.98 TIME LEFT: 172796.98
 STEP:  59 TIME =     0.05 SECS, INTEGRAL =      3.04 TIME LEFT: 172796.93
 STEP:  60 TIME =     0.05 SECS, INTEGRAL =      3.09 TIME LEFT: 172796.88
 STEP:  61 TIME =     0.05 SECS, INTEGRAL =      3.14 TIME LEFT: 172796.83
 STEP:  62 TIME =     0.05 SECS, INTEGRAL =      3.19 TIME LEFT: 172796.78
 STEP:  63 TIME =     0.05 SECS, INTEGRAL =      3.24 TIME LEFT: 172796.73
 STEP:  64 TIME =     0.05 SECS, INTEGRAL =      3.29 TIME LEFT: 172796.68
 STEP:  65 TIME =     0.05 SECS, INTEGRAL =      3.34 TIME LEFT: 172796.62
 STEP:  66 TIME =     0.05 SECS, INTEGRAL =      3.39 TIME LEFT: 172796.57

(To convert to Hartree/Bohr^2, multiply by (10^(-21) x N x a0^2)/(4.184 x 627.51) =  0.0642)


           FORCE MATRIX IN MILLIDYNES/ANGSTROM


                  C  1       C  2       C  3       C  4       C  5       C  6
 ------------------------------------------------------------------------------
     C    1  15.794142
     C    2   4.546345  15.341872
     C    3   4.034091   4.428107  15.548870
     C    4   3.829055   0.543998   0.761011  14.697933
     C    5   4.731144   0.510366   0.468791   0.525076  15.101696
     C    6   0.544447   4.563291   0.546733   0.047301   0.099816  14.939309
     C    7   0.927975   0.617434   4.826458   1.120549   0.042411   0.048373
     C    8   0.921766   0.092236   1.255757   4.442315   0.039433   0.009238
     C    9   0.696976   0.044401   0.028256   0.043803   5.020918   0.817793
     C   10   0.046733   0.672670   0.033796   0.004172   0.821049   5.017251
     H   11   0.444221   4.540647   0.440377   0.023458   0.037170   0.412496
     H   12   0.408188   0.439491   4.759782   0.037344   0.018366   0.019090
     H   13   0.438708   0.016308   0.039598   4.520082   0.016833   0.003816
     H   14   0.443316   0.039601   0.017721   4.518390   0.035656   0.007373
     H   15   0.435504   0.042559   0.015817   0.015232   4.421951   0.009007
     H   16   0.436053   0.008890   0.042886   0.031608   4.399003   0.012240
     H   17   0.043970   0.427935   0.017862   0.008118   0.009466   4.421825
     H   18   0.009655   0.428035   0.044605   0.001251   0.012128   4.419811
     H   19   0.042101   0.013586   0.413568   0.112631   0.004551   0.001426
     H   20   0.043603   0.016694   0.112088   0.408174   0.005676   0.004070
     H   21   0.044641   0.004584   0.002383   0.006919   0.423970   0.123376
     H   22   0.005388   0.045159   0.002401   0.000849   0.123435   0.424176


                  C  7       C  8       C  9       C 10       H 11       H 12
 ------------------------------------------------------------------------------
     C    7  18.302622
     C    8  10.296980  18.113803
     C    9   0.003497   0.007485  18.225715
     C   10   0.004077   0.001235  10.702419  18.214985
     H   11   0.029201   0.010536   0.003479   0.041218   5.067799
     H   12   0.416305   0.041585   0.004217   0.004962   0.031970   5.297672
     H   13   0.038531   0.429157   0.002695   0.000547   0.011214   0.006282
     H   14   0.037688   0.428633   0.002092   0.001137   0.004256   0.001559
     H   15   0.003131   0.001571   0.431012   0.042299   0.006799   0.003353
     H   16   0.007094   0.002221   0.413222   0.031557   0.001391   0.003398
     H   17   0.003303   0.001244   0.042095   0.430625   0.015752   0.007016
     H   18   0.007841   0.001793   0.032514   0.410484   0.038076   0.003581
     H   19   5.048253   0.448664   0.000759   0.000566   0.003353   0.013289
     H   20   0.446449   5.030729   0.001341   0.000613   0.001602   0.009828
     H   21   0.000864   0.001289   4.803913   0.443733   0.000463   0.001065
     H   22   0.001344   0.000714   0.443566   4.799631   0.006033   0.001164


                  H 13       H 14       H 15       H 16       H 17       H 18
 ------------------------------------------------------------------------------
     H   13   5.124832
     H   14   0.550143   5.119838
     H   15   0.000990   0.008799   4.999227
     H   16   0.002563   0.014666   0.557048   4.977103
     H   17   0.000754   0.001487   0.001143   0.001129   5.003243
     H   18   0.000255   0.000346   0.000991   0.001372   0.559908   4.991527
     H   19   0.014571   0.015284   0.000557   0.001119   0.000311   0.000332
     H   20   0.012784   0.013589   0.000275   0.000585   0.000365   0.000755
     H   21   0.000532   0.000494   0.035402   0.021978   0.014929   0.017119
     H   22   0.000292   0.000277   0.014617   0.017160   0.034907   0.025221


                  H 19       H 20       H 21       H 22
 ------------------------------------------------------
     H   19   5.439546
     H   20   0.045495   5.425914
     H   21   0.000199   0.000321   5.175853
     H   22   0.000266   0.000261   0.071684   5.172393


          HEAT OF FORMATION =      46.762992 KCALS/MOLE

          ZERO POINT ENERGY     119.589 KCAL/MOL


           NORMAL COORDINATE ANALYSIS (Total motion = 1 Angstrom)


   Root No.       1         2         3         4         5         6         7         8

                 1 A       2 A       3 A       4 A       5 A       6 A       7 A       8 A   

                  86.4     201.2     219.3     292.5     367.9     387.4     409.3     448.9
  
           1    0.0025    0.0114   -0.0216   -0.0202   -0.0002   -0.0279   -0.0085   -0.0064
           2   -0.0162   -0.0056    0.0151   -0.0260   -0.0043    0.0258   -0.0199   -0.0055
           3   -0.0090   -0.0040    0.0117   -0.0066   -0.0058    0.0180   -0.0285    0.0031
           4    0.0024    0.0099   -0.0219   -0.0188    0.0005   -0.0317   -0.0063    0.0013
           5   -0.0130    0.0056    0.0344   -0.0315    0.0002   -0.0169    0.0061    0.0259
           6   -0.0079    0.0010    0.0059   -0.0115    0.0037   -0.0016    0.0240    0.0154
           7   -0.0003   -0.0022   -0.0401   -0.0147   -0.0077    0.0106   -0.0342   -0.0208
           8   -0.0145    0.0011    0.0253   -0.0304   -0.0026    0.0073   -0.0094    0.0022
           9    0.0113    0.0033    0.0225    0.0165    0.0014   -0.0137   -0.0110    0.0246
          10    0.0006    0.0393    0.0058    0.0014   -0.0069    0.0309   -0.0123   -0.0015
          11    0.0042   -0.0314   -0.0031   -0.0014    0.0025   -0.0029    0.0137   -0.0132
          12   -0.0094   -0.0149    0.0009   -0.0213   -0.0040   -0.0120   -0.0416    0.0062
          13    0.0079   -0.0058   -0.0033   -0.0175    0.0073   -0.0046    0.0255   -0.0215
          14   -0.0356    0.0404   -0.0052    0.0143   -0.0070   -0.0166    0.0064    0.0000
          15   -0.0139    0.0041    0.0155    0.0129   -0.0042    0.0196    0.0115   -0.0089
          16   -0.0030    0.0014   -0.0064    0.0087    0.0054   -0.0139   -0.0046    0.0183
          17   -0.0296   -0.0270   -0.0251    0.0282    0.0081    0.0032   -0.0120    0.0063
          18   -0.0101   -0.0057   -0.0280   -0.0113    0.0066   -0.0080    0.0255   -0.0101
          19   -0.0035   -0.0330    0.0012    0.0054   -0.0032    0.0152    0.0095    0.0507
          20    0.0065    0.0125    0.0022    0.0003   -0.0005    0.0063   -0.0042   -0.0367
          21    0.0218    0.0143    0.0030    0.0329    0.0015   -0.0159   -0.0194   -0.0040
          22   -0.0039   -0.0156    0.0543    0.0288    0.0009   -0.0064   -0.0151   -0.0253
          23    0.0174   -0.0003   -0.0300    0.0066    0.0003    0.0166    0.0286    0.0075
          24    0.0108    0.0084   -0.0209    0.0017   -0.0039   -0.0026   -0.0257    0.0305
          25   -0.0017   -0.0039    0.0132    0.0113   -0.0016    0.0064    0.0239   -0.0011
          26    0.0408    0.0208    0.0039    0.0072    0.0615   -0.0058   -0.0059    0.0101
          27    0.0036    0.0001    0.0077   -0.0045    0.0113    0.0186    0.0197   -0.0241
          28   -0.0015   -0.0023    0.0143    0.0117    0.0031    0.0067    0.0225    0.0002
          29    0.0446   -0.0157   -0.0079    0.0164   -0.0609   -0.0033   -0.0089    0.0043
          30    0.0052   -0.0059   -0.0109   -0.0129   -0.0078    0.0050    0.0434   -0.0266
          31    0.0062    0.0142   -0.0272   -0.0297    0.0054   -0.0607    0.0275    0.0079
          32    0.0008    0.0192    0.0683   -0.0361    0.0054   -0.0608    0.0286    0.0659
          33   -0.0100   -0.0015   -0.0098   -0.0158    0.0050   -0.0043    0.0355    0.0048
          34   -0.0020   -0.0110   -0.0618   -0.0118   -0.0176    0.0545   -0.0985   -0.0728
          35   -0.0281   -0.0062    0.0277   -0.0549   -0.0043    0.0177   -0.0038    0.0152
          36    0.0222    0.0099    0.0207    0.0363    0.0035   -0.0248   -0.0109    0.0170
          37    0.0023    0.1080   -0.0077    0.0016   -0.0220    0.1379   -0.0112    0.0553
          38    0.0144   -0.0040   -0.0289    0.0028   -0.0010    0.0272    0.0324    0.0191
          39   -0.0253   -0.0191    0.0353   -0.0280   -0.0070   -0.0001   -0.0710   -0.0147
          40    0.0011    0.0423    0.0015   -0.0008   -0.0073    0.0338   -0.0109    0.0027
          41   -0.0008   -0.1025    0.0324    0.0107    0.0166   -0.0964    0.0078   -0.0807
          42   -0.0083   -0.0403   -0.0226   -0.0433    0.0036   -0.0740   -0.0371   -0.0054
          43   -0.0361    0.0297   -0.0151    0.0199   -0.0514   -0.0428    0.0538   -0.0171
          44   -0.0805    0.0862   -0.0236    0.0571   -0.0661   -0.0700    0.0371    0.0064
          45   -0.0465    0.0001    0.0263    0.0272   -0.0544    0.0326    0.0280   -0.0101
          46    0.0709   -0.0568    0.0144   -0.0705    0.0916    0.0513   -0.0128   -0.0298
          47   -0.0675    0.0591   -0.0130    0.0321   -0.0537   -0.0384    0.0181    0.0019
          48   -0.0017    0.0230    0.0147    0.0410    0.0224    0.0030    0.0372   -0.0016
          49    0.0441    0.0258    0.0437   -0.0387   -0.0664   -0.0280    0.0205    0.0273
          50   -0.0685   -0.0544   -0.0739    0.0824    0.0679    0.0226   -0.0341   -0.0056
          51   -0.0389    0.0018   -0.0361   -0.0278    0.0530   -0.0235    0.0126   -0.0009
          52   -0.0605   -0.0289   -0.0658    0.0681    0.0929    0.0046   -0.0341    0.0087
          53   -0.0658   -0.0420   -0.0520    0.0584    0.0648    0.0141   -0.0266    0.0044
          54    0.0017   -0.0197   -0.0677    0.0136   -0.0133   -0.0070    0.0093   -0.0282
          55   -0.0055   -0.0717    0.0024    0.0072   -0.0019    0.0243    0.0501    0.1518
          56    0.0117    0.0333    0.0013    0.0083    0.0000    0.0009   -0.0197   -0.0941
          57    0.0365    0.0268    0.0020    0.0634    0.0052   -0.0209   -0.0108   -0.0461
          58   -0.0065   -0.0347    0.1167    0.0596    0.0082   -0.0357   -0.0224   -0.0609
          59    0.0335    0.0087   -0.0668    0.0184    0.0003    0.0277    0.0531    0.0356
          60    0.0150    0.0167   -0.0496   -0.0063   -0.0064    0.0097   -0.0185    0.0485
          61   -0.0061   -0.0044    0.0250    0.0262   -0.0079    0.0159    0.0090    0.0107
          62    0.0946    0.0359    0.0184   -0.0028    0.1501   -0.0061   -0.0125    0.0194
          63    0.0114    0.0028    0.0177    0.0030    0.0249    0.0243    0.0096   -0.0148
          64   -0.0028   -0.0032    0.0282    0.0161    0.0042    0.0219    0.0253   -0.0103
          65    0.1019   -0.0369   -0.0055    0.0171   -0.1480   -0.0012   -0.0125    0.0012
          66    0.0144   -0.0085   -0.0186   -0.0151   -0.0214   -0.0034    0.0410   -0.0210


   Root No.       9        10        11        12        13        14        15        16

                 9 A      10 A      11 A      12 A      13 A      14 A      15 A      16 A   

                 558.7     654.5     720.1     752.0     769.5     805.9     830.0     885.1
  
           1    0.0256   -0.0100    0.0032    0.0033    0.0119   -0.0114   -0.0095   -0.0088
           2   -0.0304    0.0318    0.0035    0.0204   -0.0145   -0.0143    0.0038    0.0009
           3   -0.0076   -0.0287   -0.0017    0.0059    0.0040   -0.0053   -0.0174    0.0019
           4    0.0157   -0.0236   -0.0096    0.0217   -0.0068    0.0048    0.0025    0.0253
           5    0.0225   -0.0057   -0.0021   -0.0027   -0.0206    0.0209   -0.0005    0.0074
           6   -0.0578   -0.0117   -0.0010   -0.0088   -0.0063   -0.0013    0.0120   -0.0266
           7   -0.0049    0.0151   -0.0038    0.0026   -0.0268    0.0289    0.0017   -0.0035
           8   -0.0010    0.0148    0.0132   -0.0061   -0.0033    0.0033    0.0062   -0.0195
           9   -0.0017    0.0264    0.0018    0.0237   -0.0178   -0.0124   -0.0208   -0.0110
          10    0.0081   -0.0271    0.0025   -0.0140    0.0113   -0.0240   -0.0324   -0.0172
          11   -0.0073   -0.0267    0.0002    0.0232    0.0068   -0.0084   -0.0291    0.0110
          12    0.0045   -0.0116    0.0089   -0.0104    0.0345   -0.0122   -0.0169    0.0178
          13    0.0316    0.0423    0.0091    0.0096    0.0034   -0.0216    0.0107   -0.0270
          14   -0.0054    0.0277   -0.0146    0.0093    0.0011   -0.0248    0.0208    0.0111
          15    0.0250   -0.0334   -0.0113    0.0064   -0.0107    0.0042    0.0121    0.0074
          16   -0.0559   -0.0392   -0.0106    0.0164   -0.0048   -0.0020    0.0318   -0.0135
          17    0.0192    0.0051   -0.0189   -0.0092   -0.0018    0.0214   -0.0175   -0.0144
          18   -0.0321    0.0003   -0.0027    0.0003    0.0032    0.0090    0.0019    0.0026
          19    0.0228    0.0046    0.0005   -0.0308   -0.0080   -0.0019    0.0123    0.0132
          20    0.0009   -0.0167    0.0087   -0.0283    0.0375    0.0128    0.0358    0.0007
          21    0.0007    0.0277   -0.0046    0.0161   -0.0096    0.0042   -0.0049   -0.0077
          22    0.0047    0.0002   -0.0007   -0.0222   -0.0054   -0.0007    0.0092    0.0079
          23    0.0057   -0.0209   -0.0014    0.0071    0.0105   -0.0000   -0.0034   -0.0016
          24    0.0159    0.0291    0.0065   -0.0304    0.0172    0.0168    0.0357    0.0001
          25   -0.0250    0.0179    0.0059   -0.0108    0.0054    0.0064   -0.0153    0.0129
          26   -0.0103    0.0063   -0.0152   -0.0078    0.0106    0.0012   -0.0117    0.0050
          27    0.0612   -0.0215   -0.0092    0.0162   -0.0162   -0.0046    0.0234   -0.0175
          28   -0.0266    0.0142    0.0044   -0.0104    0.0048    0.0068   -0.0140    0.0118
          29   -0.0018   -0.0005   -0.0181    0.0023    0.0038   -0.0066    0.0004   -0.0052
          30   -0.0060    0.0341    0.0084   -0.0102    0.0109    0.0075   -0.0221    0.0227
          31    0.0457   -0.0150   -0.0094    0.0224   -0.0241    0.0269   -0.0061    0.0895
          32    0.0742   -0.0032    0.0069    0.0190   -0.0601    0.0168   -0.0113    0.1075
          33   -0.0574   -0.0073   -0.0038   -0.0142   -0.0030    0.0123    0.0108   -0.0222
          34   -0.0176    0.0438   -0.0066    0.0502   -0.0670    0.1114   -0.0647   -0.0368
          35   -0.0174   -0.0041    0.0143   -0.0059   -0.0240    0.0061   -0.0050   -0.0265
          36    0.0115    0.0394    0.0004    0.0207    0.0009   -0.0200   -0.0070   -0.0031
          37    0.0004    0.0046    0.0113    0.0770    0.0455    0.0095   -0.0253    0.0725
          38    0.0068   -0.0268    0.0018    0.0517    0.0328    0.0205   -0.0120    0.0268
          39   -0.0237    0.0050    0.0107   -0.0053    0.0101   -0.0422   -0.0430    0.0428
          40    0.0101   -0.0266    0.0033   -0.0079    0.0166   -0.0234   -0.0336   -0.0154
          41   -0.0111   -0.0607   -0.0111   -0.0671   -0.0426   -0.0469   -0.0486   -0.0627
          42    0.0210   -0.0320    0.0100   -0.0387    0.0504   -0.0418   -0.0405   -0.0391
          43    0.0538    0.0223    0.0718   -0.0046    0.0056    0.0132   -0.0357   -0.0690
          44    0.0328    0.0008    0.0558   -0.0091    0.0105    0.0144   -0.0375   -0.0456
          45   -0.0087   -0.0293    0.0225    0.0060   -0.0314    0.0241    0.0042    0.0220
          46    0.0033    0.0796   -0.0808    0.0332    0.0014   -0.0827    0.0843    0.0213
          47    0.0030    0.0150    0.0320    0.0055   -0.0021   -0.0056   -0.0092   -0.0137
          48    0.0458   -0.0525   -0.0236   -0.0196    0.0028    0.0392   -0.0056    0.0105
          49   -0.0697   -0.0450   -0.0836   -0.0063    0.0023    0.0535    0.0063   -0.0549
          50    0.0273    0.0210    0.0509    0.0082   -0.0021   -0.0398    0.0015    0.0203
          51   -0.0116   -0.0335    0.0179    0.0231   -0.0230    0.0196    0.0300    0.0281
          52   -0.0479   -0.0379    0.0777    0.0472   -0.0153   -0.0722    0.0758    0.0286
          53    0.0239    0.0060    0.0369    0.0049   -0.0124   -0.0136    0.0056    0.0088
          54   -0.0289    0.0033   -0.0100    0.0215    0.0225   -0.0251    0.0132    0.0171
          55    0.0647    0.0148    0.0151    0.0857    0.1162    0.0163   -0.0034   -0.0638
          56   -0.0212   -0.0306   -0.0039   -0.0894   -0.0319   -0.0048    0.0353    0.0517
          57   -0.0110   -0.0040   -0.0257   -0.0152   -0.0589   -0.0306   -0.0335    0.0506
          58   -0.0010    0.0344    0.0092    0.1354    0.1114    0.1014    0.0616   -0.0030
          59    0.0083   -0.0043   -0.0232   -0.0494   -0.1193   -0.0386   -0.0213   -0.0134
          60    0.0185    0.0210   -0.0013   -0.0960   -0.0485   -0.0261    0.0142    0.0017
          61   -0.0242   -0.0275   -0.0147   -0.0078   -0.0080    0.0170   -0.0019    0.0179
          62   -0.0185   -0.0509    0.1882   -0.0067   -0.0449    0.0678   -0.0415   -0.0419
          63    0.0591   -0.0613    0.0186    0.0184   -0.0356    0.0156    0.0262   -0.0236
          64    0.0295    0.0191   -0.0036   -0.0109   -0.0041    0.0044   -0.0215    0.0007
          65   -0.0163   -0.0438    0.1852    0.0420   -0.0643   -0.0419    0.0877    0.0433
          66   -0.0398    0.0238    0.0434   -0.0037    0.0053    0.0040   -0.0045    0.0370


   Root No.      17        18        19        20        21        22        23        24

                17 A      18 A      19 A      20 A      21 A      22 A      23 A      24 A   

                 896.3     906.9     946.3     979.3     999.9    1013.1    1018.4    1031.1
  
           1   -0.0046    0.0000   -0.0111   -0.0039    0.0088    0.0008   -0.0087   -0.0020
           2    0.0090    0.0047    0.0195   -0.0110   -0.0027   -0.0160    0.0024    0.0033
           3    0.0015    0.0025    0.0013    0.0033    0.0043   -0.0053    0.0023   -0.0051
           4    0.0024    0.0104    0.0167   -0.0055    0.0021   -0.0175   -0.0093   -0.0017
           5   -0.0056    0.0019   -0.0026    0.0082    0.0018   -0.0157    0.0022   -0.0040
           6   -0.0018   -0.0127   -0.0268   -0.0030   -0.0255    0.0161    0.0034    0.0165
           7   -0.0110   -0.0069   -0.0143   -0.0108   -0.0047   -0.0070   -0.0199    0.0236
           8   -0.0141   -0.0164   -0.0013   -0.0034    0.0141   -0.0004   -0.0125   -0.0085
           9   -0.0058   -0.0087   -0.0013   -0.0036    0.0117    0.0044   -0.0135   -0.0073
          10   -0.0211    0.0137   -0.0070   -0.0071   -0.0010   -0.0040    0.0094   -0.0000
          11    0.0135   -0.0113   -0.0094    0.0050    0.0050    0.0137   -0.0212    0.0002
          12    0.0177   -0.0041   -0.0053    0.0082   -0.0062    0.0081    0.0034    0.0017
          13    0.0261   -0.0120    0.0003    0.0124   -0.0247    0.0036    0.0086   -0.0118
          14   -0.0024    0.0298   -0.0150   -0.0033    0.0036    0.0174    0.0033   -0.0074
          15   -0.0073    0.0069   -0.0010   -0.0031   -0.0084   -0.0003   -0.0030   -0.0146
          16    0.0092   -0.0057    0.0184    0.0109    0.0325    0.0044    0.0140   -0.0011
          17    0.0241    0.0276   -0.0095    0.0078    0.0030    0.0048   -0.0059    0.0072
          18    0.0045    0.0053    0.0062    0.0009   -0.0102    0.0003   -0.0054   -0.0068
          19    0.0143   -0.0091   -0.0136   -0.0049    0.0085   -0.0073    0.0156   -0.0063
          20   -0.0078    0.0031    0.0215    0.0043   -0.0080    0.0120   -0.0027    0.0028
          21   -0.0029    0.0095    0.0031    0.0026   -0.0054   -0.0042   -0.0037    0.0039
          22    0.0082   -0.0012    0.0157    0.0121   -0.0011    0.0131   -0.0165   -0.0087
          23   -0.0025    0.0038   -0.0076   -0.0036   -0.0060   -0.0104    0.0222    0.0061
          24   -0.0026    0.0001   -0.0011   -0.0063    0.0051   -0.0017    0.0007    0.0008
          25   -0.0074    0.0047   -0.0029   -0.0046   -0.0109   -0.0026   -0.0064   -0.0040
          26   -0.0106   -0.0196   -0.0005    0.0212   -0.0098   -0.0206   -0.0054    0.0070
          27    0.0033   -0.0077    0.0040    0.0000    0.0221    0.0011    0.0030    0.0232
          28   -0.0086    0.0055   -0.0027   -0.0022    0.0079   -0.0003   -0.0031    0.0075
          29   -0.0022   -0.0217    0.0125   -0.0240   -0.0065    0.0019    0.0098   -0.0094
          30   -0.0112    0.0049    0.0129    0.0023    0.0451   -0.0064    0.0105    0.0040
          31   -0.0234   -0.0043    0.0049   -0.0399   -0.0884    0.0859    0.0154    0.0484
          32   -0.0569   -0.0428    0.0138   -0.0251   -0.0164    0.1205    0.0858    0.0269
          33    0.0005   -0.0063   -0.0377   -0.0122   -0.0737    0.0312   -0.0103    0.0343
          34   -0.0679   -0.0100    0.0147    0.0932   -0.0170    0.1052    0.1224   -0.0920
          35   -0.0203   -0.0353   -0.0223   -0.0005    0.0037   -0.0043    0.0243   -0.0120
          36    0.0035    0.0074    0.0137   -0.0133    0.0201   -0.0014   -0.0531    0.0039
          37    0.0823   -0.0432   -0.0011    0.0312   -0.0076    0.0351   -0.0355    0.0185
          38    0.0301   -0.0373   -0.0598    0.0023    0.0468    0.0370   -0.0698   -0.0691
          39    0.0492    0.0070    0.0807    0.0346   -0.0795   -0.0076    0.0581    0.1269
          40   -0.0178    0.0114   -0.0150   -0.0082    0.0013   -0.0051    0.0098   -0.0092
          41   -0.0749    0.0437    0.0226   -0.0141   -0.0073   -0.0051    0.0068    0.0378
          42   -0.0371    0.0236   -0.0718   -0.0299    0.0119   -0.0282    0.0451   -0.0759
          43    0.0528   -0.0772    0.0299    0.0271   -0.0468   -0.0244    0.0114   -0.0048
          44    0.0275   -0.0553    0.0086    0.0333    0.0045    0.0059    0.0037    0.0222
          45    0.0037    0.0133    0.0473   -0.0613   -0.0933   -0.0806    0.0074   -0.0782
          46    0.0004    0.0793   -0.0459   -0.0011   -0.0243    0.0489    0.0106   -0.0424
          47    0.0184   -0.0016    0.0140   -0.0155    0.0116   -0.0104    0.0122    0.0192
          48   -0.0368   -0.0386   -0.0271    0.0668   -0.0445    0.0247   -0.0398   -0.0631
          49    0.0702    0.0535    0.0113    0.0320    0.0563    0.0203    0.0089    0.0128
          50   -0.0378   -0.0363   -0.0058   -0.0276    0.0058    0.0202    0.0041    0.0142
          51   -0.0011    0.0102    0.0190    0.0437   -0.0942   -0.0983   -0.0175   -0.0702
          52   -0.0632   -0.0832    0.0344   -0.0071    0.0411   -0.0078    0.0369   -0.0057
          53   -0.0196   -0.0128   -0.0108    0.0131    0.0143   -0.0118    0.0174    0.0129
          54    0.0018   -0.0230    0.0566   -0.0744   -0.0414    0.0410   -0.0524   -0.0511
          55   -0.0756    0.0822    0.1030    0.0394   -0.0622    0.0166    0.0136    0.0251
          56    0.0530   -0.0375   -0.0443   -0.0124    0.0144   -0.0115    0.0377   -0.0125
          57    0.0700    0.0102   -0.0458    0.0125   -0.0353   -0.0481    0.1296   -0.0012
          58   -0.0056   -0.0080   -0.0891   -0.0498    0.0041   -0.0766    0.0735    0.0219
          59    0.0009    0.0168    0.0543    0.0252   -0.0111   -0.0307   -0.0097   -0.0031
          60    0.0033    0.0055    0.0473    0.0209    0.0019    0.0245   -0.0357   -0.0114
          61   -0.0287    0.0039   -0.0162   -0.0368   -0.0689   -0.0085   -0.0510    0.0045
          62    0.0959    0.0902    0.0316   -0.1105    0.0163    0.0616    0.0230   -0.0406
          63    0.0114    0.0135    0.0032   -0.0454   -0.0064    0.0135   -0.0178    0.0186
          64   -0.0136    0.0015   -0.0237   -0.0358    0.0021    0.0098   -0.0221    0.0776
          65   -0.0341    0.0856   -0.0914    0.1161   -0.0186   -0.0127   -0.0416    0.0368
          66   -0.0137    0.0236    0.0097    0.0419    0.0476   -0.0148    0.0129   -0.0278


   Root No.      25        26        27        28        29        30        31        32

                25 A      26 A      27 A      28 A      29 A      30 A      31 A      32 A   

                1044.1    1051.1    1060.2    1072.0    1086.9    1101.1    1131.2    1150.7
  
           1    0.0131    0.0066   -0.0036   -0.0047    0.0068   -0.0112   -0.0125    0.0199
           2   -0.0092    0.0051   -0.0110    0.0012   -0.0144    0.0166    0.0255   -0.0341
           3    0.0043    0.0004    0.0001   -0.0060    0.0174   -0.0088    0.0014   -0.0025
           4    0.0038    0.0025   -0.0020   -0.0101    0.0054    0.0068   -0.0160   -0.0218
           5    0.0113   -0.0034    0.0094   -0.0044    0.0067    0.0165   -0.0350   -0.0053
           6    0.0131   -0.0104    0.0003    0.0075    0.0027   -0.0000   -0.0175   -0.0060
           7    0.0005   -0.0008    0.0159    0.0307   -0.0020    0.0185    0.0058    0.0175
           8    0.0019    0.0182   -0.0009   -0.0030   -0.0032    0.0003   -0.0016    0.0216
           9   -0.0132    0.0039    0.0001   -0.0039   -0.0204   -0.0011   -0.0103    0.0097
          10   -0.0210   -0.0072    0.0051   -0.0017    0.0014    0.0001    0.0113   -0.0100
          11   -0.0057   -0.0150    0.0062   -0.0026    0.0100   -0.0020    0.0023   -0.0022
          12    0.0083   -0.0011   -0.0004    0.0062   -0.0006   -0.0057    0.0006    0.0012
          13   -0.0113   -0.0041    0.0059    0.0061    0.0086   -0.0023    0.0006   -0.0005
          14    0.0064   -0.0040    0.0108   -0.0037    0.0024   -0.0051   -0.0064    0.0055
          15   -0.0054    0.0053    0.0083    0.0085    0.0071   -0.0026   -0.0053    0.0054
          16   -0.0098    0.0018   -0.0002    0.0074   -0.0028    0.0015    0.0077    0.0014
          17   -0.0128    0.0033   -0.0084    0.0054   -0.0022   -0.0039    0.0100    0.0027
          18   -0.0054    0.0045   -0.0047   -0.0080   -0.0070   -0.0017    0.0083    0.0058
          19   -0.0120    0.0042   -0.0013   -0.0116   -0.0116   -0.0019   -0.0083    0.0012
          20    0.0043   -0.0018   -0.0048    0.0060   -0.0131    0.0037   -0.0062    0.0029
          21    0.0107    0.0002    0.0014    0.0047    0.0158    0.0038    0.0113   -0.0025
          22    0.0208   -0.0033   -0.0090    0.0096    0.0030   -0.0014    0.0040   -0.0022
          23   -0.0031    0.0129    0.0036   -0.0007   -0.0106   -0.0050   -0.0091    0.0081
          24   -0.0163   -0.0103    0.0037   -0.0162    0.0194   -0.0041    0.0102   -0.0135
          25    0.0033    0.0012    0.0016   -0.0081   -0.0019   -0.0013    0.0033    0.0046
          26   -0.0126   -0.0036   -0.0243    0.0041    0.0065   -0.0036   -0.0026    0.0034
          27    0.0034   -0.0069   -0.0147   -0.0069   -0.0102    0.0029    0.0060   -0.0020
          28    0.0061   -0.0001   -0.0030   -0.0079   -0.0033   -0.0001    0.0028   -0.0017
          29    0.0175   -0.0148    0.0216   -0.0023   -0.0054   -0.0026    0.0018   -0.0013
          30    0.0048   -0.0036    0.0068    0.0075    0.0016    0.0018   -0.0021   -0.0016
          31   -0.0243   -0.0028   -0.0432    0.0214   -0.0021   -0.0257    0.0358   -0.0791
          32   -0.0637   -0.0119   -0.0200    0.0662   -0.0124   -0.0326    0.1278    0.0550
          33    0.0210   -0.0101   -0.0150    0.0006    0.0036   -0.0026   -0.0425   -0.0613
          34    0.0053   -0.0276   -0.0491   -0.0846   -0.0356   -0.0445   -0.0839   -0.0199
          35    0.0439    0.0497   -0.0062   -0.0330    0.1437    0.0174    0.0987    0.0285
          36   -0.0468   -0.0196    0.0090    0.0285   -0.1373   -0.0089   -0.0866    0.0062
          37    0.0137   -0.0117    0.0187   -0.0016    0.0200   -0.0217   -0.0108    0.0116
          38    0.0207   -0.0585   -0.0314    0.0099    0.0399    0.0229    0.0335   -0.0280
          39   -0.0159    0.0674    0.0700   -0.0149   -0.0366   -0.0614   -0.0618    0.0534
          40   -0.0107   -0.0021   -0.0044    0.0093   -0.0109   -0.0017    0.0151   -0.0131
          41   -0.0959   -0.0451    0.0577   -0.0618    0.0768    0.0056    0.0095   -0.0159
          42    0.0571    0.0395   -0.0830    0.0933   -0.1164   -0.0061    0.0522   -0.0475
          43   -0.0304   -0.0045   -0.0121    0.0144    0.0090    0.0040    0.0125   -0.0123
          44    0.0039    0.0184    0.0116   -0.0251   -0.0159    0.0127    0.0353   -0.0132
          45   -0.0730   -0.0675   -0.0690    0.1117    0.0664   -0.0318   -0.0911    0.0096
          46    0.0014   -0.0065    0.0434    0.0060    0.0199   -0.0162   -0.0186    0.0195
          47    0.0067   -0.0375   -0.0421   -0.0111    0.0101   -0.0212   -0.0061    0.0254
          48   -0.0320    0.1348    0.1430    0.0360   -0.0410    0.0832    0.0288   -0.1044
          49   -0.0415    0.0151   -0.0216    0.0217   -0.0076   -0.0038    0.0272    0.0025
          50    0.0097    0.0217   -0.0080    0.0143    0.0303    0.0174   -0.0491   -0.0066
          51    0.0278   -0.0995    0.0627   -0.0821   -0.0973   -0.0507    0.1322    0.0237
          52    0.0263   -0.0175    0.0270    0.0096    0.0037    0.0118   -0.0195   -0.0140
          53    0.0193   -0.0394    0.0250    0.0227   -0.0058   -0.0110    0.0001   -0.0053
          54   -0.0563    0.1523   -0.0840   -0.0838    0.0299    0.0603   -0.0224    0.0094
          55    0.0678   -0.0061   -0.0147    0.0337    0.0163    0.1130    0.0128    0.0287
          56   -0.0155    0.0087   -0.0083   -0.0177   -0.0252    0.0131   -0.0158    0.0074
          57    0.0611    0.0164   -0.0300   -0.0094    0.0199    0.2097    0.0130    0.0501
          58   -0.0104    0.0654    0.0171   -0.0111    0.0306   -0.1238    0.0163   -0.0288
          59    0.1059    0.1000   -0.0129    0.0426    0.0359   -0.2057    0.0224   -0.0364
          60    0.0170   -0.0158   -0.0087   -0.0005    0.0207   -0.0039    0.0136   -0.0146
          61    0.0222    0.0108   -0.0339   -0.0663   -0.0477   -0.0067    0.0384    0.1396
          62    0.0263    0.0053    0.0618    0.0036    0.0014    0.0029   -0.0056   -0.0108
          63    0.0217    0.0008   -0.0189   -0.0405   -0.0388    0.0013    0.0263    0.0768
          64    0.0580   -0.0225   -0.0385   -0.0687   -0.0376    0.0120   -0.0095   -0.1349
          65   -0.0374    0.0260   -0.0542   -0.0109   -0.0013    0.0023    0.0024   -0.0156
          66   -0.0319    0.0151    0.0146    0.0384    0.0201   -0.0040    0.0061    0.0713


   Root No.      33        34        35        36        37        38        39        40

                33 A      34 A      35 A      36 A      37 A      38 A      39 A      40 A   

                1171.0    1183.8    1207.5    1239.3    1244.2    1317.2    1341.1    1366.4
  
           1   -0.0092   -0.0252    0.0187    0.0147   -0.0017   -0.0239   -0.0080   -0.0074
           2   -0.0272    0.0094    0.0096    0.0048   -0.0117   -0.0106    0.0066   -0.0041
           3    0.0027    0.0075    0.0484   -0.0039   -0.0221    0.0068   -0.0235   -0.0058
           4   -0.0171   -0.0026    0.0035   -0.0009   -0.0259   -0.0102    0.0104    0.0056
           5    0.0125    0.0342   -0.0199   -0.0097    0.0041    0.0117   -0.0033   -0.0022
           6    0.0028    0.0085    0.0050    0.0026   -0.0161   -0.0217    0.0106    0.0007
           7    0.0231    0.0093    0.0022   -0.0053    0.0025    0.0104    0.0014    0.0041
           8   -0.0017   -0.0259    0.0099    0.0121    0.0332   -0.0010   -0.0145   -0.0026
           9   -0.0027   -0.0252    0.0072   -0.0087   -0.0107    0.0122    0.0206    0.0180
          10    0.0016    0.0121   -0.0133    0.0011    0.0086    0.0044    0.0031   -0.0017
          11   -0.0009    0.0012   -0.0236   -0.0011    0.0062   -0.0235   -0.0282   -0.0024
          12    0.0081    0.0104   -0.0036    0.0112    0.0144    0.0304    0.0471   -0.0004
          13    0.0023    0.0099    0.0037   -0.0003   -0.0071    0.0036    0.0062   -0.0313
          14    0.0060   -0.0031   -0.0083    0.0027    0.0016    0.0010    0.0090   -0.0036
          15    0.0002   -0.0012    0.0207   -0.0156    0.0011    0.0009   -0.0274   -0.0103
          16    0.0060   -0.0019   -0.0097    0.0032    0.0099    0.0012    0.0054    0.0224
          17    0.0009   -0.0079    0.0047   -0.0007   -0.0012   -0.0021    0.0035    0.0009
          18    0.0019   -0.0016   -0.0031    0.0143   -0.0109    0.0045   -0.0120   -0.0123
          19   -0.0039   -0.0068    0.0011   -0.0038   -0.0038    0.0019   -0.0007   -0.0021
          20    0.0015   -0.0060    0.0119   -0.0027   -0.0125    0.0002    0.0069    0.0094
          21   -0.0002    0.0008   -0.0216   -0.0116   -0.0026    0.0042   -0.0056   -0.0161
          22    0.0008   -0.0004   -0.0060   -0.0069   -0.0074    0.0035    0.0014   -0.0040
          23    0.0049   -0.0090    0.0022   -0.0146   -0.0153    0.0226    0.0165   -0.0081
          24   -0.0090    0.0062   -0.0112    0.0058    0.0054   -0.0206   -0.0188    0.0015
          25    0.0014    0.0043    0.0079   -0.0121    0.0045   -0.0111    0.0049   -0.0024
          26    0.0010   -0.0001    0.0036    0.0003   -0.0025    0.0020   -0.0043   -0.0014
          27    0.0006    0.0013   -0.0115   -0.0079    0.0143   -0.0155    0.0223    0.0084
          28    0.0049    0.0003    0.0055   -0.0120    0.0093   -0.0120    0.0093    0.0049
          29   -0.0022   -0.0007    0.0012   -0.0019    0.0016   -0.0023    0.0011   -0.0008
          30   -0.0034   -0.0035   -0.0084    0.0089   -0.0021    0.0134   -0.0050    0.0065
          31   -0.1241   -0.0554    0.0408   -0.0524    0.1166    0.0721   -0.0238    0.0128
          32    0.0946    0.0314    0.0333    0.0465   -0.0656   -0.0439   -0.0048   -0.0179
          33   -0.0877   -0.0208    0.0101   -0.0469    0.0913    0.0456   -0.0093    0.0096
          34   -0.0171    0.0053   -0.0249    0.0143    0.0008   -0.0195    0.0111    0.0001
          35   -0.0092   -0.1123   -0.0619   -0.0522   -0.0475    0.0326    0.0443    0.0289
          36    0.0055    0.0448    0.0684    0.0412    0.0543   -0.0118   -0.0270   -0.0062
          37    0.0072    0.0049   -0.0535    0.0199    0.0420   -0.0391   -0.0179    0.0396
          38   -0.0026    0.0384    0.0149    0.0311    0.0281    0.0140    0.0346    0.0127
          39    0.0136   -0.0517   -0.0929   -0.0285    0.0018   -0.0604   -0.0702    0.0046
          40    0.0018    0.0114   -0.0252   -0.0061    0.0060   -0.0059   -0.0128    0.0004
          41   -0.0044    0.0364    0.0108    0.0480    0.0505    0.0046    0.0337    0.0345
          42    0.0051    0.0205   -0.1069   -0.0571   -0.0072   -0.0522   -0.0873    0.0246
          43   -0.0070    0.0257    0.0088    0.0094   -0.0289    0.0549   -0.0644    0.1133
          44   -0.0125    0.0446    0.0294   -0.0145   -0.0258    0.0572   -0.0837    0.1355
          45    0.0254   -0.0955   -0.0782    0.0727    0.0100   -0.0014    0.0248    0.0468
          46    0.0152    0.0073   -0.0047    0.0071   -0.0200    0.0754   -0.0905    0.1673
          47    0.0105    0.0098    0.0112   -0.0229    0.0098   -0.0180    0.0244   -0.0750
          48   -0.0433   -0.0399   -0.0382    0.0723   -0.0154   -0.0303    0.0523   -0.0218
          49   -0.0013   -0.0233   -0.0196    0.0209    0.0208    0.0702   -0.0561   -0.0946
          50   -0.0202    0.0260    0.0067   -0.0022   -0.0336   -0.0566    0.0464    0.0897
          51    0.0947   -0.0433    0.0157   -0.0330    0.0632   -0.0148    0.0251    0.0338
          52   -0.0068    0.0076   -0.0322    0.0111    0.0301    0.0849   -0.0692   -0.1158
          53   -0.0353   -0.0149   -0.0028    0.0142   -0.0061    0.0376   -0.0356   -0.0671
          54    0.1423    0.0672   -0.0235   -0.0389    0.0544    0.0112   -0.0016   -0.0147
          55    0.0094    0.0012    0.0316    0.0311    0.0320   -0.0178   -0.0093    0.0162
          56   -0.0051   -0.0136    0.0230    0.0056   -0.0033   -0.0025    0.0047    0.0132
          57   -0.0040   -0.0082    0.0569    0.0709    0.0856   -0.0380   -0.0291    0.0211
          58    0.0019    0.0428    0.0157    0.0419    0.0344   -0.0137    0.0045    0.0153
          59    0.0111    0.0641    0.0340    0.0681    0.0590   -0.0053    0.0252    0.0254
          60   -0.0086    0.0073   -0.0139    0.0065    0.0072   -0.0216   -0.0190    0.0013
          61   -0.1355    0.0677   -0.0765    0.0775   -0.0580    0.0591   -0.0151   -0.0083
          62    0.0115   -0.0058    0.0051   -0.0036    0.0014   -0.0016   -0.0012   -0.0015
          63   -0.0811    0.0380   -0.0637    0.0458   -0.0217    0.0257    0.0121    0.0065
          64    0.1375   -0.0839   -0.0235    0.0908   -0.0427    0.0624   -0.0535   -0.0045
          65    0.0224   -0.0113   -0.0001    0.0112   -0.0073    0.0060   -0.0057   -0.0024
          66   -0.0730    0.0421    0.0064   -0.0462    0.0263   -0.0265    0.0295    0.0130


   Root No.      41        42        43        44        45        46        47        48

                41 A      42 A      43 A      44 A      45 A      46 A      47 A      48 A   

                1375.1    1383.4    1396.4    1410.5    1482.9    1601.6    1804.4    1886.7
  
           1   -0.0178   -0.0100    0.0242    0.0051    0.0042    0.1403    0.0025   -0.0061
           2   -0.0057   -0.0036    0.0116    0.0098    0.0217    0.0746    0.0060   -0.0007
           3   -0.0132   -0.0056    0.0164   -0.0351   -0.0806   -0.0452   -0.0096   -0.0025
           4    0.0126   -0.0088   -0.0031    0.0155    0.0342   -0.1237    0.0004    0.0060
           5   -0.0001    0.0040   -0.0054   -0.0085   -0.0259    0.0640   -0.0032   -0.0006
           6   -0.0065   -0.0243    0.0141    0.0013    0.0434   -0.0335    0.0013   -0.0014
           7    0.0090   -0.0027   -0.0080   -0.0089   -0.0112    0.0030    0.0072   -0.0001
           8   -0.0110    0.0246    0.0081    0.0157    0.0143   -0.1123    0.0062    0.0015
           9    0.0362   -0.0221   -0.0286   -0.0149   -0.0059    0.0276    0.0159   -0.0002
          10   -0.0110   -0.0012   -0.0291    0.0044    0.0092   -0.0107   -0.0104    0.0011
          11   -0.0169   -0.0112   -0.0385   -0.0055    0.0016   -0.0074   -0.0148    0.0006
          12   -0.0074    0.0062   -0.0080    0.0228    0.0270    0.0056   -0.0027   -0.0004
          13    0.0095    0.0142   -0.0089   -0.0327   -0.0006   -0.0287   -0.0015    0.0275
          14   -0.0015   -0.0042   -0.0013   -0.0096   -0.0263   -0.0214   -0.0011   -0.0036
          15    0.0205    0.0267   -0.0133    0.0072    0.0911    0.0472    0.0028    0.0261
          16   -0.0126    0.0330   -0.0044   -0.0286    0.0030    0.0220   -0.0002   -0.0284
          17   -0.0019   -0.0157    0.0063   -0.0067    0.0187   -0.0119    0.0007   -0.0052
          18    0.0215    0.0432   -0.0268    0.0444   -0.0641    0.0276   -0.0005    0.0249
          19   -0.0027    0.0046    0.0079    0.0021   -0.0006   -0.0000   -0.1343    0.0001
          20    0.0196   -0.0158   -0.0112   -0.0112   -0.0055    0.0132   -0.1183   -0.0000
          21   -0.0292    0.0251    0.0316    0.0172    0.0089   -0.0104   -0.1461    0.0003
          22   -0.0063    0.0051    0.0100    0.0026   -0.0015    0.0010    0.1387   -0.0003
          23   -0.0116    0.0155    0.0269    0.0089   -0.0018   -0.0039    0.1496   -0.0004
          24    0.0009   -0.0072   -0.0126   -0.0052   -0.0010    0.0022    0.1114   -0.0001
          25    0.0049   -0.0044   -0.0025    0.0233   -0.0175   -0.0030   -0.0003   -0.2452
          26    0.0013    0.0023   -0.0002   -0.0023    0.0073    0.0025    0.0001   -0.0021
          27   -0.0063   -0.0150    0.0030    0.0219   -0.0426   -0.0093   -0.0003   -0.0434
          28   -0.0024   -0.0101    0.0029    0.0182   -0.0229    0.0008    0.0003    0.2466
          29    0.0015    0.0016   -0.0017    0.0063   -0.0078    0.0014   -0.0000    0.0148
          30   -0.0098   -0.0058    0.0089   -0.0354    0.0367   -0.0030    0.0001   -0.0327
          31   -0.0162    0.0266   -0.0034   -0.0611   -0.0616   -0.0030   -0.0030   -0.0104
          32   -0.0168   -0.0120    0.0245    0.0217    0.0120   -0.0172    0.0011    0.0025
          33   -0.0182    0.0011    0.0039   -0.0544   -0.0270    0.0681   -0.0020   -0.0119
          34   -0.0009   -0.0068    0.0014    0.0160    0.0332   -0.0023    0.0027    0.0005
          35    0.0582   -0.0236   -0.0427   -0.0124    0.0022    0.0112   -0.0328    0.0011
          36   -0.0177    0.0168    0.0115    0.0050    0.0001   -0.0776    0.0434    0.0004
          37    0.1612    0.0319    0.1672   -0.0177   -0.0155    0.0081   -0.0039   -0.0006
          38    0.0464    0.0109    0.0467    0.0071    0.0086    0.0097   -0.0251   -0.0004
          39    0.0144   -0.0047   -0.0020   -0.0150   -0.0054   -0.0116    0.0264   -0.0005
          40   -0.0014   -0.0005   -0.0218   -0.0025    0.0014   -0.0152   -0.0029    0.0016
          41    0.1407    0.0340    0.1507   -0.0038   -0.0049    0.0083   -0.0276    0.0002
          42    0.1017    0.0185    0.0666   -0.0426   -0.0442   -0.0716    0.0237    0.0010
          43   -0.0255   -0.0290    0.0163    0.0463    0.0019   -0.0052   -0.0006    0.0210
          44   -0.0189   -0.0277    0.0137    0.0761    0.0296    0.0144    0.0010   -0.0055
          45   -0.0456   -0.0485    0.0288    0.0061   -0.0850    0.0087   -0.0006    0.0285
          46   -0.0297   -0.0426    0.0142    0.0757    0.0042   -0.0047   -0.0002    0.0066
          47    0.0289    0.0322   -0.0212   -0.0409    0.0182   -0.0186   -0.0002    0.0025
          48   -0.0396   -0.0317    0.0310   -0.0274   -0.0832    0.0125   -0.0018    0.0161
          49    0.0339   -0.1022    0.0149    0.0435    0.0020    0.0010    0.0005   -0.0208
          50   -0.0236    0.1279   -0.0291   -0.0372   -0.0158    0.0102   -0.0003   -0.0069
          51   -0.0418   -0.0375    0.0331   -0.0636    0.0538    0.0125    0.0010    0.0266
          52    0.0355   -0.1272    0.0222    0.0502   -0.0058    0.0080   -0.0009   -0.0083
          53    0.0332   -0.0669    0.0043    0.0507   -0.0092   -0.0162    0.0006    0.0022
          54   -0.0314   -0.0885    0.0441   -0.0421    0.0435    0.0242   -0.0008    0.0164
          55    0.0271   -0.0203   -0.0312   -0.0134   -0.0019   -0.0084   -0.0418    0.0002
          56    0.0255   -0.0185   -0.0175   -0.0136   -0.0072    0.0081   -0.1370   -0.0000
          57    0.0288   -0.0188   -0.0484   -0.0107    0.0045   -0.0352    0.0917    0.0003
          58    0.0224   -0.0247   -0.0425   -0.0095    0.0031    0.0072    0.0221    0.0002
          59    0.0375   -0.0339   -0.0614   -0.0096    0.0081    0.0025   -0.0802    0.0003
          60   -0.0001   -0.0067   -0.0133   -0.0040    0.0007    0.0016    0.1497   -0.0002
          61   -0.0112    0.0033    0.0067   -0.0852    0.0366   -0.0227   -0.0009   -0.0209
          62    0.0025    0.0006   -0.0014    0.0026    0.0021   -0.0005    0.0001   -0.0247
          63   -0.0171   -0.0119    0.0092   -0.0429   -0.0110   -0.0207   -0.0004    0.1373
          64    0.0036    0.0571   -0.0119   -0.0545    0.0461    0.0239   -0.0000    0.0160
          65    0.0026    0.0069   -0.0029   -0.0031    0.0022    0.0004    0.0001   -0.0232
          66   -0.0143   -0.0430    0.0178    0.0022   -0.0007   -0.0152    0.0003    0.1382


   Root No.      49        50        51        52        53        54        55        56

                49 A      50 A      51 A      52 A      53 A      54 A      55 A      56 A   

                2937.0    2939.3    2980.4    2998.9    3012.0    3015.6    3038.1    3049.5
  
           1    0.0001    0.0001   -0.0002   -0.0002   -0.0004   -0.0003   -0.0000   -0.0005
           2   -0.0002   -0.0001    0.0001   -0.0007   -0.0003   -0.0000    0.0000   -0.0002
           3   -0.0000    0.0001    0.0002   -0.0004    0.0003   -0.0002   -0.0002   -0.0006
           4   -0.0001   -0.0014    0.0003    0.0268    0.0011    0.0045   -0.0004   -0.0001
           5   -0.0001    0.0006   -0.0001   -0.0153   -0.0004   -0.0026    0.0002    0.0002
           6    0.0001    0.0020    0.0002   -0.0454   -0.0015   -0.0068    0.0008    0.0005
           7    0.0002   -0.0002   -0.0001    0.0006    0.0001    0.0000    0.0000    0.0001
           8    0.0002    0.0001    0.0000    0.0020    0.0003    0.0007   -0.0001   -0.0007
           9   -0.0002   -0.0003   -0.0001    0.0015    0.0001    0.0005   -0.0001   -0.0009
          10    0.0001   -0.0000   -0.0498    0.0001   -0.0002   -0.0001   -0.0000   -0.0229
          11   -0.0001    0.0000    0.0278   -0.0005   -0.0002   -0.0001   -0.0000   -0.0307
          12    0.0001   -0.0000    0.0216   -0.0002    0.0001    0.0000   -0.0000   -0.0144
          13    0.0117   -0.0003   -0.0001    0.0011   -0.0379    0.0005   -0.0028    0.0003
          14   -0.0560    0.0015   -0.0000    0.0003   -0.0064    0.0001   -0.0002   -0.0001
          15   -0.0158    0.0004   -0.0003    0.0001   -0.0007    0.0001    0.0002   -0.0001
          16   -0.0002   -0.0062   -0.0001   -0.0090    0.0003    0.0333   -0.0038   -0.0000
          17   -0.0014   -0.0555    0.0000   -0.0017   -0.0001   -0.0041    0.0002    0.0000
          18   -0.0004   -0.0140   -0.0001   -0.0012    0.0000    0.0011   -0.0004   -0.0000
          19    0.0000   -0.0000   -0.0002    0.0002    0.0000    0.0000   -0.0000    0.0000
          20    0.0000    0.0000    0.0001   -0.0002   -0.0000   -0.0000    0.0000   -0.0001
          21    0.0000    0.0000    0.0001    0.0001    0.0000    0.0000   -0.0000    0.0002
          22    0.0000   -0.0000   -0.0001    0.0000    0.0000    0.0000   -0.0000    0.0001
          23    0.0000   -0.0000    0.0000   -0.0000    0.0000   -0.0000    0.0000   -0.0009
          24   -0.0000    0.0000    0.0001   -0.0000   -0.0000   -0.0000   -0.0000    0.0014
          25   -0.0005   -0.0000    0.0000    0.0000    0.0029   -0.0004   -0.0159   -0.0000
          26   -0.0001   -0.0002   -0.0000   -0.0000    0.0010   -0.0001   -0.0052   -0.0000
          27    0.0004   -0.0001    0.0000    0.0001   -0.0053    0.0007    0.0263    0.0000
          28    0.0001    0.0004   -0.0000    0.0001    0.0002   -0.0031   -0.0161    0.0001
          29   -0.0002   -0.0001   -0.0000   -0.0002   -0.0000    0.0009    0.0043   -0.0000
          30   -0.0001    0.0003    0.0000    0.0008    0.0003   -0.0058   -0.0284    0.0001
          31    0.0001    0.0158   -0.0002   -0.3230   -0.0096   -0.0492    0.0042    0.0029
          32   -0.0002   -0.0104    0.0007    0.1849    0.0057    0.0289   -0.0025   -0.0021
          33   -0.0003   -0.0235    0.0020    0.5462    0.0167    0.0881   -0.0074   -0.0058
          34    0.0000   -0.0002    0.0000   -0.0037   -0.0003   -0.0005    0.0001    0.0012
          35   -0.0004    0.0005    0.0002   -0.0149   -0.0013   -0.0052    0.0008    0.0111
          36   -0.0006    0.0002    0.0002   -0.0222   -0.0017   -0.0069    0.0010    0.0135
          37    0.0001    0.0000    0.1287   -0.0014   -0.0010   -0.0002   -0.0003   -0.1625
          38   -0.0001   -0.0001   -0.3736    0.0057    0.0024    0.0008    0.0006    0.3631
          39    0.0002   -0.0001   -0.2260    0.0037    0.0017    0.0005    0.0004    0.2246
          40   -0.0015   -0.0000    0.4707    0.0042    0.0031    0.0017    0.0004    0.4371
          41   -0.0007    0.0000    0.0366    0.0000   -0.0002    0.0001   -0.0000    0.0043
          42    0.0002    0.0000   -0.0348   -0.0003    0.0009   -0.0002    0.0000   -0.0488
          43   -0.3343    0.0086   -0.0008   -0.0117    0.3170   -0.0039    0.0270   -0.0029
          44    0.2599   -0.0068    0.0006    0.0105   -0.2912    0.0036   -0.0242    0.0025
          45    0.0811   -0.0022   -0.0005    0.0036   -0.0901    0.0012   -0.0051    0.0004
          46    0.1944   -0.0048   -0.0001   -0.0050    0.1371   -0.0018    0.0094   -0.0009
          47    0.4147   -0.0104    0.0008   -0.0138    0.3688   -0.0049    0.0252   -0.0018
          48    0.1097   -0.0027   -0.0004   -0.0037    0.0981   -0.0013    0.0082   -0.0013
          49    0.0082    0.3020    0.0006    0.0796   -0.0023   -0.2406    0.0306    0.0001
          50    0.0077    0.2896    0.0006    0.0869   -0.0027   -0.2731    0.0340    0.0001
          51    0.0024    0.0914    0.0002    0.0258   -0.0008   -0.0842    0.0080    0.0001
          52   -0.0063   -0.2264    0.0003    0.0284   -0.0020   -0.1593    0.0174    0.0002
          53    0.0103    0.3780   -0.0007   -0.0642    0.0039    0.3219   -0.0348   -0.0004
          54    0.0023    0.0800   -0.0002   -0.0181    0.0008    0.0691   -0.0093   -0.0000
          55    0.0000    0.0000   -0.0005   -0.0000    0.0001    0.0001   -0.0000    0.0040
          56    0.0001    0.0000    0.0006   -0.0002    0.0001    0.0001   -0.0001    0.0085
          57   -0.0000    0.0000    0.0002    0.0003   -0.0000    0.0000    0.0000   -0.0023
          58    0.0000    0.0000   -0.0012   -0.0001   -0.0000   -0.0000    0.0000   -0.0056
[...]
 EFF. MASS   7.0874

 VIBRATION   40   40A         ATOM PAIR      ENERGY CONTRIBUTION    RADIAL
 FREQ.      1366.44         C  5 -- H 16         +19.3% ( 47.6%)      4.4%
 T-DIPOLE    0.0657         C  5 -- H 15         +18.8% ( 47.0%)      5.1%
 TRAVEL      0.1214         C  6 -- H 18         +10.6% ( 35.3%)      4.0%
 RED. MASS   0.2981         C  6 -- H 17         +10.5% ( 35.3%)      4.4%
 EFF. MASS   3.3474

 VIBRATION   41   41A         ATOM PAIR      ENERGY CONTRIBUTION    RADIAL
 FREQ.      1375.14         C  3 -- C  7         +14.5% ( 49.2%)    100.0%
 T-DIPOLE    0.1456         C  4 -- H 14         +10.2% ( 41.3%)      2.6%
 TRAVEL      0.0923         C  4 -- H 13          +9.5% ( 39.8%)      3.9%
 RED. MASS   0.4921         C  1 -- C  3          +7.4% ( 35.2%)      2.5%
 EFF. MASS   5.7532

 VIBRATION   42   42A         ATOM PAIR      ENERGY CONTRIBUTION    RADIAL
 FREQ.      1383.39         C  6 -- H 17         +14.6% ( 52.8%)      3.7%
 T-DIPOLE    0.1568         C  6 -- H 18         +14.6% ( 52.8%)      3.8%
 TRAVEL      0.0846         C  2 -- C  6         +12.7% ( 49.3%)     99.8%
 RED. MASS   0.8708         C  6 -- C 10          +8.5% ( 40.4%)      6.2%
 EFF. MASS   6.8157

 VIBRATION   43   43A         ATOM PAIR      ENERGY CONTRIBUTION    RADIAL
 FREQ.      1396.43         C  4 -- H 13         +12.9% ( 49.5%)      5.8%
 T-DIPOLE    0.0387         C  4 -- H 14         +11.9% ( 47.5%)      8.2%
 TRAVEL      0.0838         C  4 -- C  8         +11.1% ( 46.0%)     78.0%
 RED. MASS   0.6788         C  1 -- C  4         +10.2% ( 44.0%)     40.7%
 EFF. MASS   6.8820

 VIBRATION   44   44A         ATOM PAIR      ENERGY CONTRIBUTION    RADIAL
 FREQ.      1410.45         C  6 -- C 10         +14.1% ( 55.6%)     99.1%
 T-DIPOLE    0.1764         C  6 -- H 17          +7.7% ( 41.1%)      2.6%
 TRAVEL      0.0755         C  6 -- H 18          +7.5% ( 40.7%)      3.3%
 RED. MASS   0.9255         C  1 -- C  5          +7.1% ( 39.6%)     97.9%
 EFF. MASS   8.3953

 VIBRATION   45   45A         ATOM PAIR      ENERGY CONTRIBUTION    RADIAL
 FREQ.      1482.86         C  1 -- C  5         +16.0% ( 65.0%)     74.6%
 T-DIPOLE    0.1548         C  5 -- C  9         +10.7% ( 53.1%)     79.2%
 TRAVEL      0.0644         C  1 -- C  2          +8.6% ( 47.7%)      4.8%
 RED. MASS   1.9923         C  2 -- C  6          +8.1% ( 46.2%)     93.5%
 EFF. MASS  10.9541

 VIBRATION   46   46A         ATOM PAIR      ENERGY CONTRIBUTION    RADIAL
 FREQ.      1601.59         C  1 -- C  2         +20.6% ( 75.4%)     99.6%
 T-DIPOLE    0.0994         C  1 -- C  3         +16.5% ( 67.3%)     90.0%
 TRAVEL      0.0598         C  2 -- C  3         +13.8% ( 61.7%)     91.6%
 RED. MASS   3.4750         C  1 -- C  5         +12.2% ( 58.0%)     80.0%
 EFF. MASS  11.7716

 VIBRATION   47   47A         ATOM PAIR      ENERGY CONTRIBUTION    RADIAL
 FREQ.      1804.43         C  7 -- C  8         +45.8% (100.1%)    100.0%
 T-DIPOLE    0.1171         C  4 -- C  8         +14.0% ( 55.4%)     24.3%
 TRAVEL      0.0561         C  3 -- C  7         +13.8% ( 55.0%)     22.4%
 RED. MASS   5.3693         C  8 -- H 20         +13.1% ( 53.5%)     10.2%
 EFF. MASS  11.8748         C  7 -- H 19         +12.8% ( 52.9%)     10.5%

 VIBRATION   48   48A         ATOM PAIR      ENERGY CONTRIBUTION    RADIAL
 FREQ.      1886.68         C  9 -- C 10         +44.2% ( 97.9%)    100.0%
 T-DIPOLE    0.1338         C  6 -- C 10         +14.3% ( 55.7%)     54.8%
 TRAVEL      0.0549         C  5 -- C  9         +14.3% ( 55.6%)     54.6%
 RED. MASS   5.4167         C 10 -- H 22         +13.1% ( 53.3%)      4.3%
 EFF. MASS  11.8744         C  9 -- H 21         +13.1% ( 53.3%)      4.3%

 VIBRATION   49   49A         ATOM PAIR      ENERGY CONTRIBUTION    RADIAL
 FREQ.      2936.98         C  5 -- H 16         +52.8% ( 75.4%)     96.9%
 T-DIPOLE    0.0394         C  5 -- H 15         +44.9% ( 69.5%)     96.0%
 TRAVEL      0.1220         C  5 -- C  9          +1.1% ( 11.0%)      0.0%
 RED. MASS   0.5211         C  1 -- C  5          +1.1% ( 11.0%)      0.0%
 EFF. MASS   1.5417

 VIBRATION   50   50A         ATOM PAIR      ENERGY CONTRIBUTION    RADIAL
 FREQ.      2939.32         C  6 -- H 18         +50.7% ( 73.9%)     96.7%
 T-DIPOLE    0.0375         C  6 -- H 17         +46.7% ( 70.9%)     96.3%
 TRAVEL      0.1219         C  2 -- C  6          +1.1% ( 11.0%)      0.0%
 RED. MASS   0.5166         C  6 -- C 10          +1.1% ( 11.0%)      0.0%
 EFF. MASS   1.5435

 VIBRATION   51   51A         ATOM PAIR      ENERGY CONTRIBUTION    RADIAL
 FREQ.      2980.41         C  4 -- H 14         +50.6% ( 73.8%)     96.9%
 T-DIPOLE    0.0560         C  4 -- H 13         +47.1% ( 71.2%)     96.5%
 TRAVEL      0.1211         C  4 -- C  8          +1.1% ( 11.0%)      0.0%
 RED. MASS   0.5193         C  1 -- C  4          +1.1% ( 11.0%)      0.0%
 EFF. MASS   1.5422

 VIBRATION   52   52A         ATOM PAIR      ENERGY CONTRIBUTION    RADIAL
 FREQ.      2998.87         C  2 -- H 11         +92.4% ( 97.7%)    100.0%
 T-DIPOLE    0.1937         C  6 -- H 17          +2.9% ( 17.4%)     99.3%
 TRAVEL      0.1246         C  2 -- C  3          +1.1% ( 10.7%)     24.6%
 RED. MASS   0.8492         C  2 -- C  6          +1.1% ( 10.7%)      6.7%
 EFF. MASS   1.4485

 VIBRATION   53   53A         ATOM PAIR      ENERGY CONTRIBUTION    RADIAL
 FREQ.      3011.95         C  5 -- H 15         +52.7% ( 71.6%)     98.1%
 T-DIPOLE    0.0739         C  5 -- H 16         +44.4% ( 65.7%)     97.2%
 TRAVEL      0.1321         C  9 -- H 21          +1.4% ( 11.7%)    100.0%
 RED. MASS   0.4731         C  5 -- C  9          +0.7% (  8.1%)     18.5%
 EFF. MASS   1.2826

 VIBRATION   54   54A         ATOM PAIR      ENERGY CONTRIBUTION    RADIAL
 FREQ.      3015.62         C  6 -- H 17         +47.3% ( 67.9%)     97.8%
 T-DIPOLE    0.1078         C  6 -- H 18         +45.2% ( 66.4%)     97.6%
 TRAVEL      0.1317         C  2 -- H 11          +3.9% ( 19.6%)    100.0%
 RED. MASS   0.4301         C 10 -- H 22          +2.1% ( 14.3%)    100.0%
 EFF. MASS   1.2891

 VIBRATION   55   55A         ATOM PAIR      ENERGY CONTRIBUTION    RADIAL
 FREQ.      3038.06         C 10 -- H 22         +50.3% ( 71.9%)    100.0%
 T-DIPOLE    0.2875         C  9 -- H 21         +45.6% ( 68.5%)    100.0%
 TRAVEL      0.1236         C  9 -- C 10          +1.1% ( 10.4%)      0.0%
 RED. MASS   0.4483         C  6 -- C 10          +0.7% (  8.2%)     26.7%
 EFF. MASS   1.4517

 VIBRATION   56   56A         ATOM PAIR      ENERGY CONTRIBUTION    RADIAL
 FREQ.      3049.53         C  4 -- H 13         +51.2% ( 70.7%)     97.6%
 T-DIPOLE    0.1169         C  4 -- H 14         +47.2% ( 67.9%)     97.2%
 TRAVEL      0.1313         C  1 -- C  4          +0.7% (  8.2%)     37.1%
 RED. MASS   0.4832         C  4 -- C  8          +0.7% (  8.2%)     33.3%
 EFF. MASS   1.2823

 VIBRATION   57   57A         ATOM PAIR      ENERGY CONTRIBUTION    RADIAL
 FREQ.      3058.16         C  9 -- H 21         +50.2% ( 71.8%)     99.9%
 T-DIPOLE    0.2770         C 10 -- H 22         +44.9% ( 67.9%)     99.9%
 TRAVEL      0.1181         C  9 -- C 10          +2.0% ( 14.2%)     99.9%
 RED. MASS   0.4540         C  5 -- C  9          +0.8% (  9.2%)     14.5%
 EFF. MASS   1.5800

 VIBRATION   58   58A         ATOM PAIR      ENERGY CONTRIBUTION    RADIAL
 FREQ.      3075.16         C  3 -- H 12         +95.7% ( 99.7%)    100.0%
 T-DIPOLE    0.3082         C  1 -- C  3          +1.3% ( 11.4%)     33.9%
 TRAVEL      0.1221         C  3 -- C  7          +1.3% ( 11.4%)     18.2%
 RED. MASS   0.9195         C  2 -- C  3          +1.2% ( 11.3%)     27.0%
 EFF. MASS   1.4703

 VIBRATION   59   59A         ATOM PAIR      ENERGY CONTRIBUTION    RADIAL
 FREQ.      3120.70         C  8 -- H 20         +61.4% ( 79.6%)    100.0%
 T-DIPOLE    0.3790         C  7 -- H 19         +36.0% ( 60.9%)    100.0%
 TRAVEL      0.1213         C  7 -- C  8          +1.2% ( 10.9%)      1.5%
 RED. MASS   0.4968         C  4 -- C  8          +0.9% (  9.8%)     25.7%
 EFF. MASS   1.4684

 VIBRATION   60   60A         ATOM PAIR      ENERGY CONTRIBUTION    RADIAL
 FREQ.      3139.78         C  7 -- H 19         +60.3% ( 79.1%)     99.9%
 T-DIPOLE    0.3715         C  8 -- H 20         +35.1% ( 60.4%)     99.9%
 TRAVEL      0.1142         C  7 -- C  8          +2.4% ( 15.9%)     98.1%
 RED. MASS   0.4961         C  3 -- C  7          +1.2% ( 11.0%)     24.6%
 EFF. MASS   1.6457

      SYMMETRY NUMBER FOR POINT-GROUP C1  =  1


          SYSTEM IS A GROUND STATE



 InChI=1S/C10H12/c1-2-6-10-7-3-5-9(10)8(10)4-1/h1-3,5,8-9H,4,6-7H2


          MOLECULE IS NOT LINEAR

          THERE ARE 60 GENUINE VIBRATIONS IN THIS SYSTEM
          THIS THERMODYNAMICS CALCULATION IS LIMITED TO
          MOLECULES WHICH HAVE NO INTERNAL ROTATIONS




                    CALCULATED THERMODYNAMIC PROPERTIES
                                          *
   TEMP. (K)   PARTITION FUNCTION   H.O.F.    ENTHALPY  HEAT CAPACITY ENTROPY
                                   KCAL/MOL   CAL/MOLE    CAL/K/MOL  CAL/K/MOL


 298.00  VIB.     0.2638D+02                  3140.0684    26.7730    17.0402
         ROT.     0.4779D+06                   888.2813     2.9808    28.9679
         INT.     0.1261D+08                  4028.3497    29.7538    46.0081
         TRA.     0.1470D+28                  1480.4688     4.9680    40.5480
         TOT.                       46.763    5508.8185    34.7218    86.5560

 200.00  VIB.     0.5431D+01                  1143.3053    14.4036     9.0790
         ROT.     0.2628D+06                   596.1620     2.9808    27.7792
         INT.     0.1427D+07                  1739.4672    17.3844    36.8581
         TRA.     0.8080D+27                   993.6033     4.9680    38.5668
         TOT.                       43.987    2733.0705    22.3524    75.4250

 210.00  VIB.     0.6282D+01                  1292.9212    15.5265     9.8087
         ROT.     0.2827D+06                   625.9700     2.9808    27.9246
         INT.     0.1776D+07                  1918.8912    18.5073    37.7333
         TRA.     0.8694D+27                  1043.2834     4.9680    38.8092
         TOT.                       44.216    2962.1746    23.4753    76.5426

 220.00  VIB.     0.7294D+01                  1453.9705    16.6900    10.5577
         ROT.     0.3031D+06                   655.7781     2.9808    28.0633
         INT.     0.2211D+07                  2109.7487    19.6708    38.6210
         TRA.     0.9322D+27                  1092.9636     4.9680    39.0403
         TOT.                       44.457    3202.7122    24.6388    77.6613

 230.00  VIB.     0.8500D+01                  1626.8475    17.8915    11.3260
         ROT.     0.3240D+06                   685.5862     2.9808    28.1958
         INT.     0.2754D+07                  2312.4338    20.8724    39.5218
         TRA.     0.9965D+27                  1142.6437     4.9680    39.2612
         TOT.                       44.709    3455.0775    25.8404    78.7829

 240.00  VIB.     0.9940D+01                  1811.9175    19.1280    12.1135
         ROT.     0.3454D+06                   715.3943     2.9808    28.3226
         INT.     0.3433D+07                  2527.3118    22.1088    40.4361
         TRA.     0.1062D+28                  1192.3239     4.9680    39.4726
         TOT.                       44.974    3719.6357    27.0768    79.9087

 250.00  VIB.     0.1167D+02                  2009.5100    20.3954    12.9199
         ROT.     0.3672D+06                   745.2024     2.9808    28.4443
         INT.     0.4284D+07                  2754.7124    23.3762    41.3642
         TRA.     0.1129D+28                  1242.0041     4.9680    39.6754
         TOT.                       45.251    3996.7165    28.3442    81.0396

 260.00  VIB.     0.1374D+02                  2219.9140    21.6895    13.7449
         ROT.     0.3895D+06                   775.0105     2.9808    28.5612
         INT.     0.5351D+07                  2994.9245    24.6703    42.3062
         TRA.     0.1198D+28                  1291.6842     4.9680    39.8703
         TOT.                       45.541    4286.6087    29.6384    82.1764

 270.00  VIB.     0.1623D+02                  2443.3751    23.0060    14.5881
         ROT.     0.4122D+06                   804.8186     2.9808    28.6737
         INT.     0.6691D+07                  3248.1937    25.9868    43.2619
         TRA.     0.1267D+28                  1341.3644     4.9680    40.0578
         TOT.                       45.844    4589.5581    30.9549    83.3196

 280.00  VIB.     0.1925D+02                  2680.0942    24.3404    15.4489
         ROT.     0.4353D+06                   834.6267     2.9808    28.7821
         INT.     0.8379D+07                  3514.7209    27.3212    44.2310
         TRA.     0.1338D+28                  1391.0445     4.9680    40.2384
         TOT.                       46.160    4905.7655    32.2892    84.4695

 290.00  VIB.     0.2290D+02                  2930.2272    25.6881    16.3265
         ROT.     0.4588D+06                   864.4348     2.9808    28.8867
         INT.     0.1051D+08                  3794.6620    28.6689    45.2132
         TRA.     0.1411D+28                  1440.7247     4.9680    40.4128
         TOT.                       46.490    5235.3867    33.6369    85.6260

 300.00  VIB.     0.2733D+02                  3193.8862    27.0449    17.2202
         ROT.     0.4827D+06                   894.2429     2.9808    28.9878
         INT.     0.1319D+08                  4088.1292    30.0257    46.2080
         TRA.     0.1484D+28                  1490.4049     4.9680    40.5812
         TOT.                       46.833    5578.5340    34.9937    86.7892

 310.00  VIB.     0.3273D+02                  3471.1416    28.4067    18.1292
         ROT.     0.5071D+06                   924.0510     2.9808    29.0855
         INT.     0.1660D+08                  4395.1927    31.3875    47.2147
         TRA.     0.1559D+28                  1540.0850     4.9680    40.7441
         TOT.                       47.189    5935.2777    36.3555    87.9588

 320.00  VIB.     0.3932D+02                  3762.0240    29.7697    19.0526
         ROT.     0.5318D+06                   953.8591     2.9808    29.1802
         INT.     0.2091D+08                  4715.8831    32.7505    48.2328
         TRA.     0.1635D+28                  1589.7652     4.9680    40.9018
         TOT.                       47.560    6305.6483    37.7185    89.1346

 330.00  VIB.     0.4737D+02                  4066.5274    31.1303    19.9895
         ROT.     0.5569D+06                   983.6672     2.9808    29.2719
         INT.     0.2638D+08                  5050.1947    34.1111    49.2614
         TRA.     0.1713D+28                  1639.4454     4.9680    41.0547
         TOT.                       47.944    6689.6400    39.0792    90.3161

 340.00  VIB.     0.5725D+02                  4384.6123    32.4855    20.9390
         ROT.     0.5824D+06                  1013.4753     2.9808    29.3609
         INT.     0.3334D+08                  5398.0877    35.4663    50.2999
         TRA.     0.1791D+28                  1689.1255     4.9680    41.2030
         TOT.                       48.341    7087.2132    40.4343    91.5029

 350.00  VIB.     0.6939D+02                  4716.2089    33.8322    21.9001
         ROT.     0.6083D+06                  1043.2834     2.9808    29.4473
         INT.     0.4221D+08                  5759.4923    36.8130    51.3474
         TRA.     0.1871D+28                  1738.8057     4.9680    41.3470
         TOT.                       48.752    7498.2980    41.7810    92.6944

 360.00  VIB.     0.8434D+02                  5061.2201    35.1680    22.8719
         ROT.     0.6346D+06                  1073.0915     2.9808    29.5313
         INT.     0.5352D+08                  6134.3117    38.1488    52.4032
         TRA.     0.1951D+28                  1788.4859     4.9680    41.4870
         TOT.                       49.177    7922.7975    43.1168    93.8902

 370.00  VIB.     0.1028D+03                  5419.5254    36.4907    23.8536
         ROT.     0.6612D+06                  1102.8996     2.9808    29.6129
         INT.     0.6797D+08                  6522.4250    39.4715    53.4665
         TRA.     0.2033D+28                  1838.1660     4.9680    41.6231
         TOT.                       49.615    8360.5910    44.4395    95.0896

 380.00  VIB.     0.1256D+03                  5790.9831    37.7982    24.8441
         ROT.     0.6882D+06                  1132.7077     2.9808    29.6924
         INT.     0.8645D+08                  6923.6908    40.7790    54.5365
         TRA.     0.2116D+28                  1887.8462     4.9680    41.7556
         TOT.                       50.066    8811.5369    45.7470    96.2921

 390.00  VIB.     0.1539D+03                  6175.4339    39.0890    25.8427
         ROT.     0.7155D+06                  1162.5158     2.9808    29.7699
         INT.     0.1101D+09                  7337.9497    42.0699    55.6125
         TRA.     0.2200D+28                  1937.5263     4.9680    41.8846
         TOT.                       50.530    9275.4760    47.0379    97.4971

 400.00  VIB.     0.1890D+03                  6572.7035    40.3618    26.8484
         ROT.     0.7432D+06                  1192.3239     2.9808    29.8453
         INT.     0.1405D+09                  7765.0274    43.3426    56.6937
         TRA.     0.2285D+28                  1987.2065     4.9680    42.0104
         TOT.                       51.006    9752.2339    48.3106    98.7041

   *: NOTE: HEATS OF FORMATION ARE RELATIVE TO THE
            ELEMENTS IN THEIR STANDARD STATE AT 298K
              (=  Standard Enthalpy of Formation).

            Hvib:  Zero-point energy is not included.
                   frequencies of less than zero cm-1 are not included.
            Hrot = (3/2)RT
            Htra = (3/2)RT + pV = (5/2)RT

            Heat capacity is Cp, not Cv

          For more information, see: HTTP://OpenMOPAC.net/Manual/thermochemistry.html


           FORCE CONSTANT IN CARTESIAN COORDINATES (Millidynes/A)

    ATOM   CHEMICAL       X               Y               Z
   NUMBER   SYMBOL  FORCE CONSTANT  FORCE CONSTANT  FORCE CONSTANT

      1       C        9.843441        6.561849        9.638277
      2       C        9.690273        6.272113        9.297185
      3       C        4.757100       10.612719       10.081634
      4       C        8.722655        8.886406        7.706941
      5       C        8.868893        8.006895        9.217832
      6       C        8.791450        8.052519        8.987614
      7       C        6.795808       11.350040        9.378250
      8       C        6.749588        8.692483       11.647644
      9       C       15.350921        2.623753        9.281877
     10       C       15.360879        2.601615        9.262725
     11       H        1.734704        0.932521        3.651509
     12       H        0.515414        2.513077        3.430263
     13       H        1.116007        3.513533        1.723839
     14       H        4.984753        0.656895        0.742424
     15       H        3.026493        2.363204        0.848335
     16       H        1.249298        4.036367        0.916847
     17       H        2.590984        2.765626        0.884085
     18       H        1.588549        3.801262        0.835289
     19       H        1.186969        4.278343        0.970374
     20       H        0.945001        0.800901        4.684790
     21       H        1.903624        0.485086        3.841741
     22       H        1.783113        0.437987        4.007665

 **********************
 *                    *
 * JOB ENDED NORMALLY *
 *                    *
 **********************



 TOTAL JOB TIME:             7.59 SECONDS

 == MOPAC DONE ==
