 *******************************************************************************
 ** Site#: 14399        For non-commercial use only    Version 18.184L 64BITS **
 *******************************************************************************
 ** Cite this program as: MOPAC2016, Version: 18.184L, James J. P. Stewart,   **
 ** Stewart Computational Chemistry, web: HTTP://OpenMOPAC.net. Days left:  20**
 *******************************************************************************
 **                                                                           **
 **                                MOPAC2016                                  **
 **                                                                           **
 *******************************************************************************

                              PM3 CALCULATION RESULTS

 *******************************************************************************
 *  CALCULATION DONE:                                Thu Jun 13 15:43:46 2019  *
 *  PM3        - The PM3 Hamiltonian to be used
 *  PRECISE    - CRITERIA TO BE INCREASED BY 100 TIMES
 *  NOSYM      - POINT-GROUP SYMMETRY SET TO C1
 *  THREADS=1  - MULTI-THREADING NOT USED
 *  T=         - A TIME OF 172800.0 SECONDS REQUESTED
 *  DUMP=N     - RESTART FILE WRITTEN EVERY  7200.000 SECONDS
 *******************************************************************************
pm3  precise nosym THREADS=1
 InChI=1S/C7H12/c1-6-3-4-7(2)5-6/h3,7H,4-5H2,1-2H3

   ATOM   CHEMICAL          X               Y               Z
  NUMBER   SYMBOL      (ANGSTROMS)     (ANGSTROMS)     (ANGSTROMS)
 
     1       C         -1.15080000  *  -0.09990000  *  -0.45070000  *
     2       C          0.16160000  *  -0.90460000  *  -0.40940000  *
     3       C         -0.79150000  *   1.32460000  *   0.01330000  *
     4       C         -2.24440000  *  -0.73210000  *   0.41740000  *
     5       C          2.66010000  *  -0.20320000  *   0.05080000  *
     6       C          1.19760000  *   0.10350000  *  -0.05670000  *
     7       C          0.68580000  *   1.30290000  *   0.17000000  *
     8       H         -1.51620000  *  -0.05690000  *  -1.50160000  *
     9       H          0.14820000  *  -1.70610000  *   0.36140000  *
    10       H          0.38380000  *  -1.34760000  *  -1.40420000  *
    11       H         -1.25950000  *   1.58970000  *   0.98640000  *
    12       H         -1.07890000  *   2.07490000  *  -0.75430000  *
    13       H         -2.47340000  *  -1.75550000  *   0.05130000  *
    14       H         -3.17150000  *  -0.12300000  *   0.36070000  *
    15       H         -1.91770000  *  -0.79340000  *   1.47800000  *
    16       H          3.22850000  *   0.42160000  *  -0.66970000  *
    17       H          3.01390000  *   0.01050000  *   1.08130000  *
    18       H          2.84730000  *  -1.27360000  *  -0.17750000  *
    19       H          1.27710000  *   2.16820000  *   0.45350000  *
 


          CARTESIAN COORDINATES 

    NO.       ATOM           X           Y           Z

     1         C         -1.1508     -0.0999     -0.4507
     2         C          0.1616     -0.9046     -0.4094
     3         C         -0.7915      1.3246      0.0133
     4         C         -2.2444     -0.7321      0.4174
     5         C          2.6601     -0.2032      0.0508
     6         C          1.1976      0.1035     -0.0567
     7         C          0.6858      1.3029      0.1700
     8         H         -1.5162     -0.0569     -1.5016
     9         H          0.1482     -1.7061      0.3614
    10         H          0.3838     -1.3476     -1.4042
    11         H         -1.2595      1.5897      0.9864
    12         H         -1.0789      2.0749     -0.7543
    13         H         -2.4734     -1.7555      0.0513
    14         H         -3.1715     -0.1230      0.3607
    15         H         -1.9177     -0.7934      1.4780
    16         H          3.2285      0.4216     -0.6697
    17         H          3.0139      0.0105      1.0813
    18         H          2.8473     -1.2736     -0.1775
    19         H          1.2771      2.1682      0.4535

  H: (PM3): J. J. P. STEWART, J. COMP. CHEM. 10, 209 (1989).
  C: (PM3): J. J. P. STEWART, J. COMP. CHEM. 10, 209 (1989).

           Empirical Formula: C7 H12  =    19 atoms



      MOLECULAR POINT GROUP   :   C1  


      RHF CALCULATION, NO. OF DOUBLY OCCUPIED LEVELS = 20


          Geometry optimization using EF

          DIAGONAL MATRIX USED AS START HESSIAN

 CYCLE:     1 TIME:   0.020 TIME LEFT:  2.00D  GRAD.:    68.257 HEAT: -10.33514
 CYCLE:     2 TIME:   0.047 TIME LEFT:  2.00D  GRAD.:    59.000 HEAT: -11.20237
 CYCLE:     3 TIME:   0.023 TIME LEFT:  2.00D  GRAD.:    34.631 HEAT: -11.82063
 CYCLE:     4 TIME:   0.035 TIME LEFT:  2.00D  GRAD.:    17.186 HEAT: -12.10474
 CYCLE:     5 TIME:   0.023 TIME LEFT:  2.00D  GRAD.:    24.575 HEAT: -12.15438
 CYCLE:     6 TIME:   0.023 TIME LEFT:  2.00D  GRAD.:    25.439 HEAT: -12.25331
 CYCLE:     7 TIME:   0.031 TIME LEFT:  2.00D  GRAD.:    23.607 HEAT: -12.28986
 CYCLE:     8 TIME:   0.035 TIME LEFT:  2.00D  GRAD.:    10.040 HEAT: -12.44885
 CYCLE:     9 TIME:   0.035 TIME LEFT:  2.00D  GRAD.:     5.990 HEAT: -12.48986
 CYCLE:    10 TIME:   0.023 TIME LEFT:  2.00D  GRAD.:     9.553 HEAT: -12.51286
 CYCLE:    11 TIME:   0.031 TIME LEFT:  2.00D  GRAD.:     9.518 HEAT: -12.54541
 CYCLE:    12 TIME:   0.035 TIME LEFT:  2.00D  GRAD.:    12.352 HEAT: -12.55188
 CYCLE:    13 TIME:   0.027 TIME LEFT:  2.00D  GRAD.:    10.079 HEAT: -12.57761
 CYCLE:    14 TIME:   0.023 TIME LEFT:  2.00D  GRAD.:    11.429 HEAT: -12.58317
 CYCLE:    15 TIME:   0.027 TIME LEFT:  2.00D  GRAD.:     9.853 HEAT: -12.60314
 CYCLE:    16 TIME:   0.027 TIME LEFT:  2.00D  GRAD.:     5.445 HEAT: -12.62660
 CYCLE:    17 TIME:   0.027 TIME LEFT:  2.00D  GRAD.:     7.206 HEAT: -12.62767
 CYCLE:    18 TIME:   0.023 TIME LEFT:  2.00D  GRAD.:     5.527 HEAT: -12.64300
 CYCLE:    19 TIME:   0.023 TIME LEFT:  2.00D  GRAD.:     7.269 HEAT: -12.64402
 CYCLE:    20 TIME:   0.023 TIME LEFT:  2.00D  GRAD.:     2.213 HEAT: -12.66191
 CYCLE:    21 TIME:   0.020 TIME LEFT:  2.00D  GRAD.:     2.323 HEAT: -12.66825
 CYCLE:    22 TIME:   0.023 TIME LEFT:  2.00D  GRAD.:     2.468 HEAT: -12.67602
 CYCLE:    23 TIME:   0.023 TIME LEFT:  2.00D  GRAD.:     2.463 HEAT: -12.68146
 CYCLE:    24 TIME:   0.023 TIME LEFT:  2.00D  GRAD.:     2.254 HEAT: -12.68350
 CYCLE:    25 TIME:   0.023 TIME LEFT:  2.00D  GRAD.:     1.296 HEAT: -12.68657
 CYCLE:    26 TIME:   0.023 TIME LEFT:  2.00D  GRAD.:     1.351 HEAT: -12.68731
 CYCLE:    27 TIME:   0.020 TIME LEFT:  2.00D  GRAD.:     1.087 HEAT: -12.68801
 CYCLE:    28 TIME:   0.023 TIME LEFT:  2.00D  GRAD.:     0.707 HEAT: -12.68858
 CYCLE:    29 TIME:   0.023 TIME LEFT:  2.00D  GRAD.:     0.658 HEAT: -12.68907
 CYCLE:    30 TIME:   0.023 TIME LEFT:  2.00D  GRAD.:     0.567 HEAT: -12.68962
 CYCLE:    31 TIME:   0.023 TIME LEFT:  2.00D  GRAD.:     0.484 HEAT: -12.68994
 CYCLE:    32 TIME:   0.023 TIME LEFT:  2.00D  GRAD.:     0.416 HEAT: -12.69015
 CYCLE:    33 TIME:   0.023 TIME LEFT:  2.00D  GRAD.:     0.364 HEAT: -12.69038
 CYCLE:    34 TIME:   0.020 TIME LEFT:  2.00D  GRAD.:     0.397 HEAT: -12.69075
 CYCLE:    35 TIME:   0.023 TIME LEFT:  2.00D  GRAD.:     0.500 HEAT: -12.69117
 CYCLE:    36 TIME:   0.023 TIME LEFT:  2.00D  GRAD.:     0.632 HEAT: -12.69197
 CYCLE:    37 TIME:   0.023 TIME LEFT:  2.00D  GRAD.:     0.562 HEAT: -12.69282
 CYCLE:    38 TIME:   0.023 TIME LEFT:  2.00D  GRAD.:     0.411 HEAT: -12.69323
 CYCLE:    39 TIME:   0.023 TIME LEFT:  2.00D  GRAD.:     0.460 HEAT: -12.69382
 CYCLE:    40 TIME:   0.027 TIME LEFT:  2.00D  GRAD.:     0.537 HEAT: -12.69422
 CYCLE:    41 TIME:   0.027 TIME LEFT:  2.00D  GRAD.:     0.614 HEAT: -12.69499
 CYCLE:    42 TIME:   0.027 TIME LEFT:  2.00D  GRAD.:     0.543 HEAT: -12.69577
 CYCLE:    43 TIME:   0.027 TIME LEFT:  2.00D  GRAD.:     0.538 HEAT: -12.69641
 CYCLE:    44 TIME:   0.023 TIME LEFT:  2.00D  GRAD.:     0.574 HEAT: -12.69715
 CYCLE:    45 TIME:   0.020 TIME LEFT:  2.00D  GRAD.:     0.518 HEAT: -12.69798
 CYCLE:    46 TIME:   0.023 TIME LEFT:  2.00D  GRAD.:     0.341 HEAT: -12.69842
 CYCLE:    47 TIME:   0.023 TIME LEFT:  2.00D  GRAD.:     0.240 HEAT: -12.69864
 CYCLE:    48 TIME:   0.023 TIME LEFT:  2.00D  GRAD.:     0.282 HEAT: -12.69879
 CYCLE:    49 TIME:   0.023 TIME LEFT:  2.00D  GRAD.:     0.326 HEAT: -12.69898
 CYCLE:    50 TIME:   0.020 TIME LEFT:  2.00D  GRAD.:     0.363 HEAT: -12.69929
 CYCLE:    51 TIME:   0.035 TIME LEFT:  2.00D  GRAD.:     0.286 HEAT: -12.69942
 CYCLE:    52 TIME:   0.023 TIME LEFT:  2.00D  GRAD.:     0.432 HEAT: -12.69965
 CYCLE:    53 TIME:   0.023 TIME LEFT:  2.00D  GRAD.:     0.299 HEAT: -12.69979
 CYCLE:    54 TIME:   0.023 TIME LEFT:  2.00D  GRAD.:     0.151 HEAT: -12.70008
 CYCLE:    55 TIME:   0.023 TIME LEFT:  2.00D  GRAD.:     0.160 HEAT: -12.70023
 CYCLE:    56 TIME:   0.023 TIME LEFT:  2.00D  GRAD.:     0.173 HEAT: -12.70039
 CYCLE:    57 TIME:   0.020 TIME LEFT:  2.00D  GRAD.:     0.138 HEAT: -12.70043
 CYCLE:    58 TIME:   0.023 TIME LEFT:  2.00D  GRAD.:     0.186 HEAT: -12.70058
 CYCLE:    59 TIME:   0.023 TIME LEFT:  2.00D  GRAD.:     0.148 HEAT: -12.70062
 CYCLE:    60 TIME:   0.023 TIME LEFT:  2.00D  GRAD.:     0.225 HEAT: -12.70065
 CYCLE:    61 TIME:   0.027 TIME LEFT:  2.00D  GRAD.:     0.114 HEAT: -12.70073
 CYCLE:    62 TIME:   0.027 TIME LEFT:  2.00D  GRAD.:     0.089 HEAT: -12.70079
 CYCLE:    63 TIME:   0.027 TIME LEFT:  2.00D  GRAD.:     0.104 HEAT: -12.70086
 CYCLE:    64 TIME:   0.023 TIME LEFT:  2.00D  GRAD.:     0.111 HEAT: -12.70090
 CYCLE:    65 TIME:   0.020 TIME LEFT:  2.00D  GRAD.:     0.154 HEAT: -12.70104
 CYCLE:    66 TIME:   0.023 TIME LEFT:  2.00D  GRAD.:     0.165 HEAT: -12.70111
 CYCLE:    67 TIME:   0.023 TIME LEFT:  2.00D  GRAD.:     0.216 HEAT: -12.70131
 CYCLE:    68 TIME:   0.023 TIME LEFT:  2.00D  GRAD.:     0.168 HEAT: -12.70137
 CYCLE:    69 TIME:   0.020 TIME LEFT:  2.00D  GRAD.:     0.173 HEAT: -12.70150
 CYCLE:    70 TIME:   0.023 TIME LEFT:  2.00D  GRAD.:     0.132 HEAT: -12.70157
 CYCLE:    71 TIME:   0.023 TIME LEFT:  2.00D  GRAD.:     0.133 HEAT: -12.70172
 CYCLE:    72 TIME:   0.023 TIME LEFT:  2.00D  GRAD.:     0.106 HEAT: -12.70176
 CYCLE:    73 TIME:   0.023 TIME LEFT:  2.00D  GRAD.:     0.105 HEAT: -12.70182
 CYCLE:    74 TIME:   0.023 TIME LEFT:  2.00D  GRAD.:     0.141 HEAT: -12.70188
 CYCLE:    75 TIME:   0.023 TIME LEFT:  2.00D  GRAD.:     0.122 HEAT: -12.70192
 CYCLE:    76 TIME:   0.027 TIME LEFT:  2.00D  GRAD.:     0.335 HEAT: -12.70209
 CYCLE:    77 TIME:   0.023 TIME LEFT:  2.00D  GRAD.:     0.256 HEAT: -12.70221
 CYCLE:    78 TIME:   0.023 TIME LEFT:  2.00D  GRAD.:     0.392 HEAT: -12.70267
 CYCLE:    79 TIME:   0.023 TIME LEFT:  2.00D  GRAD.:     0.518 HEAT: -12.70362
 CYCLE:    80 TIME:   0.023 TIME LEFT:  2.00D  GRAD.:     2.942 HEAT: -12.70249
 CYCLE:    81 TIME:   0.020 TIME LEFT:  2.00D  GRAD.:     0.593 HEAT: -12.70521
 CYCLE:    82 TIME:   0.027 TIME LEFT:  2.00D  GRAD.:     0.737 HEAT: -12.70683
 CYCLE:    83 TIME:   0.027 TIME LEFT:  2.00D  GRAD.:     6.570 HEAT: -12.70111
 CYCLE:    84 TIME:   0.027 TIME LEFT:  2.00D  GRAD.:     0.826 HEAT: -12.71327
 CYCLE:    85 TIME:   0.031 TIME LEFT:  2.00D  GRAD.:     1.060 HEAT: -12.71755
 CYCLE:    86 TIME:   0.035 TIME LEFT:  2.00D  GRAD.:     2.775 HEAT: -12.72832
 CYCLE:    87 TIME:   0.023 TIME LEFT:  2.00D  GRAD.:     4.850 HEAT: -12.73654
 CYCLE:    88 TIME:   0.023 TIME LEFT:  2.00D  GRAD.:     2.091 HEAT: -12.74986
 CYCLE:    89 TIME:   0.023 TIME LEFT:  2.00D  GRAD.:     3.794 HEAT: -12.76002
 CYCLE:    90 TIME:   0.023 TIME LEFT:  2.00D  GRAD.:     3.642 HEAT: -12.77220
 CYCLE:    91 TIME:   0.020 TIME LEFT:  2.00D  GRAD.:     4.419 HEAT: -12.78704
 CYCLE:    92 TIME:   0.023 TIME LEFT:  2.00D  GRAD.:     3.618 HEAT: -12.78901
 CYCLE:    93 TIME:   0.023 TIME LEFT:  2.00D  GRAD.:     6.198 HEAT: -12.80844
 CYCLE:    94 TIME:   0.023 TIME LEFT:  2.00D  GRAD.:     2.078 HEAT: -12.81944
 CYCLE:    95 TIME:   0.023 TIME LEFT:  2.00D  GRAD.:     2.143 HEAT: -12.83055
 CYCLE:    96 TIME:   0.023 TIME LEFT:  2.00D  GRAD.:     7.812 HEAT: -12.85301
 CYCLE:    97 TIME:   0.023 TIME LEFT:  2.00D  GRAD.:     2.487 HEAT: -12.87438
 CYCLE:    98 TIME:   0.020 TIME LEFT:  2.00D  GRAD.:     2.465 HEAT: -12.89442
 CYCLE:    99 TIME:   0.031 TIME LEFT:  2.00D  GRAD.:     8.467 HEAT: -12.90865
 CYCLE:   100 TIME:   0.023 TIME LEFT:  2.00D  GRAD.:     2.662 HEAT: -12.93275
 CYCLE:   101 TIME:   0.023 TIME LEFT:  2.00D  GRAD.:     2.517 HEAT: -12.95207
 CYCLE:   102 TIME:   0.031 TIME LEFT:  2.00D  GRAD.:     7.557 HEAT: -12.98065
 CYCLE:   103 TIME:   0.027 TIME LEFT:  2.00D  GRAD.:     3.106 HEAT: -13.01024
 CYCLE:   104 TIME:   0.027 TIME LEFT:  2.00D  GRAD.:     3.199 HEAT: -13.03615
 CYCLE:   105 TIME:   0.027 TIME LEFT:  2.00D  GRAD.:     6.770 HEAT: -13.05105
 CYCLE:   106 TIME:   0.023 TIME LEFT:  2.00D  GRAD.:     4.576 HEAT: -13.05551
 CYCLE:   107 TIME:   0.023 TIME LEFT:  2.00D  GRAD.:     3.749 HEAT: -13.07218
 CYCLE:   108 TIME:   0.023 TIME LEFT:  2.00D  GRAD.:     2.780 HEAT: -13.08327
 CYCLE:   109 TIME:   0.027 TIME LEFT:  2.00D  GRAD.:     2.459 HEAT: -13.09151
 CYCLE:   110 TIME:   0.023 TIME LEFT:  2.00D  GRAD.:     2.754 HEAT: -13.10446
 CYCLE:   111 TIME:   0.020 TIME LEFT:  2.00D  GRAD.:     2.877 HEAT: -13.10972
 CYCLE:   112 TIME:   0.031 TIME LEFT:  2.00D  GRAD.:     4.412 HEAT: -13.11553
 CYCLE:   113 TIME:   0.027 TIME LEFT:  2.00D  GRAD.:     1.960 HEAT: -13.12282
 CYCLE:   114 TIME:   0.023 TIME LEFT:  2.00D  GRAD.:     1.776 HEAT: -13.12768
 CYCLE:   115 TIME:   0.023 TIME LEFT:  2.00D  GRAD.:     1.634 HEAT: -13.13750
 CYCLE:   116 TIME:   0.020 TIME LEFT:  2.00D  GRAD.:     0.827 HEAT: -13.14067
 CYCLE:   117 TIME:   0.023 TIME LEFT:  2.00D  GRAD.:     1.488 HEAT: -13.14265
 CYCLE:   118 TIME:   0.023 TIME LEFT:  2.00D  GRAD.:     1.170 HEAT: -13.14403
 CYCLE:   119 TIME:   0.023 TIME LEFT:  2.00D  GRAD.:     0.722 HEAT: -13.14573
 CYCLE:   120 TIME:   0.023 TIME LEFT:  2.00D  GRAD.:     0.642 HEAT: -13.14677
 CYCLE:   121 TIME:   0.023 TIME LEFT:  2.00D  GRAD.:     0.337 HEAT: -13.14716
 CYCLE:   122 TIME:   0.027 TIME LEFT:  2.00D  GRAD.:     0.219 HEAT: -13.14738
 CYCLE:   123 TIME:   0.027 TIME LEFT:  2.00D  GRAD.:     0.126 HEAT: -13.14747
 CYCLE:   124 TIME:   0.027 TIME LEFT:  2.00D  GRAD.:     0.156 HEAT: -13.14750
 CYCLE:   125 TIME:   0.020 TIME LEFT:  2.00D  GRAD.:     0.079 HEAT: -13.14754
 CYCLE:   126 TIME:   0.023 TIME LEFT:  2.00D  GRAD.:     0.059 HEAT: -13.14755
 CYCLE:   127 TIME:   0.023 TIME LEFT:  2.00D  GRAD.:     0.089 HEAT: -13.14756
 CYCLE:   128 TIME:   0.023 TIME LEFT:  2.00D  GRAD.:     0.046 HEAT: -13.14757

     GRADIENT =  0.04574  IS LESS THAN CUTOFF =  0.05000



 -------------------------------------------------------------------------------
 pm3  precise nosym THREADS=1
 InChI=1S/C7H12/c1-6-3-4-7(2)5-6/h3,7H,4-5H2,1-2H3



     GEOMETRY OPTIMISED USING EIGENVECTOR FOLLOWING (EF).     
     SCF FIELD WAS ACHIEVED                                   


                              PM3 CALCULATION
                                                       MOPAC2016 (Version: 18.184L)
                                                       Thu Jun 13 15:43:49 2019
                                                       No. of days remaining =  20




          FINAL HEAT OF FORMATION =        -13.14757 KCAL/MOL =     -55.00942 KJ/MOL


          TOTAL ENERGY            =      -1015.04519 EV
          ELECTRONIC ENERGY       =      -4930.03925 EV  POINT GROUP:     C1  
          CORE-CORE REPULSION     =       3914.99407 EV
          COSMO AREA              =        150.91 SQUARE ANGSTROMS
          COSMO VOLUME            =        145.43 CUBIC ANGSTROMS

          GRADIENT NORM           =          0.04574 = 0.01049 PER ATOM
          IONIZATION POTENTIAL    =          9.282591 EV
          HOMO LUMO ENERGIES (EV) =         -9.283  1.094
          NO. OF FILLED LEVELS    =         20
          MOLECULAR WEIGHT        =         96.1718

          MOLECULAR DIMENSIONS (Angstroms)

            Atom       Atom       Distance
            H    17    H    14     6.44796
            H    12    H     9     4.06908
            H    10    H    11     3.06573


          SCF CALCULATIONS        =        139
 
          WALL-CLOCK TIME         =          3.223 SECONDS
          COMPUTATION TIME        =          1.318 SECONDS




   ATOM   CHEMICAL          X               Y               Z
  NUMBER   SYMBOL      (ANGSTROMS)     (ANGSTROMS)     (ANGSTROMS)
 
     1       C         -1.15262587  *  -0.07434089  *  -0.47421002  *
     2       C          0.17928489  *  -0.85444461  *  -0.48774437  *
     3       C         -0.80578477  *   1.33133660  *   0.06254045  *
     4       C         -2.20404995  *  -0.76174021  *   0.37198987  *
     5       C          2.63574163  *  -0.24696980  *   0.05377865  *
     6       C          1.21354201  *   0.12977789  *  -0.03111419  *
     7       C          0.67299260  *   1.32023233  *   0.26813459  *
     8       H         -1.53988975  *   0.01294994  *  -1.51561630  *
     9       H          0.15626359  *  -1.73495094  *   0.18249565  *
    10       H          0.42102476  *  -1.24082268  *  -1.49488648  *
    11       H         -1.32969949  *   1.55770437  *   1.01078390  *
    12       H         -1.09880702  *   2.12647589  *  -0.64721020  *
    13       H         -2.43170216  *  -1.76417168  *  -0.01330276  *
    14       H         -3.14142440  *  -0.19045637  *   0.38275385  *
    15       H         -1.87857495  *  -0.87737226  *   1.41482793  *
    16       H          3.01390031  *  -0.55857747  *  -0.92928581  *
    17       H          3.25982912  *   0.58383320  *   0.40679512  *
    18       H          2.77344188  *  -1.08949934  *   0.74489214  *
    19       H          1.20577819  *   2.20193081  *   0.62406461  *

                             CARTESIAN COORDINATES

   1    C       -1.152625874    -0.074340887    -0.474210021
   2    C        0.179284893    -0.854444610    -0.487744366
   3    C       -0.805784765     1.331336599     0.062540446
   4    C       -2.204049946    -0.761740213     0.371989869
   5    C        2.635741627    -0.246969803     0.053778653
   6    C        1.213542006     0.129777890    -0.031114186
   7    C        0.672992600     1.320232332     0.268134595
   8    H       -1.539889747     0.012949936    -1.515616302
   9    H        0.156263586    -1.734950945     0.182495649
  10    H        0.421024761    -1.240822682    -1.494886485
  11    H       -1.329699492     1.557704371     1.010783899
  12    H       -1.098807022     2.126475892    -0.647210199
  13    H       -2.431702163    -1.764171683    -0.013302764
  14    H       -3.141424404    -0.190456365     0.382753854
  15    H       -1.878574951    -0.877372257     1.414827930
  16    H        3.013900314    -0.558577470    -0.929285814
  17    H        3.259829124     0.583833200     0.406795125
  18    H        2.773441876    -1.089499340     0.744892145
  19    H        1.205778194     2.201930812     0.624064609


           Empirical Formula: C7 H12  =    19 atoms



      MOLECULAR POINT GROUP   :   C1  


                  EIGENVALUES  
 -40.86804 -32.97912 -29.26509 -26.54195 -23.30251 -19.72002 -18.19290 -16.81292
 -16.00404 -14.52922 -14.36606 -14.11106 -13.67353 -13.29523 -12.84917 -12.56517
 -12.35231 -11.99764 -11.69000  -9.28259   1.09359   3.35230   3.53123   3.73433
   3.80286   3.87217   3.97811   4.07365   4.32621   4.35883   4.40348   4.45431
   4.46183   4.58976   4.67880   4.81620   5.21233   5.31596   5.75139   6.11981


              NET ATOMIC CHARGES AND DIPOLE CONTRIBUTIONS

  ATOM NO.   TYPE          CHARGE      No. of ELECS.   s-Pop       p-Pop       
    1          C          -0.077848        4.0778     1.18186     2.89599
    2          C          -0.058316        4.0583     1.15640     2.90192
    3          C          -0.063104        4.0631     1.15634     2.90677
    4          C          -0.107751        4.1078     1.14136     2.96639
    5          C          -0.050629        4.0506     1.11770     2.93293
    6          C          -0.135642        4.1356     1.20325     2.93240
    7          C          -0.159306        4.1593     1.19996     2.95934
    8          H           0.061750        0.9382     0.93825
    9          H           0.059999        0.9400     0.94000
   10          H           0.055084        0.9449     0.94492
   11          H           0.059260        0.9407     0.94074
   12          H           0.054285        0.9457     0.94572
   13          H           0.038153        0.9618     0.96185
   14          H           0.038430        0.9616     0.96157
   15          H           0.042507        0.9575     0.95749
   16          H           0.044146        0.9559     0.95585
   17          H           0.041798        0.9582     0.95820
   18          H           0.044133        0.9559     0.95587
   19          H           0.113049        0.8870     0.88695
 DIPOLE           X         Y         Z       TOTAL
 POINT-CHG.    -0.019    -0.178    -0.031     0.181
 HYBRID        -0.001    -0.010     0.021     0.023
 SUM           -0.020    -0.188    -0.010     0.189


          ATOMIC ORBITAL ELECTRON POPULATIONS

     Atom    s        px        py        pz   
    1  C   1.18186   0.95235   0.95092   0.99272
    2  C   1.15640   0.93086   0.96592   1.00513
    3  C   1.15634   0.94402   0.95958   1.00316
    4  C   1.14136   0.97842   0.99483   0.99314
    5  C   1.11770   0.92509   1.00360   1.00423
    6  C   1.20325   0.95898   0.96478   1.00864
    7  C   1.19996   0.96402   0.97121   1.02411
    8  H   0.93825
    9  H   0.94000
   10  H   0.94492
   11  H   0.94074
   12  H   0.94572
   13  H   0.96185
   14  H   0.96157
   15  H   0.95749
   16  H   0.95585
   17  H   0.95820
   18  H   0.95587
   19  H   0.88695
 *******************************************************************************
 ** Site#: 14399        For non-commercial use only    Version 18.184L 64BITS **
 *******************************************************************************
 ** Cite this program as: MOPAC2016, Version: 18.184L, James J. P. Stewart,   **
 ** Stewart Computational Chemistry, web: HTTP://OpenMOPAC.net. Days left:  20**
 *******************************************************************************
 **                                                                           **
 **                                MOPAC2016                                  **
 **                                                                           **
 *******************************************************************************

                              PM3 CALCULATION RESULTS

 *******************************************************************************
 *  CALCULATION DONE:                                Thu Jun 13 15:43:49 2019  *
 *  PM3        - The PM3 Hamiltonian to be used
 *  OLDGEO     - PREVIOUS GEOMETRY TO BE USED
 *  PRECISE    - CRITERIA TO BE INCREASED BY 100 TIMES
 *  NOSYM      - POINT-GROUP SYMMETRY SET TO C1
 *  THREADS=1  - MULTI-THREADING NOT USED
 *  T=         - A TIME OF 172800.0 SECONDS REQUESTED
 *  DUMP=N     - RESTART FILE WRITTEN EVERY  7200.000 SECONDS
 *  THERMO     - THERMODYNAMIC QUANTITIES TO BE CALCULATED
 *******************************************************************************
oldgeo thermo nosym precise THREADS=1  pm3
 InChI=1S/C7H12/c1-6-3-4-7(2)5-6/h3,7H,4-5H2,1-2H3

   ATOM   CHEMICAL          X               Y               Z
  NUMBER   SYMBOL      (ANGSTROMS)     (ANGSTROMS)     (ANGSTROMS)
 
     1       C         -1.15262587  *  -0.07434089  *  -0.47421002  *
     2       C          0.17928489  *  -0.85444461  *  -0.48774437  *
     3       C         -0.80578477  *   1.33133660  *   0.06254045  *
     4       C         -2.20404995  *  -0.76174021  *   0.37198987  *
     5       C          2.63574163  *  -0.24696980  *   0.05377865  *
     6       C          1.21354201  *   0.12977789  *  -0.03111419  *
     7       C          0.67299260  *   1.32023233  *   0.26813459  *
     8       H         -1.53988975  *   0.01294994  *  -1.51561630  *
     9       H          0.15626359  *  -1.73495094  *   0.18249565  *
    10       H          0.42102476  *  -1.24082268  *  -1.49488648  *
    11       H         -1.32969949  *   1.55770437  *   1.01078390  *
    12       H         -1.09880702  *   2.12647589  *  -0.64721020  *
    13       H         -2.43170216  *  -1.76417168  *  -0.01330276  *
    14       H         -3.14142440  *  -0.19045637  *   0.38275385  *
    15       H         -1.87857495  *  -0.87737226  *   1.41482793  *
    16       H          3.01390031  *  -0.55857747  *  -0.92928581  *
    17       H          3.25982912  *   0.58383320  *   0.40679512  *
    18       H          2.77344188  *  -1.08949934  *   0.74489214  *
    19       H          1.20577819  *   2.20193081  *   0.62406461  *
 


          CARTESIAN COORDINATES 

    NO.       ATOM           X           Y           Z

     1         C         -1.1526     -0.0743     -0.4742
     2         C          0.1793     -0.8544     -0.4877
     3         C         -0.8058      1.3313      0.0625
     4         C         -2.2040     -0.7617      0.3720
     5         C          2.6357     -0.2470      0.0538
     6         C          1.2135      0.1298     -0.0311
     7         C          0.6730      1.3202      0.2681
     8         H         -1.5399      0.0129     -1.5156
     9         H          0.1563     -1.7350      0.1825
    10         H          0.4210     -1.2408     -1.4949
    11         H         -1.3297      1.5577      1.0108
    12         H         -1.0988      2.1265     -0.6472
    13         H         -2.4317     -1.7642     -0.0133
    14         H         -3.1414     -0.1905      0.3828
    15         H         -1.8786     -0.8774      1.4148
    16         H          3.0139     -0.5586     -0.9293
    17         H          3.2598      0.5838      0.4068
    18         H          2.7734     -1.0895      0.7449
    19         H          1.2058      2.2019      0.6241

  H: (PM3): J. J. P. STEWART, J. COMP. CHEM. 10, 209 (1989).
  C: (PM3): J. J. P. STEWART, J. COMP. CHEM. 10, 209 (1989).

           Empirical Formula: C7 H12  =    19 atoms



      MOLECULAR POINT GROUP   :   C1  


      RHF CALCULATION, NO. OF DOUBLY OCCUPIED LEVELS = 20



          HEAT OF FORMATION =     -13.147567 KCALS/MOLE


          CARTESIAN COORDINATE DERIVATIVES

   NUMBER  ATOM         X            Y            Z

     1       C     -0.003128     0.001576     0.000417
     2       C     -0.001453    -0.001818     0.000657
     3       C     -0.000162    -0.000766    -0.001048
     4       C     -0.003570    -0.000783    -0.003083
     5       C     -0.009371    -0.005291     0.018791
     6       C     -0.001080     0.000036    -0.001068
     7       C      0.001200     0.002235    -0.001654
     8       H     -0.004447     0.002666    -0.001533
     9       H      0.008193     0.000954     0.002386
    10       H      0.003947     0.001148     0.000771
    11       H     -0.010076    -0.006238     0.003121
    12       H     -0.005047    -0.002671    -0.000209
    13       H     -0.001222    -0.001389    -0.001321
    14       H     -0.005126    -0.004470     0.001147
    15       H      0.003327     0.005940     0.003012
    16       H      0.008996     0.000676    -0.022909
    17       H      0.001211     0.011564    -0.007600
    18       H      0.008494    -0.006652     0.012241
    19       H      0.009314     0.003284    -0.002119
 


          GRADIENT NORM =   0.04585


          TIME FOR SCF CALCULATION =    0.02

          TIME FOR DERIVATIVES     =    0.01

          MOLECULAR WEIGHT =   96.17



          ROTATIONAL CONSTANTS IN CM(-1)

          A =    0.17235837   B =    0.06467835   C =    0.05193350



           PRINCIPAL MOMENTS OF INERTIA IN UNITS OF 10**(-40)*GRAM-CM**2

          A =      162.4103   B =      432.7998   C =      539.0119


          ORIENTATION OF MOLECULE IN FORCE CALCULATION

    NO.       ATOM         X         Y         Z

     1          C      -0.9577   -0.8723   -0.1522
     2          C       0.5859   -0.8723   -0.1522
     3          C      -1.3735    0.6148   -0.1522
     4          C      -1.5250   -1.6205    1.0363
     5          C       2.3937    0.9758   -0.2649
     6          C       0.9769    0.5734   -0.2146
     7          C      -0.0938    1.3813   -0.2143
     8          H      -1.3269   -1.3592   -1.0843
     9          H       1.0051   -1.3508    0.7535
    10          H       0.9986   -1.4292   -1.0133
    11          H      -1.9483    0.8881    0.7532
    12          H      -2.0220    0.8606   -1.0130
    13          H      -1.2114   -2.6725    1.0305
    14          H      -2.6226   -1.6021    1.0304
    15          H      -1.1948   -1.1851    1.9893
    16          H       2.8861    0.5524   -1.1507
    17          H       2.5092    2.0665   -0.3044
    18          H       2.9323    0.6116    0.6204
    19          H      -0.0828    2.4705   -0.2512


    FIRST DERIVATIVES WILL BE USED IN THE CALCULATION OF SECOND DERIVATIVES

          ESTIMATED TIME TO COMPLETE CALCULATION =        8.02 SECONDS

    FOR POINT-GROUP C1   THERE ARE   1 UNIQUE SYMMETRY FUNCTIONS.

 STEP:   1 TIME =     0.04 SECS, INTEGRAL =      0.04 TIME LEFT: 172799.92
 STEP:   2 TIME =     0.04 SECS, INTEGRAL =      0.09 TIME LEFT: 172799.88
 STEP:   3 TIME =     0.04 SECS, INTEGRAL =      0.12 TIME LEFT: 172799.84
 STEP:   4 TIME =     0.03 SECS, INTEGRAL =      0.15 TIME LEFT: 172799.81
 STEP:   5 TIME =     0.04 SECS, INTEGRAL =      0.20 TIME LEFT: 172799.77
 STEP:   6 TIME =     0.04 SECS, INTEGRAL =      0.23 TIME LEFT: 172799.73
 STEP:   7 TIME =     0.04 SECS, INTEGRAL =      0.27 TIME LEFT: 172799.70
 STEP:   8 TIME =     0.03 SECS, INTEGRAL =      0.30 TIME LEFT: 172799.67
 STEP:   9 TIME =     0.03 SECS, INTEGRAL =      0.32 TIME LEFT: 172799.64
 STEP:  10 TIME =     0.03 SECS, INTEGRAL =      0.36 TIME LEFT: 172799.61
 STEP:  11 TIME =     0.03 SECS, INTEGRAL =      0.39 TIME LEFT: 172799.58
 STEP:  12 TIME =     0.03 SECS, INTEGRAL =      0.42 TIME LEFT: 172799.55
 STEP:  13 TIME =     0.04 SECS, INTEGRAL =      0.46 TIME LEFT: 172799.50
 STEP:  14 TIME =     0.04 SECS, INTEGRAL =      0.50 TIME LEFT: 172799.46
 STEP:  15 TIME =     0.04 SECS, INTEGRAL =      0.54 TIME LEFT: 172799.43
 STEP:  16 TIME =     0.04 SECS, INTEGRAL =      0.57 TIME LEFT: 172799.39
 STEP:  17 TIME =     0.03 SECS, INTEGRAL =      0.61 TIME LEFT: 172799.36
 STEP:  18 TIME =     0.04 SECS, INTEGRAL =      0.64 TIME LEFT: 172799.32
 STEP:  19 TIME =     0.04 SECS, INTEGRAL =      0.68 TIME LEFT: 172799.29
 STEP:  20 TIME =     0.03 SECS, INTEGRAL =      0.71 TIME LEFT: 172799.26
 STEP:  21 TIME =     0.04 SECS, INTEGRAL =      0.74 TIME LEFT: 172799.22
 STEP:  22 TIME =     0.04 SECS, INTEGRAL =      0.78 TIME LEFT: 172799.19
 STEP:  23 TIME =     0.03 SECS, INTEGRAL =      0.81 TIME LEFT: 172799.16
 STEP:  24 TIME =     0.03 SECS, INTEGRAL =      0.84 TIME LEFT: 172799.12
 STEP:  25 TIME =     0.04 SECS, INTEGRAL =      0.88 TIME LEFT: 172799.09
 STEP:  26 TIME =     0.04 SECS, INTEGRAL =      0.92 TIME LEFT: 172799.05
 STEP:  27 TIME =     0.04 SECS, INTEGRAL =      0.96 TIME LEFT: 172799.00
 STEP:  28 TIME =     0.05 SECS, INTEGRAL =      1.02 TIME LEFT: 172798.95
 STEP:  29 TIME =     0.04 SECS, INTEGRAL =      1.06 TIME LEFT: 172798.91
 STEP:  30 TIME =     0.04 SECS, INTEGRAL =      1.10 TIME LEFT: 172798.87
 STEP:  31 TIME =     0.04 SECS, INTEGRAL =      1.13 TIME LEFT: 172798.83
 STEP:  32 TIME =     0.03 SECS, INTEGRAL =      1.16 TIME LEFT: 172798.80
 STEP:  33 TIME =     0.03 SECS, INTEGRAL =      1.20 TIME LEFT: 172798.77
 STEP:  34 TIME =     0.03 SECS, INTEGRAL =      1.23 TIME LEFT: 172798.74
 STEP:  35 TIME =     0.05 SECS, INTEGRAL =      1.27 TIME LEFT: 172798.69
 STEP:  36 TIME =     0.04 SECS, INTEGRAL =      1.32 TIME LEFT: 172798.65
 STEP:  37 TIME =     0.04 SECS, INTEGRAL =      1.35 TIME LEFT: 172798.61
 STEP:  38 TIME =     0.03 SECS, INTEGRAL =      1.38 TIME LEFT: 172798.58
 STEP:  39 TIME =     0.03 SECS, INTEGRAL =      1.41 TIME LEFT: 172798.55
 STEP:  40 TIME =     0.03 SECS, INTEGRAL =      1.44 TIME LEFT: 172798.52
 STEP:  41 TIME =     0.03 SECS, INTEGRAL =      1.47 TIME LEFT: 172798.49
 STEP:  42 TIME =     0.03 SECS, INTEGRAL =      1.50 TIME LEFT: 172798.46
 STEP:  43 TIME =     0.03 SECS, INTEGRAL =      1.53 TIME LEFT: 172798.43
 STEP:  44 TIME =     0.03 SECS, INTEGRAL =      1.56 TIME LEFT: 172798.40
 STEP:  45 TIME =     0.03 SECS, INTEGRAL =      1.59 TIME LEFT: 172798.37
 STEP:  46 TIME =     0.03 SECS, INTEGRAL =      1.62 TIME LEFT: 172798.34
 STEP:  47 TIME =     0.04 SECS, INTEGRAL =      1.66 TIME LEFT: 172798.30
 STEP:  48 TIME =     0.04 SECS, INTEGRAL =      1.70 TIME LEFT: 172798.27
 STEP:  49 TIME =     0.04 SECS, INTEGRAL =      1.73 TIME LEFT: 172798.23
 STEP:  50 TIME =     0.04 SECS, INTEGRAL =      1.77 TIME LEFT: 172798.20
 STEP:  51 TIME =     0.04 SECS, INTEGRAL =      1.80 TIME LEFT: 172798.16
 STEP:  52 TIME =     0.04 SECS, INTEGRAL =      1.84 TIME LEFT: 172798.12
 STEP:  53 TIME =     0.04 SECS, INTEGRAL =      1.88 TIME LEFT: 172798.08
 STEP:  54 TIME =     0.04 SECS, INTEGRAL =      1.92 TIME LEFT: 172798.05
 STEP:  55 TIME =     0.04 SECS, INTEGRAL =      1.96 TIME LEFT: 172798.01
 STEP:  56 TIME =     0.04 SECS, INTEGRAL =      1.99 TIME LEFT: 172797.97
 STEP:  57 TIME =     0.04 SECS, INTEGRAL =      2.03 TIME LEFT: 172797.93

(To convert to Hartree/Bohr^2, multiply by (10^(-21) x N x a0^2)/(4.184 x 627.51) =  0.0642)


           FORCE MATRIX IN MILLIDYNES/ANGSTROM


                  C  1       C  2       C  3       C  4       C  5       C  6
 ------------------------------------------------------------------------------
     C    1  14.309786
     C    2   3.522388  14.578902
     C    3   3.509394   0.720441  14.648666
     C    4   4.361162   0.607614   0.606369  14.435311
     C    5   0.047567   0.518397   0.126736   0.006232  14.852466
     C    6   0.851404   4.563785   1.174057   0.033513   5.429920  18.916389
     C    7   0.862184   1.138380   4.793387   0.033644   0.725587  10.289035
     H    8   4.312750   0.423971   0.423585   0.422505   0.003695   0.024771
     H    9   0.447900   4.479213   0.024113   0.061268   0.012678   0.436707
     H   10   0.435648   4.525041   0.028981   0.026216   0.013206   0.440006
     H   11   0.447828   0.024670   4.478025   0.061560   0.018133   0.034717
     H   12   0.435693   0.029765   4.524904   0.026419   0.018096   0.036532
     H   13   0.451204   0.020230   0.047696   4.738899   0.001044   0.002162
     H   14   0.451377   0.047890   0.020162   4.740104   0.001563   0.005434
     H   15   0.466892   0.021120   0.021160   4.716091   0.000586   0.001328
     H   16   0.002122   0.014295   0.017184   0.000638   4.701450   0.450227
     H   17   0.007540   0.043031   0.003137   0.001360   4.752423   0.471616
     H   18   0.002257   0.014261   0.017464   0.000641   4.702414   0.450414
     H   19   0.041686   0.106664   0.410537   0.004542   0.054779   0.460130


                  C  7       H  8       H  9       H 10       H 11       H 12
 ------------------------------------------------------------------------------
     C    7  18.364351
     H    8   0.024856   4.765948
     H    9   0.034569   0.027404   5.099448
     H   10   0.036330   0.028681   0.568372   5.127118
     H   11   0.426698   0.027419   0.001277   0.003605   5.099361
     H   12   0.429984   0.028744   0.003560   0.001101   0.570361   5.128019
     H   13   0.005301   0.030788   0.016927   0.001589   0.002598   0.004144
     H   14   0.001714   0.030844   0.002718   0.004172   0.016935   0.001618
     H   15   0.001541   0.046124   0.023211   0.001517   0.023215   0.001506
     H   16   0.031943   0.000281   0.001054   0.006521   0.002182   0.003076
     H   17   0.027629   0.000718   0.001358   0.001425   0.000401   0.000510
     H   18   0.031728   0.000393   0.006112   0.001023   0.003055   0.002165
     H   19   5.007394   0.002634   0.014517   0.014538   0.014018   0.014924


                  H 13       H 14       H 15       H 16       H 17       H 18
 ------------------------------------------------------------------------------
     H   13   5.475665
     H   14   0.569637   5.475975
     H   15   0.571912   0.572538   5.459527
     H   16   0.000260   0.000193   0.000114   5.412230
     H   17   0.000144   0.000337   0.000170   0.557920   5.456207
     H   18   0.000195   0.000180   0.000168   0.569859   0.558271   5.412905
     H   19   0.001100   0.000509   0.000511   0.006814   0.013471   0.006803


                  H 19
 ------------------
     H   19   5.410056


          HEAT OF FORMATION =     -13.147567 KCALS/MOLE

          ZERO POINT ENERGY     107.540 KCAL/MOL


           NORMAL COORDINATE ANALYSIS (Total motion = 1 Angstrom)


   Root No.       1         2         3         4         5         6         7         8

                 1 A       2 A       3 A       4 A       5 A       6 A       7 A       8 A   

                  69.8     136.9     209.6     221.2     302.8     409.5     439.9     456.1
  
           1    0.0072    0.0033    0.0010    0.0065   -0.0005   -0.0289   -0.0025    0.0023
           2    0.0047   -0.0021   -0.0020   -0.0085   -0.0095    0.0194   -0.0009   -0.0006
           3    0.0063    0.0034   -0.0057   -0.0059    0.0042    0.0029    0.0523   -0.0049
           4    0.0071    0.0033    0.0009    0.0073    0.0052   -0.0257   -0.0018    0.0023
           5    0.0068    0.0007   -0.0012   -0.0042   -0.0274   -0.0165    0.0181   -0.0014
           6    0.0500    0.0173    0.0006    0.0092   -0.0209    0.0168   -0.0192   -0.0066
           7    0.0061    0.0008   -0.0003    0.0014    0.0154    0.0019    0.0086   -0.0005
           8    0.0043   -0.0028   -0.0022   -0.0101   -0.0065    0.0294    0.0014   -0.0017
           9    0.0265   -0.0074   -0.0150   -0.0232    0.0200   -0.0206   -0.0183    0.0026
          10   -0.0309   -0.0075   -0.0038   -0.0119   -0.0389    0.0265   -0.0346    0.0003
          11   -0.0274    0.0022    0.0093    0.0133    0.0183   -0.0257   -0.0435    0.0049
          12   -0.0329    0.0009   -0.0008   -0.0009    0.0041    0.0013    0.0176   -0.0041
          13    0.0041    0.0004    0.0003   -0.0028   -0.0044   -0.0075    0.0194   -0.0016
          14    0.0052    0.0019   -0.0032    0.0117    0.0544    0.0217    0.0038   -0.0016
          15   -0.0355   -0.0066   -0.0253   -0.0270    0.0036   -0.0021   -0.0014   -0.0063
          16    0.0054    0.0010    0.0012    0.0026    0.0164    0.0063    0.0108    0.0008
          17    0.0052    0.0007   -0.0008   -0.0017   -0.0268   -0.0269    0.0198    0.0029
          18   -0.0002    0.0017    0.0171    0.0220   -0.0130    0.0132   -0.0068    0.0877
          19    0.0045   -0.0003    0.0015    0.0002    0.0189    0.0225    0.0069   -0.0027
          20    0.0042   -0.0010   -0.0004   -0.0050   -0.0234   -0.0057    0.0142   -0.0018
          21   -0.0095   -0.0079    0.0409    0.0393   -0.0024   -0.0052   -0.0058   -0.0333
          22    0.0377    0.0132    0.0066    0.0155   -0.0122   -0.0441   -0.0095    0.0012
          23    0.0289   -0.0067   -0.0117   -0.0207   -0.0027    0.0296   -0.0135    0.0000
          24   -0.0188    0.0019   -0.0027   -0.0029    0.0052    0.0035    0.0588   -0.0048
          25   -0.0187   -0.0041   -0.0033   -0.0002    0.0108   -0.0450    0.0490    0.0170
          26    0.0497    0.0150   -0.0081   -0.0076   -0.0477   -0.0187   -0.0238   -0.1213
          27    0.0847    0.0284   -0.0011    0.0108   -0.0354    0.0254   -0.0674   -0.0796
          28    0.0330    0.0121    0.0045    0.0172   -0.0194   -0.0325   -0.0564   -0.0131
          29   -0.0327   -0.0112    0.0057    0.0014   -0.0197   -0.0376    0.0595    0.1119
          30    0.0881    0.0295   -0.0021    0.0105   -0.0376    0.0277   -0.0735   -0.0900
          31    0.0370   -0.0028   -0.0488   -0.0542    0.0450   -0.0198   -0.0463    0.0466
          32   -0.0003    0.0020   -0.0078   -0.0147   -0.0006    0.0499    0.0370    0.0023
          33    0.0477   -0.0111   -0.0445   -0.0576    0.0380   -0.0423   -0.0663    0.0325
          34   -0.0234    0.0033    0.0449    0.0523   -0.0069    0.0378    0.0618   -0.0462
          35    0.0079   -0.0094    0.0028   -0.0102    0.0061    0.0363   -0.0408   -0.0059
          36    0.0500   -0.0112   -0.0481   -0.0622    0.0407   -0.0464   -0.0719    0.0369
          37   -0.0273   -0.0049    0.1271   -0.1270   -0.0459    0.0695   -0.0370    0.0005
          38   -0.0262    0.0029    0.0474   -0.0203    0.0166   -0.0139   -0.0447    0.0050
          39   -0.0498    0.0092    0.0992   -0.0509    0.0444   -0.0491   -0.0242    0.0043
          40   -0.0307   -0.0075   -0.0055   -0.0105   -0.0392    0.0266   -0.0351    0.0003
          41   -0.0304   -0.0005   -0.1278    0.1334    0.0253   -0.0707   -0.0436    0.0048
          42   -0.0705   -0.0111   -0.0933    0.0568   -0.0373    0.0481   -0.0227   -0.0082
          43   -0.0651   -0.0189   -0.1362    0.0844   -0.0716    0.0489   -0.0699   -0.0023
          44   -0.0515    0.0075    0.1165   -0.0525    0.0417   -0.0461   -0.0925    0.0116
          45   -0.0100    0.0024   -0.0039   -0.0042    0.0046    0.0026    0.0500   -0.0063
          46   -0.0091   -0.0732   -0.0272   -0.0305    0.0378   -0.0005    0.0187   -0.0876
          47   -0.0257    0.2107   -0.0201    0.0008    0.0992    0.0466   -0.0032   -0.0277
          48   -0.0281   -0.1475   -0.0327   -0.0374    0.0065   -0.0096    0.0014   -0.0431
          49    0.0021    0.0059    0.0005   -0.0166   -0.0806   -0.0619    0.0374   -0.0011
          50    0.0040    0.0104   -0.0041    0.0124    0.0641    0.0284    0.0018   -0.0033
          51   -0.0761    0.2450   -0.0492   -0.0524    0.0142   -0.0068   -0.0000   -0.0499
          52    0.0183    0.0675    0.0268    0.0337    0.0097    0.0246    0.0098    0.0809
          53    0.0374   -0.2152    0.0124    0.0349    0.0883    0.0530   -0.0053    0.0200
          54   -0.0310   -0.1370   -0.0352   -0.0401    0.0084   -0.0095    0.0009   -0.0491
          55    0.0029   -0.0020    0.0022   -0.0024    0.0292    0.0550   -0.0042   -0.0071
          56    0.0032   -0.0013    0.0007   -0.0039   -0.0230   -0.0061    0.0144   -0.0061
          57   -0.0396   -0.0150    0.0731    0.0682    0.0013   -0.0188   -0.0024   -0.1607


   Root No.       9        10        11        12        13        14        15        16

                 9 A      10 A      11 A      12 A      13 A      14 A      15 A      16 A   

                 602.6     685.6     814.5     890.3     909.4     941.1     948.1     968.8
  
           1   -0.0468   -0.0074    0.0039   -0.0032   -0.0064   -0.0039   -0.0121    0.0124
           2   -0.0240   -0.0466    0.0076   -0.0001   -0.0140   -0.0090    0.0101   -0.0067
           3   -0.0313   -0.0236    0.0082    0.0016   -0.0152   -0.0012   -0.0002    0.0001
           4   -0.0347   -0.0235    0.0083   -0.0203    0.0365    0.0046    0.0215   -0.0214
           5    0.0301    0.0019   -0.0010    0.0075   -0.0039   -0.0074   -0.0265   -0.0314
           6   -0.0007   -0.0052   -0.0012    0.0520    0.0086    0.0073    0.0008    0.0055
           7   -0.0093    0.0725   -0.0102    0.0126   -0.0264   -0.0021    0.0167   -0.0099
           8   -0.0262   -0.0068    0.0079   -0.0168    0.0369    0.0077   -0.0118    0.0133
           9   -0.0016   -0.0093   -0.0383   -0.0049   -0.0160    0.0302   -0.0031   -0.0076
          10   -0.0092   -0.0092   -0.0025    0.0033   -0.0185   -0.0042   -0.0203    0.0270
          11   -0.0078   -0.0202   -0.0026    0.0107   -0.0263   -0.0144    0.0148   -0.0113
          12    0.0126    0.0170    0.0088   -0.0161    0.0152   -0.0125    0.0009    0.0006
          13    0.0606   -0.0386    0.0000   -0.0011   -0.0004    0.0029   -0.0062    0.0123
          14    0.0177   -0.0027   -0.0007   -0.0025    0.0018    0.0066    0.0260    0.0274
          15   -0.0016    0.0020    0.0087   -0.0169   -0.0123    0.0121   -0.0007   -0.0092
          16    0.0345   -0.0223    0.0006    0.0003   -0.0015   -0.0013   -0.0000   -0.0035
          17    0.0246    0.0107   -0.0026   -0.0006   -0.0020    0.0028    0.0104    0.0069
          18    0.0060    0.0058    0.0083   -0.0133   -0.0032   -0.0039   -0.0002    0.0042
          19    0.0012    0.0282   -0.0017    0.0032    0.0009   -0.0019   -0.0056   -0.0042
          20   -0.0170    0.0632   -0.0042    0.0021   -0.0005    0.0024   -0.0025    0.0146
          21    0.0016   -0.0022   -0.0240   -0.0007    0.0120   -0.0307    0.0018    0.0035
          22   -0.0534   -0.0334    0.0163    0.0519    0.0368    0.0067   -0.0409   -0.0137
          23   -0.0420   -0.0578   -0.0233   -0.0095   -0.0172    0.0611    0.0315   -0.0103
          24   -0.0176   -0.0060    0.0196   -0.0169   -0.0264   -0.0412    0.0001    0.0113
          25   -0.0759   -0.0389    0.0165    0.0488    0.0486    0.0251    0.0150   -0.0639
          26    0.0496    0.0349    0.0074   -0.1309   -0.0371   -0.0212   -0.0379   -0.0846
          27    0.0290    0.0205   -0.0003   -0.0579   -0.0159   -0.0102   -0.0021   -0.0011
          28   -0.0062    0.0301   -0.0006   -0.1135    0.0803   -0.0105    0.0048   -0.0550
          29    0.0107    0.0041   -0.0112    0.1219    0.0640    0.0030   -0.0492   -0.0662
          30    0.0279    0.0201    0.0010   -0.0710   -0.0161   -0.0077    0.0075    0.0107
          31    0.0282    0.1179    0.1326    0.0334    0.0069   -0.0770    0.0249    0.0037
          32   -0.0407   -0.0290    0.0163   -0.0223    0.0088    0.0633   -0.0131    0.0040
          33    0.0284    0.0257    0.0543    0.0108    0.0145   -0.0374    0.0031    0.0044
          34   -0.0364    0.0509   -0.1452   -0.0062   -0.0445    0.0678    0.0192   -0.0390
          35    0.0167    0.0200    0.0064   -0.0208    0.1176   -0.0442    0.0052   -0.0026
          36    0.0319    0.0181    0.0672    0.0092    0.0218   -0.0402   -0.0006    0.0103
          37    0.0045   -0.0231    0.0044    0.0308   -0.0237   -0.0214    0.0728   -0.0705
          38   -0.0037   -0.0244   -0.0012    0.0188   -0.0279   -0.0180    0.0407   -0.0392
          39    0.0389    0.0692   -0.0228   -0.0236    0.0842    0.0897   -0.0927    0.0740
          40   -0.0093   -0.0089   -0.0026    0.0042   -0.0184   -0.0032   -0.0204    0.0270
          41   -0.0226   -0.0074   -0.0134   -0.0093   -0.0279    0.0127   -0.0832    0.0876
          42    0.0714    0.0381   -0.0064    0.0216    0.0802    0.0474    0.0941   -0.1200
          43    0.0331    0.0102   -0.0200    0.0372    0.0277    0.0553    0.0269   -0.0439
          44    0.0310    0.0216   -0.0366    0.0270    0.0340    0.0897   -0.0228    0.0018
          45   -0.0184   -0.0077    0.0295   -0.0345   -0.0263   -0.0777    0.0017    0.0184
          46    0.0537   -0.0575   -0.0596    0.0909    0.0537   -0.0677   -0.0677    0.0101
          47    0.0125   -0.0107   -0.0182    0.0317    0.0085   -0.0267   -0.0593   -0.0248
          48   -0.0037   -0.0042   -0.0177    0.0197    0.0154   -0.0129    0.0048    0.0138
          49    0.0765   -0.0373   -0.0033   -0.0176    0.0227    0.0361    0.1532    0.1517
          50    0.0161   -0.0030   -0.0016    0.0012    0.0000    0.0016    0.0063    0.0121
          51   -0.0072   -0.0037   -0.0251    0.0280    0.0194   -0.0211   -0.0041    0.0069
          52    0.0735   -0.0369    0.0601   -0.0797   -0.0675    0.0519   -0.0681   -0.0620
          53    0.0182   -0.0042    0.0171   -0.0162   -0.0254    0.0063   -0.0594   -0.0448
          54   -0.0088   -0.0006   -0.0220    0.0266    0.0189   -0.0188    0.0030    0.0086
          55   -0.0433    0.0292    0.0192   -0.0170    0.0653    0.0075   -0.0485    0.0042
          56   -0.0163    0.0637    0.0056    0.0043   -0.0021    0.0075   -0.0023    0.0150
          57    0.0062    0.0154    0.2733    0.0681   -0.0392    0.1135   -0.0064   -0.0030


   Root No.      17        18        19        20        21        22        23        24

                17 A      18 A      19 A      20 A      21 A      22 A      23 A      24 A   

                1000.7    1004.0    1030.5    1059.2    1082.4    1092.6    1121.8    1158.1
  
           1    0.0080   -0.0011    0.0000    0.0062   -0.0073    0.0248    0.0137    0.0135
           2   -0.0004    0.0032   -0.0058   -0.0103    0.0007    0.0388   -0.0097    0.0239
           3    0.0030   -0.0060   -0.0152   -0.0034   -0.0015   -0.0011    0.0022    0.0349
           4    0.0048    0.0100    0.0016   -0.0107    0.0028   -0.0169   -0.0203    0.0012
           5   -0.0358   -0.0164   -0.0075    0.0015   -0.0024    0.0122   -0.0027    0.0056
           6    0.0025   -0.0098    0.0168   -0.0056    0.0113   -0.0130   -0.0167   -0.0079
           7   -0.0068    0.0017   -0.0032   -0.0215    0.0030    0.0066    0.0005    0.0008
           8    0.0042   -0.0006    0.0045   -0.0016    0.0016   -0.0171    0.0203   -0.0019
           9   -0.0117    0.0136    0.0106    0.0140   -0.0062   -0.0132    0.0140   -0.0070
          10   -0.0114   -0.0025    0.0049   -0.0086    0.0043   -0.0116   -0.0066   -0.0060
          11   -0.0016    0.0037    0.0085    0.0130   -0.0006   -0.0175    0.0048   -0.0097
          12   -0.0035    0.0087    0.0146   -0.0018   -0.0000    0.0262    0.0005   -0.0340
          13    0.0274    0.0112    0.0060    0.0024    0.0010   -0.0091    0.0016   -0.0052
          14   -0.0118   -0.0101    0.0002    0.0091    0.0005    0.0008    0.0017   -0.0014
          15    0.0087   -0.0223    0.0163   -0.0002    0.0154    0.0022   -0.0014    0.0011
          16   -0.0135   -0.0055   -0.0041   -0.0028   -0.0013    0.0096    0.0005    0.0077
          17    0.0073    0.0048    0.0007   -0.0073   -0.0013   -0.0030    0.0002    0.0005
          18   -0.0091    0.0238   -0.0235    0.0003   -0.0359   -0.0054    0.0042   -0.0032
          19   -0.0110   -0.0083   -0.0032    0.0169   -0.0010    0.0073   -0.0063    0.0048
          20    0.0428    0.0152    0.0068    0.0211   -0.0016   -0.0062   -0.0085   -0.0024
          21    0.0147   -0.0232   -0.0138   -0.0030    0.0269    0.0012   -0.0028   -0.0020
          22    0.0263   -0.0631   -0.0065    0.0686   -0.0408    0.1534    0.2460   -0.0778
          23    0.0144    0.0347   -0.0451   -0.0947    0.0137    0.1844   -0.1635   -0.1259
          24   -0.0122    0.0027    0.0086    0.0148    0.0051   -0.1263   -0.0091    0.1518
          25    0.0423   -0.0912   -0.0235   -0.0343   -0.0943   -0.1438   -0.0842   -0.1162
          26   -0.0378   -0.0563   -0.0817   -0.0031   -0.1020   -0.0620   -0.0260   -0.0550
          27   -0.0147    0.0185   -0.0116    0.0037    0.0039    0.0074    0.0025    0.0171
          28   -0.0667    0.1270    0.0306    0.0264    0.1333    0.0104    0.0048    0.0440
          29   -0.0993    0.0199    0.0575    0.0145    0.1170   -0.0003   -0.0335    0.0018
          30    0.0069    0.0235   -0.0133    0.0029   -0.0038    0.0070    0.0130    0.0162
          31   -0.0017   -0.0386   -0.0742   -0.0819    0.0680   -0.0228    0.0364   -0.0191
          32   -0.0410    0.0095   -0.1203   -0.0506    0.1378   -0.1319    0.1350   -0.1095
          33    0.0070   -0.0159    0.0036   -0.0095   -0.0074    0.0042   -0.0003    0.0160
          34   -0.0629    0.0200    0.0667   -0.0649   -0.0480   -0.0266    0.0602   -0.0094
          35   -0.0377   -0.0460    0.1428   -0.1437   -0.1248   -0.0153    0.0558    0.0502
          36    0.0185   -0.0151   -0.0031    0.0063   -0.0040    0.0107   -0.0184    0.0165
          37    0.0207    0.0083    0.0024    0.0412   -0.0034   -0.0239    0.0321   -0.0021
          38    0.0075    0.0063    0.0065    0.0263   -0.0030   -0.0204    0.0144   -0.0086
          39    0.0015   -0.0273   -0.0439   -0.0634   -0.0022    0.0691   -0.0374    0.0511
          40   -0.0109   -0.0032    0.0039   -0.0087    0.0043   -0.0110   -0.0051   -0.0061
          41   -0.0334   -0.0154   -0.0032   -0.0407    0.0073   -0.0202   -0.0331    0.0014
          42    0.0612    0.0039   -0.0376    0.0372   -0.0128    0.0607    0.0365    0.0453
          43    0.0349   -0.0195   -0.0456    0.0120   -0.0083   -0.0000    0.0193    0.0653
          44    0.0233   -0.0297   -0.0650   -0.0210   -0.0028    0.0029   -0.0135    0.0882
          45   -0.0295    0.0291    0.0637    0.0061    0.0049    0.0163   -0.0001   -0.1005
          46    0.0475    0.1420   -0.0563   -0.0076   -0.0620   -0.0350    0.0054   -0.0205
          47    0.0417    0.0558   -0.0122   -0.0072   -0.0168   -0.0140    0.0000   -0.0073
          48   -0.0071    0.0204   -0.0144    0.0015   -0.0131   -0.0044    0.0015   -0.0038
          49   -0.0577   -0.0441    0.0004    0.0465    0.0006   -0.0089    0.0080   -0.0186
          50   -0.0005   -0.0009   -0.0002    0.0047   -0.0008   -0.0003    0.0010   -0.0009
          51   -0.0098    0.0302   -0.0217   -0.0017   -0.0196   -0.0027    0.0012   -0.0008
          52    0.1248   -0.0513    0.0837   -0.0061    0.0639   -0.0173   -0.0044   -0.0127
          53    0.0625    0.0031    0.0251   -0.0069    0.0160   -0.0093   -0.0025   -0.0053
          54   -0.0199    0.0231   -0.0221   -0.0012   -0.0179    0.0018    0.0006    0.0029
          55   -0.0679   -0.0522   -0.0062    0.2241   -0.0307   -0.0033   -0.1182   -0.0271
          56    0.0431    0.0204    0.0086    0.0184   -0.0038   -0.0077   -0.0062   -0.0023
          57   -0.0565    0.0892    0.0232    0.0001   -0.0511   -0.0077    0.0091    0.0024


   Root No.      25        26        27        28        29        30        31        32

                25 A      26 A      27 A      28 A      29 A      30 A      31 A      32 A   

                1212.0    1228.3    1271.4    1302.5    1363.1    1370.3    1390.9    1393.4
  
           1    0.0179    0.0095    0.0810    0.0110   -0.0037   -0.0208   -0.0001   -0.0040
           2   -0.0125   -0.0029   -0.0435    0.0402   -0.0141   -0.0218   -0.0001   -0.0019
           3    0.0309   -0.0080   -0.0185   -0.0311    0.0046    0.0092    0.0000    0.0000
           4   -0.0299    0.0234   -0.0279   -0.0008    0.0236    0.0072    0.0002    0.0155
           5   -0.0129    0.0181    0.0104    0.0002    0.0259    0.0139    0.0002   -0.0003
           6   -0.0066    0.0014    0.0074    0.0056   -0.0020   -0.0024    0.0002   -0.0004
           7    0.0070   -0.0007   -0.0033    0.0203    0.0003    0.0318    0.0001    0.0040
           8   -0.0079   -0.0182    0.0440    0.0116   -0.0040    0.0579    0.0001    0.0042
           9   -0.0099    0.0022   -0.0001    0.0058   -0.0009   -0.0040   -0.0001   -0.0002
          10   -0.0022   -0.0029   -0.0176   -0.0014   -0.0014   -0.0049    0.0000   -0.0004
          11    0.0056    0.0001    0.0080   -0.0072   -0.0017   -0.0050    0.0000   -0.0040
          12   -0.0096    0.0020    0.0029    0.0007    0.0053    0.0146    0.0001    0.0055
          13    0.0125    0.0002    0.0004   -0.0044   -0.0358    0.0001   -0.0010    0.0061
          14    0.0052   -0.0106    0.0014    0.0013    0.0004   -0.0016   -0.0025   -0.0286
          15   -0.0005    0.0006    0.0001    0.0001    0.0009    0.0000   -0.0436    0.0016
          16   -0.0266   -0.0032    0.0114   -0.0199   -0.0075   -0.0017   -0.0002   -0.0069
          17   -0.0062    0.0284   -0.0005   -0.0137   -0.0226    0.0114   -0.0002   -0.0067
          18    0.0007   -0.0020   -0.0014    0.0010    0.0008   -0.0002   -0.0010    0.0003
          19   -0.0259   -0.0281   -0.0004   -0.0229    0.0170   -0.0282    0.0000   -0.0016
          20   -0.0053   -0.0080   -0.0188   -0.0141    0.0060   -0.0292   -0.0001   -0.0004
          21    0.0013    0.0018    0.0014    0.0005   -0.0005    0.0015   -0.0002    0.0001
          22    0.0081   -0.0438   -0.1633   -0.0162   -0.0088    0.0273   -0.0002    0.0056
          23    0.0853    0.0081    0.0631   -0.0838    0.0193    0.0066    0.0001   -0.0015
          24   -0.0154    0.0071    0.0227    0.0450   -0.0107   -0.0243   -0.0000   -0.0038
          25    0.0091   -0.1082   -0.0444    0.0290   -0.0776   -0.0048   -0.0014   -0.0597
          26    0.0588   -0.1178    0.0250    0.0402   -0.0123   -0.0530   -0.0017    0.0326
          27    0.0129   -0.0072    0.0214    0.0096    0.0225   -0.0281   -0.0004    0.0454
          28    0.0859   -0.1059   -0.0820   -0.0283   -0.0634    0.0095    0.0005   -0.0538
          29    0.0742   -0.1081    0.0283    0.0274   -0.0095   -0.0487    0.0015    0.0304
          30   -0.0059    0.0198   -0.0272   -0.0230   -0.0176    0.0352   -0.0007   -0.0463
          31    0.0582    0.0695   -0.0464    0.0400   -0.0466    0.0175    0.0002   -0.0050
          32    0.0050    0.0928    0.0189   -0.0317    0.0231   -0.1478   -0.0000   -0.0082
          33    0.0167    0.0095   -0.0196    0.0271   -0.0341    0.0444    0.0000   -0.0018
          34    0.0474    0.0659   -0.0511    0.0470   -0.0455    0.0141   -0.0004   -0.0046
          35    0.0921    0.0555   -0.0175   -0.0819    0.0273   -0.1199   -0.0004   -0.0067
          36   -0.0089   -0.0242    0.0158   -0.0366    0.0374   -0.0350    0.0000    0.0028
          37    0.0305    0.0004    0.0262   -0.0473    0.0167    0.0435   -0.0001    0.0067
          38    0.0167    0.0003    0.0171   -0.0254    0.0069    0.0146   -0.0000    0.0011
          39   -0.0306   -0.0027   -0.0249    0.0886   -0.0472   -0.0720   -0.0002   -0.0321
          40    0.0002   -0.0036   -0.0190   -0.0065    0.0006    0.0032    0.0000    0.0008
          41    0.0045   -0.0139   -0.0709   -0.0369    0.0177    0.0408   -0.0002    0.0155
          42    0.0001    0.0210    0.0876    0.0652   -0.0237   -0.1024   -0.0005   -0.0147
          43    0.0323   -0.0065    0.0016   -0.0360    0.0091    0.0633    0.0004    0.0012
          44    0.0310   -0.0072   -0.0355   -0.0467    0.0318    0.0508    0.0001    0.0287
          45   -0.0332    0.0070    0.0176    0.0356   -0.0168   -0.0422   -0.0001   -0.0122
          46    0.0593    0.0129   -0.0283    0.0680    0.1177    0.0150   -0.0733   -0.0888
          47    0.0221    0.0114   -0.0126    0.0209    0.0131   -0.0084   -0.2348    0.1906
          48    0.0132   -0.0023   -0.0070    0.0244    0.0661    0.0104    0.0573   -0.1457
          49    0.0758   -0.0501   -0.0240    0.0836    0.1240   -0.0173    0.0162    0.1399
          50    0.0016   -0.0047    0.0023   -0.0045   -0.0118   -0.0009    0.0135   -0.0238
          51   -0.0021    0.0013    0.0003   -0.0018   -0.0023    0.0006    0.4285   -0.0102
          52    0.0587    0.0146   -0.0267    0.0666    0.1143    0.0143    0.0696   -0.0838
          53    0.0211    0.0119   -0.0117    0.0192    0.0091   -0.0091    0.2520    0.1916
          54   -0.0180    0.0004    0.0091   -0.0291   -0.0728   -0.0105    0.0474    0.1356
          55    0.0971    0.1763   -0.0643    0.0148   -0.0495    0.0120   -0.0004   -0.0098
          56   -0.0074   -0.0104   -0.0185   -0.0159    0.0063   -0.0308   -0.0000   -0.0006
          57   -0.0047   -0.0046    0.0024    0.0013    0.0009    0.0008    0.0008    0.0003


   Root No.      33        34        35        36        37        38        39        40

                33 A      34 A      35 A      36 A      37 A      38 A      39 A      40 A   

                1400.4    1406.9    1408.1    1414.0    1420.0    1486.1    1882.0    2903.1
  
           1    0.0086    0.0015   -0.0072   -0.0047    0.0325    0.0013   -0.0065   -0.0200
           2   -0.0017    0.0012    0.0089    0.0044    0.0412    0.0041   -0.0088   -0.0264
           3   -0.0005   -0.0044   -0.0018   -0.0005   -0.0390   -0.0004    0.0023   -0.0501
           4   -0.0261    0.0007   -0.0077    0.0060   -0.0171   -0.0258   -0.0099   -0.0008
           5    0.0305    0.0007   -0.0087   -0.0090   -0.0054   -0.0715    0.0080    0.0004
           6   -0.0003    0.0004    0.0004    0.0001    0.0059    0.0032   -0.0000    0.0054
           7   -0.0016   -0.0021    0.0589    0.0162   -0.0074   -0.0203    0.0134    0.0006
           8   -0.0042    0.0008    0.0002   -0.0043   -0.0217    0.0056    0.0003   -0.0007
           9    0.0000    0.0004   -0.0012   -0.0001    0.0062    0.0006   -0.0004    0.0054
          10   -0.0035   -0.0237    0.0099   -0.0215   -0.0287    0.0015    0.0008    0.0013
          11    0.0075   -0.0304   -0.0081    0.0157   -0.0374   -0.0010    0.0010    0.0017
          12   -0.0063   -0.0190   -0.0021    0.0004    0.0569    0.0003   -0.0013    0.0010
          13   -0.0153   -0.0003    0.0045    0.0019    0.0031   -0.0857   -0.0517   -0.0000
          14   -0.0104   -0.0001   -0.0026   -0.0005    0.0026   -0.0350   -0.0065    0.0000
          15    0.0009   -0.0000   -0.0001    0.0000   -0.0001    0.0034    0.0015    0.0000
          16    0.0025    0.0002   -0.0035   -0.0013   -0.0001    0.0729    0.2342    0.0005
          17   -0.0033   -0.0009    0.0185    0.0055   -0.0037    0.1112   -0.1257    0.0002
          18    0.0002   -0.0001   -0.0004   -0.0003   -0.0002   -0.0057   -0.0017   -0.0000
          19    0.0096    0.0007   -0.0269   -0.0072    0.0022    0.0232   -0.1924    0.0000
          20   -0.0040    0.0005   -0.0187   -0.0027    0.0049   -0.0257    0.1117    0.0002
          21   -0.0000   -0.0001    0.0014    0.0004   -0.0006    0.0002    0.0012   -0.0000
          22   -0.0243   -0.0046    0.0278    0.0057   -0.0468    0.0158   -0.0013    0.2396
          23    0.0092   -0.0035   -0.0331   -0.0063   -0.0550   -0.0092   -0.0016    0.3162
          24    0.0066   -0.0006    0.0062    0.0009    0.0420   -0.0003   -0.0064    0.6064
          25    0.1301    0.0000    0.0243   -0.0330    0.0648    0.0281    0.0245   -0.0118
          26   -0.1239   -0.0038   -0.0020    0.0285    0.0044    0.0537    0.0306    0.0163
          27   -0.1346   -0.0013   -0.0108    0.0334   -0.0240    0.0368    0.0009   -0.0304
          28    0.1173   -0.0028    0.0187   -0.0258    0.0184    0.0264    0.0250    0.0118
          29   -0.1152   -0.0019   -0.0037    0.0274    0.0008    0.0494    0.0327   -0.0225
          30    0.1415    0.0000    0.0089   -0.0332    0.0151   -0.0426   -0.0047   -0.0338
          31   -0.0132    0.0032   -0.1700   -0.0537   -0.0012    0.0151    0.0190    0.0189
          32    0.0153   -0.0033    0.0643    0.0327    0.0655   -0.0223    0.0212   -0.0069
          33   -0.0121    0.0045   -0.1441   -0.0490   -0.0150    0.0286    0.0029   -0.0305
          34   -0.0131    0.0051   -0.1564   -0.0493    0.0068    0.0122    0.0204   -0.0249
          35    0.0118   -0.0053    0.0563    0.0239    0.0198   -0.0214    0.0221    0.0053
          36    0.0116   -0.0061    0.1540    0.0494    0.0051   -0.0282   -0.0056   -0.0337
          37   -0.0010    0.3546   -0.0231    0.0587    0.0651   -0.0006   -0.0006    0.0051
          38    0.0025    0.0970   -0.0126    0.0221    0.0057   -0.0010    0.0003   -0.0097
          39    0.0546    0.1061   -0.0372    0.1606   -0.1425   -0.0035   -0.0004   -0.0031
          40   -0.0034   -0.0026    0.0042   -0.0059   -0.0126    0.0016    0.0005   -0.0107
          41   -0.0305    0.3648    0.0275   -0.0613    0.0633    0.0042   -0.0005    0.0023
          42   -0.0005    0.1030    0.0624   -0.1618   -0.1415    0.0007   -0.0001   -0.0031
          43    0.0265   -0.0792   -0.0870    0.2246    0.1034   -0.0045   -0.0011   -0.0074
          44   -0.0557   -0.1096    0.0485   -0.1693    0.1362    0.0053   -0.0012   -0.0097
          45    0.0142    0.0656    0.0065   -0.0005   -0.0875   -0.0004    0.0004   -0.0134
          46    0.0091   -0.0002   -0.0002   -0.0007   -0.0052    0.0960   -0.0248    0.0000
          47    0.0675    0.0005    0.0008   -0.0018   -0.0087    0.0782   -0.0015    0.0000
          48   -0.0244   -0.0002   -0.0034   -0.0005    0.0012    0.0369    0.0054   -0.0000
          49    0.0840    0.0017   -0.0219   -0.0096   -0.0073    0.0632    0.0518    0.0001
          50   -0.0128   -0.0002   -0.0001    0.0003    0.0027   -0.0379   -0.0174    0.0002
          51   -0.0036    0.0003    0.0008    0.0001    0.0004   -0.0004   -0.0007    0.0000
          52    0.0093    0.0001   -0.0000   -0.0006   -0.0049    0.0938   -0.0252   -0.0001
          53    0.0667    0.0009    0.0013   -0.0019   -0.0084    0.0754   -0.0018    0.0000
          54    0.0190    0.0002    0.0034    0.0006   -0.0003   -0.0471   -0.0040   -0.0001
          55   -0.0133   -0.0024    0.0512    0.0162    0.0059    0.0451    0.0573    0.0004
          56   -0.0050    0.0006   -0.0211   -0.0031    0.0047   -0.0271    0.1548    0.0024
          57    0.0004    0.0001   -0.0007   -0.0004    0.0006   -0.0001   -0.0068   -0.0000


   Root No.      41        42        43        44        45        46        47        48

                41 A      42 A      43 A      44 A      45 A      46 A      47 A      48 A   

                2970.7    2972.0    3048.9    3050.1    3067.4    3078.1    3078.3    3083.4
  
           1   -0.0000   -0.0013    0.0006   -0.0001   -0.0000   -0.0000   -0.0005   -0.0003
           2   -0.0003   -0.0017   -0.0005    0.0002    0.0000    0.0000   -0.0007    0.0002
           3   -0.0004   -0.0034   -0.0002   -0.0004   -0.0000   -0.0000   -0.0014   -0.0000
           4    0.0010   -0.0012    0.0175    0.0089   -0.0001    0.0003    0.0004    0.0001
           5    0.0001   -0.0001   -0.0222   -0.0113    0.0001    0.0001   -0.0003    0.0003
           6    0.0273   -0.0317   -0.0021   -0.0011    0.0001   -0.0000   -0.0003   -0.0005
           7    0.0002    0.0002    0.0132   -0.0257    0.0000    0.0001   -0.0004   -0.0003
           8   -0.0012   -0.0010   -0.0054    0.0106   -0.0000    0.0000    0.0003   -0.0002
           9   -0.0333   -0.0259    0.0011   -0.0021   -0.0001   -0.0000   -0.0003    0.0005
          10   -0.0000    0.0000   -0.0001    0.0004   -0.0000   -0.0002   -0.0230   -0.0456
          11    0.0000    0.0000    0.0002    0.0004    0.0000   -0.0005   -0.0306    0.0344
          12    0.0000    0.0003    0.0002    0.0006    0.0000   -0.0004   -0.0313   -0.0002
          13    0.0000   -0.0000    0.0000   -0.0000   -0.0014    0.0140   -0.0002    0.0000
          14    0.0000   -0.0000    0.0001   -0.0000   -0.0023   -0.0482    0.0006   -0.0001
          15    0.0001   -0.0001   -0.0001   -0.0001   -0.0576    0.0016   -0.0000    0.0000
          16   -0.0000   -0.0000   -0.0002    0.0006    0.0000    0.0004    0.0000    0.0000
          17   -0.0000    0.0001   -0.0005   -0.0003   -0.0000   -0.0002   -0.0000   -0.0000
          18   -0.0001   -0.0002    0.0000   -0.0000   -0.0001   -0.0000   -0.0000    0.0000
          19    0.0000    0.0001    0.0000   -0.0005   -0.0000   -0.0005   -0.0000    0.0000
          20    0.0000    0.0000    0.0004   -0.0014   -0.0000   -0.0007   -0.0001    0.0000
          21    0.0001   -0.0002   -0.0000    0.0000   -0.0002    0.0000   -0.0000   -0.0000
          22   -0.0009    0.0175    0.0019    0.0023   -0.0000    0.0000    0.0042   -0.0011
          23    0.0044    0.0226    0.0004    0.0037    0.0000    0.0000    0.0055    0.0009
          24    0.0041    0.0389    0.0021    0.0061   -0.0000    0.0001    0.0175    0.0001
          25   -0.0871    0.1014   -0.1002   -0.0493   -0.0005   -0.0001   -0.0001    0.0029
          26    0.0982   -0.1143    0.1110    0.0548   -0.0001    0.0005    0.0008   -0.0011
          27   -0.1818    0.2114   -0.2471   -0.1221   -0.0003   -0.0008   -0.0034    0.0032
          28    0.0740   -0.0857   -0.1144   -0.0566    0.0011   -0.0001   -0.0023    0.0001
          29   -0.0997    0.1153    0.1562    0.0775   -0.0009    0.0007    0.0030    0.0002
          30   -0.1472    0.1698    0.2723    0.1350   -0.0019    0.0009    0.0052    0.0000
          31   -0.1442   -0.1129   -0.0683    0.1298   -0.0002   -0.0001    0.0009    0.0020
          32    0.0699    0.0547    0.0340   -0.0644    0.0002    0.0001    0.0001   -0.0025
          33    0.2216    0.1733    0.1260   -0.2398    0.0005    0.0002   -0.0036   -0.0035
          34    0.1412    0.1099   -0.0925    0.1766   -0.0001   -0.0002    0.0036    0.0000
          35   -0.0539   -0.0420    0.0347   -0.0661   -0.0000    0.0000   -0.0015   -0.0003
          36    0.1788    0.1387   -0.1389    0.2651   -0.0001   -0.0002    0.0055    0.0003
          37    0.0010    0.0006    0.0011    0.0006    0.0000   -0.0013   -0.0803    0.1169
          38   -0.0029   -0.0027   -0.0023   -0.0007   -0.0001    0.0035    0.2043   -0.4327
          39    0.0000   -0.0001   -0.0001    0.0002   -0.0000   -0.0001   -0.0100   -0.0130
          40    0.0024   -0.0032    0.0016   -0.0024    0.0001    0.0020    0.2153    0.4494
          41   -0.0002   -0.0001   -0.0001    0.0006    0.0000   -0.0003   -0.0225    0.0039
          42   -0.0001   -0.0000    0.0002    0.0001    0.0000   -0.0002   -0.0101    0.0129
          43    0.0003   -0.0011   -0.0006   -0.0026   -0.0000    0.0019    0.1391   -0.0226
          44   -0.0004   -0.0013   -0.0012   -0.0033   -0.0000    0.0024    0.1833    0.0187
          45   -0.0001   -0.0012   -0.0023   -0.0076   -0.0000    0.0053    0.3961    0.0022
          46    0.0005   -0.0004   -0.0005   -0.0004   -0.2046   -0.0991    0.0013   -0.0002
          47   -0.0002    0.0001    0.0001    0.0002    0.1891    0.0756   -0.0010    0.0001
          48   -0.0006    0.0004    0.0006    0.0006    0.3615    0.2056   -0.0027    0.0004
          49    0.0000   -0.0000   -0.0002   -0.0001   -0.0004    0.0436   -0.0006    0.0001
          50    0.0000    0.0000   -0.0018   -0.0009    0.0023    0.4344   -0.0057    0.0011
          51    0.0001   -0.0001    0.0000   -0.0000   -0.0291   -0.0155    0.0002   -0.0000
          52   -0.0006    0.0004    0.0001    0.0001    0.2213   -0.1126    0.0015   -0.0003
          53    0.0001   -0.0000   -0.0003   -0.0002   -0.1636    0.0639   -0.0009    0.0002
          54   -0.0006    0.0004    0.0004    0.0003    0.3581   -0.2093    0.0028   -0.0006
          55   -0.0000    0.0000    0.0005   -0.0011    0.0000   -0.0006    0.0000    0.0000
          56    0.0001   -0.0002    0.0016    0.0187    0.0001    0.0091    0.0011   -0.0005
          57   -0.0004   -0.0009   -0.0001   -0.0006    0.0005   -0.0003   -0.0000   -0.0000


   Root No.      49        50        51

                49 A      50 A      51 A   

                3122.6    3166.2    3178.8
  
           1    0.0005    0.0000   -0.0003
           2    0.0009    0.0000   -0.0004
           3    0.0001    0.0000    0.0003
           4   -0.0010    0.0001   -0.0000
           5    0.0017   -0.0000    0.0001
           6   -0.0000   -0.0000   -0.0002
           7    0.0023   -0.0000    0.0001
           8   -0.0009    0.0000    0.0000
           9    0.0001   -0.0000   -0.0002
          10   -0.0000   -0.0000   -0.0099
          11    0.0001   -0.0000   -0.0129
          12    0.0001    0.0000    0.0184
          13   -0.0002   -0.0232    0.0000
          14    0.0010   -0.0087    0.0000
          15   -0.0000    0.0008    0.0000
          16   -0.0059   -0.0003    0.0000
          17    0.0033   -0.0000    0.0000
          18    0.0000    0.0000   -0.0000
          19    0.0040    0.0002    0.0000
          20   -0.0733    0.0003   -0.0000
          21    0.0023   -0.0000    0.0000
          22   -0.0009    0.0000    0.0003
          23   -0.0009   -0.0000    0.0004
          24   -0.0020   -0.0000    0.0028
          25    0.0037   -0.0005    0.0002
          26   -0.0041    0.0003   -0.0014
          27    0.0091   -0.0009    0.0027
          28    0.0040   -0.0006    0.0002
          29   -0.0054    0.0005   -0.0003
          30   -0.0094    0.0011   -0.0007
          31   -0.0096    0.0001   -0.0014
          32    0.0021   -0.0000   -0.0001
          33    0.0154   -0.0001    0.0027
          34   -0.0126    0.0001   -0.0003
          35    0.0020   -0.0000    0.0001
          36   -0.0166    0.0002   -0.0007
          37    0.0003   -0.0001   -0.1022
          38   -0.0011    0.0003    0.3089
          39    0.0000    0.0000    0.0171
          40   -0.0001    0.0003    0.3259
          41    0.0000   -0.0000   -0.0154
          42    0.0001    0.0000    0.0171
          43   -0.0003   -0.0001   -0.1026
          44   -0.0002   -0.0001   -0.1352
          45   -0.0007   -0.0002   -0.2600
          46    0.0045    0.1231   -0.0001
          47   -0.0035   -0.1277    0.0001
          48   -0.0085   -0.2556    0.0002
          49    0.0004    0.0178   -0.0000
          50   -0.0058    0.3423   -0.0003
          51    0.0002   -0.0119    0.0000
          52    0.0049    0.1368   -0.0001
          53   -0.0029   -0.1108    0.0001
          54    0.0083    0.2574   -0.0002
          55    0.0099   -0.0005    0.0000
          56    0.8207   -0.0048    0.0001
          57   -0.0277    0.0002    0.0000


           MASS-WEIGHTED COORDINATE ANALYSIS (NORMAL COORDINATES)


   Root No.       1         2         3         4         5         6         7         8

                 1 A       2 A       3 A       4 A       5 A       6 A       7 A       8 A   

                  69.8     136.9     209.6     221.2     302.8     409.5     439.9     456.1
  
           1    0.0640    0.0247    0.0090    0.0624   -0.0042   -0.2690   -0.0206    0.0174
           2    0.0420   -0.0155   -0.0182   -0.0814   -0.0810    0.1809   -0.0076   -0.0049
           3    0.0555    0.0257   -0.0523   -0.0565    0.0354    0.0268    0.4394   -0.0374
           4    0.0630    0.0245    0.0082    0.0699    0.0444   -0.2392   -0.0154    0.0178
           5    0.0600    0.0055   -0.0110   -0.0406   -0.2335   -0.1534    0.1522   -0.0103
           6    0.4440    0.1298    0.0054    0.0889   -0.1783    0.1562   -0.1617   -0.0501
           7    0.0543    0.0059   -0.0030    0.0135    0.1311    0.0174    0.0722   -0.0039
           8    0.0379   -0.0208   -0.0199   -0.0970   -0.0552    0.2736    0.0121   -0.0133
           9    0.2356   -0.0555   -0.1369   -0.2233    0.1709   -0.1922   -0.1536    0.0198
          10   -0.2741   -0.0565   -0.0351   -0.1142   -0.3320    0.2465   -0.2908    0.0023
          11   -0.2436    0.0165    0.0849    0.1278    0.1564   -0.2395   -0.3660    0.0378
          12   -0.2926    0.0066   -0.0071   -0.0085    0.0350    0.0119    0.1477   -0.0312
          13    0.0368    0.0028    0.0030   -0.0272   -0.0379   -0.0699    0.1632   -0.0121
          14    0.0463    0.0143   -0.0290    0.1130    0.4642    0.2019    0.0321   -0.0121
          15   -0.3156   -0.0498   -0.2313   -0.2597    0.0303   -0.0193   -0.0121   -0.0482
          16    0.0478    0.0078    0.0106    0.0249    0.1398    0.0592    0.0907    0.0064
          17    0.0465    0.0051   -0.0076   -0.0166   -0.2281   -0.2502    0.1668    0.0222
          18   -0.0022    0.0128    0.1563    0.2113   -0.1107    0.1234   -0.0573    0.6693
          19    0.0404   -0.0020    0.0137    0.0016    0.1614    0.2093    0.0584   -0.0209
          20    0.0376   -0.0078   -0.0038   -0.0479   -0.1998   -0.0530    0.1194   -0.0136
          21   -0.0848   -0.0592    0.3740    0.3781   -0.0205   -0.0480   -0.0490   -0.2544
          22    0.0971    0.0286    0.0175    0.0431   -0.0301   -0.1192   -0.0232    0.0027
          23    0.0745   -0.0145   -0.0310   -0.0576   -0.0067    0.0798   -0.0330    0.0000
          24   -0.0484    0.0041   -0.0073   -0.0081    0.0128    0.0095    0.1432   -0.0107
          25   -0.0481   -0.0088   -0.0088   -0.0006    0.0266   -0.1214    0.1192    0.0375
          26    0.1279    0.0326   -0.0215   -0.0213   -0.1177   -0.0504   -0.0578   -0.2683
          27    0.2180    0.0617   -0.0030    0.0301   -0.0875    0.0686   -0.1641   -0.1760
          28    0.0849    0.0263    0.0118    0.0481   -0.0479   -0.0878   -0.1373   -0.0290
          29   -0.0842   -0.0244    0.0150    0.0038   -0.0486   -0.1015    0.1447    0.2474
          30    0.2268    0.0640   -0.0057    0.0292   -0.0928    0.0749   -0.1790   -0.1991
          31    0.0953   -0.0061   -0.1293   -0.1511    0.1111   -0.0535   -0.1127    0.1030
          32   -0.0009    0.0044   -0.0207   -0.0410   -0.0014    0.1347    0.0901    0.0050
          33    0.1227   -0.0242   -0.1179   -0.1604    0.0938   -0.1142   -0.1614    0.0719
          34   -0.0603    0.0072    0.1190    0.1457   -0.0170    0.1019    0.1504   -0.1022
          35    0.0205   -0.0203    0.0075   -0.0284    0.0150    0.0980   -0.0992   -0.0131
          36    0.1287   -0.0243   -0.1276   -0.1733    0.1006   -0.1252   -0.1751    0.0816
          37   -0.0701   -0.0107    0.3372   -0.3539   -0.1133    0.1875   -0.0900    0.0011
          38   -0.0675    0.0064    0.1257   -0.0565    0.0410   -0.0376   -0.1087    0.0111
          39   -0.1283    0.0200    0.2629   -0.1418    0.1096   -0.1325   -0.0589    0.0094
          40   -0.0789   -0.0164   -0.0145   -0.0293   -0.0968    0.0718   -0.0854    0.0006
          41   -0.0783   -0.0010   -0.3388    0.3716    0.0624   -0.1907   -0.1060    0.0106
          42   -0.1813   -0.0241   -0.2475    0.1583   -0.0922    0.1298   -0.0552   -0.0181
          43   -0.1675   -0.0410   -0.3613    0.2351   -0.1768    0.1320   -0.1701   -0.0050
          44   -0.1326    0.0162    0.3090   -0.1463    0.1031   -0.1243   -0.2251    0.0257
          45   -0.0258    0.0052   -0.0104   -0.0116    0.0115    0.0071    0.1217   -0.0138
          46   -0.0233   -0.1590   -0.0722   -0.0849    0.0934   -0.0013    0.0455   -0.1937
          47   -0.0662    0.4577   -0.0533    0.0023    0.2449    0.1258   -0.0078   -0.0612
          48   -0.0724   -0.3204   -0.0868   -0.1041    0.0161   -0.0260    0.0033   -0.0953
          49    0.0055    0.0129    0.0014   -0.0462   -0.1990   -0.1670    0.0910   -0.0024
          50    0.0102    0.0225   -0.0108    0.0346    0.1582    0.0766    0.0045   -0.0072
          51   -0.1959    0.5322   -0.1304   -0.1460    0.0350   -0.0184   -0.0000   -0.1103
          52    0.0472    0.1467    0.0711    0.0940    0.0240    0.0664    0.0239    0.1790
          53    0.0963   -0.4675    0.0328    0.0972    0.2180    0.1430   -0.0129    0.0441
          54   -0.0797   -0.2975   -0.0934   -0.1117    0.0207   -0.0258    0.0021   -0.1085
          55    0.0076   -0.0042    0.0058   -0.0066    0.0721    0.1485   -0.0103   -0.0156
          56    0.0083   -0.0028    0.0018   -0.0110   -0.0568   -0.0165    0.0351   -0.0134
          57   -0.1019   -0.0326    0.1939    0.1901    0.0032   -0.0507   -0.0060   -0.3554


   Root No.       9        10        11        12        13        14        15        16

                 9 A      10 A      11 A      12 A      13 A      14 A      15 A      16 A   

                 602.6     685.6     814.5     890.3     909.4     941.1     948.1     968.8
  
           1   -0.3588   -0.0518    0.0331   -0.0295   -0.0598   -0.0406   -0.1194    0.1152
           2   -0.1838   -0.3262    0.0642   -0.0006   -0.1307   -0.0930    0.0989   -0.0623
           3   -0.2396   -0.1653    0.0691    0.0144   -0.1418   -0.0121   -0.0018    0.0011
           4   -0.2656   -0.1645    0.0702   -0.1851    0.3411    0.0481    0.2120   -0.1992
           5    0.2308    0.0136   -0.0086    0.0679   -0.0363   -0.0771   -0.2611   -0.2918
           6   -0.0054   -0.0366   -0.0098    0.4735    0.0807    0.0752    0.0074    0.0507
           7   -0.0714    0.5073   -0.0859    0.1145   -0.2460   -0.0217    0.1643   -0.0918
           8   -0.2005   -0.0478    0.0669   -0.1527    0.3445    0.0800   -0.1158    0.1235
           9   -0.0125   -0.0649   -0.3225   -0.0450   -0.1496    0.3132   -0.0306   -0.0705
[...]

 VIBRATION   30   30A         ATOM PAIR      ENERGY CONTRIBUTION    RADIAL
 FREQ.      1370.34         C  3 -- C  7         +20.7% ( 61.6%)     82.9%
 T-DIPOLE    0.0542         C  3 -- H 11         +18.1% ( 57.6%)      0.1%
 TRAVEL      0.0864         C  3 -- H 12         +15.4% ( 53.1%)      0.0%
 RED. MASS   1.3987         C  1 -- C  3         +14.5% ( 51.5%)     42.1%
 EFF. MASS   6.5867

 VIBRATION   31   31A         ATOM PAIR      ENERGY CONTRIBUTION    RADIAL
 FREQ.      1390.93         C  5 -- H 17         +54.3% ( 63.8%)      0.0%
 T-DIPOLE    0.0622         C  5 -- H 18         +21.2% ( 39.9%)     10.6%
 TRAVEL      0.1757         C  5 -- H 16         +19.3% ( 38.0%)     12.6%
 RED. MASS   0.4251         C  5 -- C  6          +5.1% ( 19.6%)      0.0%
 EFF. MASS   1.5710

 VIBRATION   32   32A         ATOM PAIR      ENERGY CONTRIBUTION    RADIAL
 FREQ.      1393.40         C  5 -- H 16         +34.7% ( 52.6%)      1.3%
 T-DIPOLE    0.0602         C  5 -- H 18         +33.0% ( 51.3%)      1.6%
 TRAVEL      0.1650         C  5 -- H 17         +10.8% ( 29.4%)     38.4%
 RED. MASS   0.3156         C  2 -- H  9          +4.8% ( 19.5%)      2.3%
 EFF. MASS   1.7775

 VIBRATION   33   33A         ATOM PAIR      ENERGY CONTRIBUTION    RADIAL
 FREQ.      1400.39         C  2 -- H  9         +30.2% ( 57.0%)      4.5%
 T-DIPOLE    0.0211         C  2 -- H 10         +27.9% ( 54.8%)      5.3%
 TRAVEL      0.1331         C  1 -- C  2          +9.0% ( 31.1%)     53.7%
 RED. MASS   0.4158         C  2 -- C  6          +8.4% ( 30.0%)     32.1%
 EFF. MASS   2.7187

 VIBRATION   34   34A         ATOM PAIR      ENERGY CONTRIBUTION    RADIAL
 FREQ.      1406.92         C  4 -- H 13         +43.6% ( 57.4%)      1.9%
 T-DIPOLE    0.0434         C  4 -- H 14         +42.7% ( 56.8%)      2.0%
 TRAVEL      0.1741         C  4 -- H 15          +8.0% ( 24.6%)     73.8%
 RED. MASS   0.4337         C  1 -- C  4          +5.3% ( 20.0%)     10.0%
 EFF. MASS   1.5813

 VIBRATION   35   35A         ATOM PAIR      ENERGY CONTRIBUTION    RADIAL
 FREQ.      1408.14         C  3 -- H 11         +25.1% ( 59.1%)      5.6%
 T-DIPOLE    0.0409         C  3 -- H 12         +23.9% ( 57.8%)      6.4%
 TRAVEL      0.1031         C  3 -- C  7         +18.7% ( 51.0%)     89.9%
 RED. MASS   0.7706         C  1 -- C  3         +11.4% ( 39.9%)     15.4%
 EFF. MASS   4.5068

 VIBRATION   36   36A         ATOM PAIR      ENERGY CONTRIBUTION    RADIAL
 FREQ.      1413.99         C  4 -- H 15         +42.2% ( 58.3%)      0.0%
 T-DIPOLE    0.0197         C  4 -- H 14         +16.2% ( 36.2%)     10.8%
 TRAVEL      0.1631         C  4 -- H 13         +16.1% ( 36.1%)     10.5%
 RED. MASS   0.3137         C  3 -- H 11          +4.9% ( 19.9%)      5.1%
 EFF. MASS   1.7923

 VIBRATION   37   37A         ATOM PAIR      ENERGY CONTRIBUTION    RADIAL
 FREQ.      1420.00         C  1 -- C  4         +22.7% ( 66.1%)     98.2%
 T-DIPOLE    0.0283         C  4 -- H 15         +16.3% ( 56.0%)      3.3%
 TRAVEL      0.0840         C  4 -- H 13         +13.8% ( 51.5%)      4.0%
 RED. MASS   1.6008         C  4 -- H 14         +13.7% ( 51.3%)      4.2%
 EFF. MASS   6.7282

 VIBRATION   38   38A         ATOM PAIR      ENERGY CONTRIBUTION    RADIAL
 FREQ.      1486.07         C  5 -- C  6         +25.9% ( 77.4%)     79.7%
 T-DIPOLE    0.0939         C  2 -- C  6         +22.6% ( 72.3%)     94.8%
 TRAVEL      0.0653         C  6 -- C  7         +15.0% ( 58.8%)      8.6%
 RED. MASS   3.4511         C  5 -- H 16          +7.3% ( 41.2%)      3.2%
 EFF. MASS  10.6551

 VIBRATION   39   39A         ATOM PAIR      ENERGY CONTRIBUTION    RADIAL
 FREQ.      1881.96         C  6 -- C  7         +43.6% ( 97.6%)     98.1%
 T-DIPOLE    0.1338         C  5 -- C  6         +18.0% ( 62.6%)     61.3%
 TRAVEL      0.0549         C  2 -- C  6         +16.2% ( 59.6%)      5.5%
 RED. MASS   5.5992         C  3 -- C  7         +10.7% ( 48.4%)     26.0%
 EFF. MASS  11.8668         C  7 -- H 19         +10.2% ( 47.1%)      8.7%

 VIBRATION   40   40A         ATOM PAIR      ENERGY CONTRIBUTION    RADIAL
 FREQ.      2903.11         C  1 -- H  8         +95.4% ( 99.4%)    100.0%
 T-DIPOLE    0.0410         C  1 -- C  2          +1.1% ( 10.5%)      8.8%
 TRAVEL      0.1264         C  1 -- C  3          +1.1% ( 10.5%)      8.8%
 RED. MASS   0.9055         C  1 -- C  4          +1.1% ( 10.5%)      8.6%
 EFF. MASS   1.4539

 VIBRATION   41   41A         ATOM PAIR      ENERGY CONTRIBUTION    RADIAL
 FREQ.      2970.66         C  3 -- H 11         +33.3% ( 59.9%)     97.4%
 T-DIPOLE    0.0157         C  3 -- H 12         +25.1% ( 51.9%)     95.7%
 TRAVEL      0.1215         C  2 -- H  9         +22.4% ( 49.1%)     97.3%
 RED. MASS   0.2736         C  2 -- H 10         +17.0% ( 42.7%)     95.7%
 EFF. MASS   1.5380

 VIBRATION   42   42A         ATOM PAIR      ENERGY CONTRIBUTION    RADIAL
 FREQ.      2972.01         C  2 -- H  9         +33.2% ( 59.7%)     97.4%
 T-DIPOLE    0.0519         C  2 -- H 10         +24.8% ( 51.6%)     95.7%
 TRAVEL      0.1216         C  3 -- H 11         +22.3% ( 48.9%)     97.4%
 RED. MASS   0.2681         C  3 -- H 12         +16.5% ( 42.2%)     95.7%
 EFF. MASS   1.5339

 VIBRATION   43   43A         ATOM PAIR      ENERGY CONTRIBUTION    RADIAL
 FREQ.      3048.90         C  2 -- H 10         +45.1% ( 66.3%)     98.4%
 T-DIPOLE    0.0890         C  2 -- H  9         +33.1% ( 56.8%)     96.5%
 TRAVEL      0.1316         C  3 -- H 12         +11.7% ( 33.8%)     98.4%
 RED. MASS   0.3320         C  3 -- H 11          +8.6% ( 29.0%)     96.6%
 EFF. MASS   1.2762

 VIBRATION   44   44A         ATOM PAIR      ENERGY CONTRIBUTION    RADIAL
 FREQ.      3050.10         C  3 -- H 12         +45.2% ( 66.3%)     98.3%
 T-DIPOLE    0.0551         C  3 -- H 11         +32.9% ( 56.6%)     96.4%
 TRAVEL      0.1309         C  2 -- H 10         +11.7% ( 33.8%)     98.3%
 RED. MASS   0.3312         C  2 -- H  9          +8.5% ( 28.8%)     96.3%
 EFF. MASS   1.2903

 VIBRATION   45   45A         ATOM PAIR      ENERGY CONTRIBUTION    RADIAL
 FREQ.      3067.38         C  5 -- H 16         +49.5% ( 72.6%)     97.1%
 T-DIPOLE    0.0190         C  5 -- H 18         +48.6% ( 71.9%)     96.9%
 TRAVEL      0.1209         C  5 -- C  6          +1.0% ( 10.2%)      0.0%
 RED. MASS   0.5098         C  5 -- H 17          +0.9% (  9.9%)      0.1%
 EFF. MASS   1.5034

 VIBRATION   46   46A         ATOM PAIR      ENERGY CONTRIBUTION    RADIAL
 FREQ.      3078.13         C  5 -- H 17         +60.8% ( 80.5%)     98.7%
 T-DIPOLE    0.0326         C  5 -- H 18         +19.5% ( 45.5%)     86.2%
 TRAVEL      0.1203         C  5 -- H 16         +18.6% ( 44.5%)     85.5%
 RED. MASS   0.4741         C  5 -- C  6          +1.0% ( 10.5%)      0.0%
 EFF. MASS   1.5133

 VIBRATION   47   47A         ATOM PAIR      ENERGY CONTRIBUTION    RADIAL
 FREQ.      3078.28         C  4 -- H 15         +67.0% ( 84.4%)     99.0%
 T-DIPOLE    0.0133         C  4 -- H 13         +16.1% ( 41.5%)     83.9%
 TRAVEL      0.1207         C  4 -- H 14         +15.7% ( 40.9%)     83.5%
 RED. MASS   0.5278         C  1 -- C  4          +1.0% ( 10.3%)      0.0%
 EFF. MASS   1.5036

 VIBRATION   48   48A         ATOM PAIR      ENERGY CONTRIBUTION    RADIAL
 FREQ.      3083.44         C  4 -- H 14         +49.1% ( 72.3%)     97.1%
 T-DIPOLE    0.0098         C  4 -- H 13         +48.9% ( 72.1%)     97.1%
 TRAVEL      0.1204         C  1 -- C  4          +1.0% ( 10.5%)      0.0%
 RED. MASS   0.5098         C  4 -- H 15          +1.0% ( 10.2%)      0.0%
 EFF. MASS   1.5079

 VIBRATION   49   49A         ATOM PAIR      ENERGY CONTRIBUTION    RADIAL
 FREQ.      3122.60         C  7 -- H 19         +96.4% ( 99.8%)    100.0%
 T-DIPOLE    0.3612         C  6 -- C  7          +1.8% ( 13.6%)     48.8%
 TRAVEL      0.1179         C  3 -- C  7          +1.6% ( 13.0%)     24.5%
 RED. MASS   0.9262
 EFF. MASS   1.5544

 VIBRATION   50   50A         ATOM PAIR      ENERGY CONTRIBUTION    RADIAL
 FREQ.      3166.20         C  5 -- H 17         +38.0% ( 59.4%)     97.7%
 T-DIPOLE    0.0455         C  5 -- H 18         +30.9% ( 53.6%)     96.7%
 TRAVEL      0.1367         C  5 -- H 16         +30.7% ( 53.4%)     96.7%
 RED. MASS   0.3298         C  5 -- C  6          +0.3% (  5.5%)     99.3%
 EFF. MASS   1.1396

 VIBRATION   51   51A         ATOM PAIR      ENERGY CONTRIBUTION    RADIAL
 FREQ.      3178.83         C  4 -- H 14         +34.5% ( 56.5%)     97.3%
 T-DIPOLE    0.0250         C  4 -- H 13         +34.3% ( 56.4%)     97.3%
 TRAVEL      0.1367         C  4 -- H 15         +30.9% ( 53.5%)     96.7%
 RED. MASS   0.3277         C  1 -- C  4          +0.3% (  5.1%)     99.8%
 EFF. MASS   1.1359

      SYMMETRY NUMBER FOR POINT-GROUP C1  =  1


          SYSTEM IS A GROUND STATE



 InChI=1S/C7H12/c1-6-3-4-7(2)5-6/h3,7H,4-5H2,1-2H3


          MOLECULE IS NOT LINEAR

          THERE ARE 51 GENUINE VIBRATIONS IN THIS SYSTEM
          THIS THERMODYNAMICS CALCULATION IS LIMITED TO
          MOLECULES WHICH HAVE NO INTERNAL ROTATIONS




                    CALCULATED THERMODYNAMIC PROPERTIES
                                          *
   TEMP. (K)   PARTITION FUNCTION   H.O.F.    ENTHALPY  HEAT CAPACITY ENTROPY
                                   KCAL/MOL   CAL/MOLE    CAL/K/MOL  CAL/K/MOL


 298.00  VIB.     0.4234D+02                  2967.0601    22.4081    17.4003
         ROT.     0.2196D+06                   888.2813     2.9808    27.4224
         INT.     0.9298D+07                  3855.3414    25.3889    44.8227
         TRA.     0.9118D+27                  1480.4688     4.9680    39.5994
         TOT.                      -13.148    5335.8102    30.3569    84.4221

 200.00  VIB.     0.8713D+01                  1228.8902    13.4149    10.4464
         ROT.     0.1207D+06                   596.1620     2.9808    26.2337
         INT.     0.1052D+07                  1825.0522    16.3957    36.6801
         TRA.     0.5013D+27                   993.6033     4.9680    37.6183
         TOT.                      -15.665    2818.6554    21.3637    74.2984

 210.00  VIB.     0.1018D+02                  1367.0756    14.2266    11.1204
         ROT.     0.1299D+06                   625.9700     2.9808    26.3791
         INT.     0.1322D+07                  1993.0457    17.2074    37.4996
         TRA.     0.5394D+27                  1043.2834     4.9680    37.8607
         TOT.                      -15.447    3036.3291    22.1755    75.3602

 220.00  VIB.     0.1190D+02                  1513.5133    15.0654    11.8015
         ROT.     0.1393D+06                   655.7781     2.9808    26.5178
         INT.     0.1658D+07                  2169.2915    18.0462    38.3193
         TRA.     0.5784D+27                  1092.9636     4.9680    38.0918
         TOT.                      -15.221    3262.2550    23.0143    76.4111

 230.00  VIB.     0.1394D+02                  1668.4743    15.9312    12.4902
         ROT.     0.1489D+06                   685.5862     2.9808    26.6503
         INT.     0.2076D+07                  2354.0605    18.9120    39.1405
         TRA.     0.6182D+27                  1142.6437     4.9680    38.3126
         TOT.                      -14.987    3496.7042    23.8800    77.4531

 240.00  VIB.     0.1635D+02                  1832.2247    16.8231    13.1870
         ROT.     0.1587D+06                   715.3943     2.9808    26.7772
         INT.     0.2595D+07                  2547.6190    19.8039    39.9641
         TRA.     0.6590D+27                  1192.3239     4.9680    38.5241
         TOT.                      -14.743    3739.9429    24.7719    78.4882

 250.00  VIB.     0.1920D+02                  2005.0188    17.7396    13.8922
         ROT.     0.1687D+06                   745.2024     2.9808    26.8989
         INT.     0.3240D+07                  2750.2212    20.7205    40.7911
         TRA.     0.7006D+27                  1242.0041     4.9680    38.7269
         TOT.                      -14.491    3992.2253    25.6885    79.5179

 260.00  VIB.     0.2258D+02                  2187.0930    18.6788    14.6062
         ROT.     0.1789D+06                   775.0105     2.9808    27.0158
         INT.     0.4041D+07                  2962.1035    21.6596    41.6220
         TRA.     0.7431D+27                  1291.6842     4.9680    38.9217
         TOT.                      -14.230    4253.7877    26.6276    80.5437

 270.00  VIB.     0.2659D+02                  2378.6613    19.6380    15.3291
         ROT.     0.1894D+06                   804.8186     2.9808    27.1283
         INT.     0.5036D+07                  3183.4799    22.6189    42.4573
         TRA.     0.7864D+27                  1341.3644     4.9680    39.1092
         TOT.                      -13.959    4524.8443    27.5869    81.5665

 280.00  VIB.     0.3136D+02                  2579.9122    20.6148    16.0609
         ROT.     0.2000D+06                   834.6267     2.9808    27.2367
         INT.     0.6271D+07                  3414.5390    23.5956    43.2975
         TRA.     0.8304D+27                  1391.0445     4.9680    39.2899
         TOT.                      -13.678    4805.5835    28.5637    82.5874

 290.00  VIB.     0.3703D+02                  2791.0069    21.6063    16.8015
         ROT.     0.2108D+06                   864.4348     2.9808    27.3413
         INT.     0.7806D+07                  3655.4417    24.5871    44.1428
         TRA.     0.8753D+27                  1440.7247     4.9680    39.4642
         TOT.                      -13.387    5096.1664    29.5551    83.6070

 300.00  VIB.     0.4379D+02                  3012.0777    22.6096    17.5509
         ROT.     0.2218D+06                   894.2429     2.9808    27.4423
         INT.     0.9713D+07                  3906.3206    25.5904    44.9932
         TRA.     0.9210D+27                  1490.4049     4.9680    39.6326
         TOT.                      -13.087    5396.7255    30.5584    84.6259

 310.00  VIB.     0.5186D+02                  3243.2283    23.6218    18.3087
         ROT.     0.2330D+06                   924.0510     2.9808    27.5401
         INT.     0.1208D+08                  4167.2794    26.6026    45.8488
         TRA.     0.9674D+27                  1540.0850     4.9680    39.7955
         TOT.                      -12.776    5707.3644    31.5706    85.6443

 320.00  VIB.     0.6151D+02                  3484.5342    24.6402    19.0748
         ROT.     0.2443D+06                   953.8591     2.9808    27.6347
         INT.     0.1503D+08                  4438.3933    27.6210    46.7095
         TRA.     0.1015D+28                  1589.7652     4.9680    39.9533
         TOT.                      -12.455    6028.1585    32.5890    86.6627

 330.00  VIB.     0.7305D+02                  3736.0433    25.6620    19.8486
         ROT.     0.2559D+06                   983.6672     2.9808    27.7264
         INT.     0.1869D+08                  4719.7105    28.6428    47.5750
         TRA.     0.1063D+28                  1639.4454     4.9680    40.1062
         TOT.                      -12.124    6359.1559    33.6109    87.6812

 340.00  VIB.     0.8687D+02                  3997.7780    26.6849    20.6299
         ROT.     0.2676D+06                  1013.4753     2.9808    27.8154
         INT.     0.2325D+08                  5011.2533    29.6657    48.4453
         TRA.     0.1111D+28                  1689.1255     4.9680    40.2545
         TOT.                      -11.783    6700.3788    34.6337    88.6998

 350.00  VIB.     0.1035D+03                  4269.7364    27.7064    21.4182
         ROT.     0.2795D+06                  1043.2834     2.9808    27.9018
         INT.     0.2891D+08                  5313.0198    30.6872    49.3200
         TRA.     0.1161D+28                  1738.8057     4.9680    40.3985
         TOT.                      -11.432    7051.8255    35.6552    89.7185

 360.00  VIB.     0.1234D+03                  4551.8944    28.7245    22.2130
         ROT.     0.2916D+06                  1073.0915     2.9808    27.9858
         INT.     0.3597D+08                  5624.9859    31.7053    50.1988
         TRA.     0.1211D+28                  1788.4859     4.9680    40.5384
         TOT.                      -11.070    7413.4717    36.6733    90.7372

 370.00  VIB.     0.1473D+03                  4844.2077    29.7372    23.0138
         ROT.     0.3038D+06                  1102.8996     2.9808    28.0675
         INT.     0.4475D+08                  5947.1073    32.7180    51.0813
         TRA.     0.1261D+28                  1838.1660     4.9680    40.6745
         TOT.                      -10.698    7785.2733    37.6860    91.7558

 380.00  VIB.     0.1761D+03                  5146.6138    30.7428    23.8202
         ROT.     0.3162D+06                  1132.7077     2.9808    28.1470
         INT.     0.5570D+08                  6279.3215    33.7236    51.9672
         TRA.     0.1313D+28                  1887.8462     4.9680    40.8070
         TOT.                      -10.316    8167.1677    38.6916    92.7742

 390.00  VIB.     0.2109D+03                  5459.0343    31.7398    24.6317
         ROT.     0.3287D+06                  1162.5158     2.9808    28.2244
         INT.     0.6933D+08                  6621.5501    34.7206    52.8561
         TRA.     0.1365D+28                  1937.5263     4.9680    40.9361
         TOT.                       -9.924    8559.0764    39.6886    93.7921

 400.00  VIB.     0.2528D+03                  5781.3763    32.7269    25.4477
         ROT.     0.3415D+06                  1192.3239     2.9808    28.2999
         INT.     0.8632D+08                  6973.7002    35.7077    53.7476
         TRA.     0.1418D+28                  1987.2065     4.9680    41.0619
         TOT.                       -9.522    8960.9067    40.6757    94.8094

   *: NOTE: HEATS OF FORMATION ARE RELATIVE TO THE
            ELEMENTS IN THEIR STANDARD STATE AT 298K
              (=  Standard Enthalpy of Formation).

            Hvib:  Zero-point energy is not included.
                   frequencies of less than zero cm-1 are not included.
            Hrot = (3/2)RT
            Htra = (3/2)RT + pV = (5/2)RT

            Heat capacity is Cp, not Cv

          For more information, see: HTTP://OpenMOPAC.net/Manual/thermochemistry.html


           FORCE CONSTANT IN CARTESIAN COORDINATES (Millidynes/A)

    ATOM   CHEMICAL       X               Y               Z
   NUMBER   SYMBOL  FORCE CONSTANT  FORCE CONSTANT  FORCE CONSTANT

      1       C        7.807905        8.308333        8.551044
      2       C        7.779097        9.211686        8.133877
      3       C        9.642599        7.456360        8.121127
      4       C        8.415379        8.398100        8.187118
      5       C        9.168123        8.546436        7.957757
      6       C       15.038542       10.762831        2.741352
      7       C       12.101172       13.054930        2.333333
      8       H        1.144777        1.466680        3.476188
      9       H        1.350045        1.404039        3.656206
     10       H        1.273151        1.702515        3.414984
     11       H        1.745407        1.007376        3.655072
     12       H        2.075247        0.899251        3.414712
     13       H        1.094319        4.975618        0.709232
     14       H        5.380966        0.687068        0.709035
     15       H        1.147510        1.491673        4.140829
     16       H        1.509926        1.384649        3.748246
     17       H        0.748692        5.330852        0.659724
     18       H        1.688109        1.196572        3.757891
     19       H        0.714454        5.345097        0.353658

 **********************
 *                    *
 * JOB ENDED NORMALLY *
 *                    *
 **********************



 TOTAL JOB TIME:             9.29 SECONDS

 == MOPAC DONE ==
