 *******************************************************************************
 ** Site#: 14399        For non-commercial use only    Version 18.184L 64BITS **
 *******************************************************************************
 ** Cite this program as: MOPAC2016, Version: 18.184L, James J. P. Stewart,   **
 ** Stewart Computational Chemistry, web: HTTP://OpenMOPAC.net. Days left:  20**
 *******************************************************************************
 **                                                                           **
 **                                MOPAC2016                                  **
 **                                                                           **
 *******************************************************************************

                              PM3 CALCULATION RESULTS

 *******************************************************************************
 *  CALCULATION DONE:                                Thu Jun 13 15:58:37 2019  *
 *  PM3        - The PM3 Hamiltonian to be used
 *  PRECISE    - CRITERIA TO BE INCREASED BY 100 TIMES
 *  NOSYM      - POINT-GROUP SYMMETRY SET TO C1
 *  THREADS=1  - MULTI-THREADING NOT USED
 *  T=         - A TIME OF 172800.0 SECONDS REQUESTED
 *  DUMP=N     - RESTART FILE WRITTEN EVERY  7200.000 SECONDS
 *******************************************************************************
pm3  precise nosym THREADS=1
 InChI=1S/C10H10/c1-3-6-10-8-5-4-7-9(10)2/h4-5,7-8,10H,2H2,1H3

   ATOM   CHEMICAL          X               Y               Z
  NUMBER   SYMBOL      (ANGSTROMS)     (ANGSTROMS)     (ANGSTROMS)
 
     1       C          0.11040000  *   0.32890000  *  -0.83880000  *
     2       C          3.18050000  *  -1.44300000  *   1.29670000  *
     3       C         -1.18630000  *  -0.42770000  *  -0.60970000  *
     4       C          0.02530000  *   1.78600000  *  -0.44890000  *
     5       C         -2.31630000  *   0.22720000  *   0.08170000  *
     6       C         -1.04970000  *   2.31650000  *   0.14300000  *
     7       C         -2.24500000  *   1.51010000  *   0.43520000  *
     8       C         -1.31950000  *  -1.68430000  *  -1.04660000  *
     9       C          1.20170000  *  -0.29910000  *  -0.08030000  *
    10       C          2.09620000  *  -0.81580000  *   0.54160000  *
    11       H          0.36050000  *   0.28530000  *  -1.92070000  *
    12       H          2.94240000  *  -2.51330000  *   1.46580000  *
    13       H          3.29510000  *  -0.93080000  *   2.27410000  *
    14       H          4.12660000  *  -1.36080000  *   0.72300000  *
    15       H          0.87860000  *   2.42420000  *  -0.64570000  *
    16       H         -1.04620000  *   3.36480000  *   0.41300000  *
    17       H         -3.22100000  *  -0.32930000  *   0.29750000  *
    18       H         -3.08590000  *   1.97550000  *   0.93340000  *
    19       H         -0.50730000  *  -2.17980000  *  -1.56410000  *
    20       H         -2.24020000  *  -2.23460000  *  -0.89620000  *
 


          CARTESIAN COORDINATES 

    NO.       ATOM           X           Y           Z

     1         C          0.1104      0.3289     -0.8388
     2         C          3.1805     -1.4430      1.2967
     3         C         -1.1863     -0.4277     -0.6097
     4         C          0.0253      1.7860     -0.4489
     5         C         -2.3163      0.2272      0.0817
     6         C         -1.0497      2.3165      0.1430
     7         C         -2.2450      1.5101      0.4352
     8         C         -1.3195     -1.6843     -1.0466
     9         C          1.2017     -0.2991     -0.0803
    10         C          2.0962     -0.8158      0.5416
    11         H          0.3605      0.2853     -1.9207
    12         H          2.9424     -2.5133      1.4658
    13         H          3.2951     -0.9308      2.2741
    14         H          4.1266     -1.3608      0.7230
    15         H          0.8786      2.4242     -0.6457
    16         H         -1.0462      3.3648      0.4130
    17         H         -3.2210     -0.3293      0.2975
    18         H         -3.0859      1.9755      0.9334
    19         H         -0.5073     -2.1798     -1.5641
    20         H         -2.2402     -2.2346     -0.8962

  H: (PM3): J. J. P. STEWART, J. COMP. CHEM. 10, 209 (1989).
  C: (PM3): J. J. P. STEWART, J. COMP. CHEM. 10, 209 (1989).

           Empirical Formula: C10 H10  =    20 atoms



      MOLECULAR POINT GROUP   :   C1  


      RHF CALCULATION, NO. OF DOUBLY OCCUPIED LEVELS = 25


          Geometry optimization using EF

          DIAGONAL MATRIX USED AS START HESSIAN

 CYCLE:     1 TIME:   0.023 TIME LEFT:  2.00D  GRAD.:    72.867 HEAT:  88.62650
 CYCLE:     2 TIME:   0.047 TIME LEFT:  2.00D  GRAD.:    50.619 HEAT:  87.20293
 CYCLE:     3 TIME:   0.031 TIME LEFT:  2.00D  GRAD.:    49.444 HEAT:  86.84165
 CYCLE:     4 TIME:   0.023 TIME LEFT:  2.00D  GRAD.:    38.220 HEAT:  86.51969
 CYCLE:     5 TIME:   0.020 TIME LEFT:  2.00D  GRAD.:    43.263 HEAT:  86.47276
 CYCLE:     6 TIME:   0.066 TIME LEFT:  2.00D  GRAD.:    18.911 HEAT:  86.10562
 CYCLE:     7 TIME:   0.020 TIME LEFT:  2.00D  GRAD.:    34.085 HEAT:  86.10060
 CYCLE:     8 TIME:   0.023 TIME LEFT:  2.00D  GRAD.:    39.489 HEAT:  86.04494
 CYCLE:     9 TIME:   0.031 TIME LEFT:  2.00D  GRAD.:    17.401 HEAT:  85.82160
 CYCLE:    10 TIME:   0.027 TIME LEFT:  2.00D  GRAD.:    19.475 HEAT:  85.80544
 CYCLE:    11 TIME:   0.023 TIME LEFT:  2.00D  GRAD.:    18.019 HEAT:  85.79016
 CYCLE:    12 TIME:   0.020 TIME LEFT:  2.00D  GRAD.:    11.261 HEAT:  85.74428
 CYCLE:    13 TIME:   0.023 TIME LEFT:  2.00D  GRAD.:    10.752 HEAT:  85.73460
 CYCLE:    14 TIME:   0.023 TIME LEFT:  2.00D  GRAD.:    12.818 HEAT:  85.72803
 CYCLE:    15 TIME:   0.023 TIME LEFT:  2.00D  GRAD.:    11.061 HEAT:  85.71193
 CYCLE:    16 TIME:   0.031 TIME LEFT:  2.00D  GRAD.:     4.900 HEAT:  85.68494
 CYCLE:    17 TIME:   0.027 TIME LEFT:  2.00D  GRAD.:     4.193 HEAT:  85.68038
 CYCLE:    18 TIME:   0.023 TIME LEFT:  2.00D  GRAD.:     3.231 HEAT:  85.67366
 CYCLE:    19 TIME:   0.020 TIME LEFT:  2.00D  GRAD.:     4.129 HEAT:  85.66335
 CYCLE:    20 TIME:   0.023 TIME LEFT:  2.00D  GRAD.:     4.288 HEAT:  85.65310
 CYCLE:    21 TIME:   0.023 TIME LEFT:  2.00D  GRAD.:     4.615 HEAT:  85.65338
 CYCLE:    22 TIME:   0.023 TIME LEFT:  2.00D  GRAD.:     1.694 HEAT:  85.64701
 CYCLE:    23 TIME:   0.023 TIME LEFT:  2.00D  GRAD.:     2.007 HEAT:  85.64665
 CYCLE:    24 TIME:   0.023 TIME LEFT:  2.00D  GRAD.:     1.031 HEAT:  85.64530
 CYCLE:    25 TIME:   0.023 TIME LEFT:  2.00D  GRAD.:     1.072 HEAT:  85.64471
 CYCLE:    26 TIME:   0.020 TIME LEFT:  2.00D  GRAD.:     0.716 HEAT:  85.64393
 CYCLE:    27 TIME:   0.023 TIME LEFT:  2.00D  GRAD.:     0.969 HEAT:  85.64348
 CYCLE:    28 TIME:   0.023 TIME LEFT:  2.00D  GRAD.:     0.610 HEAT:  85.64313
 CYCLE:    29 TIME:   0.023 TIME LEFT:  2.00D  GRAD.:     0.455 HEAT:  85.64284
 CYCLE:    30 TIME:   0.023 TIME LEFT:  2.00D  GRAD.:     0.410 HEAT:  85.64251
 CYCLE:    31 TIME:   0.023 TIME LEFT:  2.00D  GRAD.:     0.498 HEAT:  85.64224
 CYCLE:    32 TIME:   0.023 TIME LEFT:  2.00D  GRAD.:     0.296 HEAT:  85.64213
 CYCLE:    33 TIME:   0.020 TIME LEFT:  2.00D  GRAD.:     0.220 HEAT:  85.64207
 CYCLE:    34 TIME:   0.023 TIME LEFT:  2.00D  GRAD.:     0.180 HEAT:  85.64201
 CYCLE:    35 TIME:   0.023 TIME LEFT:  2.00D  GRAD.:     0.175 HEAT:  85.64195
 CYCLE:    36 TIME:   0.023 TIME LEFT:  2.00D  GRAD.:     0.157 HEAT:  85.64188
 CYCLE:    37 TIME:   0.023 TIME LEFT:  2.00D  GRAD.:     0.152 HEAT:  85.64182
 CYCLE:    38 TIME:   0.023 TIME LEFT:  2.00D  GRAD.:     0.182 HEAT:  85.64175
 CYCLE:    39 TIME:   0.020 TIME LEFT:  2.00D  GRAD.:     0.212 HEAT:  85.64167
 CYCLE:    40 TIME:   0.023 TIME LEFT:  2.00D  GRAD.:     0.238 HEAT:  85.64154
 CYCLE:    41 TIME:   0.023 TIME LEFT:  2.00D  GRAD.:     0.241 HEAT:  85.64139
 CYCLE:    42 TIME:   0.023 TIME LEFT:  2.00D  GRAD.:     0.236 HEAT:  85.64123
 CYCLE:    43 TIME:   0.023 TIME LEFT:  2.00D  GRAD.:     0.259 HEAT:  85.64108
 CYCLE:    44 TIME:   0.023 TIME LEFT:  2.00D  GRAD.:     0.319 HEAT:  85.64087
 CYCLE:    45 TIME:   0.023 TIME LEFT:  2.00D  GRAD.:     0.335 HEAT:  85.64061
 CYCLE:    46 TIME:   0.020 TIME LEFT:  2.00D  GRAD.:     0.342 HEAT:  85.64027
 CYCLE:    47 TIME:   0.023 TIME LEFT:  2.00D  GRAD.:     0.351 HEAT:  85.63999
 CYCLE:    48 TIME:   0.023 TIME LEFT:  2.00D  GRAD.:     0.334 HEAT:  85.63971
 CYCLE:    49 TIME:   0.023 TIME LEFT:  2.00D  GRAD.:     0.341 HEAT:  85.63947
 CYCLE:    50 TIME:   0.023 TIME LEFT:  2.00D  GRAD.:     0.303 HEAT:  85.63924
 CYCLE:    51 TIME:   0.023 TIME LEFT:  2.00D  GRAD.:     0.260 HEAT:  85.63907
 CYCLE:    52 TIME:   0.023 TIME LEFT:  2.00D  GRAD.:     0.267 HEAT:  85.63888
 CYCLE:    53 TIME:   0.020 TIME LEFT:  2.00D  GRAD.:     0.304 HEAT:  85.63865
 CYCLE:    54 TIME:   0.023 TIME LEFT:  2.00D  GRAD.:     0.349 HEAT:  85.63829
 CYCLE:    55 TIME:   0.023 TIME LEFT:  2.00D  GRAD.:     0.351 HEAT:  85.63790
 CYCLE:    56 TIME:   0.023 TIME LEFT:  2.00D  GRAD.:     0.303 HEAT:  85.63758
 CYCLE:    57 TIME:   0.023 TIME LEFT:  2.00D  GRAD.:     0.282 HEAT:  85.63734
 CYCLE:    58 TIME:   0.023 TIME LEFT:  2.00D  GRAD.:     0.286 HEAT:  85.63713
 CYCLE:    59 TIME:   0.020 TIME LEFT:  2.00D  GRAD.:     0.286 HEAT:  85.63689
 CYCLE:    60 TIME:   0.023 TIME LEFT:  2.00D  GRAD.:     0.287 HEAT:  85.63661
 CYCLE:    61 TIME:   0.023 TIME LEFT:  2.00D  GRAD.:     0.310 HEAT:  85.63635
 CYCLE:    62 TIME:   0.023 TIME LEFT:  2.00D  GRAD.:     0.317 HEAT:  85.63612
 CYCLE:    63 TIME:   0.023 TIME LEFT:  2.00D  GRAD.:     0.317 HEAT:  85.63579
 CYCLE:    64 TIME:   0.023 TIME LEFT:  2.00D  GRAD.:     0.273 HEAT:  85.63556
 CYCLE:    65 TIME:   0.023 TIME LEFT:  2.00D  GRAD.:     0.211 HEAT:  85.63539
 CYCLE:    66 TIME:   0.020 TIME LEFT:  2.00D  GRAD.:     0.197 HEAT:  85.63529
 CYCLE:    67 TIME:   0.023 TIME LEFT:  2.00D  GRAD.:     0.205 HEAT:  85.63519
 CYCLE:    68 TIME:   0.023 TIME LEFT:  2.00D  GRAD.:     0.207 HEAT:  85.63505
 CYCLE:    69 TIME:   0.023 TIME LEFT:  2.00D  GRAD.:     0.166 HEAT:  85.63492
 CYCLE:    70 TIME:   0.023 TIME LEFT:  2.00D  GRAD.:     0.116 HEAT:  85.63484
 CYCLE:    71 TIME:   0.023 TIME LEFT:  2.00D  GRAD.:     0.077 HEAT:  85.63482
 CYCLE:    72 TIME:   0.020 TIME LEFT:  2.00D  GRAD.:     0.061 HEAT:  85.63480
 CYCLE:    73 TIME:   0.023 TIME LEFT:  2.00D  GRAD.:     0.132 HEAT:  85.63482
 CYCLE:    74 TIME:   0.023 TIME LEFT:  2.00D  GRAD.:     0.048 HEAT:  85.63479

     GRADIENT =  0.04819  IS LESS THAN CUTOFF =  0.05000



 -------------------------------------------------------------------------------
 pm3  precise nosym THREADS=1
 InChI=1S/C10H10/c1-3-6-10-8-5-4-7-9(10)2/h4-5,7-8,10H,2H2,1H3



     GEOMETRY OPTIMISED USING EIGENVECTOR FOLLOWING (EF).     
     SCF FIELD WAS ACHIEVED                                   


                              PM3 CALCULATION
                                                       MOPAC2016 (Version: 18.184L)
                                                       Thu Jun 13 15:58:38 2019
                                                       No. of days remaining =  20




          FINAL HEAT OF FORMATION =         85.63479 KCAL/MOL =     358.29597 KJ/MOL


          TOTAL ENERGY            =      -1336.01746 EV
          ELECTRONIC ENERGY       =      -6778.94872 EV  POINT GROUP:     C1  
          CORE-CORE REPULSION     =       5442.93126 EV
          COSMO AREA              =        186.11 SQUARE ANGSTROMS
          COSMO VOLUME            =        182.34 CUBIC ANGSTROMS

          GRADIENT NORM           =          0.04819 = 0.01078 PER ATOM
          IONIZATION POTENTIAL    =          8.731743 EV
          HOMO LUMO ENERGIES (EV) =         -8.732 -0.252
          NO. OF FILLED LEVELS    =         25
          MOLECULAR WEIGHT        =        130.1890

          MOLECULAR DIMENSIONS (Angstroms)

            Atom       Atom       Distance
            H    18    H    14     7.99698
            H    20    H    16     5.73760
            H    11    H    13     4.01728


          SCF CALCULATIONS        =         82
 
          WALL-CLOCK TIME         =          1.840 SECONDS
          COMPUTATION TIME        =          0.703 SECONDS




   ATOM   CHEMICAL          X               Y               Z
  NUMBER   SYMBOL      (ANGSTROMS)     (ANGSTROMS)     (ANGSTROMS)
 
     1       C          0.10499688  *   0.33544581  *  -0.78001934  *
     2       C          3.16797769  *  -1.44667674  *   1.22986698  *
     3       C         -1.18019615  *  -0.43286031  *  -0.58460418  *
     4       C          0.03032914  *   1.77760127  *  -0.38005035  *
     5       C         -2.31133088  *   0.24612949  *   0.03516634  *
     6       C         -1.07100010  *   2.33091296  *   0.14195493  *
     7       C         -2.26500410  *   1.54499905  *   0.37165242  *
     8       C         -1.28701639  *  -1.70323292  *  -0.99075549  *
     9       C          1.19510642  *  -0.29930301  *  -0.06551526  *
    10       C          2.09154306  *  -0.82005673  *   0.52363469  *
    11       H          0.35725456  *   0.30791914  *  -1.87235008  *
    12       H          2.94882700  *  -2.50806292  *   1.40616258  *
    13       H          3.32693757  *  -0.96265479  *   2.20251978  *
    14       H          4.10134974  *  -1.37913745  *   0.65554330  *
    15       H          0.94308508  *   2.36354296  *  -0.53497179  *
    16       H         -1.09987965  *   3.39101668  *   0.41468793  *
    17       H         -3.21256158  *  -0.35219614  *   0.21480395  *
    18       H         -3.12353528  *   2.04453020  *   0.83208026  *
    19       H         -0.46541943  *  -2.23816764  *  -1.45819120  *
    20       H         -2.19787671  *  -2.28350916  *  -0.87487787  *

                             CARTESIAN COORDINATES

   1    C        0.104996883     0.335445810    -0.780019339
   2    C        3.167977693    -1.446676743     1.229866984
   3    C       -1.180196152    -0.432860315    -0.584604184
   4    C        0.030329140     1.777601267    -0.380050346
   5    C       -2.311330878     0.246129488     0.035166340
   6    C       -1.071000096     2.330912963     0.141954926
   7    C       -2.265004098     1.544999053     0.371652422
   8    C       -1.287016388    -1.703232921    -0.990755489
   9    C        1.195106417    -0.299303015    -0.065515258
  10    C        2.091543058    -0.820056733     0.523634695
  11    H        0.357254558     0.307919138    -1.872350083
  12    H        2.948826997    -2.508062918     1.406162582
  13    H        3.326937567    -0.962654791     2.202519776
  14    H        4.101349744    -1.379137449     0.655543303
  15    H        0.943085085     2.363542964    -0.534971788
  16    H       -1.099879654     3.391016679     0.414687929
  17    H       -3.212561577    -0.352196136     0.214803953
  18    H       -3.123535278     2.044530202     0.832080255
  19    H       -0.465419432    -2.238167637    -1.458191203
  20    H       -2.197876715    -2.283509155    -0.874877871


           Empirical Formula: C10 H10  =    20 atoms



      MOLECULAR POINT GROUP   :   C1  


                  EIGENVALUES  
 -40.05063 -34.11945 -32.10458 -30.72281 -26.70810 -24.76752 -21.84033 -20.17585
 -17.89377 -16.89316 -16.68986 -15.93855 -15.73594 -14.89370 -14.67617 -14.60998
 -14.33186 -13.46687 -12.78769 -12.14237 -11.99354 -10.94814 -10.45527 -10.40929
  -8.73174  -0.25163   1.23277   1.76541   1.81309   2.26013   2.74058   3.18004
   3.32161   3.36787   3.71002   3.81624   3.88936   4.05537   4.22489   4.32323
   4.46482   4.47910   4.55134   4.81507   5.20465   5.33386   5.57964   6.09719
   6.21778   6.77139


              NET ATOMIC CHARGES AND DIPOLE CONTRIBUTIONS

  ATOM NO.   TYPE          CHARGE      No. of ELECS.   s-Pop       p-Pop       
    1          C           0.157806        3.8422     1.10522     2.73697
    2          C           0.041798        3.9582     1.08880     2.86940
    3          C          -0.081904        4.0819     1.18453     2.89738
    4          C          -0.129676        4.1297     1.19850     2.93118
    5          C          -0.091059        4.0911     1.18098     2.91008
    6          C          -0.107158        4.1072     1.17785     2.92930
    7          C          -0.098647        4.0986     1.17967     2.91898
    8          C          -0.148868        4.1489     1.18352     2.96535
    9          C          -0.177995        4.1780     1.19838     2.97961
   10          C          -0.168510        4.1685     1.19689     2.97162
   11          H           0.078356        0.9216     0.92164
   12          H           0.048134        0.9519     0.95187
   13          H           0.048341        0.9517     0.95166
   14          H           0.046658        0.9533     0.95334
   15          H           0.104745        0.8953     0.89526
   16          H           0.102628        0.8974     0.89737
   17          H           0.102642        0.8974     0.89736
   18          H           0.102073        0.8979     0.89793
   19          H           0.086336        0.9137     0.91366
   20          H           0.084301        0.9157     0.91570
 DIPOLE           X         Y         Z       TOTAL
 POINT-CHG.     0.244    -0.035    -0.033     0.249
 HYBRID         0.040    -0.054     0.056     0.087
 SUM            0.284    -0.089     0.023     0.298


          ATOMIC ORBITAL ELECTRON POPULATIONS

     Atom    s        px        py        pz   
    1  C   1.10522   0.87292   0.90169   0.96236
    2  C   1.08880   0.92432   0.97619   0.96890
    3  C   1.18453   0.94408   0.95920   0.99410
    4  C   1.19850   0.98099   0.95725   0.99294
    5  C   1.18098   0.96378   0.95652   0.98979
    6  C   1.17785   0.94751   0.98284   0.99895
    7  C   1.17967   0.96983   0.95232   0.99683
    8  C   1.18352   1.01144   0.95178   1.00212
    9  C   1.19838   0.97329   1.00537   1.00095
   10  C   1.19689   0.97788   0.99475   0.99899
   11  H   0.92164
   12  H   0.95187
   13  H   0.95166
   14  H   0.95334
   15  H   0.89526
   16  H   0.89737
   17  H   0.89736
   18  H   0.89793
   19  H   0.91366
   20  H   0.91570
 *******************************************************************************
 ** Site#: 14399        For non-commercial use only    Version 18.184L 64BITS **
 *******************************************************************************
 ** Cite this program as: MOPAC2016, Version: 18.184L, James J. P. Stewart,   **
 ** Stewart Computational Chemistry, web: HTTP://OpenMOPAC.net. Days left:  20**
 *******************************************************************************
 **                                                                           **
 **                                MOPAC2016                                  **
 **                                                                           **
 *******************************************************************************

                              PM3 CALCULATION RESULTS

 *******************************************************************************
 *  CALCULATION DONE:                                Thu Jun 13 15:58:38 2019  *
 *  PM3        - The PM3 Hamiltonian to be used
 *  OLDGEO     - PREVIOUS GEOMETRY TO BE USED
 *  PRECISE    - CRITERIA TO BE INCREASED BY 100 TIMES
 *  NOSYM      - POINT-GROUP SYMMETRY SET TO C1
 *  THREADS=1  - MULTI-THREADING NOT USED
 *  T=         - A TIME OF 172800.0 SECONDS REQUESTED
 *  DUMP=N     - RESTART FILE WRITTEN EVERY  7200.000 SECONDS
 *  THERMO     - THERMODYNAMIC QUANTITIES TO BE CALCULATED
 *******************************************************************************
oldgeo thermo nosym precise THREADS=1  pm3
 InChI=1S/C10H10/c1-3-6-10-8-5-4-7-9(10)2/h4-5,7-8,10H,2H2,1H3

   ATOM   CHEMICAL          X               Y               Z
  NUMBER   SYMBOL      (ANGSTROMS)     (ANGSTROMS)     (ANGSTROMS)
 
     1       C          0.10499688  *   0.33544581  *  -0.78001934  *
     2       C          3.16797769  *  -1.44667674  *   1.22986698  *
     3       C         -1.18019615  *  -0.43286031  *  -0.58460418  *
     4       C          0.03032914  *   1.77760127  *  -0.38005035  *
     5       C         -2.31133088  *   0.24612949  *   0.03516634  *
     6       C         -1.07100010  *   2.33091296  *   0.14195493  *
     7       C         -2.26500410  *   1.54499905  *   0.37165242  *
     8       C         -1.28701639  *  -1.70323292  *  -0.99075549  *
     9       C          1.19510642  *  -0.29930301  *  -0.06551526  *
    10       C          2.09154306  *  -0.82005673  *   0.52363469  *
    11       H          0.35725456  *   0.30791914  *  -1.87235008  *
    12       H          2.94882700  *  -2.50806292  *   1.40616258  *
    13       H          3.32693757  *  -0.96265479  *   2.20251978  *
    14       H          4.10134974  *  -1.37913745  *   0.65554330  *
    15       H          0.94308508  *   2.36354296  *  -0.53497179  *
    16       H         -1.09987965  *   3.39101668  *   0.41468793  *
    17       H         -3.21256158  *  -0.35219614  *   0.21480395  *
    18       H         -3.12353528  *   2.04453020  *   0.83208026  *
    19       H         -0.46541943  *  -2.23816764  *  -1.45819120  *
    20       H         -2.19787671  *  -2.28350916  *  -0.87487787  *
 


          CARTESIAN COORDINATES 

    NO.       ATOM           X           Y           Z

     1         C          0.1050      0.3354     -0.7800
     2         C          3.1680     -1.4467      1.2299
     3         C         -1.1802     -0.4329     -0.5846
     4         C          0.0303      1.7776     -0.3801
     5         C         -2.3113      0.2461      0.0352
     6         C         -1.0710      2.3309      0.1420
     7         C         -2.2650      1.5450      0.3717
     8         C         -1.2870     -1.7032     -0.9908
     9         C          1.1951     -0.2993     -0.0655
    10         C          2.0915     -0.8201      0.5236
    11         H          0.3573      0.3079     -1.8724
    12         H          2.9488     -2.5081      1.4062
    13         H          3.3269     -0.9627      2.2025
    14         H          4.1013     -1.3791      0.6555
    15         H          0.9431      2.3635     -0.5350
    16         H         -1.0999      3.3910      0.4147
    17         H         -3.2126     -0.3522      0.2148
    18         H         -3.1235      2.0445      0.8321
    19         H         -0.4654     -2.2382     -1.4582
    20         H         -2.1979     -2.2835     -0.8749

  H: (PM3): J. J. P. STEWART, J. COMP. CHEM. 10, 209 (1989).
  C: (PM3): J. J. P. STEWART, J. COMP. CHEM. 10, 209 (1989).

           Empirical Formula: C10 H10  =    20 atoms



      MOLECULAR POINT GROUP   :   C1  


      RHF CALCULATION, NO. OF DOUBLY OCCUPIED LEVELS = 25



          HEAT OF FORMATION =      85.634792 KCALS/MOLE


          CARTESIAN COORDINATE DERIVATIVES

   NUMBER  ATOM         X            Y            Z

     1       C     -0.000070    -0.003335     0.002261
     2       C     -0.009866     0.008137     0.003106
     3       C     -0.005505    -0.002511    -0.004404
     4       C     -0.003977     0.004187     0.008726
     5       C      0.005179     0.006760     0.002689
     6       C      0.000131     0.005095    -0.003681
     7       C      0.007282    -0.010917    -0.010267
     8       C      0.008259    -0.008668     0.000229
     9       C     -0.004467    -0.014111     0.000166
    10       C     -0.006239    -0.005088     0.003418
    11       H     -0.000094    -0.004124    -0.001687
    12       H     -0.004902     0.013517     0.006823
    13       H     -0.011533     0.011273    -0.002296
    14       H      0.001352     0.004398    -0.002775
    15       H     -0.008257     0.009298     0.003515
    16       H     -0.004568     0.001490    -0.000259
    17       H      0.014289    -0.002514    -0.001897
    18       H     -0.001596    -0.001422     0.002020
    19       H      0.014713    -0.000365    -0.000307
    20       H      0.009869    -0.011101    -0.005380
 


          GRADIENT NORM =   0.05135


          TIME FOR SCF CALCULATION =    0.02

          TIME FOR DERIVATIVES     =    0.01

          MOLECULAR WEIGHT =  130.19



          ROTATIONAL CONSTANTS IN CM(-1)

          A =    0.07642120   B =    0.03021809   C =    0.02428256



           PRINCIPAL MOMENTS OF INERTIA IN UNITS OF 10**(-40)*GRAM-CM**2

          A =      366.2959   B =      926.3582   C =     1152.7935


          ORIENTATION OF MOLECULE IN FORCE CALCULATION

    NO.       ATOM         X         Y         Z

     1          C      -0.2807   -0.5334    0.5328
     2          C       3.7933   -0.5334    0.5328
     3          C      -0.8145    0.8791    0.5328
     4          C      -0.7704   -1.3796   -0.6028
     5          C      -1.6562    1.3067   -0.5778
     6          C      -1.5829   -0.9133   -1.5588
     7          C      -2.0235    0.4658   -1.5578
     8          C      -0.5395    1.7150    1.5407
     9          C       1.1690   -0.5333    0.5337
    10          C       2.3614   -0.5336    0.5325
    11          H      -0.6179   -1.0265    1.4819
    12          H       4.1798    0.4137    0.9318
    13          H       4.1809   -0.6603   -0.4867
    14          H       4.1821   -1.3519    1.1529
    15          H      -0.4169   -2.4166   -0.6121
    16          H      -1.9338   -1.5585   -2.3710
    17          H      -1.9834    2.3533   -0.5793
    18          H      -2.6604    0.7983   -2.3839
    19          H       0.0816    1.4285    2.3844
    20          H      -0.9133    2.7342    1.5787


    FIRST DERIVATIVES WILL BE USED IN THE CALCULATION OF SECOND DERIVATIVES

          ESTIMATED TIME TO COMPLETE CALCULATION =        7.50 SECONDS

    FOR POINT-GROUP C1   THERE ARE   1 UNIQUE SYMMETRY FUNCTIONS.

 STEP:   1 TIME =     0.05 SECS, INTEGRAL =      0.05 TIME LEFT: 172799.92
 STEP:   2 TIME =     0.05 SECS, INTEGRAL =      0.10 TIME LEFT: 172799.87
 STEP:   3 TIME =     0.05 SECS, INTEGRAL =      0.14 TIME LEFT: 172799.82
 STEP:   4 TIME =     0.05 SECS, INTEGRAL =      0.19 TIME LEFT: 172799.78
 STEP:   5 TIME =     0.04 SECS, INTEGRAL =      0.23 TIME LEFT: 172799.73
 STEP:   6 TIME =     0.04 SECS, INTEGRAL =      0.28 TIME LEFT: 172799.69
 STEP:   7 TIME =     0.05 SECS, INTEGRAL =      0.32 TIME LEFT: 172799.64
 STEP:   8 TIME =     0.05 SECS, INTEGRAL =      0.37 TIME LEFT: 172799.60
 STEP:   9 TIME =     0.05 SECS, INTEGRAL =      0.42 TIME LEFT: 172799.55
 STEP:  10 TIME =     0.05 SECS, INTEGRAL =      0.46 TIME LEFT: 172799.50
 STEP:  11 TIME =     0.04 SECS, INTEGRAL =      0.51 TIME LEFT: 172799.46
 STEP:  12 TIME =     0.05 SECS, INTEGRAL =      0.55 TIME LEFT: 172799.41
 STEP:  13 TIME =     0.05 SECS, INTEGRAL =      0.60 TIME LEFT: 172799.37
 STEP:  14 TIME =     0.05 SECS, INTEGRAL =      0.65 TIME LEFT: 172799.32
 STEP:  15 TIME =     0.05 SECS, INTEGRAL =      0.70 TIME LEFT: 172799.27
 STEP:  16 TIME =     0.05 SECS, INTEGRAL =      0.74 TIME LEFT: 172799.23
 STEP:  17 TIME =     0.05 SECS, INTEGRAL =      0.79 TIME LEFT: 172799.18
 STEP:  18 TIME =     0.05 SECS, INTEGRAL =      0.84 TIME LEFT: 172799.13
 STEP:  19 TIME =     0.04 SECS, INTEGRAL =      0.88 TIME LEFT: 172799.09
 STEP:  20 TIME =     0.05 SECS, INTEGRAL =      0.93 TIME LEFT: 172799.04
 STEP:  21 TIME =     0.05 SECS, INTEGRAL =      0.97 TIME LEFT: 172799.00
 STEP:  22 TIME =     0.05 SECS, INTEGRAL =      1.02 TIME LEFT: 172798.95
 STEP:  23 TIME =     0.05 SECS, INTEGRAL =      1.07 TIME LEFT: 172798.90
 STEP:  24 TIME =     0.05 SECS, INTEGRAL =      1.11 TIME LEFT: 172798.86
 STEP:  25 TIME =     0.05 SECS, INTEGRAL =      1.16 TIME LEFT: 172798.81
 STEP:  26 TIME =     0.05 SECS, INTEGRAL =      1.21 TIME LEFT: 172798.76
 STEP:  27 TIME =     0.05 SECS, INTEGRAL =      1.25 TIME LEFT: 172798.71
 STEP:  28 TIME =     0.05 SECS, INTEGRAL =      1.30 TIME LEFT: 172798.67
 STEP:  29 TIME =     0.05 SECS, INTEGRAL =      1.35 TIME LEFT: 172798.62
 STEP:  30 TIME =     0.05 SECS, INTEGRAL =      1.39 TIME LEFT: 172798.57
 STEP:  31 TIME =     0.05 SECS, INTEGRAL =      1.44 TIME LEFT: 172798.53
 STEP:  32 TIME =     0.05 SECS, INTEGRAL =      1.49 TIME LEFT: 172798.48
 STEP:  33 TIME =     0.05 SECS, INTEGRAL =      1.54 TIME LEFT: 172798.43
 STEP:  34 TIME =     0.05 SECS, INTEGRAL =      1.58 TIME LEFT: 172798.39
 STEP:  35 TIME =     0.04 SECS, INTEGRAL =      1.62 TIME LEFT: 172798.34
 STEP:  36 TIME =     0.05 SECS, INTEGRAL =      1.67 TIME LEFT: 172798.30
 STEP:  37 TIME =     0.05 SECS, INTEGRAL =      1.72 TIME LEFT: 172798.25
 STEP:  38 TIME =     0.04 SECS, INTEGRAL =      1.76 TIME LEFT: 172798.21
 STEP:  39 TIME =     0.05 SECS, INTEGRAL =      1.81 TIME LEFT: 172798.16
 STEP:  40 TIME =     0.05 SECS, INTEGRAL =      1.86 TIME LEFT: 172798.11
 STEP:  41 TIME =     0.05 SECS, INTEGRAL =      1.90 TIME LEFT: 172798.07
 STEP:  42 TIME =     0.04 SECS, INTEGRAL =      1.95 TIME LEFT: 172798.02
 STEP:  43 TIME =     0.05 SECS, INTEGRAL =      1.99 TIME LEFT: 172797.98
 STEP:  44 TIME =     0.04 SECS, INTEGRAL =      2.04 TIME LEFT: 172797.93
 STEP:  45 TIME =     0.05 SECS, INTEGRAL =      2.08 TIME LEFT: 172797.89
 STEP:  46 TIME =     0.05 SECS, INTEGRAL =      2.13 TIME LEFT: 172797.84
 STEP:  47 TIME =     0.04 SECS, INTEGRAL =      2.17 TIME LEFT: 172797.80
 STEP:  48 TIME =     0.05 SECS, INTEGRAL =      2.22 TIME LEFT: 172797.75
 STEP:  49 TIME =     0.05 SECS, INTEGRAL =      2.27 TIME LEFT: 172797.70
 STEP:  50 TIME =     0.04 SECS, INTEGRAL =      2.31 TIME LEFT: 172797.66
 STEP:  51 TIME =     0.05 SECS, INTEGRAL =      2.36 TIME LEFT: 172797.61
 STEP:  52 TIME =     0.05 SECS, INTEGRAL =      2.40 TIME LEFT: 172797.57
 STEP:  53 TIME =     0.04 SECS, INTEGRAL =      2.45 TIME LEFT: 172797.52
 STEP:  54 TIME =     0.05 SECS, INTEGRAL =      2.49 TIME LEFT: 172797.48
 STEP:  55 TIME =     0.05 SECS, INTEGRAL =      2.54 TIME LEFT: 172797.43
 STEP:  56 TIME =     0.04 SECS, INTEGRAL =      2.58 TIME LEFT: 172797.39
 STEP:  57 TIME =     0.05 SECS, INTEGRAL =      2.63 TIME LEFT: 172797.34
 STEP:  58 TIME =     0.05 SECS, INTEGRAL =      2.68 TIME LEFT: 172797.29
 STEP:  59 TIME =     0.05 SECS, INTEGRAL =      2.72 TIME LEFT: 172797.25
 STEP:  60 TIME =     0.05 SECS, INTEGRAL =      2.77 TIME LEFT: 172797.20

(To convert to Hartree/Bohr^2, multiply by (10^(-21) x N x a0^2)/(4.184 x 627.51) =  0.0642)


           FORCE MATRIX IN MILLIDYNES/ANGSTROM


                  C  1       C  2       C  3       C  4       C  5       C  6
 ------------------------------------------------------------------------------
     C    1  15.572782
     C    2   0.082801  15.184421
     C    3   4.236789   0.009651  18.542757
     C    4   4.585301   0.010333   0.649634  18.012373
     C    5   0.588526   0.001654   5.411433   0.203303  18.398484
     C    6   0.808675   0.001993   0.166929  10.287053   1.168620  18.419331
     C    7   0.125216   0.001402   1.077565   1.172709  10.012856   5.725949
     C    8   0.784955   0.001304  10.349322   0.059774   1.114656   0.053924
     C    9   6.056841   0.569905   0.769505   0.850467   0.032338   0.049492
     C   10   0.504812   6.695034   0.031448   0.033974   0.003322   0.005789
     H   11   4.067202   0.008801   0.405135   0.397620   0.026409   0.037682
     H   12   0.008733   4.710744   0.001750   0.001013   0.000586   0.000724
     H   13   0.008494   4.713089   0.001224   0.001840   0.000440   0.000721
     H   14   0.008981   4.708859   0.001095   0.001244   0.000350   0.000489
     H   15   0.432071   0.000824   0.045860   4.839916   0.010975   0.441924
     H   16   0.116782   0.000689   0.003149   0.442725   0.048507   4.854124
     H   17   0.042099   0.000356   0.445622   0.011141   4.802070   0.121110
     H   18   0.002487   0.000286   0.118938   0.048168   0.439618   0.434176
     H   19   0.078449   0.000792   0.475327   0.002284   0.122706   0.007034
     H   20   0.111739   0.000764   0.474504   0.006942   0.090354   0.005843


                  C  7       C  8       C  9       C 10       H 11       H 12
 ------------------------------------------------------------------------------
     C    7  18.335080
     C    8   0.141483  17.875868
     C    9   0.020168   0.060951  24.777277
     C   10   0.003980   0.006821  17.130668  24.868365
     H   11   0.012630   0.036382   0.415639   0.030896   4.490678
     H   12   0.000782   0.000754   0.031099   0.453951   0.000878   5.389526
     H   13   0.000543   0.000492   0.029037   0.454289   0.000934   0.550490
     H   14   0.000610   0.000333   0.029585   0.456122   0.001708   0.548773
     H   15   0.121038   0.008743   0.021902   0.005217   0.029353   0.000373
     H   16   0.434374   0.000958   0.019243   0.001549   0.014247   0.000158
     H   17   0.439471   0.047701   0.005308   0.001052   0.004227   0.000238
     H   18   4.862760   0.009216   0.001211   0.000526   0.000813   0.000089
     H   19   0.011233   5.100847   0.013525   0.004990   0.012667   0.000386
     H   20   0.007010   5.090948   0.016353   0.001465   0.010501   0.000205


                  H 13       H 14       H 15       H 16       H 17       H 18
 ------------------------------------------------------------------------------
     H   13   5.390735
     H   14   0.548600   5.388654
     H   15   0.000379   0.000373   5.214121
     H   16   0.000221   0.000200   0.064400   5.216097
     H   17   0.000154   0.000107   0.008670   0.007010   5.174195
     H   18   0.000147   0.000116   0.007126   0.031835   0.062605   5.223951
     H   19   0.000282   0.000254   0.001883   0.000282   0.002099   0.008277
     H   20   0.000160   0.000143   0.003580   0.000493   0.028865   0.005297


                  H 19       H 20
 ------------------------------
     H   19   5.480962
     H   20   0.408257   5.479336


          HEAT OF FORMATION =      85.634792 KCALS/MOLE

          ZERO POINT ENERGY     103.311 KCAL/MOL


           NORMAL COORDINATE ANALYSIS (Total motion = 1 Angstrom)


   Root No.       1         2         3         4         5         6         7         8

                 1 A       2 A       3 A       4 A       5 A       6 A       7 A       8 A   

                  58.7      94.1     105.2     136.3     232.1     291.9     354.1     404.1
  
           1    0.0067   -0.0079   -0.0090   -0.0235    0.0073   -0.0099    0.0176    0.0013
           2   -0.0012   -0.0141   -0.0188   -0.0090    0.0018   -0.0096   -0.0035   -0.0372
           3   -0.0230    0.0014   -0.0021    0.0238   -0.0094   -0.0080   -0.0098    0.0084
           4    0.0068   -0.0081   -0.0093   -0.0244    0.0079   -0.0141    0.0312    0.0032
           5    0.0004    0.0404    0.0451    0.0096    0.0108   -0.0256   -0.0004   -0.0054
           6    0.0478    0.0076    0.0095   -0.0448   -0.0265   -0.0088   -0.0102    0.0010
           7    0.0091    0.0125    0.0125   -0.0075    0.0174   -0.0043   -0.0173    0.0057
           8   -0.0003   -0.0059   -0.0102   -0.0026    0.0063   -0.0109   -0.0160   -0.0341
           9   -0.0132   -0.0034   -0.0006    0.0100   -0.0193   -0.0027   -0.0042    0.0294
          10    0.0140   -0.0246   -0.0229    0.0174    0.0220    0.0053   -0.0376   -0.0011
          11    0.0089   -0.0124   -0.0106    0.0015    0.0140   -0.0097   -0.0005   -0.0059
          12   -0.0332    0.0079   -0.0017   -0.0027   -0.0254   -0.0134    0.0113   -0.0237
          13   -0.0402    0.0249    0.0215   -0.0206    0.0258    0.0194   -0.0377    0.0266
          14   -0.0093    0.0048    0.0048   -0.0109    0.0128    0.0011   -0.0076   -0.0148
          15    0.0207   -0.0083   -0.0013    0.0168   -0.0239   -0.0131    0.0115    0.0223
          16   -0.0155   -0.0175   -0.0162    0.0484   -0.0288   -0.0187   -0.0202   -0.0177
          17    0.0051   -0.0032    0.0031    0.0092   -0.0008   -0.0134    0.0109    0.0073
          18   -0.0101    0.0062   -0.0008   -0.0250    0.0098    0.0046   -0.0005   -0.0048
          19   -0.0519    0.0107    0.0083    0.0169   -0.0326    0.0020    0.0170    0.0049
          20   -0.0066    0.0059    0.0111   -0.0010   -0.0022   -0.0058    0.0227    0.0124
          21    0.0227   -0.0040   -0.0017   -0.0058    0.0111   -0.0019   -0.0341    0.0115
          22    0.0543    0.0246    0.0310    0.0354   -0.0255    0.0364   -0.0026   -0.0254
          23    0.0089   -0.0078   -0.0150    0.0172   -0.0056   -0.0370   -0.0078    0.0463
          24   -0.0330   -0.0051   -0.0017   -0.0180    0.0021    0.0073   -0.0158   -0.0280
          25    0.0067   -0.0079   -0.0091   -0.0236    0.0071   -0.0120    0.0240    0.0023
          26   -0.0044   -0.0200   -0.0235   -0.0142   -0.0218    0.0539    0.0009   -0.0123
          27   -0.0033   -0.0037   -0.0033    0.0486    0.0494    0.0173    0.0091    0.0026
          28    0.0067   -0.0080   -0.0092   -0.0239    0.0074   -0.0128    0.0269    0.0027
          29   -0.0032    0.0009    0.0017   -0.0073   -0.0216    0.0852    0.0024    0.0338
          30    0.0190   -0.0007    0.0018    0.0199    0.0492    0.0271    0.0514   -0.0060
          31   -0.0059   -0.0085   -0.0124   -0.0560   -0.0400   -0.0121    0.0360    0.0040
          32   -0.0092   -0.0059   -0.0157   -0.0106    0.0001   -0.0253   -0.0027   -0.0660
          33   -0.0314    0.0053   -0.0018    0.0107   -0.0265   -0.0168   -0.0018   -0.0068
          34   -0.0040   -0.0386   -0.0412   -0.0172    0.0076    0.0925    0.0595    0.0411
          35   -0.0055   -0.0166    0.1217    0.0103    0.0213   -0.0662   -0.0022   -0.0228
          36    0.0723    0.1727   -0.1416   -0.0535   -0.0513   -0.0180   -0.0337    0.0046
          37    0.0276    0.0023   -0.0001   -0.0725   -0.0527   -0.0601   -0.0290    0.0057
          38    0.0197    0.2271   -0.1077    0.0256    0.0217   -0.0617   -0.0005   -0.0224
          39    0.0533   -0.0116    0.0319   -0.0651   -0.0512   -0.0220   -0.0337    0.0041
          40   -0.0033    0.0119    0.0133    0.0162    0.0693   -0.0760    0.0679   -0.0364
          41   -0.0095   -0.0546    0.1577    0.0078    0.0213   -0.0677   -0.0020   -0.0229
          42    0.0410   -0.1304    0.1439   -0.0727   -0.0517   -0.0249   -0.0356    0.0035
          43    0.0405   -0.0437   -0.0398    0.0272    0.0577    0.0190   -0.1044    0.0063
          44    0.0181   -0.0189   -0.0163    0.0049    0.0263   -0.0047   -0.0233   -0.0030
          45   -0.0585    0.0141   -0.0020   -0.0060   -0.0559   -0.0226    0.0395   -0.0589
          46   -0.0133   -0.0317   -0.0281    0.0905   -0.0486   -0.0408   -0.0559   -0.0348
          47    0.0105   -0.0020    0.0090    0.0210   -0.0073   -0.0158   -0.0010    0.0213
          48   -0.0153    0.0114   -0.0003   -0.0526    0.0234    0.0161    0.0241   -0.0086
          49   -0.0645    0.0462    0.0400   -0.0538    0.0635    0.0525   -0.0684    0.0586
          50   -0.0168    0.0114    0.0106   -0.0212    0.0245    0.0110   -0.0171   -0.0038
          51    0.0426   -0.0157   -0.0017    0.0350   -0.0446   -0.0297    0.0464    0.0210
          52   -0.0867    0.0196    0.0155    0.0189   -0.0616    0.0110    0.0695    0.0193
          53   -0.0122    0.0136    0.0222   -0.0013   -0.0105   -0.0014    0.0420    0.0445
          54    0.0473   -0.0078   -0.0027   -0.0075    0.0302   -0.0071   -0.0666    0.0136
          55    0.0919    0.0178    0.0282    0.0575   -0.0543    0.0365    0.0361   -0.0374
          56    0.0163   -0.0163   -0.0265    0.0279   -0.0122   -0.0810    0.0095    0.1513
          57   -0.0582   -0.0030   -0.0035   -0.0306    0.0210   -0.0068   -0.0385    0.0140
          58    0.0566    0.0421    0.0505    0.0525   -0.0374    0.0795   -0.0253   -0.0554
          59    0.0095   -0.0013   -0.0079    0.0240   -0.0100   -0.0230   -0.0164    0.0417
          60   -0.0258   -0.0088   -0.0010   -0.0311    0.0039    0.0312   -0.0045   -0.1363


   Root No.       9        10        11        12        13        14        15        16

                 9 A      10 A      11 A      12 A      13 A      14 A      15 A      16 A   

                 442.3     480.8     535.2     559.0     620.3     638.7     665.9     772.7
  
           1   -0.0018   -0.0013   -0.0030    0.0034    0.0030   -0.0036    0.0172   -0.0137
           2    0.0137    0.0197   -0.0125   -0.0153   -0.0072    0.0035   -0.0036   -0.0069
           3   -0.0123   -0.0445    0.0148   -0.0248   -0.0212    0.0021    0.0296    0.0106
           4   -0.0094   -0.0178    0.0021   -0.0237   -0.0024    0.0062   -0.0381    0.0138
           5    0.0033    0.0005    0.0001   -0.0000   -0.0029    0.0014   -0.0012   -0.0015
           6    0.0008   -0.0041   -0.0001    0.0000   -0.0021    0.0002    0.0017   -0.0000
           7   -0.0316    0.0337   -0.0442    0.0067    0.0295   -0.0002    0.0563    0.0284
           8    0.0018    0.0326   -0.0317   -0.0055   -0.0053    0.0110   -0.0168    0.0109
           9    0.0289    0.0187    0.0170   -0.0435   -0.0166   -0.0009   -0.0205   -0.0203
          10    0.0387   -0.0176    0.0033    0.0424   -0.0132    0.0113    0.0150   -0.0267
          11    0.0096   -0.0229   -0.0027   -0.0552   -0.0297    0.0073    0.0450   -0.0127
          12   -0.0279   -0.0152    0.0090    0.0053   -0.0117   -0.0050    0.0133    0.0084
          13   -0.0086    0.0155    0.0163   -0.0255    0.0055   -0.0175    0.0099   -0.0160
          14   -0.0067   -0.0149    0.0114    0.0615    0.0023   -0.0002   -0.0435   -0.0013
          15    0.0090    0.0215   -0.0120    0.0156    0.0163    0.0037    0.0056    0.0131
          16   -0.0372    0.0017    0.0144    0.0242   -0.0004   -0.0059   -0.0061   -0.0279
          17   -0.0248   -0.0301    0.0149    0.0148   -0.0024   -0.0052    0.0167   -0.0125
          18    0.0217   -0.0321    0.0078    0.0611   -0.0123    0.0050    0.0170    0.0063
          19    0.0371    0.0218   -0.0207    0.0315    0.0144    0.0107   -0.0055   -0.0007
          20   -0.0012   -0.0241    0.0045    0.0243    0.0046    0.0001    0.0108   -0.0029
          21   -0.0144    0.0240    0.0103    0.0350    0.0142   -0.0087   -0.0338    0.0094
          22    0.0132    0.0005    0.0034   -0.0194   -0.0057    0.0003    0.0000    0.0004
          23    0.0126    0.0338   -0.0072   -0.0144   -0.0044    0.0045   -0.0172   -0.0011
          24    0.0091    0.0320   -0.0190   -0.0354   -0.0093    0.0060   -0.0087   -0.0035
          25   -0.0061   -0.0105    0.0011   -0.0106   -0.0006    0.0018   -0.0084   -0.0004
          26    0.0188    0.0079    0.0534   -0.0184    0.0788   -0.0278    0.0205    0.0164
          27    0.0031   -0.0596   -0.0463   -0.0292    0.0538   -0.0134   -0.0276    0.0005
          28   -0.0074   -0.0133    0.0014   -0.0155   -0.0013    0.0034   -0.0191    0.0043
          29   -0.0341   -0.0051   -0.0398    0.0096   -0.0333    0.0109   -0.0069   -0.0036
          30   -0.0106    0.0613    0.0347    0.0152   -0.0241    0.0050    0.0109    0.0002
          31   -0.0128    0.0200    0.0808   -0.0040   -0.0181   -0.0035    0.0506   -0.0197
          32   -0.0224    0.0215   -0.0391    0.0173   -0.0143   -0.0011   -0.0022    0.0263
          33   -0.0344   -0.0356    0.0298   -0.0104   -0.0319   -0.0004    0.0423    0.0247
          34   -0.0566    0.0064   -0.0326   -0.0026   -0.0761    0.0307   -0.0521    0.0079
          35    0.0211    0.0041    0.0233   -0.0054    0.0215   -0.0071    0.0071    0.0018
          36    0.0055   -0.0374   -0.0205   -0.0093    0.0143   -0.0038   -0.0060   -0.0008
          37    0.0086   -0.1031   -0.0407   -0.0536    0.0467   -0.0049   -0.0663    0.0201
          38    0.0205    0.0041    0.0240   -0.0065    0.0215   -0.0071    0.0043    0.0035
          39    0.0057   -0.0379   -0.0199   -0.0106    0.0143   -0.0032   -0.0092    0.0014
          40    0.0174    0.0381    0.0804   -0.0251    0.0206   -0.0033   -0.0226    0.0284
          41    0.0211    0.0025    0.0233   -0.0075    0.0221   -0.0067    0.0024    0.0045
          42    0.0069   -0.0380   -0.0202   -0.0095    0.0157   -0.0041   -0.0050   -0.0009
          43    0.0945   -0.0341    0.0240    0.0487   -0.0957    0.0221    0.0374    0.1590
          44    0.0286   -0.0287    0.0046   -0.0523   -0.0574    0.0109    0.0526    0.0516
          45   -0.0496    0.0314   -0.0208   -0.0164    0.0349   -0.0054   -0.0144   -0.1235
          46   -0.1212   -0.0061    0.0657   -0.0322   -0.0577   -0.0458   -0.0274    0.1565
          47   -0.0507   -0.0113    0.0302    0.0361    0.0120   -0.0232   -0.0330    0.0598
          48    0.0788   -0.0431   -0.0267    0.0684    0.0007    0.0366    0.0664   -0.1311
          49    0.0144   -0.0274    0.0961   -0.0619   -0.0653   -0.0970   -0.0626    0.0195
          50    0.0002   -0.0280    0.0362    0.0498   -0.0194   -0.0249   -0.0660    0.0098
          51   -0.0198    0.0145   -0.0450    0.0499    0.0701    0.0431    0.0907   -0.0134
          52    0.1343   -0.0017   -0.0327    0.0472   -0.0331    0.0107   -0.0174    0.1548
          53    0.0297   -0.0088   -0.0060   -0.0160    0.0053   -0.0068    0.0218    0.0542
          54   -0.0770    0.0476    0.0157    0.0069    0.0512   -0.0117   -0.0193   -0.0875
          55    0.0650   -0.0023   -0.0282   -0.0052   -0.0854   -0.2418   -0.0249   -0.0492
          56    0.0249    0.0559   -0.0113    0.0040   -0.0068   -0.1022    0.0106   -0.0220
          57   -0.0245    0.0412    0.0023   -0.0411    0.0474    0.1481    0.0183    0.0258
          58    0.0112   -0.0421    0.0964   -0.0739    0.0207    0.2532   -0.0699   -0.0186
          59    0.0114    0.0191    0.0294   -0.0345    0.0078    0.1018   -0.0425   -0.0087
          60    0.0193    0.0338   -0.0866   -0.0208   -0.0618   -0.1287   -0.0147    0.0089


   Root No.      17        18        19        20        21        22        23        24

                17 A      18 A      19 A      20 A      21 A      22 A      23 A      24 A   

                 821.2     856.2     885.6     929.4     952.7     973.9     977.5     978.8
  
           1    0.0281   -0.0027   -0.0341    0.0257    0.0100   -0.0020    0.0002   -0.0059
           2    0.0210    0.0329   -0.0203   -0.0223   -0.0165    0.0092    0.0020   -0.0047
           3   -0.0298    0.0085    0.0394    0.0262    0.0177   -0.0071    0.0012    0.0052
           4   -0.0257    0.0002    0.0266   -0.0208   -0.0091    0.0016   -0.0002    0.0040
           5    0.0012    0.0017   -0.0018   -0.0004   -0.0013   -0.0000    0.0562    0.0164
           6   -0.0017    0.0003    0.0044   -0.0019   -0.0029   -0.0199    0.0172   -0.0415
           7    0.0066   -0.0193    0.0183    0.0004    0.0067    0.0011    0.0011    0.0001
           8   -0.0093   -0.0309    0.0093    0.0131    0.0068   -0.0009    0.0003    0.0001
           9   -0.0027   -0.0205   -0.0147   -0.0072    0.0030   -0.0022   -0.0009    0.0005
          10    0.0088   -0.0178    0.0141   -0.0021   -0.0067   -0.0192   -0.0045    0.0116
          11    0.0117    0.0719    0.0093   -0.0030    0.0063   -0.0146   -0.0064    0.0078
          12    0.0034    0.0089   -0.0136   -0.0128   -0.0052    0.0130    0.0012   -0.0069
          13   -0.0180    0.0158   -0.0176   -0.0049   -0.0294   -0.0184   -0.0054    0.0143
          14   -0.0168    0.0273    0.0009    0.0086    0.0429   -0.0156   -0.0026    0.0062
          15    0.0205    0.0240    0.0105    0.0007   -0.0183    0.0184    0.0037   -0.0103
          16    0.0123   -0.0173    0.0168   -0.0036   -0.0003    0.0161    0.0026   -0.0053
          17    0.0067   -0.0397    0.0013   -0.0067   -0.0131    0.0070    0.0008   -0.0018
          18    0.0002   -0.0416   -0.0201   -0.0197   -0.0204   -0.0104   -0.0038    0.0053
          19   -0.0243    0.0542   -0.0093    0.0040    0.0012    0.0154    0.0033   -0.0127
          20   -0.0063   -0.0213   -0.0071   -0.0062   -0.0077    0.0087    0.0023   -0.0052
          21    0.0157    0.0600    0.0148    0.0129    0.0003   -0.0132   -0.0036    0.0092
          22    0.0011   -0.0144    0.0021   -0.0151    0.0296    0.0038    0.0033   -0.0023
          23   -0.0091   -0.0386    0.0025    0.0292   -0.0179    0.0001   -0.0004   -0.0002
          24   -0.0051   -0.0432   -0.0063   -0.0143    0.0248   -0.0050   -0.0007    0.0014
          25    0.0041    0.0001   -0.0089    0.0097    0.0049   -0.0010    0.0000   -0.0025
          26   -0.0087   -0.0100    0.0120   -0.0023   -0.0003   -0.0008    0.0132    0.0046
          27    0.0126   -0.0018   -0.0225    0.0082    0.0055    0.0000    0.0060   -0.0130
          28   -0.0054   -0.0000    0.0016    0.0013    0.0012   -0.0003   -0.0002   -0.0009
          29    0.0022    0.0020   -0.0016    0.0001    0.0007    0.0005   -0.0504   -0.0149
          30   -0.0029    0.0004    0.0023    0.0009    0.0019    0.0167   -0.0157    0.0378
          31    0.0380   -0.0006   -0.1180    0.1956    0.1315    0.0170    0.0185   -0.0195
          32    0.0260    0.0508   -0.0083   -0.0497   -0.0502    0.0593    0.0127   -0.0271
          33   -0.0223    0.0207    0.0153    0.0707    0.0426    0.0256    0.0131   -0.0112
          34   -0.0348    0.0108    0.0421   -0.0424   -0.0293   -0.0388    0.3156    0.0019
          35    0.0014   -0.0026   -0.0014    0.0045    0.0033   -0.0014   -0.0622   -0.0216
          36    0.0042   -0.0002   -0.0085    0.0047    0.0047    0.0244   -0.0179    0.0516
          37   -0.0271   -0.0026    0.0174   -0.0245    0.0005    0.1099   -0.1296    0.2197
          38   -0.0023   -0.0027    0.0037   -0.0003    0.0013   -0.0004   -0.0699   -0.0211
          39   -0.0008   -0.0003   -0.0014   -0.0020    0.0012    0.0226   -0.0179    0.0474
          40   -0.0498   -0.0076    0.0684   -0.0421   -0.0208   -0.0623   -0.1856   -0.1988
          41   -0.0045   -0.0027    0.0066   -0.0033   -0.0001    0.0018   -0.0670   -0.0153
          42    0.0048   -0.0004   -0.0093    0.0057    0.0052    0.0241   -0.0252    0.0486
          43   -0.0893    0.0444   -0.0737   -0.0319   -0.0021    0.1146    0.0231   -0.0590
          44   -0.0222    0.0936   -0.0210   -0.0125    0.0080    0.0317    0.0032   -0.0167
          45    0.0873    0.0684    0.0439   -0.0506   -0.0314   -0.0669   -0.0215    0.0409
          46    0.0337   -0.0191   -0.1229   -0.0532   -0.0350   -0.0935   -0.0248    0.0385
          47    0.0008   -0.0423   -0.0378    0.0096   -0.0317   -0.0154    0.0014    0.0043
          48   -0.0036   -0.0377    0.0711   -0.0128    0.0075    0.0548    0.0072   -0.0183
          49    0.1671   -0.0206    0.0737   -0.0019   -0.0441    0.1231    0.0276   -0.0734
          50    0.0406    0.0162    0.0294    0.0097    0.0391    0.0284    0.0078   -0.0211
          51   -0.0828    0.0459   -0.0555   -0.0155   -0.0838   -0.0539   -0.0150    0.0413
          52    0.1344    0.0117    0.0705    0.0288    0.0069   -0.0928   -0.0218    0.0653
          53    0.0501    0.0172    0.0210    0.0150   -0.0722   -0.0051   -0.0005    0.0125
          54   -0.0834    0.1112   -0.0353    0.0023   -0.0320    0.0647    0.0144   -0.0437
          55   -0.0450    0.0099   -0.0310   -0.0095   -0.0198   -0.0301   -0.0122    0.0164
          56   -0.0007   -0.0327   -0.0301   -0.1373    0.1554   -0.0160    0.0009    0.0055
          57    0.0306   -0.0622    0.0072   -0.0712    0.1175    0.0144    0.0110   -0.0104
          58    0.0201   -0.0120   -0.0409    0.0459   -0.0859   -0.0136   -0.0123    0.0040
          59   -0.0001   -0.0381   -0.0155    0.0426   -0.0514   -0.0069   -0.0060    0.0022
          60   -0.0540   -0.0848    0.0413    0.1526   -0.1067    0.0048   -0.0002    0.0004


   Root No.      25        26        27        28        29        30        31        32

                25 A      26 A      27 A      28 A      29 A      30 A      31 A      32 A   

                1002.0    1027.0    1035.5    1082.8    1113.7    1140.7    1156.1    1212.2
  
           1    0.0020    0.0044   -0.0087   -0.0065   -0.0389    0.0054    0.0001    0.0012
           2   -0.0101   -0.0121    0.0177   -0.0077    0.0122    0.0032   -0.0072    0.0322
           3    0.0005    0.0184    0.0231   -0.0017   -0.0227    0.0122   -0.0059    0.0183
           4   -0.0013   -0.0036    0.0053    0.0032    0.0286   -0.0053    0.0012    0.0002
           5    0.0007    0.0010   -0.0013    0.0001   -0.0004   -0.0001   -0.0000   -0.0002
           6   -0.0023   -0.0016   -0.0001    0.0002    0.0008   -0.0001    0.0000   -0.0001
           7   -0.0016    0.0281   -0.0132    0.0106    0.0108   -0.0027   -0.0095   -0.0121
           8   -0.0008    0.0115   -0.0020   -0.0005    0.0087    0.0095    0.0109    0.0181
           9    0.0027   -0.0153    0.0005   -0.0020   -0.0108   -0.0050   -0.0047   -0.0155
          10    0.0132    0.0105    0.0339    0.0072    0.0069    0.0050    0.0023    0.0072
          11    0.0192    0.0043   -0.0243   -0.0124    0.0103   -0.0107    0.0021   -0.0034
          12   -0.0061   -0.0116   -0.0320    0.0025   -0.0027    0.0100    0.0025    0.0133
          13   -0.0214   -0.0268    0.0036   -0.0093    0.0044   -0.0033    0.0026   -0.0063
          14   -0.0003   -0.0015   -0.0082    0.0242   -0.0197   -0.0095   -0.0038   -0.0044
          15    0.0104    0.0114    0.0014    0.0042    0.0071   -0.0084    0.0013   -0.0112
          16   -0.0249   -0.0179   -0.0244   -0.0027    0.0019    0.0006    0.0039    0.0087
          17   -0.0079   -0.0061   -0.0129   -0.0363    0.0167   -0.0019    0.0005   -0.0179
          18    0.0213    0.0064    0.0002   -0.0174    0.0178   -0.0001    0.0061    0.0037
          19    0.0314    0.0220   -0.0009   -0.0207    0.0084   -0.0016    0.0042    0.0011
          20    0.0041    0.0033    0.0128    0.0296   -0.0056    0.0013   -0.0009   -0.0156
          21   -0.0140   -0.0116   -0.0124   -0.0213    0.0047   -0.0014    0.0056   -0.0054
          22    0.0195   -0.0422    0.0150   -0.0058   -0.0058    0.0021    0.0028    0.0044
          23    0.0131   -0.0156   -0.0068    0.0055   -0.0067   -0.0059   -0.0040   -0.0100
          24   -0.0151    0.0280   -0.0033    0.0044   -0.0001    0.0017    0.0009    0.0024
          25    0.0010    0.0029   -0.0047   -0.0036   -0.0375    0.0083   -0.0022   -0.0009
          26    0.0016    0.0054   -0.0051   -0.0004   -0.0071   -0.0018    0.0004   -0.0058
          27   -0.0049   -0.0061    0.0001    0.0019    0.0117   -0.0033    0.0008   -0.0028
          28    0.0004    0.0013   -0.0023   -0.0022   -0.0254    0.0062   -0.0017   -0.0008
          29   -0.0012   -0.0020    0.0026   -0.0003    0.0015    0.0002   -0.0001    0.0014
          30    0.0028    0.0029    0.0008   -0.0005   -0.0029    0.0008   -0.0002    0.0007
          31   -0.0398   -0.0325    0.0780    0.0522    0.2429   -0.0223    0.0037    0.0063
          32   -0.0967    0.0183    0.2396   -0.0761   -0.1112   -0.1150    0.0305   -0.1172
          33   -0.0587    0.0206    0.1683   -0.0154    0.0130   -0.0582    0.0137   -0.0587
          34   -0.0042   -0.0070    0.0060    0.0100    0.0965   -0.0225    0.0058    0.0019
          35   -0.0005    0.0002   -0.0007   -0.0018   -0.0188    0.0047   -0.0013   -0.0006
          36    0.0029    0.0026   -0.0007   -0.0009   -0.0091    0.0022   -0.0006   -0.0003
          37    0.0090   -0.0000    0.0141    0.0082    0.0934   -0.0214    0.0058    0.0034
          38   -0.0011   -0.0014    0.0019    0.0002    0.0031   -0.0006    0.0002    0.0004
          39    0.0021    0.0004    0.0024    0.0017    0.0200   -0.0050    0.0014    0.0009
          40   -0.0130   -0.0171    0.0173    0.0092    0.1002   -0.0223    0.0060    0.0036
          41   -0.0010   -0.0019    0.0032    0.0013    0.0169   -0.0041    0.0011    0.0010
          42    0.0029    0.0027   -0.0009   -0.0013   -0.0134    0.0033   -0.0009   -0.0003
          43   -0.0791   -0.0593   -0.0560    0.1007   -0.0049    0.0860   -0.1007   -0.1050
          44   -0.0128   -0.0191   -0.0552    0.0137    0.0065    0.0141   -0.0312   -0.0384
          45    0.0433   -0.0048    0.0713    0.1632    0.0373    0.1262   -0.1600   -0.1708
          46    0.1229    0.0411    0.0025    0.0832    0.0050   -0.0905    0.1272   -0.0533
          47    0.0132    0.0250    0.0788   -0.1565    0.0307    0.1375   -0.1837    0.0753
          48   -0.0589   -0.0446   -0.0860    0.0402    0.0078   -0.0706    0.1012   -0.0451
          49    0.0633    0.0665    0.0164    0.0847   -0.0029   -0.0684   -0.0746    0.1197
          50    0.0258    0.0275   -0.0036    0.0578   -0.0238   -0.0307   -0.0280    0.0374
          51   -0.0583   -0.0731    0.0348    0.1408   -0.0439   -0.1266   -0.1276    0.2034
          52   -0.1015   -0.0650   -0.0351   -0.0291    0.0036   -0.0088   -0.0050   -0.0011
          53   -0.0640   -0.0380    0.0794    0.1086   -0.0169    0.1856    0.2448    0.0785
          54    0.0615    0.0385    0.0398    0.0159    0.0049    0.0771    0.1140    0.0355
          55   -0.0967    0.1617   -0.0361    0.0146    0.0224    0.0045   -0.0007    0.0006
          56   -0.0530    0.0658    0.0157    0.0144   -0.0012    0.0041    0.0022    0.0412
          57    0.0480   -0.0939    0.0416   -0.0068   -0.0201    0.0025    0.0046    0.0217
          58   -0.0802    0.1647   -0.0515    0.0217    0.0001   -0.0092   -0.0122   -0.0095
          59   -0.0269    0.0648   -0.0304    0.0162   -0.0041   -0.0096   -0.0090   -0.0124
          60    0.0710   -0.0958   -0.0123    0.0179   -0.0301   -0.0255   -0.0231   -0.0277


   Root No.      33        34        35        36        37        38        39        40

                33 A      34 A      35 A      36 A      37 A      38 A      39 A      40 A   

                1292.9    1312.7    1359.0    1376.3    1376.9    1394.2    1485.4    1501.7
  
           1    0.0269   -0.0353    0.0078    0.0000   -0.0003    0.0214    0.0445    0.0804
           2   -0.0283   -0.0214    0.0517   -0.0005   -0.0008   -0.0186    0.0367   -0.0423
           3   -0.0177   -0.0184    0.0336   -0.0003   -0.0001    0.0168    0.0239    0.0028
           4   -0.0138    0.0221   -0.0072   -0.0000   -0.0005   -0.0360    0.0563    0.0737
           5   -0.0000    0.0002   -0.0003   -0.0264   -0.0357    0.0003    0.0000   -0.0001
           6    0.0000   -0.0000    0.0000   -0.0352    0.0268   -0.0001    0.0001    0.0001
           7    0.0018   -0.0083   -0.0041   -0.0001   -0.0004   -0.0319    0.0320   -0.0486
           8   -0.0179    0.0039   -0.0138    0.0002    0.0007    0.0425   -0.0433    0.0582
           9   -0.0004   -0.0178   -0.0164    0.0000   -0.0003   -0.0235    0.0292   -0.0348
          10    0.0018   -0.0016   -0.0037   -0.0001   -0.0002   -0.0192   -0.0183    0.0051
          11    0.0198    0.0146   -0.0282    0.0002    0.0001   -0.0122   -0.0197    0.0050
          12    0.0157   -0.0024   -0.0157   -0.0000   -0.0004   -0.0308   -0.0311    0.0159
          13   -0.0115   -0.0023    0.0135   -0.0001   -0.0001    0.0016   -0.0320    0.0278
          14    0.0099   -0.0101   -0.0078   -0.0000   -0.0003   -0.0228    0.0187   -0.0226
          15   -0.0147   -0.0073    0.0180   -0.0002   -0.0003   -0.0092   -0.0416    0.0310
          16    0.0054    0.0016   -0.0089   -0.0000   -0.0001   -0.0138   -0.0107   -0.0018
          17   -0.0079    0.0160    0.0056    0.0002    0.0007    0.0494    0.0447   -0.0195
          18    0.0029    0.0113   -0.0107    0.0001    0.0002    0.0022    0.0040   -0.0135
          19    0.0021    0.0107   -0.0019    0.0001    0.0004    0.0197    0.0165   -0.0074
          20   -0.0127   -0.0185    0.0214   -0.0004   -0.0006   -0.0276   -0.0496    0.0364
          21   -0.0022    0.0065    0.0075    0.0000    0.0002    0.0170    0.0019    0.0072
          22   -0.0013   -0.0005   -0.0058    0.0001    0.0001    0.0069   -0.0012    0.0053
          23    0.0046   -0.0042   -0.0204    0.0002    0.0001   -0.0058    0.0096   -0.0109
          24   -0.0007   -0.0014   -0.0226    0.0002    0.0003    0.0076    0.0031   -0.0001
          25   -0.0137    0.0093    0.0014    0.0000    0.0005    0.0152   -0.0420   -0.0576
          26    0.0038    0.0015   -0.0048   -0.0000   -0.0000    0.0007   -0.0005    0.0011
          27    0.0005    0.0030   -0.0029   -0.0001    0.0001   -0.0008   -0.0018   -0.0016
          28   -0.0203    0.0185   -0.0009    0.0000    0.0005    0.0062   -0.0390   -0.0567
          29   -0.0009   -0.0006    0.0013   -0.0006   -0.0008   -0.0004    0.0005   -0.0006
          30   -0.0004   -0.0007    0.0007   -0.0008    0.0006    0.0003    0.0004    0.0001
          31   -0.0320    0.0400   -0.0076    0.0001   -0.0000   -0.0215   -0.0225   -0.0351
          32    0.0644    0.0199   -0.0741    0.0006    0.0004   -0.0098   -0.0024    0.0095
          33    0.0101    0.0294   -0.0377    0.0003    0.0006    0.0047   -0.0192   -0.0130
          34    0.0936   -0.1030    0.0191    0.1294    0.0760    0.0655   -0.0533   -0.0631
          35   -0.0306    0.0356   -0.0074   -0.1404    0.1129   -0.0302    0.0324    0.0403
          36   -0.0133    0.0160   -0.0038    0.1756   -0.3612   -0.0101    0.0129    0.0161
          37    0.0936   -0.1037    0.0179   -0.1298    0.0744    0.0661   -0.0535   -0.0633
          38    0.0045   -0.0062    0.0037    0.2038    0.3796    0.0004   -0.0039   -0.0046
          39    0.0332   -0.0388    0.0075   -0.0876   -0.0114    0.0323   -0.0346   -0.0434
          40    0.0930   -0.1027    0.0179    0.0004   -0.1509    0.0675   -0.0535   -0.0632
          41    0.0266   -0.0314    0.0075    0.2596   -0.0560    0.0255   -0.0281   -0.0350
          42   -0.0202    0.0232   -0.0030    0.3422    0.0448   -0.0207    0.0210    0.0266
          43   -0.0001    0.0096    0.0037    0.0002    0.0008    0.0669    0.0358    0.0132
          44    0.0201    0.0193   -0.0271    0.0003    0.0005    0.0154   -0.0013    0.0053
          45   -0.0022    0.0360   -0.0094    0.0006    0.0016    0.1011    0.0406    0.0082
          46   -0.0353    0.0061    0.0333    0.0001    0.0006    0.0553    0.0398   -0.0121
          47    0.0551    0.0095   -0.0587    0.0003   -0.0003   -0.0522   -0.0257   -0.0030
          48   -0.0291    0.0178    0.0202    0.0001    0.0008    0.0571    0.0419   -0.0263
          49    0.0034    0.0314   -0.0390    0.0006    0.0013    0.0586    0.0144    0.0042
          50    0.0151   -0.0007   -0.0268    0.0002    0.0001   -0.0065    0.0346   -0.0314
          51    0.0138    0.0479   -0.0773    0.0011    0.0020    0.0899    0.0386   -0.0088
          52   -0.0003    0.0096    0.0011    0.0001    0.0003    0.0214    0.0146   -0.0041
          53    0.0604    0.0290   -0.0594    0.0005    0.0004   -0.0055    0.0631   -0.0634
          54    0.0291    0.0293   -0.0274    0.0004    0.0008    0.0306    0.0520   -0.0361
          55   -0.0154   -0.0106   -0.0266    0.0002    0.0002    0.0028    0.0037   -0.0068
          56    0.1057    0.1285    0.1717   -0.0013   -0.0006    0.0113   -0.0439    0.0384
          57    0.0501    0.0560    0.0644   -0.0004   -0.0000    0.0142   -0.0168    0.0229
          58    0.0686    0.0560    0.0952   -0.0008   -0.0008   -0.0253    0.0029   -0.0073
          59    0.0299    0.0175    0.0139   -0.0002   -0.0002   -0.0144    0.0092   -0.0128
          60    0.1284    0.1075    0.1661   -0.0014   -0.0015   -0.0537    0.0053   -0.0301


   Root No.      41        42        43        44        45        46        47        48

                41 A      42 A      43 A      44 A      45 A      46 A      47 A      48 A   

                1832.1    1842.1    1872.3    2458.8    2822.9    3043.3    3051.3    3065.1
  
           1   -0.0021   -0.0115   -0.0091    0.0635    0.0223   -0.0003   -0.0002   -0.0000
           2    0.0126    0.0059   -0.0148   -0.0006    0.0323    0.0002   -0.0003   -0.0002
           3    0.0049   -0.0100   -0.0183    0.0009   -0.0625   -0.0003    0.0001    0.0002
           4   -0.0001    0.0003   -0.0003   -0.0692    0.0002    0.0000   -0.0000   -0.0000
           5    0.0000    0.0000   -0.0000    0.0001    0.0000    0.0000   -0.0000   -0.0002
           6   -0.0000    0.0000   -0.0000   -0.0000   -0.0000    0.0000   -0.0000   -0.0001
           7   -0.0119   -0.0273    0.0347    0.0018   -0.0004   -0.0002    0.0001   -0.0002
           8   -0.0745   -0.0735    0.0616   -0.0031    0.0012   -0.0001    0.0003   -0.0000
           9   -0.0693   -0.0938    0.0967   -0.0008    0.0001   -0.0003    0.0003   -0.0003
          10   -0.0156    0.0854    0.0636    0.0031   -0.0002    0.0008    0.0106    0.0086
          11    0.0103   -0.0298   -0.0216    0.0018   -0.0013   -0.0022   -0.0312   -0.0212
          12   -0.0172    0.1077    0.0806    0.0031   -0.0011    0.0000   -0.0002    0.0019
          13   -0.0500    0.0165   -0.0385   -0.0002    0.0003    0.0139   -0.0019    0.0030
          14   -0.0828    0.0187   -0.0386    0.0006   -0.0002   -0.0469    0.0070   -0.0139
          15   -0.1182    0.0358   -0.0798   -0.0002   -0.0000   -0.0010    0.0004   -0.0021
          16    0.0206   -0.0869   -0.0601   -0.0010    0.0007    0.0016    0.0099   -0.0067
          17   -0.0411    0.0766    0.0404    0.0004   -0.0002    0.0029    0.0190   -0.0077
          18    0.0105   -0.0898   -0.0681   -0.0015    0.0004    0.0037    0.0233   -0.0132
          19    0.0290    0.0056    0.0208   -0.0000   -0.0001   -0.0124   -0.0034    0.0163
          20    0.1283   -0.0437    0.0436   -0.0002    0.0002    0.0083    0.0010   -0.0063
          21    0.1075   -0.0131    0.0533    0.0000    0.0001   -0.0152   -0.0047    0.0223
          22    0.0216    0.0195   -0.0175    0.0003    0.0001    0.0001   -0.0000    0.0000
          23    0.0599    0.0615   -0.0527    0.0004    0.0000   -0.0003    0.0000   -0.0001
          24    0.0755    0.0729   -0.0636    0.0004   -0.0002   -0.0000   -0.0000    0.0000
          25    0.0002    0.0002    0.0002   -0.3874    0.0010    0.0000   -0.0001   -0.0001
          26   -0.0003   -0.0019    0.0003    0.0008    0.0001   -0.0000   -0.0001   -0.0001
          27   -0.0001   -0.0020   -0.0003   -0.0015   -0.0002   -0.0000   -0.0001   -0.0000
          28    0.0002   -0.0008    0.0008    0.3912   -0.0012   -0.0000    0.0000    0.0000
          29    0.0002    0.0001   -0.0002   -0.0003    0.0001    0.0000   -0.0000   -0.0000
          30    0.0000    0.0001   -0.0001    0.0000   -0.0002   -0.0000    0.0000   -0.0000
          31   -0.0000   -0.0013    0.0008    0.0078   -0.2682   -0.0002    0.0010    0.0009
          32   -0.0043   -0.0251    0.0075    0.0022   -0.3947   -0.0003    0.0002    0.0005
          33   -0.0031   -0.0159   -0.0012   -0.0032    0.7617    0.0005   -0.0045   -0.0035
          34   -0.0000    0.0000   -0.0001   -0.0114   -0.0000   -0.0001    0.0001    0.0008
          35   -0.0001    0.0001   -0.0001   -0.0138   -0.0000   -0.0002    0.0004    0.0021
          36    0.0001   -0.0000   -0.0001   -0.0057   -0.0000   -0.0001    0.0001    0.0009
          37    0.0000   -0.0000    0.0000   -0.0120    0.0001    0.0000   -0.0001   -0.0005
          38    0.0000   -0.0000    0.0001    0.0016    0.0000    0.0000    0.0000    0.0001
          39    0.0000   -0.0001    0.0001    0.0145   -0.0002   -0.0001    0.0004    0.0014
          40   -0.0000    0.0000    0.0000   -0.0125    0.0000    0.0000   -0.0000   -0.0003
          41    0.0001   -0.0001    0.0001    0.0117   -0.0001   -0.0000    0.0000    0.0005
          42    0.0000   -0.0000   -0.0001   -0.0091    0.0001    0.0000   -0.0000   -0.0005
          43   -0.0101    0.0056    0.0017    0.0029   -0.0041   -0.0082   -0.1232   -0.0823
          44    0.0174   -0.0781   -0.0614   -0.0001    0.0106    0.0250    0.3712    0.2433
          45   -0.0075   -0.0240   -0.0242    0.0013   -0.0040    0.0006    0.0069    0.0024
          46    0.0135   -0.0083    0.0009   -0.0005    0.0019   -0.0182   -0.1187    0.0591
          47   -0.0265   -0.0623   -0.0668   -0.0008    0.0018   -0.0313   -0.2229    0.1034
          48    0.0075   -0.0416   -0.0303   -0.0029    0.0019   -0.0412   -0.2773    0.1341
          49    0.0346   -0.0138    0.0327   -0.0006    0.0010   -0.1710    0.0250   -0.0444
          50   -0.0835    0.0113   -0.0272    0.0015   -0.0019    0.5397   -0.0800    0.1442
          51    0.0119   -0.0177    0.0418   -0.0010    0.0002   -0.0053    0.0002    0.0005
          52    0.0496    0.0033    0.0297    0.0002    0.0001    0.1529    0.0367   -0.1843
          53   -0.0582   -0.0237   -0.0493   -0.0001   -0.0000   -0.0828   -0.0168    0.0951
          54    0.0494   -0.0077    0.0231   -0.0001    0.0001    0.1968    0.0488   -0.2399
          55    0.0445    0.0410   -0.0357    0.0000   -0.0006    0.0029   -0.0007    0.0012
          56   -0.0504   -0.0452    0.0348   -0.0012    0.0014   -0.0013    0.0003   -0.0005
          57    0.0417    0.0378   -0.0359    0.0011    0.0000    0.0041   -0.0010    0.0016
          58   -0.0363   -0.0386    0.0344    0.0010    0.0005   -0.0011    0.0003   -0.0005
          59    0.0551    0.0588   -0.0514    0.0006    0.0006    0.0048   -0.0010    0.0019
          60   -0.0239   -0.0236    0.0223   -0.0005   -0.0001    0.0014   -0.0002    0.0004


   Root No.      49        50        51        52        53        54

                49 A      50 A      51 A      52 A      53 A      54 A   

                3066.7    3067.0    3075.2    3139.2    3142.2    3152.9
  
           1    0.0000   -0.0000    0.0002   -0.0000    0.0000    0.0001
           2   -0.0000    0.0000   -0.0003    0.0002   -0.0005    0.0000
           3   -0.0000   -0.0000    0.0004    0.0001   -0.0004    0.0000
           4    0.0001   -0.0001   -0.0000    0.0001    0.0001    0.0247
           5   -0.0569   -0.0026   -0.0000   -0.0000   -0.0000    0.0001
           6    0.0028   -0.0522   -0.0001    0.0000    0.0000   -0.0002
           7    0.0000    0.0000    0.0002    0.0013   -0.0000   -0.0000
           8    0.0000   -0.0000    0.0004    0.0037    0.0014   -0.0000
           9    0.0000    0.0000    0.0005    0.0046    0.0009   -0.0000
          10   -0.0001   -0.0001    0.0080    0.0000    0.0000    0.0000
          11    0.0002    0.0002   -0.0183   -0.0001   -0.0001   -0.0000
          12   -0.0000   -0.0000    0.0024    0.0000    0.0000    0.0000
          13   -0.0000   -0.0000   -0.0022   -0.0001    0.0003   -0.0000
          14    0.0001    0.0000    0.0110    0.0008    0.0005    0.0000
          15    0.0000    0.0000    0.0019    0.0002    0.0007    0.0000
          16    0.0000    0.0000   -0.0098   -0.0000   -0.0000   -0.0000
          17    0.0000    0.0001   -0.0144    0.0001   -0.0000   -0.0000
          18    0.0001    0.0001   -0.0210   -0.0000   -0.0000   -0.0000
          19   -0.0001   -0.0000   -0.0151   -0.0001   -0.0001   -0.0000
          20    0.0000    0.0000    0.0066   -0.0001   -0.0001    0.0000
          21   -0.0002   -0.0000   -0.0202   -0.0003   -0.0002   -0.0000
          22    0.0000   -0.0000   -0.0000   -0.0013   -0.0375    0.0001
          23   -0.0000    0.0000   -0.0000   -0.0402    0.0389    0.0000
          24    0.0000   -0.0000   -0.0000   -0.0282   -0.0373    0.0001
          25   -0.0000    0.0000   -0.0001   -0.0000    0.0001   -0.0006
          26   -0.0002   -0.0000   -0.0001    0.0000   -0.0000   -0.0000
          27    0.0000   -0.0002   -0.0000   -0.0000   -0.0000   -0.0000
          28   -0.0000    0.0000    0.0000   -0.0000   -0.0000    0.0001
          29   -0.0000   -0.0000   -0.0000   -0.0000   -0.0000    0.0000
          30    0.0000   -0.0000   -0.0000   -0.0000   -0.0000   -0.0000
          31   -0.0000   -0.0000    0.0010   -0.0001   -0.0003   -0.0000
          32   -0.0001   -0.0000    0.0008    0.0001   -0.0009   -0.0000
          33    0.0001    0.0001   -0.0036   -0.0001   -0.0001    0.0000
          34    0.1580    0.0701    0.0002   -0.0002   -0.0002   -0.0963
          35    0.3955    0.1867    0.0005   -0.0006   -0.0006   -0.2852
          36    0.1797    0.0535    0.0002   -0.0002   -0.0002   -0.1202
          37   -0.0135   -0.1606   -0.0002   -0.0002   -0.0002   -0.0969
          38   -0.0232    0.0562    0.0001    0.0001    0.0001    0.0384
          39    0.0403    0.4366    0.0006    0.0006    0.0006    0.3082
          40   -0.1461    0.0917    0.0002   -0.0003   -0.0003   -0.0965
          41    0.3085   -0.2123   -0.0005    0.0006    0.0008    0.2453
          42   -0.2534    0.1345    0.0004   -0.0005   -0.0006   -0.1858
          43    0.0007    0.0007   -0.0682    0.0000   -0.0001   -0.0001
          44   -0.0019   -0.0019    0.2006   -0.0000    0.0004    0.0002
          45   -0.0000   -0.0000    0.0015   -0.0000    0.0000    0.0000
          46   -0.0003   -0.0004    0.0941   -0.0001    0.0001    0.0001
          47   -0.0005   -0.0008    0.1749   -0.0002    0.0002    0.0002
          48   -0.0007   -0.0010    0.2185   -0.0002    0.0002    0.0002
          49    0.0002    0.0001    0.0329    0.0020    0.0013    0.0000
          50   -0.0008   -0.0002   -0.1070   -0.0082   -0.0015   -0.0001
          51    0.0000   -0.0000   -0.0005   -0.0009    0.0014   -0.0000
          52    0.0013    0.0004    0.1662    0.0006    0.0004    0.0001
          53   -0.0007   -0.0002   -0.0884   -0.0003   -0.0002   -0.0000
          54    0.0017    0.0005    0.2150    0.0008    0.0005    0.0001
          55   -0.0002    0.0001   -0.0011    0.2036    0.3296   -0.0008
          56    0.0001   -0.0000    0.0005   -0.1061   -0.1484    0.0004
          57   -0.0002    0.0001   -0.0016    0.2698    0.4510   -0.0011
          58    0.0000    0.0000    0.0003   -0.2027    0.1137    0.0001
          59    0.0000   -0.0000   -0.0012    0.5398   -0.3258   -0.0003
          60    0.0000   -0.0000   -0.0003    0.0113   -0.0212    0.0000


           MASS-WEIGHTED COORDINATE ANALYSIS (NORMAL COORDINATES)


   Root No.       1         2         3         4         5         6         7         8

                 1 A       2 A       3 A       4 A       5 A       6 A       7 A       8 A   

                  58.7      94.1     105.2     136.3     232.1     291.9     354.1     404.1
  
           1    0.0488   -0.0643   -0.0730   -0.1721    0.0562   -0.0669    0.1374    0.0097
           2   -0.0087   -0.1151   -0.1527   -0.0657    0.0135   -0.0650   -0.0271   -0.2859
           3   -0.1662    0.0113   -0.0169    0.1744   -0.0723   -0.0539   -0.0767    0.0643
           4    0.0489   -0.0661   -0.0753   -0.1782    0.0603   -0.0959    0.2426    0.0247
           5    0.0030    0.3301    0.3656    0.0699    0.0824   -0.1739   -0.0034   -0.0416
           6    0.3457    0.0619    0.0771   -0.3275   -0.2029   -0.0595   -0.0793    0.0077
           7    0.0657    0.1018    0.1016   -0.0546    0.1335   -0.0289   -0.1348    0.0438
           8   -0.0021   -0.0486   -0.0827   -0.0188    0.0485   -0.0740   -0.1243   -0.2620
           9   -0.0953   -0.0276   -0.0050    0.0733   -0.1481   -0.0185   -0.0330    0.2257
          10    0.1014   -0.2014   -0.1856    0.1272    0.1687    0.0359   -0.2929   -0.0086
          11    0.0645   -0.1011   -0.0862    0.0113    0.1072   -0.0661   -0.0037   -0.0451
          12   -0.2403    0.0642   -0.0134   -0.0200   -0.1947   -0.0911    0.0883   -0.1820
          13   -0.2905    0.2035    0.1747   -0.1506    0.1980    0.1318   -0.2940    0.2044
          14   -0.0675    0.0390    0.0392   -0.0798    0.0982    0.0074   -0.0596   -0.1133
          15    0.1494   -0.0682   -0.0105    0.1229   -0.1835   -0.0888    0.0897    0.1711
          16   -0.1121   -0.1433   -0.1310    0.3543   -0.2206   -0.1265   -0.1577   -0.1359
          17    0.0368   -0.0260    0.0255    0.0676   -0.0059   -0.0906    0.0852    0.0561
          18   -0.0728    0.0504   -0.0067   -0.1832    0.0752    0.0313   -0.0036   -0.0372
          19   -0.3753    0.0872    0.0675    0.1233   -0.2498    0.0136    0.1326    0.0373
          20   -0.0479    0.0481    0.0897   -0.0072   -0.0169   -0.0392    0.1771    0.0955
          21    0.1645   -0.0325   -0.0138   -0.0421    0.0853   -0.0129   -0.2656    0.0881
          22    0.3928    0.2010    0.2517    0.2589   -0.1952    0.2471   -0.0204   -0.1947
          23    0.0645   -0.0640   -0.1214    0.1260   -0.0426   -0.2512   -0.0606    0.3555
          24   -0.2389   -0.0419   -0.0138   -0.1314    0.0158    0.0496   -0.1232   -0.2150
          25    0.0481   -0.0649   -0.0738   -0.1723    0.0542   -0.0812    0.1869    0.0175
          26   -0.0317   -0.1634   -0.1903   -0.1041   -0.1671    0.3656    0.0067   -0.0947
          27   -0.0242   -0.0300   -0.0264    0.3557    0.3785    0.1171    0.0709    0.0201
          28    0.0486   -0.0654   -0.0742   -0.1747    0.0568   -0.0871    0.2093    0.0204
          29   -0.0235    0.0074    0.0134   -0.0537   -0.1657    0.5781    0.0187    0.2597
          30    0.1372   -0.0054    0.0149    0.1458    0.3771    0.1839    0.4006   -0.0463
          31   -0.0124   -0.0201   -0.0291   -0.1187   -0.0887   -0.0238    0.0812    0.0089
          32   -0.0192   -0.0140   -0.0369   -0.0224    0.0002   -0.0497   -0.0061   -0.1469
          33   -0.0657    0.0125   -0.0043    0.0226   -0.0589   -0.0331   -0.0040   -0.0151
          34   -0.0084   -0.0914   -0.0968   -0.0365    0.0169    0.1817    0.1341    0.0913
          35   -0.0115   -0.0392    0.2859    0.0219    0.0473   -0.1300   -0.0050   -0.0508
          36    0.1515    0.4090   -0.3325   -0.1135   -0.1138   -0.0353   -0.0759    0.0103
          37    0.0577    0.0055   -0.0002   -0.1536   -0.1170   -0.1181   -0.0655    0.0127
          38    0.0413    0.5377   -0.2529    0.0543    0.0482   -0.1213   -0.0011   -0.0498
          39    0.1116   -0.0274    0.0750   -0.1381   -0.1137   -0.0433   -0.0761    0.0090
          40   -0.0069    0.0282    0.0312    0.0343    0.1538   -0.1493    0.1533   -0.0809
          41   -0.0198   -0.1292    0.3704    0.0166    0.0472   -0.1331   -0.0045   -0.0510
          42    0.0859   -0.3088    0.3381   -0.1541   -0.1147   -0.0488   -0.0803    0.0077
          43    0.0849   -0.1036   -0.0935    0.0577    0.1282    0.0374   -0.2356    0.0141
          44    0.0379   -0.0446   -0.0383    0.0103    0.0584   -0.0093   -0.0526   -0.0067
          45   -0.1226    0.0333   -0.0046   -0.0126   -0.1242   -0.0445    0.0892   -0.1309
          46   -0.0278   -0.0751   -0.0660    0.1918   -0.1079   -0.0801   -0.1262   -0.0775
          47    0.0220   -0.0048    0.0211    0.0446   -0.0161   -0.0310   -0.0023    0.0474
          48   -0.0321    0.0269   -0.0008   -0.1114    0.0520    0.0315    0.0544   -0.0191
          49   -0.1350    0.1094    0.0940   -0.1140    0.1409    0.1032   -0.1544    0.1304
          50   -0.0352    0.0270    0.0248   -0.0449    0.0545    0.0216   -0.0385   -0.0085
          51    0.0892   -0.0371   -0.0040    0.0742   -0.0990   -0.0583    0.1047    0.0468
          52   -0.1816    0.0464    0.0363    0.0400   -0.1367    0.0216    0.1569    0.0429
          53   -0.0255    0.0321    0.0522   -0.0028   -0.0233   -0.0027    0.0947    0.0989
          54    0.0990   -0.0184   -0.0064   -0.0159    0.0670   -0.0140   -0.1503    0.0302
          55    0.1926    0.0421    0.0662    0.1219   -0.1207    0.0718    0.0816   -0.0831
          56    0.0340   -0.0386   -0.0622    0.0592   -0.0272   -0.1592    0.0214    0.3367
          57   -0.1219   -0.0070   -0.0081   -0.0648    0.0465   -0.0134   -0.0869    0.0311
          58    0.1186    0.0998    0.1185    0.1112   -0.0831    0.1562   -0.0572   -0.1232
          59    0.0200   -0.0031   -0.0187    0.0508   -0.0221   -0.0452   -0.0371    0.0927
          60   -0.0540   -0.0210   -0.0024   -0.0660    0.0086    0.0613   -0.0100   -0.3032


   Root No.       9        10        11        12        13        14        15        16

[...]
 FREQ.      1292.89         C  1 -- C  4         +13.2% ( 46.2%)     48.3%
 T-DIPOLE    0.1294         C  1 -- C  9         +12.2% ( 44.5%)     54.7%
 TRAVEL      0.1018         C  1 -- H 11         +10.9% ( 42.0%)      1.5%
 RED. MASS   0.4815         C  8 -- H 20          +7.6% ( 35.0%)      0.3%
 EFF. MASS   5.0280

 VIBRATION   34   34A         ATOM PAIR      ENERGY CONTRIBUTION    RADIAL
 FREQ.      1312.71         C  1 -- C  9         +11.0% ( 43.1%)     67.1%
 T-DIPOLE    0.1599         C  1 -- C  4         +10.2% ( 41.5%)     70.3%
 TRAVEL      0.0989         C  1 -- H 11         +10.2% ( 41.5%)      0.3%
 RED. MASS   0.5295         C  1 -- C  3         +10.1% ( 41.3%)     14.6%
 EFF. MASS   5.2552

 VIBRATION   35   35A         ATOM PAIR      ENERGY CONTRIBUTION    RADIAL
 FREQ.      1358.97         C  1 -- C  4         +16.0% ( 53.8%)     83.1%
 T-DIPOLE    0.1240         C  1 -- C  3         +12.8% ( 48.0%)     46.9%
 TRAVEL      0.0903         C  1 -- H 11         +12.1% ( 46.7%)      0.1%
 RED. MASS   0.9179         C  8 -- H 20         +11.8% ( 46.3%)      2.9%
 EFF. MASS   6.0848         C  8 -- H 19         +11.4% ( 45.3%)      2.3%

 VIBRATION   36   36A         ATOM PAIR      ENERGY CONTRIBUTION    RADIAL
 FREQ.      1376.35         C  2 -- H 14         +54.3% ( 63.8%)      0.0%
 T-DIPOLE    0.0550         C  2 -- H 12         +20.3% ( 39.1%)     11.5%
 TRAVEL      0.1757         C  2 -- H 13         +20.0% ( 38.7%)     11.8%
 RED. MASS   0.4273         C  2 -- C 10          +5.4% ( 20.1%)      0.0%
 EFF. MASS   1.5869

 VIBRATION   37   37A         ATOM PAIR      ENERGY CONTRIBUTION    RADIAL
 FREQ.      1376.89         C  2 -- H 13         +43.0% ( 56.8%)      1.6%
 T-DIPOLE    0.0597         C  2 -- H 12         +42.9% ( 56.7%)      1.6%
 TRAVEL      0.1756         C  2 -- H 14          +8.7% ( 25.5%)     58.1%
 RED. MASS   0.4278         C  2 -- C 10          +5.4% ( 20.1%)      0.0%
 EFF. MASS   1.5888

 VIBRATION   38   38A         ATOM PAIR      ENERGY CONTRIBUTION    RADIAL
 FREQ.      1394.21         C  6 -- C  7         +12.8% ( 52.0%)     96.0%
 T-DIPOLE    0.1555         C  1 -- C  3         +11.1% ( 48.3%)     70.4%
 TRAVEL      0.0743         C  3 -- C  5          +9.0% ( 43.6%)     43.6%
 RED. MASS   1.0661         C  6 -- H 16          +7.7% ( 40.2%)      6.0%
 EFF. MASS   8.7526

 VIBRATION   39   39A         ATOM PAIR      ENERGY CONTRIBUTION    RADIAL
 FREQ.      1485.42         C  3 -- C  5         +10.6% ( 50.2%)     91.9%
 T-DIPOLE    0.5735         C  1 -- C  9         +10.5% ( 49.8%)     78.5%
 TRAVEL      0.0646         C  2 -- C 10         +10.0% ( 48.7%)    100.0%
 RED. MASS   1.1798         C  6 -- C  7          +8.3% ( 44.3%)     99.9%
 EFF. MASS  10.8878

 VIBRATION   40   40A         ATOM PAIR      ENERGY CONTRIBUTION    RADIAL
 FREQ.      1501.68         C  1 -- C  9         +16.1% ( 62.9%)     90.9%
 T-DIPOLE    0.7477         C  1 -- C  3         +14.3% ( 59.1%)     69.2%
 TRAVEL      0.0633         C  2 -- C 10         +14.1% ( 58.7%)    100.0%
 RED. MASS   1.7787         C  3 -- C  5          +9.7% ( 48.7%)     83.3%
 EFF. MASS  11.2044

 VIBRATION   41   41A         ATOM PAIR      ENERGY CONTRIBUTION    RADIAL
 FREQ.      1832.08         C  5 -- C  7         +31.3% ( 82.7%)     99.8%
 T-DIPOLE    0.0234         C  3 -- C  8         +12.6% ( 52.5%)     99.6%
 TRAVEL      0.0556         C  6 -- C  7         +12.3% ( 51.8%)     66.2%
 RED. MASS   3.1390         C  3 -- C  5         +11.3% ( 49.8%)     82.6%
 EFF. MASS  11.9198         C  7 -- H 18         +10.3% ( 47.5%)      4.0%

 VIBRATION   42   42A         ATOM PAIR      ENERGY CONTRIBUTION    RADIAL
 FREQ.      1842.14         C  4 -- C  6         +26.2% ( 76.5%)     99.9%
 T-DIPOLE    0.2573         C  3 -- C  8         +16.0% ( 59.6%)    100.0%
 TRAVEL      0.0555         C  6 -- C  7          +9.9% ( 47.0%)     70.4%
 RED. MASS   2.7131         C  6 -- H 16          +8.1% ( 42.6%)      3.8%
 EFF. MASS  11.8999

 VIBRATION   43   43A         ATOM PAIR      ENERGY CONTRIBUTION    RADIAL
 FREQ.      1872.28         C  3 -- C  8         +16.6% ( 60.0%)     99.2%
 T-DIPOLE    0.2904         C  4 -- C  6         +16.2% ( 59.2%)     99.8%
 TRAVEL      0.0552         C  3 -- C  5         +13.1% ( 53.3%)     46.6%
 RED. MASS   1.9926         C  5 -- C  7         +10.8% ( 48.3%)     97.1%
 EFF. MASS  11.8212

 VIBRATION   44   44A         ATOM PAIR      ENERGY CONTRIBUTION    RADIAL
 FREQ.      2458.79         C  9 -- C 10         +59.9% ( 97.4%)    100.0%
 T-DIPOLE    0.5795         C  2 -- C 10         +19.8% ( 56.0%)    100.0%
 TRAVEL      0.0478         C  1 -- C  9         +19.1% ( 54.9%)    100.0%
 RED. MASS   5.6708         C  2 -- H 12          +0.2% (  5.9%)      8.3%
 EFF. MASS  12.0082

 VIBRATION   45   45A         ATOM PAIR      ENERGY CONTRIBUTION    RADIAL
 FREQ.      2822.91         C  1 -- H 11         +97.0% (100.0%)    100.0%
 T-DIPOLE    0.1135         C  1 -- C  3          +1.0% ( 10.2%)      8.2%
 TRAVEL      0.1289         C  1 -- C  4          +1.0% ( 10.2%)      7.5%
 RED. MASS   0.9294         C  1 -- C  9          +1.0% ( 10.2%)      8.4%
 EFF. MASS   1.4388

 VIBRATION   46   46A         ATOM PAIR      ENERGY CONTRIBUTION    RADIAL
 FREQ.      3043.33         C  5 -- H 17         +79.4% ( 90.5%)    100.0%
 T-DIPOLE    0.2919         C  7 -- H 18         +17.1% ( 41.9%)     99.9%
 TRAVEL      0.1222         C  5 -- C  7          +1.2% ( 11.3%)      7.4%
 RED. MASS   0.6483         C  3 -- C  5          +1.2% ( 10.9%)     19.0%
 EFF. MASS   1.4843

 VIBRATION   47   47A         ATOM PAIR      ENERGY CONTRIBUTION    RADIAL
 FREQ.      3051.25         C  4 -- H 15         +48.9% ( 71.0%)    100.0%
 T-DIPOLE    0.2360         C  6 -- H 16         +45.1% ( 68.2%)    100.0%
 TRAVEL      0.1228         C  5 -- H 17          +2.2% ( 15.2%)    100.0%
 RED. MASS   0.4329         C  7 -- H 18          +1.3% ( 11.6%)     99.6%
 EFF. MASS   1.4662

 VIBRATION   48   48A         ATOM PAIR      ENERGY CONTRIBUTION    RADIAL
 FREQ.      3065.10         C  7 -- H 18         +43.8% ( 67.3%)     99.9%
 T-DIPOLE    0.3876         C  4 -- H 15         +28.6% ( 54.4%)     99.9%
 TRAVEL      0.1186         C  6 -- H 16         +14.1% ( 38.1%)     99.7%
 RED. MASS   0.3032         C  5 -- H 17          +9.9% ( 32.0%)     99.8%
 EFF. MASS   1.5644

 VIBRATION   49   49A         ATOM PAIR      ENERGY CONTRIBUTION    RADIAL
 FREQ.      3066.69         C  2 -- H 12         +52.9% ( 75.0%)     97.5%
 T-DIPOLE    0.0518         C  2 -- H 14         +44.8% ( 69.0%)     96.3%
 TRAVEL      0.1206         C  2 -- H 13          +1.3% ( 11.9%)      9.2%
 RED. MASS   0.5111         C  2 -- C 10          +1.0% ( 10.3%)      0.0%
 EFF. MASS   1.5114

 VIBRATION   50   50A         ATOM PAIR      ENERGY CONTRIBUTION    RADIAL
 FREQ.      3066.96         C  2 -- H 13         +64.4% ( 82.8%)     98.8%
 T-DIPOLE    0.0565         C  2 -- H 14         +21.5% ( 47.8%)     88.0%
 TRAVEL      0.1206         C  2 -- H 12         +13.1% ( 37.3%)     79.2%
 RED. MASS   0.5090         C  2 -- C 10          +1.0% ( 10.3%)      0.0%
 EFF. MASS   1.5117

 VIBRATION   51   51A         ATOM PAIR      ENERGY CONTRIBUTION    RADIAL
 FREQ.      3075.23         C  6 -- H 16         +37.1% ( 61.7%)    100.0%
 T-DIPOLE    0.4110         C  7 -- H 18         +34.7% ( 59.7%)    100.0%
 TRAVEL      0.1170         C  4 -- H 15         +19.2% ( 44.4%)     99.9%
 RED. MASS   0.2987         C  5 -- H 17          +5.4% ( 23.5%)     99.7%
 EFF. MASS   1.6017

 VIBRATION   52   52A         ATOM PAIR      ENERGY CONTRIBUTION    RADIAL
 FREQ.      3139.22         C  8 -- H 20         +72.0% ( 84.9%)     98.2%
 T-DIPOLE    0.3429         C  8 -- H 19         +26.5% ( 51.5%)     87.3%
 TRAVEL      0.1242         C  3 -- C  8          +1.5% ( 12.1%)     92.2%
 RED. MASS   0.5781
 EFF. MASS   1.3924

 VIBRATION   53   53A         ATOM PAIR      ENERGY CONTRIBUTION    RADIAL
 FREQ.      3142.25         C  8 -- H 19         +71.1% ( 86.3%)     98.9%
 T-DIPOLE    0.2116         C  8 -- H 20         +27.6% ( 53.7%)     92.7%
 TRAVEL      0.1160         C  3 -- C  8          +1.3% ( 11.8%)      4.0%
 RED. MASS   0.6217
 EFF. MASS   1.5954

 VIBRATION   54   54A         ATOM PAIR      ENERGY CONTRIBUTION    RADIAL
 FREQ.      3152.89         C  2 -- H 13         +33.5% ( 55.9%)     97.2%
 T-DIPOLE    0.0974         C  2 -- H 12         +33.2% ( 55.6%)     97.1%
 TRAVEL      0.1370         C  2 -- H 14         +32.9% ( 55.3%)     97.0%
 RED. MASS   0.3271         C  2 -- C 10          +0.3% (  5.7%)    100.0%
 EFF. MASS   1.1396

      SYMMETRY NUMBER FOR POINT-GROUP C1  =  1


          SYSTEM IS A GROUND STATE



 InChI=1S/C10H10/c1-3-6-10-8-5-4-7-9(10)2/h4-5,7-8,10H,2H2,1H3


          MOLECULE IS NOT LINEAR

          THERE ARE 54 GENUINE VIBRATIONS IN THIS SYSTEM
          THIS THERMODYNAMICS CALCULATION IS LIMITED TO
          MOLECULES WHICH HAVE NO INTERNAL ROTATIONS




                    CALCULATED THERMODYNAMIC PROPERTIES
                                          *
   TEMP. (K)   PARTITION FUNCTION   H.O.F.    ENTHALPY  HEAT CAPACITY ENTROPY
                                   KCAL/MOL   CAL/MOLE    CAL/K/MOL  CAL/K/MOL


 298.00  VIB.     0.3223D+03                  4161.5608    29.8572    25.4419
         ROT.     0.7055D+06                   888.2813     2.9808    29.7420
         INT.     0.2274D+09                  5049.8421    32.8380    55.1839
         TRA.     0.1436D+28                  1480.4688     4.9680    40.5022
         TOT.                       85.635    6530.3109    37.8060    95.6860

 200.00  VIB.     0.3373D+02                  1787.4474    18.7100    15.9290
         ROT.     0.3879D+06                   596.1620     2.9808    28.5533
         INT.     0.1308D+08                  2383.6094    21.6908    44.4823
         TRA.     0.7896D+27                   993.6033     4.9680    38.5210
         TOT.                       82.482    3377.2126    26.6588    83.0033

 210.00  VIB.     0.4226D+02                  1979.9854    19.8006    16.8682
         ROT.     0.4174D+06                   625.9700     2.9808    28.6987
         INT.     0.1764D+08                  2605.9555    22.7815    45.5669
         TRA.     0.8496D+27                  1043.2834     4.9680    38.7634
         TOT.                       82.754    3649.2389    27.7495    84.3304

 220.00  VIB.     0.5300D+02                  2183.5179    20.9085    17.8148
         ROT.     0.4475D+06                   655.7781     2.9808    28.8374
         INT.     0.2372D+08                  2839.2960    23.8893    46.6522
         TRA.     0.9110D+27                  1092.9636     4.9680    38.9945
         TOT.                       83.037    3932.2596    28.8574    85.6468

 230.00  VIB.     0.6654D+02                  2398.2058    22.0313    18.7690
         ROT.     0.4784D+06                   685.5862     2.9808    28.9699
         INT.     0.3183D+08                  3083.7920    25.0121    47.7389
         TRA.     0.9738D+27                  1142.6437     4.9680    39.2154
         TOT.                       83.331    4226.4357    29.9802    86.9542

 240.00  VIB.     0.8364D+02                  2624.1859    23.1665    19.7306
         ROT.     0.5099D+06                   715.3943     2.9808    29.0968
         INT.     0.4265D+08                  3339.5802    26.1473    48.8273
         TRA.     0.1038D+28                  1192.3239     4.9680    39.4268
         TOT.                       83.636    4531.9041    31.1154    88.2541

 250.00  VIB.     0.1053D+03                  2861.5690    24.3115    20.6995
         ROT.     0.5421D+06                   745.2024     2.9808    29.2184
         INT.     0.5706D+08                  3606.7714    27.2923    49.9179
         TRA.     0.1103D+28                  1242.0041     4.9680    39.6296
         TOT.                       83.953    4848.7755    32.2603    89.5475

 260.00  VIB.     0.1326D+03                  3110.4385    25.4634    21.6754
         ROT.     0.5750D+06                   775.0105     2.9808    29.3353
         INT.     0.7624D+08                  3885.4491    28.4442    51.0107
         TRA.     0.1170D+28                  1291.6842     4.9680    39.8245
         TOT.                       84.282    5177.1333    33.4122    90.8352

 270.00  VIB.     0.1672D+03                  3370.8508    26.6196    22.6581
         ROT.     0.6085D+06                   804.8186     2.9808    29.4478
         INT.     0.1018D+09                  4175.6694    29.6004    52.1059
         TRA.     0.1239D+28                  1341.3644     4.9680    40.0120
         TOT.                       84.622    5517.0338    34.5684    92.1179

 280.00  VIB.     0.2112D+03                  3642.8349    27.7773    23.6471
         ROT.     0.6426D+06                   834.6267     2.9808    29.5562
         INT.     0.1357D+09                  4477.4616    30.7581    53.2033
         TRA.     0.1308D+28                  1391.0445     4.9680    40.1926
         TOT.                       84.973    5868.5062    35.7261    93.3960

 290.00  VIB.     0.2670D+03                  3926.3937    28.9341    24.6420
         ROT.     0.6773D+06                   864.4348     2.9808    29.6608
         INT.     0.1808D+09                  4790.8286    31.9149    54.3029
         TRA.     0.1379D+28                  1440.7247     4.9680    40.3670
         TOT.                       85.336    6231.5533    36.8829    94.6698

 300.00  VIB.     0.3378D+03                  4221.5055    30.0875    25.6424
         ROT.     0.7127D+06                   894.2429     2.9808    29.7619
         INT.     0.2408D+09                  5115.7484    33.0683    55.4043
         TRA.     0.1451D+28                  1490.4049     4.9680    40.5354
         TOT.                       85.711    6606.1533    38.0363    95.9397

 310.00  VIB.     0.4280D+03                  4528.1251    31.2353    26.6477
         ROT.     0.7486D+06                   924.0510     2.9808    29.8596
         INT.     0.3204D+09                  5452.1761    34.2161    56.5073
         TRA.     0.1524D+28                  1540.0850     4.9680    40.6983
         TOT.                       86.097    6992.2611    39.1841    97.2056

 320.00  VIB.     0.5428D+03                  4846.1859    32.3754    27.6574
         ROT.     0.7851D+06                   953.8591     2.9808    29.9543
         INT.     0.4262D+09                  5800.0450    35.3562    57.6117
         TRA.     0.1598D+28                  1589.7652     4.9680    40.8560
         TOT.                       86.494    7389.8102    40.3243    98.4677

 330.00  VIB.     0.6892D+03                  5175.6021    33.5061    28.6710
         ROT.     0.8222D+06                   983.6672     2.9808    30.0460
         INT.     0.5666D+09                  6159.2693    36.4869    58.7170
         TRA.     0.1674D+28                  1639.4454     4.9680    41.0089
         TOT.                       86.903    7798.7147    41.4549    99.7259

 340.00  VIB.     0.8758D+03                  5516.2703    34.6256    29.6879
         ROT.     0.8598D+06                  1013.4753     2.9808    30.1350
         INT.     0.7530D+09                  6529.7456    37.6064    59.8229
         TRA.     0.1750D+28                  1689.1255     4.9680    41.1572
         TOT.                       87.323    8218.8711    42.5744   100.9801

 350.00  VIB.     0.1114D+04                  5868.0717    35.7325    30.7076
         ROT.     0.8980D+06                  1043.2834     2.9808    30.2214
         INT.     0.1000D+10                  6911.3551    38.7133    60.9290
         TRA.     0.1828D+28                  1738.8057     4.9680    41.3012
         TOT.                       87.755    8650.1608    43.6813   102.2302

 360.00  VIB.     0.1418D+04                  6230.8743    36.8256    31.7296
         ROT.     0.9368D+06                  1073.0915     2.9808    30.3054
         INT.     0.1329D+10                  7303.9658    39.8064    62.0349
         TRA.     0.1907D+28                  1788.4859     4.9680    41.4412
         TOT.                       88.197    9092.4517    44.7744   103.4761

 370.00  VIB.     0.1807D+04                  6604.5345    37.9039    32.7533
         ROT.     0.9761D+06                  1102.8996     2.9808    30.3870
         INT.     0.1764D+10                  7707.4341    40.8847    63.1403
         TRA.     0.1987D+28                  1838.1660     4.9680    41.5773
         TOT.                       88.650    9545.6001    45.8527   104.7176

 380.00  VIB.     0.2305D+04                  6988.8991    38.9664    33.7782
         ROT.     0.1016D+07                  1132.7077     2.9808    30.4665
         INT.     0.2342D+10                  8121.6068    41.9472    64.2448
         TRA.     0.2068D+28                  1887.8462     4.9680    41.7098
         TOT.                       89.114   10009.4530    46.9152   105.9546

 390.00  VIB.     0.2941D+04                  7383.8070    40.0124    34.8040
         ROT.     0.1056D+07                  1162.5158     2.9808    30.5440
         INT.     0.3107D+10                  8546.3228    42.9932    65.3479
         TRA.     0.2150D+28                  1937.5263     4.9680    41.8388
         TOT.                       89.588   10483.8492    47.9612   107.1868

 400.00  VIB.     0.3757D+04                  7789.0907    41.0415    35.8300
         ROT.     0.1097D+07                  1192.3239     2.9808    30.6194
         INT.     0.4122D+10                  8981.4146    44.0223    66.4494
         TRA.     0.2233D+28                  1987.2065     4.9680    41.9646
         TOT.                       90.073   10968.6211    48.9903   108.4140

   *: NOTE: HEATS OF FORMATION ARE RELATIVE TO THE
            ELEMENTS IN THEIR STANDARD STATE AT 298K
              (=  Standard Enthalpy of Formation).

            Hvib:  Zero-point energy is not included.
                   frequencies of less than zero cm-1 are not included.
            Hrot = (3/2)RT
            Htra = (3/2)RT + pV = (5/2)RT

            Heat capacity is Cp, not Cv

          For more information, see: HTTP://OpenMOPAC.net/Manual/thermochemistry.html


           FORCE CONSTANT IN CARTESIAN COORDINATES (Millidynes/A)

    ATOM   CHEMICAL       X               Y               Z
   NUMBER   SYMBOL  FORCE CONSTANT  FORCE CONSTANT  FORCE CONSTANT

      1       C        9.849451        8.645447        8.350768
      2       C       10.117273        8.003888        8.009064
      3       C        5.647077       10.921194       11.528160
      4       C        7.356447        9.770065        9.895886
      5       C        5.219414       11.656792       10.679855
      6       C        6.906853       10.459429       10.357063
      7       C        5.439240       11.567738       10.613717
      8       C        4.718645       10.819226       10.893529
      9       C       24.641408        1.901530        1.735378
     10       C       24.754403        1.690592        1.672209
     11       H        0.915050        1.389315        3.339638
     12       H        1.140601        4.181242        1.265668
     13       H        1.144422        0.699773        4.744940
     14       H        1.148501        3.283129        2.155185
     15       H        0.950124        4.671898        0.643235
     16       H        0.947194        2.266785        3.046977
     17       H        0.886670        4.682734        0.674096
     18       H        1.977489        1.144752        3.147021
     19       H        2.005469        0.992295        3.461141
     20       H        1.022341        4.821155        0.628562

 **********************
 *                    *
 * JOB ENDED NORMALLY *
 *                    *
 **********************



 TOTAL JOB TIME:             7.23 SECONDS

 == MOPAC DONE ==
