 *******************************************************************************
 ** Site#: 14399        For non-commercial use only    Version 18.184L 64BITS **
 *******************************************************************************
 ** Cite this program as: MOPAC2016, Version: 18.184L, James J. P. Stewart,   **
 ** Stewart Computational Chemistry, web: HTTP://OpenMOPAC.net. Days left:  20**
 *******************************************************************************
 **                                                                           **
 **                                MOPAC2016                                  **
 **                                                                           **
 *******************************************************************************

                              PM3 CALCULATION RESULTS

 *******************************************************************************
 *  CALCULATION DONE:                                Thu Jun 13 15:41:42 2019  *
 *  PM3        - The PM3 Hamiltonian to be used
 *  PRECISE    - CRITERIA TO BE INCREASED BY 100 TIMES
 *  NOSYM      - POINT-GROUP SYMMETRY SET TO C1
 *  THREADS=1  - MULTI-THREADING NOT USED
 *  T=         - A TIME OF 172800.0 SECONDS REQUESTED
 *  DUMP=N     - RESTART FILE WRITTEN EVERY  7200.000 SECONDS
 *******************************************************************************
pm3  precise nosym THREADS=1
 InChI=1S/C5H6/c1-2-4-5-3-1/h1-4H,5H2

   ATOM   CHEMICAL          X               Y               Z
  NUMBER   SYMBOL      (ANGSTROMS)     (ANGSTROMS)     (ANGSTROMS)
 
     1       C         -1.09570000  *   0.30360000  *   0.00400000  *
     2       C         -0.49130000  *  -1.06150000  *  -0.01750000  *
     3       C          0.12520000  *   1.16290000  *   0.01890000  *
     4       C          0.82880000  *  -0.98230000  *  -0.01520000  *
     5       C          1.21620000  *   0.41560000  *   0.00770000  *
     6       H         -1.69890000  *   0.45570000  *   0.92370000  *
     7       H         -1.69740000  *   0.48530000  *  -0.91120000  *
     8       H         -1.04660000  *  -1.99000000  *  -0.03290000  *
     9       H          0.12700000  *   2.24480000  *   0.03630000  *
    10       H          1.50290000  *  -1.82830000  *  -0.02830000  *
    11       H          2.22970000  *   0.79410000  *   0.01460000  *
 


          CARTESIAN COORDINATES 

    NO.       ATOM           X           Y           Z

     1         C         -1.0957      0.3036      0.0040
     2         C         -0.4913     -1.0615     -0.0175
     3         C          0.1252      1.1629      0.0189
     4         C          0.8288     -0.9823     -0.0152
     5         C          1.2162      0.4156      0.0077
     6         H         -1.6989      0.4557      0.9237
     7         H         -1.6974      0.4853     -0.9112
     8         H         -1.0466     -1.9900     -0.0329
     9         H          0.1270      2.2448      0.0363
    10         H          1.5029     -1.8283     -0.0283
    11         H          2.2297      0.7941      0.0146

  H: (PM3): J. J. P. STEWART, J. COMP. CHEM. 10, 209 (1989).
  C: (PM3): J. J. P. STEWART, J. COMP. CHEM. 10, 209 (1989).

           Empirical Formula: C5 H6  =    11 atoms



      MOLECULAR POINT GROUP   :   C1  


      RHF CALCULATION, NO. OF DOUBLY OCCUPIED LEVELS = 13


          Geometry optimization using EF

          DIAGONAL MATRIX USED AS START HESSIAN

 CYCLE:     1 TIME:   0.012 TIME LEFT:  2.00D  GRAD.:   101.556 HEAT:  34.82055
 CYCLE:     2 TIME:   0.031 TIME LEFT:  2.00D  GRAD.:    41.386 HEAT:  33.35842
 CYCLE:     3 TIME:   0.016 TIME LEFT:  2.00D  GRAD.:    25.025 HEAT:  32.67056
 CYCLE:     4 TIME:   0.023 TIME LEFT:  2.00D  GRAD.:    50.229 HEAT:  32.67002
 CYCLE:     5 TIME:   0.023 TIME LEFT:  2.00D  GRAD.:    34.251 HEAT:  32.26717
 CYCLE:     6 TIME:   0.027 TIME LEFT:  2.00D  GRAD.:    16.196 HEAT:  31.99515
 CYCLE:     7 TIME:   0.020 TIME LEFT:  2.00D  GRAD.:    14.651 HEAT:  31.88813
 CYCLE:     8 TIME:   0.023 TIME LEFT:  2.00D  GRAD.:    21.995 HEAT:  31.85429
 CYCLE:     9 TIME:   0.027 TIME LEFT:  2.00D  GRAD.:    12.836 HEAT:  31.75541
 CYCLE:    10 TIME:   0.016 TIME LEFT:  2.00D  GRAD.:    11.954 HEAT:  31.74472
 CYCLE:    11 TIME:   0.023 TIME LEFT:  2.00D  GRAD.:     9.020 HEAT:  31.72098
 CYCLE:    12 TIME:   0.027 TIME LEFT:  2.00D  GRAD.:     3.657 HEAT:  31.70480
 CYCLE:    13 TIME:   0.020 TIME LEFT:  2.00D  GRAD.:     2.178 HEAT:  31.70164
 CYCLE:    14 TIME:   0.023 TIME LEFT:  2.00D  GRAD.:     2.294 HEAT:  31.70025
 CYCLE:    15 TIME:   0.023 TIME LEFT:  2.00D  GRAD.:     1.593 HEAT:  31.69892
 CYCLE:    16 TIME:   0.023 TIME LEFT:  2.00D  GRAD.:     0.854 HEAT:  31.69768
 CYCLE:    17 TIME:   0.023 TIME LEFT:  2.00D  GRAD.:     0.462 HEAT:  31.69708
 CYCLE:    18 TIME:   0.023 TIME LEFT:  2.00D  GRAD.:     0.548 HEAT:  31.69710
 CYCLE:    19 TIME:   0.020 TIME LEFT:  2.00D  GRAD.:     0.143 HEAT:  31.69692
 CYCLE:    20 TIME:   0.023 TIME LEFT:  2.00D  GRAD.:     0.095 HEAT:  31.69690
 CYCLE:    21 TIME:   0.023 TIME LEFT:  2.00D  GRAD.:     0.069 HEAT:  31.69688
 CYCLE:    22 TIME:   0.023 TIME LEFT:  2.00D  GRAD.:     0.044 HEAT:  31.69687

     GRADIENT =  0.04402  IS LESS THAN CUTOFF =  0.05000



 -------------------------------------------------------------------------------
 pm3  precise nosym THREADS=1
 InChI=1S/C5H6/c1-2-4-5-3-1/h1-4H,5H2



     GEOMETRY OPTIMISED USING EIGENVECTOR FOLLOWING (EF).     
     SCF FIELD WAS ACHIEVED                                   


                              PM3 CALCULATION
                                                       MOPAC2016 (Version: 18.184L)
                                                       Thu Jun 13 15:41:43 2019
                                                       No. of days remaining =  20




          FINAL HEAT OF FORMATION =         31.69687 KCAL/MOL =     132.61972 KJ/MOL


          TOTAL ENERGY            =       -683.82364 EV
          ELECTRONIC ENERGY       =      -2535.10800 EV  POINT GROUP:     C1  
          CORE-CORE REPULSION     =       1851.28435 EV
          COSMO AREA              =        108.82 SQUARE ANGSTROMS
          COSMO VOLUME            =         95.33 CUBIC ANGSTROMS

          GRADIENT NORM           =          0.04402 = 0.01327 PER ATOM
          IONIZATION POTENTIAL    =          9.232541 EV
          HOMO LUMO ENERGIES (EV) =         -9.233  0.324
          NO. OF FILLED LEVELS    =         13
          MOLECULAR WEIGHT        =         66.1024

          MOLECULAR DIMENSIONS (Angstroms)

            Atom       Atom       Distance
            H     9    H     8     4.40786
            H    10    H     6     3.88262
            H     6    H     7     1.73117


          SCF CALCULATIONS        =         28
 
          WALL-CLOCK TIME         =          0.559 SECONDS
          COMPUTATION TIME        =          0.134 SECONDS




   ATOM   CHEMICAL          X               Y               Z
  NUMBER   SYMBOL      (ANGSTROMS)     (ANGSTROMS)     (ANGSTROMS)
 
     1       C         -1.09293142  *   0.30280238  *   0.00403433  *
     2       C         -0.50398210  *  -1.07900901  *  -0.01782780  *
     3       C          0.12329758  *   1.18441436  *   0.01918835  *
     4       C          0.84578570  *  -0.99404672  *  -0.01534449  *
     5       C          1.23683001  *   0.41695257  *   0.00774355  *
     6       H         -1.72584977  *   0.46369250  *   0.89548250  *
     7       H         -1.72444323  *   0.49238299  *  -0.88273411  *
     8       H         -1.11659710  *  -1.97730965  *  -0.03278072  *
     9       H          0.06065887  *   2.26986071  *   0.03668039  *
    10       H          1.56161292  *  -1.81331201  *  -0.02802579  *
    11       H          2.27225542  *   0.75109352  *   0.01394387  *

                             CARTESIAN COORDINATES

   1    C       -1.092931417     0.302802385     0.004034328
   2    C       -0.503982099    -1.079009012    -0.017827800
   3    C        0.123297583     1.184414363     0.019188350
   4    C        0.845785703    -0.994046719    -0.015344489
   5    C        1.236830008     0.416952573     0.007743552
   6    H       -1.725849771     0.463692501     0.895482496
   7    H       -1.724443234     0.492382992    -0.882734108
   8    H       -1.116597103    -1.977309646    -0.032780724
   9    H        0.060658874     2.269860714     0.036680387
  10    H        1.561612920    -1.813312009    -0.028025795
  11    H        2.272255416     0.751093515     0.013943865


           Empirical Formula: C5 H6  =    11 atoms



      MOLECULAR POINT GROUP   :   C1  


                  EIGENVALUES  
 -39.37576 -27.31570 -27.21200 -19.28026 -18.49228 -18.05821 -14.94425 -13.92837
 -13.65350 -12.95474 -12.78542 -10.91901  -9.23254   0.32421   2.02171   3.36551
   3.39572   3.84113   3.86337   4.24314   4.33345   4.39052   4.68059   5.75886
   5.79244   6.15756


              NET ATOMIC CHARGES AND DIPOLE CONTRIBUTIONS

  ATOM NO.   TYPE          CHARGE      No. of ELECS.   s-Pop       p-Pop       
    1          C          -0.052440        4.0524     1.14596     2.90648
    2          C          -0.162609        4.1626     1.20758     2.95503
    3          C          -0.162624        4.1626     1.20758     2.95504
    4          C          -0.121292        4.1213     1.19248     2.92881
    5          C          -0.121323        4.1213     1.19249     2.92883
    6          H           0.081635        0.9184     0.91837
    7          H           0.081628        0.9184     0.91837
    8          H           0.115023        0.8850     0.88498
    9          H           0.115017        0.8850     0.88498
   10          H           0.113490        0.8865     0.88651
   11          H           0.113495        0.8865     0.88651
 DIPOLE           X         Y         Z       TOTAL
 POINT-CHG.    -0.487     0.135     0.002     0.505
 HYBRID        -0.027     0.008     0.000     0.028
 SUM           -0.514     0.143     0.002     0.534


          ATOMIC ORBITAL ELECTRON POPULATIONS

     Atom    s        px        py        pz   
    1  C   1.14596   0.96702   0.93139   1.00807
    2  C   1.20758   0.96482   0.97153   1.01868
    3  C   1.20758   0.95588   0.98049   1.01867
    4  C   1.19248   0.95681   0.95919   1.01281
    5  C   1.19249   0.97452   0.94150   1.01282
    6  H   0.91837
    7  H   0.91837
    8  H   0.88498
    9  H   0.88498
   10  H   0.88651
   11  H   0.88651
 *******************************************************************************
 ** Site#: 14399        For non-commercial use only    Version 18.184L 64BITS **
 *******************************************************************************
 ** Cite this program as: MOPAC2016, Version: 18.184L, James J. P. Stewart,   **
 ** Stewart Computational Chemistry, web: HTTP://OpenMOPAC.net. Days left:  20**
 *******************************************************************************
 **                                                                           **
 **                                MOPAC2016                                  **
 **                                                                           **
 *******************************************************************************

                              PM3 CALCULATION RESULTS

 *******************************************************************************
 *  CALCULATION DONE:                                Thu Jun 13 15:41:43 2019  *
 *  PM3        - The PM3 Hamiltonian to be used
 *  OLDGEO     - PREVIOUS GEOMETRY TO BE USED
 *  PRECISE    - CRITERIA TO BE INCREASED BY 100 TIMES
 *  NOSYM      - POINT-GROUP SYMMETRY SET TO C1
 *  THREADS=1  - MULTI-THREADING NOT USED
 *  T=         - A TIME OF 172800.0 SECONDS REQUESTED
 *  DUMP=N     - RESTART FILE WRITTEN EVERY  7200.000 SECONDS
 *  THERMO     - THERMODYNAMIC QUANTITIES TO BE CALCULATED
 *******************************************************************************
oldgeo thermo nosym precise THREADS=1  pm3
 InChI=1S/C5H6/c1-2-4-5-3-1/h1-4H,5H2

   ATOM   CHEMICAL          X               Y               Z
  NUMBER   SYMBOL      (ANGSTROMS)     (ANGSTROMS)     (ANGSTROMS)
 
     1       C         -1.09293142  *   0.30280238  *   0.00403433  *
     2       C         -0.50398210  *  -1.07900901  *  -0.01782780  *
     3       C          0.12329758  *   1.18441436  *   0.01918835  *
     4       C          0.84578570  *  -0.99404672  *  -0.01534449  *
     5       C          1.23683001  *   0.41695257  *   0.00774355  *
     6       H         -1.72584977  *   0.46369250  *   0.89548250  *
     7       H         -1.72444323  *   0.49238299  *  -0.88273411  *
     8       H         -1.11659710  *  -1.97730965  *  -0.03278072  *
     9       H          0.06065887  *   2.26986071  *   0.03668039  *
    10       H          1.56161292  *  -1.81331201  *  -0.02802579  *
    11       H          2.27225542  *   0.75109352  *   0.01394387  *
 


          CARTESIAN COORDINATES 

    NO.       ATOM           X           Y           Z

     1         C         -1.0929      0.3028      0.0040
     2         C         -0.5040     -1.0790     -0.0178
     3         C          0.1233      1.1844      0.0192
     4         C          0.8458     -0.9940     -0.0153
     5         C          1.2368      0.4170      0.0077
     6         H         -1.7258      0.4637      0.8955
     7         H         -1.7244      0.4924     -0.8827
     8         H         -1.1166     -1.9773     -0.0328
     9         H          0.0607      2.2699      0.0367
    10         H          1.5616     -1.8133     -0.0280
    11         H          2.2723      0.7511      0.0139

  H: (PM3): J. J. P. STEWART, J. COMP. CHEM. 10, 209 (1989).
  C: (PM3): J. J. P. STEWART, J. COMP. CHEM. 10, 209 (1989).

           Empirical Formula: C5 H6  =    11 atoms



      MOLECULAR POINT GROUP   :   C1  


      RHF CALCULATION, NO. OF DOUBLY OCCUPIED LEVELS = 13



          HEAT OF FORMATION =      31.696873 KCALS/MOLE


          CARTESIAN COORDINATE DERIVATIVES

   NUMBER  ATOM         X            Y            Z

     1       C      0.006206    -0.003451    -0.000363
     2       C      0.009257     0.000847    -0.012074
     3       C     -0.004505    -0.017276    -0.014152
     4       C     -0.001706    -0.001083     0.005544
     5       C     -0.004095    -0.001512     0.008249
     6       H     -0.009651    -0.003213     0.003842
     7       H     -0.002773     0.005686     0.006896
     8       H     -0.000065    -0.008177     0.003119
     9       H      0.014134     0.011747     0.003101
    10       H     -0.005896     0.008352    -0.002223
    11       H     -0.000905     0.008080    -0.001939
 


          GRADIENT NORM =   0.04163


          TIME FOR SCF CALCULATION =    0.02

          TIME FOR DERIVATIVES     =    0.01

          MOLECULAR WEIGHT =   66.10



          ROTATIONAL CONSTANTS IN CM(-1)

          A =    0.27932630   B =    0.27648742   C =    0.14269940



           PRINCIPAL MOMENTS OF INERTIA IN UNITS OF 10**(-40)*GRAM-CM**2

          A =      100.2153   B =      101.2443   C =      196.1660


          ORIENTATION OF MOLECULE IN FORCE CALCULATION

    NO.       ATOM         X         Y         Z

     1          C      -0.7720   -0.9682   -0.0000
     2          C       0.7302   -0.9682   -0.0000
     3          C      -1.1064    0.4964   -0.0000
     4          C       1.1812    0.3069    0.0001
     5          C       0.0363    1.2199    0.0001
     6          H      -1.1811   -1.4811    0.8892
     7          H      -1.1811   -1.4810   -0.8893
     8          H       1.3165   -1.8840   -0.0000
     9          H      -2.1296    0.8644   -0.0000
    10          H       2.2156    0.6442    0.0001
    11          H       0.1348    2.3034    0.0001


    FIRST DERIVATIVES WILL BE USED IN THE CALCULATION OF SECOND DERIVATIVES

          ESTIMATED TIME TO COMPLETE CALCULATION =        3.61 SECONDS

    FOR POINT-GROUP C1   THERE ARE   1 UNIQUE SYMMETRY FUNCTIONS.

 STEP:   1 TIME =     0.02 SECS, INTEGRAL =      0.02 TIME LEFT: 172799.95
 STEP:   2 TIME =     0.02 SECS, INTEGRAL =      0.04 TIME LEFT: 172799.93
 STEP:   3 TIME =     0.02 SECS, INTEGRAL =      0.06 TIME LEFT: 172799.91
 STEP:   4 TIME =     0.02 SECS, INTEGRAL =      0.08 TIME LEFT: 172799.89
 STEP:   5 TIME =     0.02 SECS, INTEGRAL =      0.10 TIME LEFT: 172799.88
 STEP:   6 TIME =     0.02 SECS, INTEGRAL =      0.12 TIME LEFT: 172799.86
 STEP:   7 TIME =     0.02 SECS, INTEGRAL =      0.14 TIME LEFT: 172799.84
 STEP:   8 TIME =     0.02 SECS, INTEGRAL =      0.16 TIME LEFT: 172799.82
 STEP:   9 TIME =     0.02 SECS, INTEGRAL =      0.18 TIME LEFT: 172799.79
 STEP:  10 TIME =     0.02 SECS, INTEGRAL =      0.20 TIME LEFT: 172799.77
 STEP:  11 TIME =     0.02 SECS, INTEGRAL =      0.22 TIME LEFT: 172799.75
 STEP:  12 TIME =     0.02 SECS, INTEGRAL =      0.24 TIME LEFT: 172799.73
 STEP:  13 TIME =     0.02 SECS, INTEGRAL =      0.26 TIME LEFT: 172799.71
 STEP:  14 TIME =     0.02 SECS, INTEGRAL =      0.28 TIME LEFT: 172799.69
 STEP:  15 TIME =     0.02 SECS, INTEGRAL =      0.30 TIME LEFT: 172799.67
 STEP:  16 TIME =     0.02 SECS, INTEGRAL =      0.32 TIME LEFT: 172799.65
 STEP:  17 TIME =     0.02 SECS, INTEGRAL =      0.34 TIME LEFT: 172799.63
 STEP:  18 TIME =     0.02 SECS, INTEGRAL =      0.37 TIME LEFT: 172799.61
 STEP:  19 TIME =     0.02 SECS, INTEGRAL =      0.39 TIME LEFT: 172799.59
 STEP:  20 TIME =     0.02 SECS, INTEGRAL =      0.41 TIME LEFT: 172799.57
 STEP:  21 TIME =     0.02 SECS, INTEGRAL =      0.43 TIME LEFT: 172799.55
 STEP:  22 TIME =     0.02 SECS, INTEGRAL =      0.45 TIME LEFT: 172799.53
 STEP:  23 TIME =     0.02 SECS, INTEGRAL =      0.46 TIME LEFT: 172799.51
 STEP:  24 TIME =     0.02 SECS, INTEGRAL =      0.49 TIME LEFT: 172799.48
 STEP:  25 TIME =     0.02 SECS, INTEGRAL =      0.51 TIME LEFT: 172799.46
 STEP:  26 TIME =     0.02 SECS, INTEGRAL =      0.53 TIME LEFT: 172799.45
 STEP:  27 TIME =     0.02 SECS, INTEGRAL =      0.55 TIME LEFT: 172799.43
 STEP:  28 TIME =     0.02 SECS, INTEGRAL =      0.57 TIME LEFT: 172799.40
 STEP:  29 TIME =     0.02 SECS, INTEGRAL =      0.59 TIME LEFT: 172799.38
 STEP:  30 TIME =     0.02 SECS, INTEGRAL =      0.61 TIME LEFT: 172799.36
 STEP:  31 TIME =     0.03 SECS, INTEGRAL =      0.64 TIME LEFT: 172799.34
 STEP:  32 TIME =     0.02 SECS, INTEGRAL =      0.66 TIME LEFT: 172799.31
 STEP:  33 TIME =     0.02 SECS, INTEGRAL =      0.68 TIME LEFT: 172799.29

(To convert to Hartree/Bohr^2, multiply by (10^(-21) x N x a0^2)/(4.184 x 627.51) =  0.0642)


           FORCE MATRIX IN MILLIDYNES/ANGSTROM


                  C  1       C  2       C  3       C  4       C  5       H  6
 ------------------------------------------------------------------------------
     C    1  14.880020
     C    2   4.400343  17.883867
     C    3   4.399534   1.127018  17.883993
     C    4   1.256100   9.661430   1.609724  18.252884
     C    5   1.256695   1.610853   9.663084   5.143817  18.253040
     H    6   4.517065   0.416155   0.416146   0.047167   0.047115   5.123509
     H    7   4.517644   0.416152   0.416123   0.047161   0.047090   0.548804
     H    8   0.402297   5.087468   0.043616   0.444179   0.101511   0.011158
     H    9   0.402549   0.043736   5.087804   0.101365   0.444221   0.011180
     H   10   0.116751   0.446949   0.050100   5.074096   0.420339   0.015977
     H   11   0.116814   0.050384   0.447424   0.420505   5.073469   0.015895


                  H  7       H  8       H  9       H 10       H 11
 ------------------------------------------------------------------
     H    7   5.123994
     H    8   0.011156   5.486634
     H    9   0.011183   0.010730   5.486838
     H   10   0.015992   0.042151   0.005451   5.465377
     H   11   0.015912   0.005535   0.042165   0.009575   5.464830


          HEAT OF FORMATION =      31.696873 KCALS/MOLE

          ZERO POINT ENERGY      58.169 KCAL/MOL


           NORMAL COORDINATE ANALYSIS (Total motion = 1 Angstrom)


   Root No.       1         2         3         4         5         6         7         8

                 1 A       2 A       3 A       4 A       5 A       6 A       7 A       8 A   

                 342.9     478.4     708.9     791.3     798.0     825.0     874.7     960.7
  
           1    0.0000   -0.0000    0.0000   -0.0000    0.0656    0.0483   -0.0000    0.0000
           2    0.0000    0.0000    0.0000   -0.0000    0.0822   -0.0386   -0.0000   -0.0000
           3   -0.0374   -0.0000   -0.0294    0.0000    0.0000    0.0000    0.0578   -0.0000
           4    0.0000    0.0000    0.0000   -0.0000    0.0711    0.0001   -0.0000   -0.0000
           5   -0.0000    0.0000   -0.0000    0.0000   -0.0673   -0.0776    0.0000   -0.0000
           6    0.0514   -0.0420   -0.0048    0.0297   -0.0000   -0.0000   -0.0126    0.0077
           7   -0.0000   -0.0000   -0.0000   -0.0000   -0.0813    0.0759    0.0000    0.0000
           8    0.0000   -0.0000    0.0000    0.0000    0.0545    0.0171   -0.0000    0.0000
           9    0.0514    0.0420   -0.0048   -0.0297   -0.0000    0.0000   -0.0126   -0.0077
          10   -0.0000    0.0000   -0.0000    0.0000   -0.0218   -0.1292    0.0000   -0.0000
          11    0.0000    0.0000   -0.0000    0.0000   -0.0474   -0.0255    0.0000   -0.0000
          12   -0.0270    0.0649   -0.0138    0.0245   -0.0000    0.0000   -0.0276   -0.0456
          13    0.0000    0.0000   -0.0000    0.0000   -0.0414   -0.0038   -0.0000   -0.0000
          14   -0.0000   -0.0000   -0.0000   -0.0000   -0.0317    0.1317    0.0000    0.0000
          15   -0.0270   -0.0650   -0.0137   -0.0245   -0.0000   -0.0000   -0.0276    0.0456
          16   -0.0922    0.0551    0.0728   -0.0664    0.0789    0.0142   -0.0913   -0.1408
          17   -0.1155   -0.0440    0.0912    0.0530    0.0989   -0.0115   -0.1146    0.1123
          18   -0.1502   -0.0000    0.0617    0.0000    0.0120   -0.0000   -0.0562    0.0000
          19    0.0922   -0.0552   -0.0728    0.0665    0.0790    0.0142    0.0913    0.1408
          20    0.1155    0.0440   -0.0912   -0.0530    0.0989   -0.0115    0.1146   -0.1123
          21   -0.1502   -0.0000    0.0617    0.0000   -0.0120    0.0000   -0.0562    0.0000
          22    0.0000   -0.0000    0.0000   -0.0000    0.0297    0.1014   -0.0000    0.0000
          23   -0.0000    0.0000   -0.0000    0.0000   -0.0953   -0.0145   -0.0000    0.0000
          24    0.1376   -0.0976    0.1912   -0.2573   -0.0001   -0.0000   -0.0415   -0.0634
          25   -0.0000   -0.0000   -0.0000   -0.0000   -0.0996    0.0369    0.0000   -0.0000
          26    0.0000   -0.0000    0.0000    0.0000    0.0075   -0.0959   -0.0000   -0.0000
          27    0.1376    0.0978    0.1911    0.2575   -0.0000    0.0001   -0.0417    0.0634
          28   -0.0000    0.0000   -0.0000    0.0000   -0.0528   -0.1140    0.0000   -0.0000
          29    0.0000   -0.0000    0.0000   -0.0000    0.0464   -0.0792   -0.0000   -0.0000
          30   -0.0547    0.2248    0.1437   -0.1033    0.0000   -0.0000    0.2325    0.2032
          31    0.0000    0.0000    0.0000    0.0000    0.0573    0.0519   -0.0000    0.0000
          32   -0.0000   -0.0000   -0.0000   -0.0000   -0.0410    0.1288    0.0000    0.0000
          33   -0.0545   -0.2248    0.1436    0.1035    0.0000    0.0000    0.2324   -0.2032


   Root No.       9        10        11        12        13        14        15        16

                 9 A      10 A      11 A      12 A      13 A      14 A      15 A      16 A   

                 985.7    1011.1    1021.5    1036.4    1088.5    1091.0    1206.8    1219.3
  
           1   -0.0000   -0.0263    0.0181    0.0000    0.0027   -0.0015   -0.0329    0.0240
           2   -0.0000   -0.0333   -0.0140   -0.0000   -0.0019   -0.0023   -0.0412   -0.0192
           3    0.0451   -0.0000    0.0000    0.0000    0.0000    0.0000   -0.0000   -0.0000
           4    0.0000    0.0255   -0.0326   -0.0000    0.0040   -0.0101    0.0558    0.0221
           5   -0.0000   -0.0057    0.0213    0.0000   -0.0150    0.0056   -0.0167    0.0127
           6   -0.0539    0.0000   -0.0000    0.0422    0.0000   -0.0000    0.0000   -0.0000
           7    0.0000   -0.0117   -0.0278   -0.0000    0.0145    0.0100   -0.0286   -0.0075
           8    0.0000    0.0240    0.0267    0.0000    0.0004   -0.0087    0.0509   -0.0242
           9   -0.0539    0.0000    0.0000   -0.0422   -0.0000   -0.0000    0.0000    0.0000
          10   -0.0000   -0.0207   -0.0028   -0.0000   -0.0038   -0.0049    0.0515   -0.0099
          11   -0.0000    0.0057   -0.0040   -0.0000   -0.0005    0.0092   -0.0073    0.0232
          12    0.0262   -0.0000    0.0000   -0.0318   -0.0000    0.0000    0.0000    0.0000
          13   -0.0000    0.0102    0.0032    0.0000   -0.0015    0.0098   -0.0184   -0.0250
          14   -0.0000   -0.0188    0.0039    0.0000    0.0041   -0.0021    0.0485    0.0048
          15    0.0262   -0.0000   -0.0000    0.0318    0.0000    0.0000    0.0000    0.0000
          16   -0.0617   -0.0341    0.1970    0.1931    0.0650   -0.0005   -0.1046   -0.0842
          17   -0.0773   -0.0458   -0.1566   -0.1541   -0.0512   -0.0101   -0.1316    0.0667
          18   -0.0320   -0.0110    0.0001   -0.0000    0.0002   -0.0025   -0.0749   -0.0002
          19    0.0617   -0.0341    0.1974   -0.1928    0.0649   -0.0005   -0.1046   -0.0841
          20    0.0773   -0.0458   -0.1568    0.1538   -0.0511   -0.0101   -0.1316    0.0666
          21   -0.0320    0.0110   -0.0001   -0.0000   -0.0002    0.0025    0.0749    0.0002
          22    0.0001    0.1984   -0.0536   -0.0000   -0.1686   -0.1726   -0.0633   -0.1397
          23    0.0000    0.1058    0.0073    0.0000   -0.1275   -0.0980   -0.0990   -0.0916
          24    0.1936   -0.0000    0.0001   -0.0938   -0.0000    0.0000   -0.0000    0.0000
          25    0.0000    0.0587   -0.0202   -0.0000    0.0927   -0.0433   -0.0828    0.0579
          26    0.0001    0.2178    0.0466    0.0000    0.2132   -0.1592   -0.0847    0.1563
          27    0.1934   -0.0000   -0.0001    0.0939    0.0000    0.0000   -0.0000    0.0000
          28   -0.0000   -0.0612    0.0392    0.0001   -0.0530   -0.0931    0.0591    0.0471
          29    0.0000    0.1330   -0.1359   -0.0002    0.1490    0.2822   -0.0148   -0.1529
          30   -0.0999    0.0000   -0.0001    0.0852    0.0000   -0.0000   -0.0000   -0.0000
          31   -0.0000    0.1458    0.1395    0.0002   -0.1898    0.2694   -0.0291    0.1590
          32   -0.0000   -0.0302   -0.0075   -0.0000    0.0215   -0.0250    0.0545   -0.0115
          33   -0.0999    0.0000    0.0001   -0.0854   -0.0000   -0.0000   -0.0000   -0.0000


   Root No.      17        18        19        20        21        22        23        24

                17 A      18 A      19 A      20 A      21 A      22 A      23 A      24 A   

                1351.0    1363.3    1419.4    1717.9    1782.7    2985.4    3053.7    3133.6
  
           1    0.1114   -0.0490   -0.0288   -0.0093   -0.0003    0.0000   -0.0259   -0.0001
           2   -0.0890   -0.0613   -0.0360   -0.0116    0.0002    0.0000   -0.0325    0.0001
           3    0.0000   -0.0000    0.0000   -0.0000    0.0000   -0.0610   -0.0001   -0.0000
           4   -0.0775    0.0094    0.0501    0.0507   -0.0544    0.0000   -0.0012   -0.0077
           5    0.0161   -0.0070    0.0097    0.1312   -0.1101   -0.0000    0.0006    0.0111
           6   -0.0000    0.0000   -0.0000    0.0000   -0.0000   -0.0003   -0.0000   -0.0000
           7   -0.0329   -0.0089   -0.0017    0.1165    0.0954   -0.0000    0.0008   -0.0129
           8    0.0720    0.0075    0.0509    0.0784    0.0777    0.0000   -0.0011    0.0052
           9    0.0000    0.0000   -0.0000    0.0000    0.0000   -0.0003   -0.0000    0.0000
          10    0.0191    0.0414   -0.0723   -0.0328    0.0406    0.0000   -0.0004    0.0238
          11   -0.0145   -0.0164    0.0577   -0.1252    0.1244   -0.0000    0.0003    0.0083
          12    0.0000    0.0000    0.0000   -0.0000    0.0000   -0.0002   -0.0000    0.0000
          13    0.0184   -0.0252    0.0723   -0.1146   -0.1125   -0.0000    0.0004   -0.0028
          14   -0.0155    0.0367   -0.0576   -0.0597   -0.0674   -0.0000   -0.0003   -0.0258
          15   -0.0000    0.0000   -0.0000   -0.0000   -0.0000   -0.0002   -0.0000   -0.0000
          16   -0.1226    0.1617    0.0307   -0.0078    0.0291   -0.1782    0.1542   -0.0007
          17    0.0983    0.2026    0.0385   -0.0098   -0.0232   -0.2234    0.1933    0.0005
          18    0.0003    0.2209    0.0614   -0.0051   -0.0000    0.3707   -0.3789    0.0000
          19   -0.1226    0.1617    0.0307   -0.0079    0.0291    0.1778    0.1546   -0.0007
          20    0.0983    0.2026    0.0385   -0.0098   -0.0232    0.2229    0.1938    0.0005
          21   -0.0003   -0.2209   -0.0614    0.0051    0.0000    0.3698    0.3798   -0.0000
          22   -0.0257    0.0127   -0.1046   -0.0923    0.0724   -0.0000    0.0056    0.0893
          23    0.0507   -0.0086   -0.0894    0.0674   -0.0537    0.0000   -0.0114   -0.1368
          24    0.0000   -0.0000   -0.0000    0.0000    0.0000   -0.0009   -0.0000    0.0000
          25   -0.0551   -0.0111   -0.0638    0.0863    0.0687    0.0000   -0.0123    0.1579
          26    0.0137    0.0104   -0.1216   -0.0748   -0.0586   -0.0000    0.0030   -0.0583
          27   -0.0000    0.0000   -0.0000   -0.0000   -0.0000   -0.0009   -0.0000   -0.0000
          28   -0.0211    0.0274   -0.0195   -0.0885    0.1132   -0.0000    0.0110   -0.2755
          29    0.1095    0.0402   -0.1157   -0.0346   -0.0348   -0.0000    0.0038   -0.0899
          30    0.0000   -0.0000    0.0000   -0.0000   -0.0000   -0.0007    0.0000   -0.0000
          31   -0.1114    0.0332   -0.1082   -0.0143    0.0590   -0.0000    0.0013    0.0270
          32   -0.0039    0.0357   -0.0448   -0.0938   -0.1028   -0.0000    0.0116    0.2968
          33    0.0000    0.0000    0.0000   -0.0000    0.0000   -0.0007   -0.0000    0.0000


   Root No.      25        26        27

                25 A      26 A      27 A   

                3136.1    3148.3    3158.2
  
           1    0.0002    0.0001   -0.0013
           2    0.0003   -0.0001   -0.0016
           3    0.0000   -0.0000   -0.0000
           4    0.0100   -0.0122    0.0107
           5   -0.0148    0.0235   -0.0208
           6    0.0000   -0.0000   -0.0000
           7   -0.0161   -0.0257   -0.0228
           8    0.0063    0.0067    0.0058
           9    0.0000    0.0000   -0.0000
          10   -0.0208   -0.0142    0.0187
          11   -0.0067   -0.0073    0.0078
          12   -0.0000   -0.0000    0.0000
          13   -0.0019    0.0039    0.0034
          14   -0.0212    0.0152    0.0199
          15   -0.0000    0.0000    0.0000
          16    0.0001   -0.0010    0.0041
          17    0.0001    0.0008    0.0051
          18    0.0001    0.0000   -0.0096
          19    0.0001   -0.0010    0.0041
          20    0.0001    0.0008    0.0051
          21   -0.0001   -0.0000    0.0096
          22   -0.1163    0.1579   -0.1300
          23    0.1796   -0.2458    0.2028
          24   -0.0000    0.0000   -0.0000
          25    0.1947    0.2759    0.2277
          26   -0.0711   -0.0997   -0.0820
          27   -0.0000   -0.0000   -0.0000
          28    0.2413    0.1563   -0.1929
          29    0.0768    0.0520   -0.0624
          30    0.0000    0.0000   -0.0000
          31    0.0205   -0.0157   -0.0178
          32    0.2457   -0.1616   -0.2009
          33    0.0000   -0.0000   -0.0000


           MASS-WEIGHTED COORDINATE ANALYSIS (NORMAL COORDINATES)


   Root No.       1         2         3         4         5         6         7         8

                 1 A       2 A       3 A       4 A       5 A       6 A       7 A       8 A   

                 342.9     478.4     708.9     791.3     798.0     825.0     874.7     960.7
  
           1    0.0000   -0.0000    0.0000   -0.0000    0.3246    0.2049   -0.0001    0.0000
           2    0.0000    0.0000    0.0000   -0.0000    0.4066   -0.1638   -0.0001   -0.0000
           3   -0.2695   -0.0001   -0.2505    0.0002    0.0001    0.0000    0.4227   -0.0000
           4    0.0000    0.0000    0.0001   -0.0000    0.3518    0.0003   -0.0000   -0.0000
           5   -0.0000    0.0000   -0.0000    0.0001   -0.3326   -0.3290    0.0000   -0.0000
           6    0.3702   -0.2775   -0.0408    0.2269   -0.0000   -0.0000   -0.0921    0.0583
           7   -0.0000   -0.0000   -0.0000   -0.0001   -0.4022    0.3216    0.0000    0.0000
           8    0.0000   -0.0000    0.0000    0.0000    0.2693    0.0723   -0.0000    0.0000
           9    0.3700    0.2778   -0.0409   -0.2274   -0.0000    0.0000   -0.0919   -0.0582
          10   -0.0000    0.0000   -0.0000    0.0000   -0.1080   -0.5477    0.0000   -0.0000
          11    0.0000    0.0000   -0.0000    0.0000   -0.2345   -0.1080    0.0000   -0.0000
          12   -0.1948    0.4293   -0.1172    0.1874   -0.0000    0.0001   -0.2021   -0.3467
          13    0.0000    0.0000   -0.0000    0.0000   -0.2047   -0.0162   -0.0000   -0.0000
          14   -0.0000   -0.0000   -0.0000   -0.0000   -0.1566    0.5582    0.0001    0.0000
          15   -0.1946   -0.4295   -0.1168   -0.1874   -0.0000   -0.0001   -0.2020    0.3466
          16   -0.1924    0.1056    0.1794   -0.1472    0.1130    0.0174   -0.1936   -0.3097
          17   -0.2410   -0.0843    0.2248    0.1173    0.1416   -0.0141   -0.2429    0.2470
          18   -0.3134   -0.0001    0.1520    0.0000    0.0171   -0.0000   -0.1192    0.0000
          19    0.1924   -0.1056   -0.1794    0.1473    0.1131    0.0174    0.1936    0.3099
          20    0.2411    0.0843   -0.2248   -0.1174    0.1417   -0.0141    0.2429   -0.2472
          21   -0.3134   -0.0001    0.1520    0.0001   -0.0172    0.0000   -0.1192    0.0000
          22    0.0000   -0.0000    0.0000   -0.0000    0.0425    0.1244   -0.0000    0.0000
          23   -0.0000    0.0000   -0.0000    0.0000   -0.1366   -0.0178   -0.0000    0.0000
          24    0.2871   -0.1869    0.4714   -0.5702   -0.0001   -0.0001   -0.0879   -0.1395
          25   -0.0000   -0.0000   -0.0000   -0.0000   -0.1426    0.0452    0.0000   -0.0000
          26    0.0000   -0.0000    0.0000    0.0000    0.0107   -0.1177   -0.0000   -0.0000
          27    0.2872    0.1872    0.4710    0.5706   -0.0001    0.0001   -0.0883    0.1394
          28   -0.0000    0.0000   -0.0000    0.0000   -0.0757   -0.1399    0.0000   -0.0000
          29    0.0000   -0.0000    0.0000   -0.0000    0.0664   -0.0972   -0.0000   -0.0000
          30   -0.1142    0.4305    0.3541   -0.2289    0.0000   -0.0000    0.4929    0.4472
          31    0.0000    0.0000    0.0000    0.0000    0.0821    0.0637   -0.0000    0.0000
          32   -0.0000   -0.0000   -0.0000   -0.0000   -0.0588    0.1581    0.0000    0.0000
          33   -0.1138   -0.4304    0.3541    0.2294    0.0000    0.0000    0.4928   -0.4471


   Root No.       9        10        11        12        13        14        15        16

                 9 A      10 A      11 A      12 A      13 A      14 A      15 A      16 A   

                 985.7    1011.1    1021.5    1036.4    1088.5    1091.0    1206.8    1219.3
  
           1   -0.0001   -0.2024    0.1346    0.0002    0.0217   -0.0108   -0.2143    0.1997
           2   -0.0000   -0.2563   -0.1044   -0.0001   -0.0153   -0.0161   -0.2680   -0.1602
           3    0.3273   -0.0000    0.0000    0.0001    0.0000    0.0000   -0.0000   -0.0000
           4    0.0001    0.1964   -0.2431   -0.0003    0.0326   -0.0716    0.3630    0.1843
           5   -0.0000   -0.0438    0.1586    0.0002   -0.1222    0.0399   -0.1088    0.1054
           6   -0.3914    0.0001   -0.0004    0.3100    0.0000   -0.0000    0.0000   -0.0000
           7    0.0000   -0.0898   -0.2070   -0.0002    0.1178    0.0714   -0.1863   -0.0627
           8    0.0000    0.1847    0.1987    0.0002    0.0034   -0.0618    0.3312   -0.2017
           9   -0.3911    0.0001    0.0003   -0.3102   -0.0000   -0.0001    0.0000    0.0000
          10   -0.0000   -0.1593   -0.0207   -0.0000   -0.0313   -0.0346    0.3347   -0.0825
          11   -0.0000    0.0438   -0.0302   -0.0000   -0.0045    0.0653   -0.0476    0.1932
          12    0.1901   -0.0000    0.0003   -0.2339   -0.0000    0.0000    0.0000    0.0000
          13   -0.0000    0.0784    0.0237    0.0000   -0.0119    0.0700   -0.1197   -0.2080
          14   -0.0000   -0.1449    0.0293    0.0000    0.0335   -0.0152    0.3155    0.0398
          15    0.1901   -0.0000   -0.0002    0.2340    0.0000    0.0000    0.0000    0.0000
          16   -0.1298   -0.0761    0.4255    0.4111    0.1533   -0.0011   -0.1970   -0.2032
          17   -0.1624   -0.1022   -0.3382   -0.3280   -0.1207   -0.0209   -0.2480    0.1609
          18   -0.0672   -0.0245    0.0002   -0.0001    0.0004   -0.0052   -0.1411   -0.0004
          19    0.1297   -0.0762    0.4262   -0.4104    0.1531   -0.0011   -0.1970   -0.2031
          20    0.1625   -0.1022   -0.3386    0.3275   -0.1205   -0.0208   -0.2480    0.1608
          21   -0.0672    0.0245   -0.0002   -0.0001   -0.0004    0.0051    0.1411    0.0004
          22    0.0001    0.4428   -0.1157   -0.0001   -0.3976   -0.3564   -0.1193   -0.3372
          23    0.0001    0.2362    0.0158    0.0000   -0.3007   -0.2023   -0.1865   -0.2211
          24    0.4069   -0.0001    0.0003   -0.1998   -0.0000    0.0000   -0.0000    0.0000
          25    0.0000    0.1311   -0.0435   -0.0001    0.2185   -0.0895   -0.1560    0.1397
          26    0.0001    0.4861    0.1005    0.0000    0.5028   -0.3287   -0.1597    0.3772
          27    0.4065   -0.0001   -0.0002    0.1998    0.0001    0.0000   -0.0000    0.0000
          28   -0.0000   -0.1366    0.0847    0.0001   -0.1249   -0.1922    0.1114    0.1136
          29    0.0000    0.2969   -0.2935   -0.0004    0.3514    0.5826   -0.0280   -0.3690
          30   -0.2099    0.0000   -0.0002    0.1815    0.0000   -0.0000   -0.0000   -0.0000
          31   -0.0000    0.3253    0.3012    0.0004   -0.4477    0.5563   -0.0549    0.3837
          32   -0.0000   -0.0673   -0.0162   -0.0000    0.0507   -0.0515    0.1026   -0.0278
          33   -0.2101    0.0000    0.0002   -0.1817   -0.0000   -0.0000   -0.0000   -0.0000


   Root No.      17        18        19        20        21        22        23        24

                17 A      18 A      19 A      20 A      21 A      22 A      23 A      24 A   

                1351.0    1363.3    1419.4    1717.9    1782.7    2985.4    3053.7    3133.6
  
           1    0.5516   -0.2815   -0.1637   -0.0335   -0.0012    0.0002   -0.1363   -0.0009
           2   -0.4405   -0.3520   -0.2048   -0.0418    0.0009    0.0002   -0.1709    0.0008
           3    0.0000   -0.0000    0.0000   -0.0000    0.0000   -0.3033   -0.0004   -0.0000
           4   -0.3839    0.0542    0.2850    0.1827   -0.2080    0.0000   -0.0065   -0.0536
           5    0.0798   -0.0405    0.0549    0.4731   -0.4207   -0.0000    0.0030    0.0769
           6   -0.0000    0.0000   -0.0000    0.0000   -0.0000   -0.0013   -0.0000   -0.0000
           7   -0.1630   -0.0511   -0.0096    0.4200    0.3647   -0.0000    0.0044   -0.0894
           8    0.3567    0.0431    0.2895    0.2827    0.2968    0.0000   -0.0057    0.0362
           9    0.0000    0.0000   -0.0000    0.0000    0.0000   -0.0013   -0.0000    0.0000
          10    0.0945    0.2376   -0.4107   -0.1184    0.1552    0.0000   -0.0022    0.1652
          11   -0.0717   -0.0944    0.3282   -0.4516    0.4753   -0.0000    0.0015    0.0574
          12    0.0000    0.0000    0.0000   -0.0000    0.0000   -0.0010   -0.0000    0.0000
          13    0.0912   -0.1450    0.4109   -0.4131   -0.4297   -0.0000    0.0020   -0.0197
          14   -0.0765    0.2109   -0.3273   -0.2154   -0.2574   -0.0000   -0.0018   -0.1788
          15   -0.0000    0.0000   -0.0000   -0.0000   -0.0000   -0.0010   -0.0000   -0.0000
          16   -0.1758    0.2691    0.0506   -0.0082    0.0322   -0.2568    0.2347   -0.0014
          17    0.1410    0.3372    0.0635   -0.0102   -0.0257   -0.3220    0.2943    0.0011
          18    0.0005    0.3676    0.1011   -0.0053   -0.0000    0.5343   -0.5768    0.0001
          19   -0.1758    0.2691    0.0506   -0.0082    0.0322    0.2562    0.2353   -0.0014
          20    0.1409    0.3371    0.0635   -0.0102   -0.0257    0.3213    0.2950    0.0011
          21   -0.0005   -0.3676   -0.1011    0.0053    0.0000    0.5330    0.5780   -0.0001
          22   -0.0369    0.0211   -0.1722   -0.0965    0.0802   -0.0000    0.0086    0.1794
          23    0.0727   -0.0143   -0.1473    0.0705   -0.0594    0.0000   -0.0173   -0.2749
          24    0.0000   -0.0000   -0.0000    0.0000    0.0000   -0.0013   -0.0000    0.0000
          25   -0.0790   -0.0185   -0.1050    0.0901    0.0760    0.0000   -0.0188    0.3171
          26    0.0197    0.0174   -0.2003   -0.0782   -0.0649   -0.0000    0.0045   -0.1171
          27   -0.0000    0.0000   -0.0000   -0.0000   -0.0000   -0.0013   -0.0000   -0.0000
          28   -0.0303    0.0457   -0.0321   -0.0925    0.1253   -0.0000    0.0167   -0.5533
          29    0.1570    0.0670   -0.1906   -0.0362   -0.0385   -0.0000    0.0058   -0.1805
          30    0.0000   -0.0000    0.0000   -0.0000   -0.0000   -0.0010    0.0000   -0.0000
          31   -0.1598    0.0553   -0.1782   -0.0149    0.0653   -0.0000    0.0020    0.0542
          32   -0.0055    0.0595   -0.0738   -0.0980   -0.1137   -0.0000    0.0176    0.5961
          33    0.0000    0.0000    0.0000   -0.0000    0.0000   -0.0010   -0.0000    0.0000


   Root No.      25        26        27

                25 A      26 A      27 A   

                3136.1    3148.3    3158.2
  
           1    0.0015    0.0007   -0.0094
           2    0.0019   -0.0006   -0.0118
           3    0.0000   -0.0000   -0.0000
           4    0.0717   -0.0846    0.0784
           5   -0.1057    0.1627   -0.1527
           6    0.0000   -0.0000   -0.0000
           7   -0.1152   -0.1781   -0.1670
           8    0.0450    0.0466    0.0427
           9    0.0000    0.0000   -0.0000
          10   -0.1492   -0.0984    0.1373
          11   -0.0483   -0.0503    0.0573
          12   -0.0000   -0.0000    0.0000
          13   -0.0135    0.0271    0.0252
          14   -0.1521    0.1057    0.1459
          15   -0.0000    0.0000    0.0000
          16    0.0002   -0.0020    0.0087
          17    0.0002    0.0016    0.0109
          18    0.0001    0.0000   -0.0203
          19    0.0002   -0.0020    0.0087
          20    0.0002    0.0016    0.0109
          21   -0.0001   -0.0000    0.0203
          22   -0.2414    0.3173   -0.2762
          23    0.3728   -0.4939    0.4307
          24   -0.0000    0.0000   -0.0000
          25    0.4041    0.5545    0.4838
          26   -0.1477   -0.2003   -0.1743
          27   -0.0000   -0.0000   -0.0000
          28    0.5009    0.3142   -0.4098
          29    0.1594    0.1045   -0.1326
          30    0.0000    0.0000   -0.0000
          31    0.0426   -0.0316   -0.0379
          32    0.5099   -0.3248   -0.4268
          33    0.0000   -0.0000   -0.0000


          DESCRIPTION OF VIBRATIONS


 VIBRATION    1    1A         ATOM PAIR      ENERGY CONTRIBUTION    RADIAL
 FREQ.       342.86         C  1 -- H  7         +20.0% (136.9%)     22.5%
 T-DIPOLE    0.2065         C  1 -- H  6         +20.0% (136.9%)     22.5%
 TRAVEL      0.1044         C  1 -- C  2         +14.2% (115.3%)      0.0%
 RED. MASS   0.6380         C  1 -- C  3         +14.2% (115.3%)      0.0%
 EFF. MASS  18.0401

 VIBRATION    2    2A         ATOM PAIR      ENERGY CONTRIBUTION    RADIAL
 FREQ.       478.37         C  4 -- C  5         +21.0% ( 86.8%)      0.0%
 T-DIPOLE    0.0003         C  3 -- C  5         +14.8% ( 72.8%)      0.0%
 TRAVEL      0.1089         C  2 -- C  4         +14.8% ( 72.8%)      0.0%
 RED. MASS   1.0316         C  2 -- C  5         +11.0% ( 62.9%)      0.0%
 EFF. MASS  11.8925         C  3 -- C  4         +11.0% ( 62.9%)      0.0%

 VIBRATION    3    3A         ATOM PAIR      ENERGY CONTRIBUTION    RADIAL
 FREQ.       708.88         C  1 -- H  7         +17.8% ( 59.0%)      9.6%
 T-DIPOLE    0.7235         C  1 -- H  6         +17.8% ( 59.0%)      9.6%
 TRAVEL      0.2039         C  2 -- H  8         +13.9% ( 52.1%)      0.0%
 RED. MASS   0.2055         C  3 -- H  9         +13.8% ( 52.0%)      0.0%
 EFF. MASS   2.2872         C  4 -- H 10         +10.5% ( 45.4%)      0.0%
                            C  5 -- H 11         +10.5% ( 45.4%)      0.0%

 VIBRATION    4    4A         ATOM PAIR      ENERGY CONTRIBUTION    RADIAL
 FREQ.       791.33         C  3 -- H  9         +30.4% ( 66.2%)      0.0%
 T-DIPOLE    0.0005         C  2 -- H  8         +30.4% ( 66.1%)      0.0%
 TRAVEL      0.1978         C  5 -- H 11          +7.6% ( 33.0%)      0.0%
 RED. MASS   0.3150         C  4 -- H 10          +7.5% ( 33.0%)      0.0%
 EFF. MASS   2.1773

 VIBRATION    5    5A         ATOM PAIR      ENERGY CONTRIBUTION    RADIAL
 FREQ.       798.05         C  1 -- C  2         +14.1% (104.5%)      0.1%
 T-DIPOLE    0.0157         C  1 -- C  3         +14.0% (104.5%)      0.1%
 TRAVEL      0.0732         C  2 -- C  5         +10.6% ( 90.6%)     33.1%
 RED. MASS   2.3089         C  3 -- C  4         +10.6% ( 90.6%)     32.9%
 EFF. MASS  15.7687

 VIBRATION    6    6A         ATOM PAIR      ENERGY CONTRIBUTION    RADIAL
 FREQ.       824.98         C  4 -- C  5         +17.6% (123.5%)      0.0%
 T-DIPOLE    0.2242         C  3 -- C  4         +15.1% (114.4%)     92.0%
 TRAVEL      0.0712         C  2 -- C  5         +15.1% (114.4%)     91.9%
 RED. MASS   2.6766         C  3 -- C  5          +9.9% ( 92.8%)      0.2%
 EFF. MASS  16.1231

 VIBRATION    7    7A         ATOM PAIR      ENERGY CONTRIBUTION    RADIAL
 FREQ.       874.68         C  1 -- H  7         +18.6% ( 59.8%)     16.2%
 T-DIPOLE    0.3472         C  1 -- H  6         +18.6% ( 59.8%)     16.2%
 TRAVEL      0.1363         C  4 -- H 10         +14.7% ( 53.2%)      0.0%
 RED. MASS   0.5690         C  5 -- H 11         +14.7% ( 53.2%)      0.0%
 EFF. MASS   4.1512         C  1 -- C  2         +14.4% ( 52.6%)      0.0%
                            C  1 -- C  3         +14.4% ( 52.6%)      0.0%

 VIBRATION    8    8A         ATOM PAIR      ENERGY CONTRIBUTION    RADIAL
 FREQ.       960.71         C  4 -- H 10         +22.0% ( 52.1%)      0.0%
 T-DIPOLE    0.0002         C  5 -- H 11         +22.0% ( 52.1%)      0.0%
 TRAVEL      0.1509         C  1 -- H  7         +14.1% ( 41.7%)      0.0%
 RED. MASS   0.4783         C  1 -- H  6         +14.1% ( 41.7%)      0.0%
 EFF. MASS   3.0840

 VIBRATION    9    9A         ATOM PAIR      ENERGY CONTRIBUTION    RADIAL
 FREQ.       985.73         C  2 -- H  8         +14.8% ( 49.2%)      0.0%
 T-DIPOLE    0.2530         C  3 -- H  9         +14.8% ( 49.2%)      0.0%
 TRAVEL      0.1101         C  1 -- C  2         +13.1% ( 46.3%)      0.0%
 RED. MASS   0.7957         C  1 -- C  3         +13.1% ( 46.3%)      0.0%
 EFF. MASS   5.6410

 VIBRATION   10   10A         ATOM PAIR      ENERGY CONTRIBUTION    RADIAL
 FREQ.      1011.12         C  3 -- H  9         +13.6% ( 53.6%)      8.0%
 T-DIPOLE    0.1633         C  2 -- H  8         +13.5% ( 53.3%)      7.6%
 TRAVEL      0.1151         C  1 -- C  3         +11.7% ( 49.8%)     79.1%
 RED. MASS   0.3486         C  1 -- C  2         +11.6% ( 49.4%)     77.9%
 EFF. MASS   5.0336

 VIBRATION   11   11A         ATOM PAIR      ENERGY CONTRIBUTION    RADIAL
 FREQ.      1021.53         C  1 -- H  7         +14.6% ( 51.9%)      0.0%
 T-DIPOLE    0.1601         C  1 -- H  6         +14.6% ( 51.9%)      0.0%
 TRAVEL      0.1260         C  1 -- C  2         +10.9% ( 44.8%)     67.3%
 RED. MASS   0.3707         C  1 -- C  3         +10.7% ( 44.4%)     66.2%
 EFF. MASS   4.1602

 VIBRATION   12   12A         ATOM PAIR      ENERGY CONTRIBUTION    RADIAL
 FREQ.      1036.37         C  1 -- H  6         +22.9% ( 51.3%)      0.0%
 T-DIPOLE    0.0003         C  1 -- H  7         +22.8% ( 51.2%)      0.0%
 TRAVEL      0.1374         C  3 -- H  9          +7.3% ( 28.9%)      0.0%
 RED. MASS   0.4533         C  2 -- H  8          +7.3% ( 28.9%)      0.0%
 EFF. MASS   3.4478

 VIBRATION   13   13A         ATOM PAIR      ENERGY CONTRIBUTION    RADIAL
 FREQ.      1088.51         C  3 -- H  9         +27.0% ( 55.1%)      2.1%
 T-DIPOLE    0.0381         C  2 -- H  8         +22.8% ( 50.6%)      3.1%
 TRAVEL      0.2053         C  5 -- H 11         +17.7% ( 44.6%)      0.3%
 RED. MASS   0.2226         C  4 -- H 10         +12.3% ( 37.2%)      0.3%
 EFF. MASS   1.4698

 VIBRATION   14   14A         ATOM PAIR      ENERGY CONTRIBUTION    RADIAL
 FREQ.      1091.02         C  4 -- H 10         +34.6% ( 59.7%)      0.0%
 T-DIPOLE    0.0470         C  5 -- H 11         +28.6% ( 54.3%)      0.0%
 TRAVEL      0.2150         C  2 -- H  8         +15.8% ( 40.3%)      1.8%
 RED. MASS   0.2851         C  3 -- H  9         +11.2% ( 34.0%)      3.8%
 EFF. MASS   1.3374

 VIBRATION   15   15A         ATOM PAIR      ENERGY CONTRIBUTION    RADIAL
 FREQ.      1206.82         C  4 -- C  5         +12.2% ( 58.4%)    100.0%
 T-DIPOLE    0.1438         C  1 -- C  3         +11.1% ( 55.6%)     92.8%
 TRAVEL      0.0772         C  1 -- C  2         +11.1% ( 55.5%)     92.9%
 RED. MASS   1.0119         C  3 -- C  4         +10.3% ( 53.5%)     73.0%
 EFF. MASS   9.3783         C  2 -- C  5         +10.2% ( 53.4%)     73.3%

 VIBRATION   16   16A         ATOM PAIR      ENERGY CONTRIBUTION    RADIAL
 FREQ.      1219.25         C  2 -- H  8         +13.7% ( 45.8%)      0.0%
 T-DIPOLE    0.0252         C  3 -- H  9         +13.6% ( 45.6%)      0.0%
 TRAVEL      0.1461         C  4 -- H 10         +12.9% ( 44.4%)      0.0%
 RED. MASS   0.2541         C  5 -- H 11         +12.9% ( 44.4%)      0.1%
 EFF. MASS   2.5902

 VIBRATION   17   17A         ATOM PAIR      ENERGY CONTRIBUTION    RADIAL
 FREQ.      1350.95         C  1 -- C  3         +21.1% ( 74.6%)     76.5%
 T-DIPOLE    0.1586         C  1 -- C  2         +21.1% ( 74.6%)     76.4%
 TRAVEL      0.0701         C  1 -- H  6         +14.2% ( 61.1%)      0.0%
 RED. MASS   3.5614         C  1 -- H  7         +14.2% ( 61.1%)      0.0%
 EFF. MASS  10.1683

 VIBRATION   18   18A         ATOM PAIR      ENERGY CONTRIBUTION    RADIAL
 FREQ.      1363.27         C  1 -- H  6         +24.0% ( 61.1%)      5.7%
 T-DIPOLE    0.3784         C  1 -- H  7         +24.0% ( 61.1%)      5.7%
 TRAVEL      0.1012         C  1 -- C  2         +10.7% ( 40.9%)     53.7%
 RED. MASS   0.8072         C  1 -- C  3         +10.7% ( 40.9%)     53.3%
 EFF. MASS   4.8265

 VIBRATION   19   19A         ATOM PAIR      ENERGY CONTRIBUTION    RADIAL
 FREQ.      1419.38         C  4 -- C  5         +22.3% ( 75.9%)    100.0%
 T-DIPOLE    0.2196         C  3 -- C  4          +9.9% ( 50.7%)    100.0%
 TRAVEL      0.0699         C  2 -- C  5          +9.9% ( 50.7%)    100.0%
 RED. MASS   2.0679         C  2 -- C  4          +9.6% ( 49.9%)      0.1%
 EFF. MASS   9.7131

 VIBRATION   20   20A         ATOM PAIR      ENERGY CONTRIBUTION    RADIAL
 FREQ.      1717.90         C  2 -- C  4         +18.3% ( 73.0%)     99.9%
 T-DIPOLE    0.5525         C  3 -- C  5         +18.2% ( 72.8%)     99.9%
 TRAVEL      0.0571         C  3 -- C  4         +10.7% ( 55.9%)     27.3%
 RED. MASS   2.7209         C  2 -- C  5         +10.7% ( 55.9%)     27.3%
 EFF. MASS  12.0274

 VIBRATION   21   21A         ATOM PAIR      ENERGY CONTRIBUTION    RADIAL
 FREQ.      1782.74         C  3 -- C  5         +17.9% ( 69.9%)     99.8%
 T-DIPOLE    0.2905         C  2 -- C  4         +17.8% ( 69.8%)     99.8%
 TRAVEL      0.0567         C  4 -- C  5         +12.2% ( 57.8%)      0.0%
 RED. MASS   2.6775         C  2 -- C  5         +10.9% ( 54.6%)     65.4%
 EFF. MASS  11.7688         C  3 -- C  4         +10.9% ( 54.6%)     66.0%

 VIBRATION   22   22A         ATOM PAIR      ENERGY CONTRIBUTION    RADIAL
 FREQ.      2985.36         C  1 -- H  6         +49.0% ( 72.5%)     96.8%
 T-DIPOLE    0.1594         C  1 -- H  7         +48.8% ( 72.4%)     96.8%
 TRAVEL      0.1214         C  1 -- C  3          +1.1% ( 10.7%)      0.0%
 RED. MASS   0.5171         C  1 -- C  2          +1.1% ( 10.7%)      0.0%
 EFF. MASS   1.5313

 VIBRATION   23   23A         ATOM PAIR      ENERGY CONTRIBUTION    RADIAL
 FREQ.      3053.67         C  1 -- H  7         +49.3% ( 69.4%)     97.3%
 T-DIPOLE    0.2814         C  1 -- H  6         +49.1% ( 69.3%)     97.3%
 TRAVEL      0.1310         C  1 -- C  3          +0.7% (  8.5%)     35.8%
 RED. MASS   0.4829         C  1 -- C  2          +0.7% (  8.5%)     35.8%
 EFF. MASS   1.2877

 VIBRATION   24   24A         ATOM PAIR      ENERGY CONTRIBUTION    RADIAL
 FREQ.      3133.64         C  5 -- H 11         +37.3% ( 62.6%)    100.0%
 T-DIPOLE    0.0829         C  4 -- H 10         +35.3% ( 60.9%)    100.0%
 TRAVEL      0.1201         C  3 -- H  9         +11.8% ( 35.3%)    100.0%
 RED. MASS   0.2956         C  2 -- H  8         +11.2% ( 34.3%)    100.0%
 EFF. MASS   1.4906

 VIBRATION   25   25A         ATOM PAIR      ENERGY CONTRIBUTION    RADIAL
 FREQ.      3136.11         C  4 -- H 10         +28.8% ( 54.9%)    100.0%
 T-DIPOLE    0.5123         C  5 -- H 11         +27.3% ( 53.5%)    100.0%
 TRAVEL      0.1207         C  2 -- H  8         +20.5% ( 46.3%)    100.0%
 RED. MASS   0.2396         C  3 -- H  9         +19.3% ( 44.9%)    100.0%
 EFF. MASS   1.4756

 VIBRATION   26   26A         ATOM PAIR      ENERGY CONTRIBUTION    RADIAL
 FREQ.      3148.33         C  3 -- H  9         +36.1% ( 61.7%)    100.0%
 T-DIPOLE    0.5766         C  2 -- H  8         +35.7% ( 61.5%)    100.0%
 TRAVEL      0.1161         C  4 -- H 10         +11.5% ( 34.8%)     99.8%
 RED. MASS   0.2959         C  5 -- H 11         +11.1% ( 34.3%)     99.8%
 EFF. MASS   1.5893

 VIBRATION   27   27A         ATOM PAIR      ENERGY CONTRIBUTION    RADIAL
 FREQ.      3158.16         C  3 -- H  9         +27.5% ( 54.0%)     99.9%
 T-DIPOLE    0.1390         C  2 -- H  8         +27.3% ( 53.7%)     99.9%
 TRAVEL      0.1121         C  4 -- H 10         +19.4% ( 45.3%)    100.0%
 RED. MASS   0.2409         C  5 -- H 11         +19.2% ( 45.1%)    100.0%
 EFF. MASS   1.6984

      SYMMETRY NUMBER FOR POINT-GROUP C1  =  1


          SYSTEM IS A GROUND STATE



 InChI=1S/C5H6/c1-2-4-5-3-1/h1-4H,5H2


          MOLECULE IS NOT LINEAR

          THERE ARE 27 GENUINE VIBRATIONS IN THIS SYSTEM
          THIS THERMODYNAMICS CALCULATION IS LIMITED TO
          MOLECULES WHICH HAVE NO INTERNAL ROTATIONS




                    CALCULATED THERMODYNAMIC PROPERTIES
                                          *
   TEMP. (K)   PARTITION FUNCTION   H.O.F.    ENTHALPY  HEAT CAPACITY ENTROPY
                                   KCAL/MOL   CAL/MOLE    CAL/K/MOL  CAL/K/MOL


 298.00  VIB.     0.1628D+01                   817.2263     9.4061     3.7107
         ROT.     0.5033D+05                   888.2813     2.9808    24.4949
         INT.     0.8193D+05                  1705.5076    12.3869    28.2057
         TRA.     0.5196D+27                  1480.4688     4.9680    38.4818
         TOT.                       31.697    3185.9764    17.3550    66.6875

 200.00  VIB.     0.1154D+01                   189.4065     3.6725     1.2321
         ROT.     0.2767D+05                   596.1620     2.9808    23.3062
         INT.     0.3194D+05                   785.5684     6.6533    24.5384
         TRA.     0.2857D+27                   993.6033     4.9680    36.5007
         TOT.                       30.290    1779.1717    11.6213    61.0391

 210.00  VIB.     0.1183D+01                   228.5838     4.1679     1.4232
         ROT.     0.2977D+05                   625.9700     2.9808    23.4517
         INT.     0.3523D+05                   854.5539     7.1487    24.8749
         TRA.     0.3074D+27                  1043.2834     4.9680    36.7431
         TOT.                       30.409    1897.8373    12.1167    61.6179

 220.00  VIB.     0.1216D+01                   272.8562     4.6910     1.6291
         ROT.     0.3192D+05                   655.7781     2.9808    23.5903
         INT.     0.3882D+05                   928.6343     7.6718    25.2194
         TRA.     0.3296D+27                  1092.9636     4.9680    36.9742
         TOT.                       30.532    2021.5979    12.6399    62.1936

 230.00  VIB.     0.1253D+01                   322.4884     5.2394     1.8496
         ROT.     0.3412D+05                   685.5862     2.9808    23.7228
         INT.     0.4274D+05                  1008.0747     8.2202    25.5724
         TRA.     0.3523D+27                  1142.6437     4.9680    37.1950
         TOT.                       30.662    2150.7184    13.1882    62.7675

 240.00  VIB.     0.1293D+01                   377.7176     5.8099     2.0846
         ROT.     0.3637D+05                   715.3943     2.9808    23.8497
         INT.     0.4703D+05                  1093.1119     8.7907    25.9343
         TRA.     0.3755D+27                  1192.3239     4.9680    37.4065
         TOT.                       30.796    2285.4358    13.7588    63.3407

 250.00  VIB.     0.1338D+01                   438.7512     6.3998     2.3336
         ROT.     0.3867D+05                   745.2024     2.9808    23.9714
         INT.     0.5174D+05                  1183.9537     9.3806    26.3050
         TRA.     0.3992D+27                  1242.0041     4.9680    37.6093
         TOT.                       30.937    2425.9577    14.3486    63.9143

 260.00  VIB.     0.1388D+01                   505.7667     7.0058     2.5964
         ROT.     0.4101D+05                   775.0105     2.9808    24.0883
         INT.     0.5692D+05                  1280.7773     9.9866    26.6847
         TRA.     0.4234D+27                  1291.6842     4.9680    37.8041
         TOT.                       31.083    2572.4615    14.9546    64.4888

 270.00  VIB.     0.1443D+01                   578.9115     7.6251     2.8724
         ROT.     0.4340D+05                   804.8186     2.9808    24.2008
         INT.     0.6262D+05                  1383.7302    10.6059    27.0732
         TRA.     0.4481D+27                  1341.3644     4.9680    37.9916
         TOT.                       31.236    2725.0946    15.5739    65.0648

 280.00  VIB.     0.1503D+01                   658.3039     8.2549     3.1610
         ROT.     0.4584D+05                   834.6267     2.9808    24.3092
         INT.     0.6890D+05                  1492.9306    11.2357    27.4702
         TRA.     0.4732D+27                  1391.0445     4.9680    38.1723
         TOT.                       31.395    2883.9752    16.2037    65.6425

 290.00  VIB.     0.1570D+01                   744.0344     8.8923     3.4618
         ROT.     0.4831D+05                   864.4348     2.9808    24.4138
         INT.     0.7585D+05                  1608.4692    11.8731    27.8756
         TRA.     0.4988D+27                  1440.7247     4.9680    38.3466
         TOT.                       31.560    3049.1939    16.8411    66.2222

 300.00  VIB.     0.1643D+01                   836.1674     9.5350     3.7741
         ROT.     0.5083D+05                   894.2429     2.9808    24.5149
         INT.     0.8353D+05                  1730.4103    12.5158    28.2889
         TRA.     0.5248D+27                  1490.4049     4.9680    38.5150
         TOT.                       31.732    3220.8152    17.4838    66.8040

 310.00  VIB.     0.1724D+01                   934.7432    10.1805     4.0973
         ROT.     0.5340D+05                   924.0510     2.9808    24.6126
         INT.     0.9204D+05                  1858.7942    13.1613    28.7099
         TRA.     0.5513D+27                  1540.0850     4.9680    38.6779
         TOT.                       31.910    3398.8792    18.1293    67.3878

 320.00  VIB.     0.1812D+01                  1039.7801    10.8268     4.4307
         ROT.     0.5600D+05                   953.8591     2.9808    24.7072
         INT.     0.1015D+06                  1993.6392    13.8077    29.1379
         TRA.     0.5782D+27                  1589.7652     4.9680    38.8357
         TOT.                       32.094    3583.4044    18.7757    67.9736

 330.00  VIB.     0.1909D+01                  1151.2763    11.4721     4.7737
         ROT.     0.5865D+05                   983.6672     2.9808    24.7990
         INT.     0.1120D+06                  2134.9436    14.4529    29.5727
         TRA.     0.6055D+27                  1639.4454     4.9680    38.9885
         TOT.                       32.285    3774.3889    19.4209    68.5612

 340.00  VIB.     0.2016D+01                  1269.2124    12.1145     5.1258
         ROT.     0.6133D+05                  1013.4753     2.9808    24.8879
         INT.     0.1236D+06                  2282.6877    15.0954    30.0137
         TRA.     0.6332D+27                  1689.1255     4.9680    39.1369
         TOT.                       32.483    3971.8133    20.0634    69.1505

 350.00  VIB.     0.2132D+01                  1393.5530    12.7528     5.4861
         ROT.     0.6406D+05                  1043.2834     2.9808    24.9743
         INT.     0.1366D+06                  2436.8364    15.7336    30.4605
         TRA.     0.6613D+27                  1738.8057     4.9680    39.2809
         TOT.                       32.687    4175.6421    20.7016    69.7414

 360.00  VIB.     0.2260D+01                  1524.2490    13.3854     5.8543
         ROT.     0.6682D+05                  1073.0915     2.9808    25.0583
         INT.     0.1510D+06                  2597.3405    16.3662    30.9126
         TRA.     0.6899D+27                  1788.4859     4.9680    39.4208
         TOT.                       32.897    4385.8263    21.3342    70.3334

 370.00  VIB.     0.2400D+01                  1661.2393    14.0114     6.2296
         ROT.     0.6963D+05                  1102.8996     2.9808    25.1400
         INT.     0.1671D+06                  2764.1389    16.9923    31.3696
         TRA.     0.7188D+27                  1838.1660     4.9680    39.5569
         TOT.                       33.113    4602.3049    21.9603    70.9265

 380.00  VIB.     0.2553D+01                  1804.4527    14.6299     6.6115
         ROT.     0.7247D+05                  1132.7077     2.9808    25.2195
         INT.     0.1850D+06                  2937.1604    17.6107    31.8309
         TRA.     0.7482D+27                  1887.8462     4.9680    39.6894
         TOT.                       33.336    4825.0066    22.5787    71.5204

 390.00  VIB.     0.2722D+01                  1953.8093    15.2400     6.9994
         ROT.     0.7535D+05                  1162.5158     2.9808    25.2969
         INT.     0.2051D+06                  3116.3251    18.2208    32.2963
         TRA.     0.7779D+27                  1937.5263     4.9680    39.8185
         TOT.                       33.565    5053.8514    23.1888    72.1148

 400.00  VIB.     0.2906D+01                  2109.2221    15.8410     7.3928
         ROT.     0.7827D+05                  1192.3239     2.9808    25.3724
         INT.     0.2274D+06                  3301.5460    18.8219    32.7652
         TRA.     0.8080D+27                  1987.2065     4.9680    39.9443
         TOT.                       33.800    5288.7525    23.7899    72.7095

   *: NOTE: HEATS OF FORMATION ARE RELATIVE TO THE
            ELEMENTS IN THEIR STANDARD STATE AT 298K
              (=  Standard Enthalpy of Formation).

            Hvib:  Zero-point energy is not included.
                   frequencies of less than zero cm-1 are not included.
            Hrot = (3/2)RT
            Htra = (3/2)RT + pV = (5/2)RT

            Heat capacity is Cp, not Cv

          For more information, see: HTTP://OpenMOPAC.net/Manual/thermochemistry.html


           FORCE CONSTANT IN CARTESIAN COORDINATES (Millidynes/A)

    ATOM   CHEMICAL       X               Y               Z
   NUMBER   SYMBOL  FORCE CONSTANT  FORCE CONSTANT  FORCE CONSTANT

      1       C        8.615627        9.152238        7.788566
      2       C        9.309527       15.088604        2.329935
      3       C       14.887331        9.508836        2.329749
      4       C       12.482205       12.635010        2.204181
      5       C       11.526950       13.589869        2.204372
      6       H        1.189089        1.522913        3.557152
      7       H        1.188999        1.522819        3.557696
      8       H        2.086855        4.042938        0.332657
      9       H        4.881535        1.248128        0.332573
     10       H        4.961796        1.147516        0.349480
     11       H        0.736599        5.371551        0.349527

 **********************
 *                    *
 * JOB ENDED NORMALLY *
 *                    *
 **********************



 TOTAL JOB TIME:             2.18 SECONDS

 == MOPAC DONE ==
