 *******************************************************************************
 ** Site#: 14399        For non-commercial use only    Version 18.184L 64BITS **
 *******************************************************************************
 ** Cite this program as: MOPAC2016, Version: 18.184L, James J. P. Stewart,   **
 ** Stewart Computational Chemistry, web: HTTP://OpenMOPAC.net. Days left:  18**
 *******************************************************************************
 **                                                                           **
 **                                MOPAC2016                                  **
 **                                                                           **
 *******************************************************************************

                              PM3 CALCULATION RESULTS

 *******************************************************************************
 *  CALCULATION DONE:                                Sat Jun 15 10:25:54 2019  *
 *  PM3        - The PM3 Hamiltonian to be used
 *  PRECISE    - CRITERIA TO BE INCREASED BY 100 TIMES
 *  NOSYM      - POINT-GROUP SYMMETRY SET TO C1
 *  THREADS=1  - MULTI-THREADING NOT USED
 *  T=         - A TIME OF 172800.0 SECONDS REQUESTED
 *  DUMP=N     - RESTART FILE WRITTEN EVERY  7200.000 SECONDS
 *******************************************************************************
pm3  precise nosym THREADS=1
 InChI=1S/C7H10O2/c1-2-6-4-5-7(3-1)9-8-6/h6-7H,1-4H2/lp5

   ATOM   CHEMICAL          X               Y               Z
  NUMBER   SYMBOL      (ANGSTROMS)     (ANGSTROMS)     (ANGSTROMS)
 
     1       O         -0.67260000  *   0.18000000  *  -1.65130000  *
     2       O         -0.57550000  *   1.47360000  *  -1.31510000  *
     3       C         -1.10080000  *  -0.63680000  *  -0.56020000  *
     4       C          0.10970000  *  -1.48710000  *  -0.13280000  *
     5       C          1.26010000  *  -0.66910000  *   0.49680000  *
     6       C          1.46700000  *   0.73970000  *  -0.11240000  *
     7       C          0.18750000  *   1.62750000  *  -0.12790000  *
     8       C         -1.68590000  *   0.17060000  *   0.63080000  *
     9       C         -0.74510000  *   1.31010000  *   1.03890000  *
    10       H         -1.89020000  *  -1.32500000  *  -0.93210000  *
    11       H          2.20540000  *  -1.24470000  *   0.39440000  *
    12       H          1.07580000  *  -0.56770000  *   1.58870000  *
    13       H          1.87000000  *   0.64500000  *  -1.14420000  *
    14       H          2.24650000  *   1.25540000  *   0.48980000  *
    15       H          0.49910000  *  -2.01850000  *  -1.02900000  *
    16       H         -0.21920000  *  -2.26640000  *   0.58890000  *
    17       H          0.49480000  *   2.69160000  *  -0.04810000  *
    18       H         -2.65660000  *   0.61320000  *   0.32140000  *
    19       H         -1.87020000  *  -0.49140000  *   1.50320000  *
 


          CARTESIAN COORDINATES 

    NO.       ATOM           X           Y           Z

     1         O         -0.6726      0.1800     -1.6513
     2         O         -0.5755      1.4736     -1.3151
     3         C         -1.1008     -0.6368     -0.5602
     4         C          0.1097     -1.4871     -0.1328
     5         C          1.2601     -0.6691      0.4968
     6         C          1.4670      0.7397     -0.1124
     7         C          0.1875      1.6275     -0.1279
     8         C         -1.6859      0.1706      0.6308
     9         C         -0.7451      1.3101      1.0389
    10         H         -1.8902     -1.3250     -0.9321
    11         H          2.2054     -1.2447      0.3944
    12         H          1.0758     -0.5677      1.5887
    13         H          1.8700      0.6450     -1.1442
    14         H          2.2465      1.2554      0.4898
    15         H          0.4991     -2.0185     -1.0290
    16         H         -0.2192     -2.2664      0.5889
    17         H          0.4948      2.6916     -0.0481
    18         H         -2.6566      0.6132      0.3214
    19         H         -1.8702     -0.4914      1.5032

  H: (PM3): J. J. P. STEWART, J. COMP. CHEM. 10, 209 (1989).
  C: (PM3): J. J. P. STEWART, J. COMP. CHEM. 10, 209 (1989).
  O: (PM3): J. J. P. STEWART, J. COMP. CHEM. 10, 209 (1989).

           Empirical Formula: C7 H10 O2  =    19 atoms



      MOLECULAR POINT GROUP   :   C1  


      RHF CALCULATION, NO. OF DOUBLY OCCUPIED LEVELS = 25


          Geometry optimization using EF

          DIAGONAL MATRIX USED AS START HESSIAN

 CYCLE:     1 TIME:   0.008 TIME LEFT:  2.00D  GRAD.:   154.408 HEAT:  73.81082
 CYCLE:     2 TIME:   0.004 TIME LEFT:  2.00D  GRAD.:   119.498 HEAT:  66.43553
 CYCLE:     3 TIME:   0.008 TIME LEFT:  2.00D  GRAD.:    59.465 HEAT:  62.22791
 CYCLE:     4 TIME:   0.004 TIME LEFT:  2.00D  GRAD.:    42.693 HEAT:  60.71736
 CYCLE:     5 TIME:   0.004 TIME LEFT:  2.00D  GRAD.:    52.273 HEAT:  59.96639
 CYCLE:     6 TIME:   0.004 TIME LEFT:  2.00D  GRAD.:    69.607 HEAT:  59.40671
 CYCLE:     7 TIME:   0.004 TIME LEFT:  2.00D  GRAD.:    55.491 HEAT:  58.47395
 CYCLE:     8 TIME:   0.008 TIME LEFT:  2.00D  GRAD.:    29.810 HEAT:  57.55570
 CYCLE:     9 TIME:   0.004 TIME LEFT:  2.00D  GRAD.:    41.930 HEAT:  57.53885
 CYCLE:    10 TIME:   0.004 TIME LEFT:  2.00D  GRAD.:    26.421 HEAT:  56.86418
 CYCLE:    11 TIME:   0.008 TIME LEFT:  2.00D  GRAD.:    26.848 HEAT:  56.73829
 CYCLE:    12 TIME:   0.004 TIME LEFT:  2.00D  GRAD.:    32.604 HEAT:  56.73205
 CYCLE:    13 TIME:   0.004 TIME LEFT:  2.00D  GRAD.:    27.706 HEAT:  56.53914
 CYCLE:    14 TIME:   0.008 TIME LEFT:  2.00D  GRAD.:    11.546 HEAT:  56.32672
 CYCLE:    15 TIME:   0.004 TIME LEFT:  2.00D  GRAD.:    18.669 HEAT:  56.29454
 CYCLE:    16 TIME:   0.004 TIME LEFT:  2.00D  GRAD.:    12.918 HEAT:  56.15506
 CYCLE:    17 TIME:   0.004 TIME LEFT:  2.00D  GRAD.:    14.615 HEAT:  56.04034
 CYCLE:    18 TIME:   0.004 TIME LEFT:  2.00D  GRAD.:    13.953 HEAT:  55.87504
 CYCLE:    19 TIME:   0.004 TIME LEFT:  2.00D  GRAD.:    17.989 HEAT:  55.67669
 CYCLE:    20 TIME:   0.004 TIME LEFT:  2.00D  GRAD.:    15.923 HEAT:  55.49114
 CYCLE:    21 TIME:   0.004 TIME LEFT:  2.00D  GRAD.:    21.938 HEAT:  55.41657
 CYCLE:    22 TIME:   0.004 TIME LEFT:  2.00D  GRAD.:    12.082 HEAT:  55.21491
 CYCLE:    23 TIME:   0.004 TIME LEFT:  2.00D  GRAD.:    14.724 HEAT:  55.09981
 CYCLE:    24 TIME:   0.004 TIME LEFT:  2.00D  GRAD.:    13.129 HEAT:  54.95284
 CYCLE:    25 TIME:   0.004 TIME LEFT:  2.00D  GRAD.:    10.709 HEAT:  54.80278
 CYCLE:    26 TIME:   0.000 TIME LEFT:  2.00D  GRAD.:    12.275 HEAT:  54.73084
 CYCLE:    27 TIME:   0.008 TIME LEFT:  2.00D  GRAD.:     9.114 HEAT:  54.62908
 CYCLE:    28 TIME:   0.004 TIME LEFT:  2.00D  GRAD.:     5.863 HEAT:  54.55463
 CYCLE:    29 TIME:   0.004 TIME LEFT:  2.00D  GRAD.:     6.713 HEAT:  54.50289
 CYCLE:    30 TIME:   0.004 TIME LEFT:  2.00D  GRAD.:     6.697 HEAT:  54.45600
 CYCLE:    31 TIME:   0.004 TIME LEFT:  2.00D  GRAD.:     3.394 HEAT:  54.42568
 CYCLE:    32 TIME:   0.004 TIME LEFT:  2.00D  GRAD.:     3.933 HEAT:  54.40966
 CYCLE:    33 TIME:   0.004 TIME LEFT:  2.00D  GRAD.:     3.630 HEAT:  54.38932
 CYCLE:    34 TIME:   0.004 TIME LEFT:  2.00D  GRAD.:     2.856 HEAT:  54.36535
 CYCLE:    35 TIME:   0.004 TIME LEFT:  2.00D  GRAD.:     2.562 HEAT:  54.35087
 CYCLE:    36 TIME:   0.004 TIME LEFT:  2.00D  GRAD.:     2.346 HEAT:  54.34057
 CYCLE:    37 TIME:   0.004 TIME LEFT:  2.00D  GRAD.:     2.309 HEAT:  54.32879
 CYCLE:    38 TIME:   0.004 TIME LEFT:  2.00D  GRAD.:     1.724 HEAT:  54.31860
 CYCLE:    39 TIME:   0.004 TIME LEFT:  2.00D  GRAD.:     1.524 HEAT:  54.30916
 CYCLE:    40 TIME:   0.004 TIME LEFT:  2.00D  GRAD.:     1.459 HEAT:  54.30254
 CYCLE:    41 TIME:   0.004 TIME LEFT:  2.00D  GRAD.:     1.183 HEAT:  54.29823
 CYCLE:    42 TIME:   0.004 TIME LEFT:  2.00D  GRAD.:     0.914 HEAT:  54.29574
 CYCLE:    43 TIME:   0.004 TIME LEFT:  2.00D  GRAD.:     0.786 HEAT:  54.29400
 CYCLE:    44 TIME:   0.004 TIME LEFT:  2.00D  GRAD.:     0.718 HEAT:  54.29269
 CYCLE:    45 TIME:   0.004 TIME LEFT:  2.00D  GRAD.:     0.539 HEAT:  54.29187
 CYCLE:    46 TIME:   0.004 TIME LEFT:  2.00D  GRAD.:     0.341 HEAT:  54.29145
 CYCLE:    47 TIME:   0.004 TIME LEFT:  2.00D  GRAD.:     0.276 HEAT:  54.29123
 CYCLE:    48 TIME:   0.004 TIME LEFT:  2.00D  GRAD.:     0.256 HEAT:  54.29106
 CYCLE:    49 TIME:   0.004 TIME LEFT:  2.00D  GRAD.:     0.235 HEAT:  54.29092
 CYCLE:    50 TIME:   0.004 TIME LEFT:  2.00D  GRAD.:     0.194 HEAT:  54.29079
 CYCLE:    51 TIME:   0.004 TIME LEFT:  2.00D  GRAD.:     0.183 HEAT:  54.29070
 CYCLE:    52 TIME:   0.004 TIME LEFT:  2.00D  GRAD.:     0.196 HEAT:  54.29061
 CYCLE:    53 TIME:   0.004 TIME LEFT:  2.00D  GRAD.:     0.196 HEAT:  54.29053
 CYCLE:    54 TIME:   0.000 TIME LEFT:  2.00D  GRAD.:     0.170 HEAT:  54.29045
 CYCLE:    55 TIME:   0.004 TIME LEFT:  2.00D  GRAD.:     0.140 HEAT:  54.29040
 CYCLE:    56 TIME:   0.004 TIME LEFT:  2.00D  GRAD.:     0.127 HEAT:  54.29037
 CYCLE:    57 TIME:   0.004 TIME LEFT:  2.00D  GRAD.:     0.119 HEAT:  54.29034
 CYCLE:    58 TIME:   0.004 TIME LEFT:  2.00D  GRAD.:     0.106 HEAT:  54.29031
 CYCLE:    59 TIME:   0.004 TIME LEFT:  2.00D  GRAD.:     0.079 HEAT:  54.29029
 CYCLE:    60 TIME:   0.004 TIME LEFT:  2.00D  GRAD.:     0.062 HEAT:  54.29028
 CYCLE:    61 TIME:   0.004 TIME LEFT:  2.00D  GRAD.:     0.052 HEAT:  54.29027
 CYCLE:    62 TIME:   0.004 TIME LEFT:  2.00D  GRAD.:     0.044 HEAT:  54.29026

     GRADIENT =  0.04390  IS LESS THAN CUTOFF =  0.05000



 -------------------------------------------------------------------------------
 pm3  precise nosym THREADS=1
 InChI=1S/C7H10O2/c1-2-6-4-5-7(3-1)9-8-6/h6-7H,1-4H2/lp5



     GEOMETRY OPTIMISED USING EIGENVECTOR FOLLOWING (EF).     
     SCF FIELD WAS ACHIEVED                                   


                              PM3 CALCULATION
                                                       MOPAC2016 (Version: 18.184L)
                                                       Sat Jun 15 10:25:55 2019
                                                       No. of days remaining =  18




          FINAL HEAT OF FORMATION =         54.29026 KCAL/MOL =     227.15046 KJ/MOL


          TOTAL ENERGY            =      -1565.30531 EV
          ELECTRONIC ENERGY       =      -7806.50131 EV  POINT GROUP:     C1  
          CORE-CORE REPULSION     =       6241.19600 EV
          COSMO AREA              =        149.63 SQUARE ANGSTROMS
          COSMO VOLUME            =        153.48 CUBIC ANGSTROMS

          GRADIENT NORM           =          0.04390 = 0.01007 PER ATOM
          IONIZATION POTENTIAL    =          9.190766 EV
          HOMO LUMO ENERGIES (EV) =         -9.191 -0.944
          NO. OF FILLED LEVELS    =         25
          MOLECULAR WEIGHT        =        126.1548

          MOLECULAR DIMENSIONS (Angstroms)

            Atom       Atom       Distance
            H    14    H    10     5.13572
            H    17    H    11     4.31335
            H    13    H    19     3.69854


          SCF CALCULATIONS        =         68
 
          WALL-CLOCK TIME         =          0.266 SECONDS
          COMPUTATION TIME        =          0.244 SECONDS




   ATOM   CHEMICAL          X               Y               Z
  NUMBER   SYMBOL      (ANGSTROMS)     (ANGSTROMS)     (ANGSTROMS)
 
     1       O         -1.10286577  *   0.10669767  *  -1.68117582  *
     2       O         -0.31413773  *   1.46471319  *  -1.46288135  *
     3       C         -1.14644493  *  -0.66900452  *  -0.52438761  *
     4       C          0.17728146  *  -1.41565122  *  -0.26192248  *
     5       C          1.19449782  *  -0.64293532  *   0.56507620  *
     6       C          1.48708028  *   0.75704648  *   0.04438246  *
     7       C          0.20802523  *   1.59405047  *  -0.17456363  *
     8       C         -1.58980840  *   0.16072057  *   0.69106370  *
     9       C         -0.71715791  *   1.29221627  *   0.95551588  *
    10       H         -1.93601712  *  -1.39472447  *  -0.83393943  *
    11       H          2.13986826  *  -1.21963495  *   0.60127752  *
    12       H          0.85078220  *  -0.58027834  *   1.61976917  *
    13       H          2.05228035  *   0.70126566  *  -0.90727351  *
    14       H          2.14370546  *   1.28585564  *   0.76166486  *
    15       H          0.62789577  *  -1.70316197  *  -1.23338694  *
    16       H         -0.05365438  *  -2.36653466  *   0.25700422  *
    17       H          0.44132818  *   2.68701280  *  -0.20547899  *
    18       H         -2.60455412  *   0.59663844  *   0.56056983  *
    19       H         -1.65089660  *  -0.46184589  *   1.60671174  *

                             CARTESIAN COORDINATES

   1    O       -1.102865768     0.106697665    -1.681175819
   2    O       -0.314137727     1.464713191    -1.462881347
   3    C       -1.146444932    -0.669004522    -0.524387613
   4    C        0.177281465    -1.415651219    -0.261922475
   5    C        1.194497822    -0.642935317     0.565076198
   6    C        1.487080280     0.757046484     0.044382456
   7    C        0.208025234     1.594050466    -0.174563630
   8    C       -1.589808398     0.160720568     0.691063697
   9    C       -0.717157915     1.292216270     0.955515885
  10    H       -1.936017123    -1.394724470    -0.833939433
  11    H        2.139868256    -1.219634946     0.601277516
  12    H        0.850782202    -0.580278337     1.619769175
  13    H        2.052280353     0.701265658    -0.907273512
  14    H        2.143705459     1.285855638     0.761664858
  15    H        0.627895770    -1.703161973    -1.233386940
  16    H       -0.053654384    -2.366534662     0.257004225
  17    H        0.441328181     2.687012796    -0.205478994
  18    H       -2.604554119     0.596638444     0.560569827
  19    H       -1.650896604    -0.461845887     1.606711735


           Empirical Formula: C7 H10 O2  =    19 atoms



      MOLECULAR POINT GROUP   :   C1  


                  EIGENVALUES  
 -41.88001 -35.36234 -33.78159 -31.20042 -29.16702 -24.50340 -22.93445 -19.98257
 -18.95979 -17.94403 -17.47329 -16.57354 -15.35862 -15.26473 -15.10642 -14.78601
 -14.27523 -13.85954 -13.33977 -12.50876 -12.48539 -11.95246 -11.73598 -11.18170
  -9.19077  -0.94358   0.26886   2.48510   2.82404   2.95151   3.07263   3.16488
   3.27819   3.40994   3.44449   3.70007   3.78460   3.89558   3.94502   3.97090
   4.19611   4.41198   4.54309   4.55981   4.76931   5.42524


              NET ATOMIC CHARGES AND DIPOLE CONTRIBUTIONS

  ATOM NO.   TYPE          CHARGE      No. of ELECS.   s-Pop       p-Pop       
    1          O          -0.145837        6.1458     1.91260     4.23324
    2          O          -0.138151        6.1382     1.91399     4.22416
    3          C           0.042306        3.9577     1.18238     2.77532
    4          C          -0.129866        4.1299     1.17139     2.95848
    5          C          -0.109884        4.1099     1.16286     2.94702
    6          C          -0.099655        4.0997     1.16675     2.93291
    7          C          -0.061712        4.0617     1.19985     2.86186
    8          C          -0.241280        4.2413     1.18311     3.05817
    9          C           0.047531        3.9525     1.68609     2.26638
   10          H           0.086216        0.9138     0.91378
   11          H           0.058871        0.9411     0.94113
   12          H           0.059461        0.9405     0.94054
   13          H           0.072685        0.9273     0.92731
   14          H           0.066998        0.9330     0.93300
   15          H           0.073699        0.9263     0.92630
   16          H           0.057365        0.9426     0.94264
   17          H           0.114985        0.8850     0.88501
   18          H           0.129908        0.8701     0.87009
   19          H           0.116358        0.8836     0.88364
 DIPOLE           X         Y         Z       TOTAL
 POINT-CHG.     0.268    -0.773     2.339     2.478
 HYBRID         0.067    -1.183    -1.140     1.645
 SUM            0.335    -1.956     1.199     2.319


          ATOMIC ORBITAL ELECTRON POPULATIONS

     Atom    s        px        py        pz   
    1  O   1.91260   1.70945   1.24502   1.27877
    2  O   1.91399   1.71286   1.22171   1.28959
    3  C   1.18238   0.96408   0.92413   0.88710
    4  C   1.17139   0.95467   0.98329   1.02052
    5  C   1.16286   0.99589   0.95991   0.99122
    6  C   1.16675   0.95253   0.94894   1.03144
    7  C   1.19985   0.97452   0.99912   0.88822
    8  C   1.18311   1.04135   1.02167   0.99515
    9  C   1.68609   0.52158   0.69574   1.04905
   10  H   0.91378
   11  H   0.94113
   12  H   0.94054
   13  H   0.92731
   14  H   0.93300
   15  H   0.92630
   16  H   0.94264
   17  H   0.88501
   18  H   0.87009
   19  H   0.88364
 *******************************************************************************
 ** Site#: 14399        For non-commercial use only    Version 18.184L 64BITS **
 *******************************************************************************
 ** Cite this program as: MOPAC2016, Version: 18.184L, James J. P. Stewart,   **
 ** Stewart Computational Chemistry, web: HTTP://OpenMOPAC.net. Days left:  18**
 *******************************************************************************
 **                                                                           **
 **                                MOPAC2016                                  **
 **                                                                           **
 *******************************************************************************

                              PM3 CALCULATION RESULTS

 *******************************************************************************
 *  CALCULATION DONE:                                Sat Jun 15 10:25:55 2019  *
 *  PM3        - The PM3 Hamiltonian to be used
 *  OLDGEO     - PREVIOUS GEOMETRY TO BE USED
 *  PRECISE    - CRITERIA TO BE INCREASED BY 100 TIMES
 *  NOSYM      - POINT-GROUP SYMMETRY SET TO C1
 *  THREADS=1  - MULTI-THREADING NOT USED
 *  T=         - A TIME OF 172800.0 SECONDS REQUESTED
 *  DUMP=N     - RESTART FILE WRITTEN EVERY  7200.000 SECONDS
 *  THERMO     - THERMODYNAMIC QUANTITIES TO BE CALCULATED
 *******************************************************************************
oldgeo thermo nosym precise THREADS=1  pm3
 InChI=1S/C7H10O2/c1-2-6-4-5-7(3-1)9-8-6/h6-7H,1-4H2/lp5

   ATOM   CHEMICAL          X               Y               Z
  NUMBER   SYMBOL      (ANGSTROMS)     (ANGSTROMS)     (ANGSTROMS)
 
     1       O         -1.10286577  *   0.10669767  *  -1.68117582  *
     2       O         -0.31413773  *   1.46471319  *  -1.46288135  *
     3       C         -1.14644493  *  -0.66900452  *  -0.52438761  *
     4       C          0.17728146  *  -1.41565122  *  -0.26192248  *
     5       C          1.19449782  *  -0.64293532  *   0.56507620  *
     6       C          1.48708028  *   0.75704648  *   0.04438246  *
     7       C          0.20802523  *   1.59405047  *  -0.17456363  *
     8       C         -1.58980840  *   0.16072057  *   0.69106370  *
     9       C         -0.71715791  *   1.29221627  *   0.95551588  *
    10       H         -1.93601712  *  -1.39472447  *  -0.83393943  *
    11       H          2.13986826  *  -1.21963495  *   0.60127752  *
    12       H          0.85078220  *  -0.58027834  *   1.61976917  *
    13       H          2.05228035  *   0.70126566  *  -0.90727351  *
    14       H          2.14370546  *   1.28585564  *   0.76166486  *
    15       H          0.62789577  *  -1.70316197  *  -1.23338694  *
    16       H         -0.05365438  *  -2.36653466  *   0.25700422  *
    17       H          0.44132818  *   2.68701280  *  -0.20547899  *
    18       H         -2.60455412  *   0.59663844  *   0.56056983  *
    19       H         -1.65089660  *  -0.46184589  *   1.60671174  *
 


          CARTESIAN COORDINATES 

    NO.       ATOM           X           Y           Z

     1         O         -1.1029      0.1067     -1.6812
     2         O         -0.3141      1.4647     -1.4629
     3         C         -1.1464     -0.6690     -0.5244
     4         C          0.1773     -1.4157     -0.2619
     5         C          1.1945     -0.6429      0.5651
     6         C          1.4871      0.7570      0.0444
     7         C          0.2080      1.5941     -0.1746
     8         C         -1.5898      0.1607      0.6911
     9         C         -0.7172      1.2922      0.9555
    10         H         -1.9360     -1.3947     -0.8339
    11         H          2.1399     -1.2196      0.6013
    12         H          0.8508     -0.5803      1.6198
    13         H          2.0523      0.7013     -0.9073
    14         H          2.1437      1.2859      0.7617
    15         H          0.6279     -1.7032     -1.2334
    16         H         -0.0537     -2.3665      0.2570
    17         H          0.4413      2.6870     -0.2055
    18         H         -2.6046      0.5966      0.5606
    19         H         -1.6509     -0.4618      1.6067

  H: (PM3): J. J. P. STEWART, J. COMP. CHEM. 10, 209 (1989).
  C: (PM3): J. J. P. STEWART, J. COMP. CHEM. 10, 209 (1989).
  O: (PM3): J. J. P. STEWART, J. COMP. CHEM. 10, 209 (1989).

           Empirical Formula: C7 H10 O2  =    19 atoms



      MOLECULAR POINT GROUP   :   C1  


      RHF CALCULATION, NO. OF DOUBLY OCCUPIED LEVELS = 25



          HEAT OF FORMATION =      54.290263 KCALS/MOLE


          CARTESIAN COORDINATE DERIVATIVES

   NUMBER  ATOM         X            Y            Z

     1       O     -0.004238     0.002300    -0.001263
     2       O     -0.010362     0.002427    -0.004581
     3       C      0.005745    -0.003719     0.005320
     4       C     -0.005192     0.001649    -0.000358
     5       C     -0.003088     0.001313    -0.004128
     6       C     -0.006162    -0.003806    -0.003050
     7       C     -0.004484    -0.001260    -0.008745
     8       C     -0.006296    -0.001178    -0.000802
     9       C      0.000126     0.006618     0.010527
    10       H      0.011147    -0.003154    -0.008341
    11       H      0.006741    -0.003723    -0.000697
    12       H      0.009415    -0.000918    -0.006306
    13       H      0.001750     0.008053    -0.000832
    14       H     -0.002257    -0.002295    -0.001667
    15       H      0.006715     0.004293    -0.003510
    16       H      0.000551    -0.003720    -0.004814
    17       H     -0.009968     0.005004     0.008216
    18       H      0.011039    -0.008368     0.007506
    19       H     -0.001181     0.000484     0.017524
 


          GRADIENT NORM =   0.04455


          TIME FOR SCF CALCULATION =    0.00

          TIME FOR DERIVATIVES     =    0.00

          MOLECULAR WEIGHT =  126.15



          ROTATIONAL CONSTANTS IN CM(-1)

          A =    0.07250680   B =    0.06861512   C =    0.05740618



           PRINCIPAL MOMENTS OF INERTIA IN UNITS OF 10**(-40)*GRAM-CM**2

          A =      386.0710   B =      407.9680   C =      487.6265


          ORIENTATION OF MOLECULE IN FORCE CALCULATION

    NO.       ATOM         X         Y         Z

     1          O      -0.7952   -1.4652   -0.3041
     2          O       0.7904   -1.4652   -0.3041
     3          C      -1.3220   -0.1751   -0.3041
     4          C      -1.2669    0.4870    1.0878
     5          C       0.0148    1.2529    1.3815
     6          C       1.2878    0.4541    1.1401
     7          C       1.3383   -0.1816   -0.2662
     8          C      -0.6645    0.6993   -1.3837
     9          C       0.7751    0.8145   -1.2226
    10          H      -2.3790   -0.4213   -0.5651
    11          H      -0.0038    1.5926    2.4360
    12          H       0.0427    2.1840    0.7759
    13          H       1.3901   -0.3430    1.9032
    14          H       2.1661    1.1158    1.2666
    15          H      -1.4227   -0.2901    1.8632
    16          H      -2.1247    1.1815    1.1796
    17          H       2.3862   -0.4465   -0.5520
    18          H      -0.8139    0.2934   -2.4082
    19          H      -1.1021    1.7181   -1.4024


    FIRST DERIVATIVES WILL BE USED IN THE CALCULATION OF SECOND DERIVATIVES

          ESTIMATED TIME TO COMPLETE CALCULATION =        1.78 SECONDS

    FOR POINT-GROUP C1   THERE ARE   1 UNIQUE SYMMETRY FUNCTIONS.

 STEP:   1 TIME =     0.02 SECS, INTEGRAL =      0.02 TIME LEFT: 172799.98
 STEP:   2 TIME =     0.02 SECS, INTEGRAL =      0.03 TIME LEFT: 172799.96
 STEP:   3 TIME =     0.02 SECS, INTEGRAL =      0.05 TIME LEFT: 172799.94
 STEP:   4 TIME =     0.02 SECS, INTEGRAL =      0.07 TIME LEFT: 172799.93
 STEP:   5 TIME =     0.02 SECS, INTEGRAL =      0.08 TIME LEFT: 172799.91
 STEP:   6 TIME =     0.02 SECS, INTEGRAL =      0.10 TIME LEFT: 172799.89
 STEP:   7 TIME =     0.02 SECS, INTEGRAL =      0.12 TIME LEFT: 172799.88
 STEP:   8 TIME =     0.02 SECS, INTEGRAL =      0.13 TIME LEFT: 172799.86
 STEP:   9 TIME =     0.02 SECS, INTEGRAL =      0.15 TIME LEFT: 172799.84
 STEP:  10 TIME =     0.02 SECS, INTEGRAL =      0.17 TIME LEFT: 172799.82
 STEP:  11 TIME =     0.02 SECS, INTEGRAL =      0.18 TIME LEFT: 172799.81
 STEP:  12 TIME =     0.02 SECS, INTEGRAL =      0.20 TIME LEFT: 172799.79
 STEP:  13 TIME =     0.02 SECS, INTEGRAL =      0.21 TIME LEFT: 172799.78
 STEP:  14 TIME =     0.02 SECS, INTEGRAL =      0.23 TIME LEFT: 172799.76
 STEP:  15 TIME =     0.02 SECS, INTEGRAL =      0.25 TIME LEFT: 172799.75
 STEP:  16 TIME =     0.02 SECS, INTEGRAL =      0.26 TIME LEFT: 172799.73
 STEP:  17 TIME =     0.02 SECS, INTEGRAL =      0.28 TIME LEFT: 172799.71
 STEP:  18 TIME =     0.02 SECS, INTEGRAL =      0.29 TIME LEFT: 172799.70
 STEP:  19 TIME =     0.02 SECS, INTEGRAL =      0.31 TIME LEFT: 172799.68
 STEP:  20 TIME =     0.02 SECS, INTEGRAL =      0.33 TIME LEFT: 172799.66
 STEP:  21 TIME =     0.02 SECS, INTEGRAL =      0.34 TIME LEFT: 172799.65
 STEP:  22 TIME =     0.02 SECS, INTEGRAL =      0.36 TIME LEFT: 172799.63
 STEP:  23 TIME =     0.02 SECS, INTEGRAL =      0.38 TIME LEFT: 172799.62
 STEP:  24 TIME =     0.02 SECS, INTEGRAL =      0.39 TIME LEFT: 172799.60
 STEP:  25 TIME =     0.02 SECS, INTEGRAL =      0.41 TIME LEFT: 172799.59
 STEP:  26 TIME =     0.02 SECS, INTEGRAL =      0.43 TIME LEFT: 172799.57
 STEP:  27 TIME =     0.02 SECS, INTEGRAL =      0.44 TIME LEFT: 172799.55
 STEP:  28 TIME =     0.02 SECS, INTEGRAL =      0.46 TIME LEFT: 172799.54
 STEP:  29 TIME =     0.02 SECS, INTEGRAL =      0.47 TIME LEFT: 172799.52
 STEP:  30 TIME =     0.02 SECS, INTEGRAL =      0.49 TIME LEFT: 172799.50
 STEP:  31 TIME =     0.02 SECS, INTEGRAL =      0.51 TIME LEFT: 172799.48
 STEP:  32 TIME =     0.02 SECS, INTEGRAL =      0.52 TIME LEFT: 172799.47
 STEP:  33 TIME =     0.02 SECS, INTEGRAL =      0.54 TIME LEFT: 172799.45
 STEP:  34 TIME =     0.02 SECS, INTEGRAL =      0.56 TIME LEFT: 172799.43
 STEP:  35 TIME =     0.02 SECS, INTEGRAL =      0.57 TIME LEFT: 172799.42
 STEP:  36 TIME =     0.02 SECS, INTEGRAL =      0.59 TIME LEFT: 172799.40
 STEP:  37 TIME =     0.02 SECS, INTEGRAL =      0.61 TIME LEFT: 172799.39
 STEP:  38 TIME =     0.02 SECS, INTEGRAL =      0.62 TIME LEFT: 172799.37
 STEP:  39 TIME =     0.02 SECS, INTEGRAL =      0.64 TIME LEFT: 172799.35
 STEP:  40 TIME =     0.02 SECS, INTEGRAL =      0.66 TIME LEFT: 172799.34
 STEP:  41 TIME =     0.02 SECS, INTEGRAL =      0.67 TIME LEFT: 172799.32
 STEP:  42 TIME =     0.02 SECS, INTEGRAL =      0.69 TIME LEFT: 172799.30
 STEP:  43 TIME =     0.02 SECS, INTEGRAL =      0.70 TIME LEFT: 172799.29
 STEP:  44 TIME =     0.02 SECS, INTEGRAL =      0.72 TIME LEFT: 172799.27
 STEP:  45 TIME =     0.02 SECS, INTEGRAL =      0.73 TIME LEFT: 172799.26
 STEP:  46 TIME =     0.02 SECS, INTEGRAL =      0.75 TIME LEFT: 172799.24
 STEP:  47 TIME =     0.02 SECS, INTEGRAL =      0.77 TIME LEFT: 172799.23
 STEP:  48 TIME =     0.02 SECS, INTEGRAL =      0.79 TIME LEFT: 172799.21
 STEP:  49 TIME =     0.02 SECS, INTEGRAL =      0.80 TIME LEFT: 172799.19
 STEP:  50 TIME =     0.02 SECS, INTEGRAL =      0.82 TIME LEFT: 172799.18
 STEP:  51 TIME =     0.02 SECS, INTEGRAL =      0.83 TIME LEFT: 172799.16
 STEP:  52 TIME =     0.02 SECS, INTEGRAL =      0.85 TIME LEFT: 172799.14
 STEP:  53 TIME =     0.02 SECS, INTEGRAL =      0.87 TIME LEFT: 172799.12
 STEP:  54 TIME =     0.02 SECS, INTEGRAL =      0.88 TIME LEFT: 172799.11
 STEP:  55 TIME =     0.02 SECS, INTEGRAL =      0.90 TIME LEFT: 172799.09
 STEP:  56 TIME =     0.02 SECS, INTEGRAL =      0.91 TIME LEFT: 172799.08
 STEP:  57 TIME =     0.02 SECS, INTEGRAL =      0.93 TIME LEFT: 172799.06

(To convert to Hartree/Bohr^2, multiply by (10^(-21) x N x a0^2)/(4.184 x 627.51) =  0.0642)


           FORCE MATRIX IN MILLIDYNES/ANGSTROM


                  O  1       O  2       C  3       C  4       C  5       C  6
 ------------------------------------------------------------------------------
     O    1   8.450043
     O    2   2.113847   8.321450
     C    3   5.365179   1.074088  14.388001
     C    4   0.879681   0.047250   3.430576  14.062204
     C    5   0.024524   0.024778   0.557663   4.125550  14.187175
     C    6   0.048125   0.856659   0.039015   0.595186   4.138164  13.946067
     C    7   1.069160   5.251302   0.135669   0.041217   0.584025   3.331812
     C    8   0.971070   0.117389   3.460423   0.556029   0.085242   0.061491
     C    9   0.133138   0.935931   0.836298   0.053552   0.092228   0.605755
     H   10   0.687821   0.116583   4.214664   0.405934   0.042398   0.003141
     H   11   0.003481   0.003518   0.047081   0.429677   4.483724   0.425937
     H   12   0.001652   0.001891   0.014166   0.440304   4.376315   0.448946
     H   13   0.005059   0.065816   0.006533   0.010182   0.443850   4.478470
     H   14   0.005387   0.055748   0.005602   0.049525   0.431794   4.520357
     H   15   0.069907   0.006342   0.461573   4.467812   0.439831   0.010573
     H   16   0.060433   0.006994   0.412581   4.490687   0.429669   0.050914
     H   17   0.119848   0.716607   0.017216   0.004118   0.042095   0.418026
     H   18   0.028288   0.011684   0.447963   0.044403   0.006845   0.009593
     H   19   0.067540   0.008551   0.413515   0.019732   0.015862   0.013938


                  C  7       C  8       C  9       H 10       H 11       H 12
 ------------------------------------------------------------------------------
     C    7  14.224594
     C    8   0.875691  14.284461
     C    9   4.371801   5.673521   9.610709
     H   10   0.018870   0.422904   0.054257   4.871005
     H   11   0.046274   0.004652   0.009760   0.007577   5.086554
     H   12   0.016640   0.035648   0.052545   0.001553   0.574457   4.994020
     H   13   0.507489   0.009716   0.049660   0.000715   0.035280   0.045387
     H   14   0.413271   0.006891   0.022356   0.001075   0.031473   0.036137
     H   15   0.003044   0.042371   0.008275   0.020264   0.036757   0.044611
     H   16   0.004770   0.010242   0.005691   0.038919   0.032933   0.036730
     H   17   4.151522   0.065293   0.384808   0.006914   0.007212   0.001574
     H   18   0.052240   4.333388   0.274392   0.025788   0.000507   0.002489
     H   19   0.071311   4.427100   0.380069   0.016911   0.000941   0.025477


                  H 13       H 14       H 15       H 16       H 17       H 18
 ------------------------------------------------------------------------------
     H   13   5.082729
     H   14   0.552672   5.110548
     H   15   0.005815   0.001503   5.075014
     H   16   0.001636   0.008175   0.562500   5.082370
     H   17   0.015267   0.038233   0.000856   0.001255   4.824527
     H   18   0.001531   0.000991   0.006987   0.000631   0.010975   4.949555
     H   19   0.002721   0.000811   0.001854   0.004662   0.003313   0.566295


                  H 19
 ------------------
     H   19   5.035483


          HEAT OF FORMATION =      54.290263 KCALS/MOLE

          ZERO POINT ENERGY      98.059 KCAL/MOL


           NORMAL COORDINATE ANALYSIS (Total motion = 1 Angstrom)


   Root No.       1         2         3         4         5         6         7         8

                 1 A       2 A       3 A       4 A       5 A       6 A       7 A       8 A   

                 123.5     242.4     265.4     323.8     344.1     424.4     468.3     498.4
  
           1   -0.0160    0.0081   -0.0132    0.0219    0.0030    0.0018   -0.0196   -0.0183
           2    0.0026    0.0064   -0.0051   -0.0048   -0.0172    0.0214   -0.0316    0.0144
           3   -0.0542    0.0267   -0.0129   -0.0366    0.0164    0.0549    0.0347   -0.0183
           4   -0.0160    0.0056   -0.0135    0.0207   -0.0006   -0.0005   -0.0263    0.0074
           5   -0.0060    0.0021    0.0073   -0.0033   -0.0266    0.0182    0.0229    0.0330
           6    0.0600    0.0049    0.0298    0.0439   -0.0029    0.0508   -0.0236   -0.0176
           7   -0.0028    0.0028   -0.0071   -0.0025   -0.0019   -0.0092   -0.0038   -0.0422
           8    0.0072    0.0045   -0.0042   -0.0142   -0.0191    0.0160   -0.0268   -0.0017
           9   -0.0065   -0.0050   -0.0170   -0.0009   -0.0056   -0.0221   -0.0361    0.0131
          10    0.0148   -0.0288    0.0139    0.0029   -0.0203   -0.0121    0.0360   -0.0330
          11   -0.0410    0.0171    0.0062    0.0279    0.0093   -0.0364   -0.0169    0.0006
          12    0.0157   -0.0131   -0.0213   -0.0212   -0.0221   -0.0033   -0.0400    0.0056
          13   -0.0066   -0.0106    0.0246    0.0201   -0.0073   -0.0027    0.0186    0.0042
          14   -0.0011   -0.0363   -0.0221    0.0019   -0.0017   -0.0413    0.0058   -0.0386
          15    0.0032    0.0471    0.0196   -0.0072   -0.0349   -0.0378    0.0015   -0.0345
          16    0.0181    0.0067    0.0373    0.0021    0.0110    0.0065    0.0253    0.0429
          17    0.0449    0.0103    0.0046   -0.0276    0.0172   -0.0365    0.0147    0.0032
          18   -0.0193   -0.0187    0.0011    0.0148   -0.0333   -0.0089    0.0372    0.0221
          19   -0.0028    0.0047   -0.0110   -0.0033    0.0070    0.0110   -0.0197    0.0366
          20   -0.0096    0.0024    0.0085    0.0070   -0.0306    0.0145    0.0220    0.0138
          21    0.0038   -0.0138    0.0009   -0.0002   -0.0130   -0.0252    0.0342    0.0235
          22    0.0046    0.0040   -0.0094   -0.0369    0.0055    0.0029   -0.0022   -0.0018
          23    0.0212    0.0047   -0.0262    0.0170    0.0326    0.0246    0.0054   -0.0197
          24    0.0093   -0.0033   -0.0350    0.0109    0.0414   -0.0137   -0.0091    0.0259
          25    0.0104    0.0082   -0.0234   -0.0320    0.0034    0.0025    0.0004    0.0038
          26   -0.0251   -0.0217    0.0409   -0.0117    0.0309    0.0256   -0.0059   -0.0277
          27   -0.0183   -0.0395    0.0450   -0.0099    0.0624   -0.0128   -0.0100   -0.0030
          28   -0.0065    0.0082   -0.0119   -0.0008    0.0066    0.0005   -0.0079   -0.0404
          29    0.0263   -0.0071    0.0025   -0.0461   -0.0310    0.0106   -0.0085    0.0027
          30   -0.0096   -0.0183   -0.0033    0.0197   -0.0287   -0.0516   -0.0311    0.0023
          31   -0.0030   -0.0073    0.0117    0.0092   -0.0023    0.0011   -0.0315   -0.0044
          32   -0.0100   -0.1283   -0.0639    0.0073   -0.0023   -0.0014    0.0019    0.0362
          33    0.0063    0.0772    0.0329   -0.0091   -0.0346   -0.0513    0.0020   -0.0597
          34   -0.0475   -0.0123    0.0302    0.0556   -0.0131   -0.0037    0.0355    0.0109
          35    0.0045    0.0130    0.0001   -0.0003    0.0042   -0.0629    0.0093   -0.0771
          36    0.0107    0.1241    0.0529   -0.0093   -0.0283   -0.0725    0.0080   -0.0981
          37    0.0824    0.0750    0.0822   -0.0470    0.0547   -0.0283    0.0336    0.0901
          38    0.0775    0.0145    0.0109   -0.0511    0.0520   -0.0661    0.0219    0.0244
          39    0.0060   -0.0233    0.0010   -0.0016   -0.0050   -0.0329    0.0425    0.0356
          40   -0.0053   -0.0181    0.0267    0.0229   -0.0077    0.0083    0.0273    0.0082
          41    0.0875    0.0506    0.0255   -0.0645    0.0527   -0.0517    0.0156    0.0542
          42   -0.0781   -0.0504   -0.0325    0.0586   -0.0839    0.0496    0.0217    0.0083
          43    0.0697   -0.1118   -0.0261   -0.0462   -0.0514    0.0290    0.0549   -0.0839
          44   -0.0748    0.0332    0.0124    0.0623    0.0395   -0.0709   -0.0229    0.0295
          45   -0.0068   -0.0140   -0.0231    0.0015    0.0002   -0.0272   -0.0411    0.0220
          46   -0.0092    0.0010    0.0348    0.0269   -0.0069   -0.0197    0.0281    0.0069
          47   -0.0778    0.0621    0.0348    0.0653    0.0321   -0.0559   -0.0289    0.0548
          48    0.0690   -0.0650   -0.0377   -0.0730   -0.0622    0.0610   -0.0281   -0.0162
          49   -0.0066    0.0061   -0.0232   -0.0029    0.0010    0.0007   -0.0240    0.0335
          50   -0.0322   -0.0015    0.0068    0.0345   -0.0372    0.0110    0.0009    0.0046
          51    0.0098   -0.0068   -0.0424   -0.0218   -0.0264   -0.0547    0.0307    0.0191
          52   -0.0292   -0.0367    0.0762   -0.0961    0.0208    0.0056   -0.0968    0.0067
          53    0.0580    0.0340   -0.1000    0.0832    0.0943    0.0346    0.1304   -0.0350
          54   -0.0003   -0.0084   -0.0190   -0.0050    0.0162   -0.0179   -0.0404    0.0293
          55    0.0395    0.0357   -0.0724   -0.0065   -0.0060   -0.0003    0.0586    0.0193
          56    0.0373    0.0198   -0.0566    0.0332    0.0298    0.0239    0.0381   -0.0115
          57    0.0466    0.0331   -0.1171    0.0862    0.0990   -0.0069    0.1265   -0.0018


   Root No.       9        10        11        12        13        14        15        16

                 9 A      10 A      11 A      12 A      13 A      14 A      15 A      16 A   

                 541.6     647.6     699.5     745.0     850.9     862.2     894.5     906.8
  
           1    0.0300   -0.0335    0.0144   -0.0807    0.0119    0.0120   -0.0049   -0.0016
           2    0.0517    0.0050   -0.0015   -0.0321   -0.0033   -0.0158   -0.0077    0.0121
           3    0.0187    0.0029    0.0091    0.0074   -0.0048   -0.0005   -0.0035    0.0011
           4    0.0357    0.0301   -0.0053    0.0820    0.0135   -0.0092   -0.0035   -0.0115
           5   -0.0390    0.0089   -0.0024   -0.0320   -0.0010   -0.0001   -0.0268   -0.0025
           6   -0.0238    0.0033   -0.0037    0.0026    0.0035   -0.0021   -0.0039    0.0040
           7   -0.0123   -0.0433   -0.0141    0.0122   -0.0295   -0.0195    0.0174   -0.0038
           8    0.0417   -0.0044   -0.0039    0.0016   -0.0061   -0.0155    0.0089   -0.0022
           9   -0.0267   -0.0135   -0.0123   -0.0034   -0.0061   -0.0258    0.0138   -0.0100
          10    0.0021    0.0096    0.0150    0.0033   -0.0201   -0.0341   -0.0354    0.0132
          11   -0.0050    0.0045   -0.0056   -0.0006    0.0349    0.0068    0.0146    0.0048
          12   -0.0073   -0.0200   -0.0302    0.0153   -0.0022    0.0346   -0.0116   -0.0190
          13   -0.0030    0.0016    0.0073    0.0001    0.0083    0.0069   -0.0107   -0.0126
          14   -0.0054    0.0209    0.0040   -0.0033    0.0030    0.0234    0.0080    0.0118
          15    0.0005    0.0044   -0.0008    0.0152   -0.0012    0.0332   -0.0128    0.0442
          16    0.0125   -0.0068    0.0036   -0.0029   -0.0092    0.0282    0.0482   -0.0086
          17    0.0069    0.0065    0.0026    0.0000   -0.0308    0.0125    0.0154   -0.0131
          18    0.0193   -0.0184    0.0106    0.0172    0.0023    0.0029    0.0289    0.0207
          19   -0.0007    0.0454   -0.0105   -0.0155   -0.0323    0.0059    0.0042    0.0434
          20   -0.0358   -0.0021   -0.0012    0.0040    0.0060   -0.0009   -0.0044   -0.0166
          21    0.0312   -0.0141    0.0107   -0.0018    0.0076   -0.0146   -0.0071   -0.0358
          22   -0.0423   -0.0012   -0.0148    0.0034    0.0154    0.0060   -0.0050   -0.0128
          23    0.0190   -0.0196    0.0524    0.0344   -0.0185    0.0072    0.0042   -0.0115
          24   -0.0463    0.0153    0.0552   -0.0150    0.0115   -0.0194    0.0056    0.0088
          25   -0.0457   -0.0043   -0.0124   -0.0031    0.0116   -0.0083    0.0094    0.0065
          26   -0.0460   -0.0153   -0.0288    0.0187    0.0181   -0.0169    0.0188    0.0158
          27    0.0419    0.0216   -0.0362   -0.0269   -0.0136    0.0056   -0.0182   -0.0100
          28   -0.0046   -0.0472   -0.0026   -0.0056   -0.0165    0.0013    0.0229   -0.0089
          29   -0.0138    0.0123   -0.0332    0.0946   -0.0300   -0.0420    0.0017   -0.0181
          30   -0.0048   -0.0113   -0.0292   -0.0237   -0.0279   -0.0730   -0.0119    0.0155
          31   -0.0201   -0.0016   -0.0270   -0.0004    0.0189    0.0523   -0.0754   -0.0750
          32    0.0062   -0.0929   -0.0306    0.0858   -0.0078    0.1058   -0.0600    0.1499
          33   -0.0037    0.0433    0.0101   -0.0146    0.0026    0.0062    0.0082   -0.0028
          34   -0.0021   -0.0001    0.0219    0.0021    0.0772   -0.0165    0.0084    0.0350
          35   -0.0118    0.0824    0.0196   -0.0507    0.0080   -0.0186    0.0411   -0.0591
          36   -0.0104    0.1053    0.0263   -0.0621    0.0105   -0.0328    0.0453   -0.0687
          37    0.0727   -0.0882   -0.0004    0.0488    0.1087   -0.0263   -0.0158    0.0835
          38    0.0549   -0.0281    0.0061    0.0183    0.0148   -0.0269   -0.0065    0.0012
          39    0.0580   -0.0401    0.0154    0.0268    0.0310   -0.0301    0.0156    0.0183
          40   -0.0101    0.0148    0.0107   -0.0197   -0.0293    0.0662    0.0664   -0.0525
          41    0.0526   -0.0395   -0.0059    0.0317    0.0233   -0.0483   -0.0257    0.0533
          42   -0.0519    0.0573    0.0070   -0.0214   -0.1161    0.0450    0.1036   -0.0199
          43    0.0547    0.0821    0.0365   -0.0474    0.1189   -0.0361    0.0517    0.0278
          44   -0.0581   -0.0249   -0.0143    0.0189   -0.0188   -0.0007   -0.0251   -0.0167
          45   -0.0469   -0.0319   -0.0337    0.0221   -0.0248    0.0242   -0.0300   -0.0375
          46   -0.0154   -0.0121    0.0089    0.0227   -0.0582   -0.0391   -0.0925   -0.0112
          47   -0.0387   -0.0333   -0.0162    0.0304   -0.0345   -0.0026   -0.0643   -0.0249
          48    0.0717    0.0458   -0.0165   -0.0236    0.1297    0.0473    0.0482   -0.0276
          49    0.0105    0.0493   -0.0057    0.0057   -0.0257   -0.0136   -0.0190    0.0399
          50    0.0297    0.0130   -0.0134    0.0972    0.0329   -0.0063   -0.0180   -0.0651
          51    0.0123   -0.0103    0.0381   -0.0172   -0.0011   -0.0792   -0.0720    0.0034
          52   -0.0725    0.0167    0.2801    0.0467    0.0268    0.1155   -0.0999   -0.0374
          53    0.0276    0.0101   -0.0652    0.0214    0.0109    0.0774   -0.0621    0.0024
          54   -0.0440    0.0016    0.0489   -0.0176   -0.0009   -0.0633    0.0448    0.0065
          55    0.0091    0.0291   -0.1570   -0.0425    0.0390    0.0283   -0.0478   -0.0943
          56    0.0419   -0.0059   -0.0183    0.0144   -0.0080    0.0170   -0.0145   -0.0445
          57   -0.0489    0.0348   -0.1175   -0.0344    0.0387    0.0015   -0.0190    0.0448


   Root No.      17        18        19        20        21        22        23        24

                17 A      18 A      19 A      20 A      21 A      22 A      23 A      24 A   

                 925.7     942.7     985.3     999.4    1013.1    1060.4    1074.0    1081.7
  
           1   -0.0007   -0.0136   -0.0083    0.0053    0.0063   -0.0106   -0.0027   -0.0064
           2   -0.0205   -0.0290    0.0296    0.0007   -0.0188    0.0134   -0.0057    0.0114
           3   -0.0002   -0.0024   -0.0030   -0.0010   -0.0009   -0.0001   -0.0006    0.0001
           4   -0.0021   -0.0126    0.0001   -0.0083   -0.0043    0.0076    0.0082   -0.0053
           5    0.0044    0.0340   -0.0097   -0.0183   -0.0129   -0.0009    0.0164   -0.0056
           6    0.0007    0.0010   -0.0020   -0.0006   -0.0012    0.0002   -0.0003   -0.0016
           7   -0.0101    0.0585    0.0351   -0.0197    0.0059    0.0068    0.0003   -0.0053
           8   -0.0133    0.0038    0.0094   -0.0072    0.0137   -0.0021    0.0009   -0.0093
           9   -0.0056    0.0130   -0.0070    0.0158   -0.0059    0.0174    0.0081   -0.0075
          10   -0.0130   -0.0101   -0.0053    0.0185    0.0026   -0.0092   -0.0006    0.0027
          11    0.0154    0.0290    0.0046    0.0088    0.0245   -0.0033    0.0114    0.0025
          12    0.0221   -0.0004    0.0084    0.0073   -0.0132   -0.0127   -0.0177   -0.0006
          13    0.0108   -0.0152    0.0024   -0.0123    0.0039   -0.0038   -0.0094    0.0031
          14   -0.0065   -0.0039   -0.0099   -0.0160   -0.0265    0.0003   -0.0083   -0.0033
          15   -0.0104   -0.0110   -0.0139   -0.0153    0.0113    0.0093    0.0102    0.0041
          16   -0.0046   -0.0084    0.0055   -0.0044   -0.0048    0.0176    0.0034   -0.0051
          17   -0.0015   -0.0261    0.0087    0.0114    0.0259    0.0008    0.0004    0.0040
          18   -0.0067   -0.0010   -0.0001    0.0211   -0.0145   -0.0174   -0.0096   -0.0108
          19    0.0299    0.0308   -0.0090    0.0055   -0.0056   -0.0154   -0.0074   -0.0058
          20   -0.0080    0.0070    0.0012   -0.0008    0.0127    0.0059   -0.0051    0.0056
          21    0.0167   -0.0022    0.0099   -0.0163   -0.0018    0.0032    0.0122    0.0169
          22   -0.0212   -0.0058   -0.0001    0.0066   -0.0016    0.0006    0.0041    0.0074
          23    0.0280    0.0158   -0.0463    0.0028   -0.0053   -0.0018    0.0086    0.0107
          24   -0.0353   -0.0110    0.0053   -0.0204    0.0148   -0.0064   -0.0066   -0.0024
          25    0.0169   -0.0293   -0.0130    0.0034   -0.0088   -0.0049    0.0210    0.0260
          26    0.0179   -0.0401    0.0023    0.0092   -0.0028    0.0019   -0.0101   -0.0147
          27   -0.0094    0.0225   -0.0099   -0.0083    0.0071    0.0031    0.0059    0.0089
          28   -0.0087    0.0470    0.0308   -0.0364    0.0015   -0.0036   -0.0321    0.0080
          29   -0.0482    0.0561    0.0530   -0.0556    0.0483   -0.0697   -0.0412   -0.0930
          30    0.0250    0.0158   -0.0391    0.1347   -0.0057    0.1024    0.1751   -0.0035
          31    0.0751   -0.0129    0.0297   -0.0844    0.0191   -0.0515    0.0022    0.0825
          32   -0.0557   -0.0321   -0.0379   -0.0520    0.0450    0.0335    0.0277    0.0090
          33    0.0081   -0.0018   -0.0043   -0.0025   -0.0124   -0.0047   -0.0025    0.0014
          34    0.0041    0.0323   -0.0219    0.0081    0.0075    0.0347   -0.0769   -0.0110
          35    0.0171    0.0088    0.0035    0.0038   -0.0699   -0.0205   -0.0317   -0.0128
          36    0.0278    0.0116    0.0067    0.0155   -0.0606   -0.0202   -0.0293   -0.0119
          37   -0.0134    0.0831   -0.0298    0.0092   -0.0181    0.0340   -0.0601    0.0418
          38    0.0150   -0.0153    0.0069    0.0033   -0.0534   -0.0660    0.0266   -0.0626
          39    0.0139   -0.0039    0.0044    0.0099   -0.0929   -0.0874    0.0262   -0.0849
          40   -0.0133   -0.0660    0.0116   -0.0624   -0.0335    0.0486    0.0619   -0.0540
          41    0.0109    0.0560   -0.0048    0.0736    0.0412   -0.0434   -0.0692    0.0545
          42    0.0034   -0.0234    0.0300    0.0930    0.1053    0.0026   -0.0668    0.0709
          43    0.0235    0.0867   -0.0196    0.0395    0.0124    0.0380   -0.0229    0.0533
          44    0.0165    0.0069   -0.0188    0.0388   -0.0568    0.0140   -0.0627    0.0403
          45    0.0309   -0.0004   -0.0174    0.0432   -0.0911    0.0157   -0.0937    0.0459
          46   -0.0067   -0.0765   -0.0040    0.0494    0.0349   -0.0849    0.0161   -0.0288
          47    0.0152   -0.0581    0.0040    0.0453    0.0470   -0.0872    0.0233   -0.0330
          48    0.0727    0.0285    0.0258    0.0332    0.1135   -0.0846    0.0646   -0.0433
          49    0.0603    0.0133    0.0011   -0.0045    0.0153    0.0154   -0.0330   -0.0078
          50   -0.1130    0.0186    0.0187    0.0252    0.0132   -0.0288   -0.0150    0.1153
          51    0.2122   -0.0752    0.0375   -0.0586    0.0839    0.1370   -0.0902   -0.0746
          52   -0.0472    0.0616    0.1256    0.1062   -0.0124    0.0586   -0.0060   -0.0655
          53    0.0335    0.0342    0.1345    0.0774   -0.0258    0.0282    0.0217   -0.0185
          54   -0.0345   -0.0288   -0.0834   -0.0622    0.0244   -0.0248   -0.0095    0.0190
          55   -0.1315    0.0021   -0.1802    0.0506    0.0413    0.0591   -0.0733   -0.1081
          56   -0.0179    0.0192   -0.1173    0.0215    0.0131    0.0223   -0.0238   -0.0385
          57   -0.0273   -0.0189    0.2046    0.0091   -0.0067    0.0028    0.0124    0.0020


   Root No.      25        26        27        28        29        30        31        32

                25 A      26 A      27 A      28 A      29 A      30 A      31 A      32 A   

                1110.2    1138.3    1140.8    1162.3    1171.1    1224.1    1246.8    1275.8
  
           1   -0.0071   -0.0168   -0.0026    0.0151    0.0109   -0.0040    0.0045   -0.0017
           2    0.0036    0.0093    0.0089   -0.0121   -0.0054    0.0017   -0.0036    0.0065
           3    0.0005   -0.0007   -0.0013    0.0009    0.0013   -0.0001   -0.0035   -0.0009
           4   -0.0096   -0.0103    0.0133   -0.0194    0.0052   -0.0052   -0.0006   -0.0031
           5   -0.0150   -0.0021    0.0132   -0.0170    0.0016   -0.0327    0.0009   -0.0094
           6    0.0003   -0.0004   -0.0013    0.0009   -0.0007   -0.0040   -0.0010   -0.0007
           7    0.0088    0.0187    0.0030   -0.0152   -0.0107    0.0054   -0.0286    0.0018
           8    0.0017   -0.0065   -0.0084    0.0046    0.0057    0.0057   -0.0024   -0.0068
           9   -0.0020    0.0046   -0.0017    0.0014    0.0044   -0.0144    0.0844    0.0310
          10   -0.0029   -0.0118    0.0099    0.0000   -0.0166    0.0071    0.0110   -0.0096
          11    0.0035   -0.0048    0.0223    0.0057   -0.0158   -0.0009    0.0051   -0.0189
          12   -0.0129    0.0028   -0.0068   -0.0054   -0.0060    0.0095   -0.0206   -0.0296
          13    0.0063    0.0214   -0.0033   -0.0048    0.0186   -0.0163    0.0186   -0.0267
          14    0.0031   -0.0144   -0.0415   -0.0152    0.0003    0.0018    0.0019   -0.0003
          15    0.0002    0.0047    0.0137    0.0102    0.0013    0.0090    0.0068   -0.0012
          16    0.0006   -0.0164   -0.0036    0.0049   -0.0133   -0.0037   -0.0002   -0.0176
          17   -0.0101    0.0193    0.0188    0.0006    0.0147   -0.0114   -0.0071    0.0234
          18    0.0126   -0.0051    0.0007   -0.0116    0.0016   -0.0486   -0.0133    0.0288
          19    0.0180    0.0123   -0.0132    0.0204   -0.0045    0.0504    0.0027    0.0125
          20    0.0061    0.0003   -0.0129    0.0091   -0.0045    0.0326   -0.0053    0.0094
          21    0.0014   -0.0066   -0.0046    0.0080    0.0001    0.0972    0.0138   -0.0052
          22   -0.0062    0.0015   -0.0002   -0.0005    0.0001   -0.0221    0.0024    0.0007
          23   -0.0066    0.0024   -0.0021    0.0015    0.0004   -0.0102    0.0047    0.0027
          24    0.0089   -0.0003    0.0036   -0.0029   -0.0038    0.0078   -0.0239   -0.0081
          25   -0.0138   -0.0032   -0.0064    0.0028    0.0045   -0.0127    0.0056   -0.0015
          26    0.0174   -0.0005    0.0018    0.0036    0.0001    0.0337    0.0040   -0.0011
          27   -0.0139    0.0009   -0.0007   -0.0032   -0.0000   -0.0297   -0.0023    0.0005
          28    0.0058    0.0559    0.0203   -0.0467   -0.0567    0.0097    0.0402    0.0150
          29   -0.0667   -0.1776   -0.0087    0.1532    0.1320   -0.0245    0.0008    0.0146
          30    0.0570   -0.0258   -0.0757    0.0244    0.0969   -0.0098   -0.2003   -0.0441
          31    0.2046   -0.0303    0.0396   -0.0313    0.1119   -0.0637   -0.0346    0.1518
          32    0.0014    0.0020    0.0097    0.0150    0.0001    0.0285    0.0128   -0.0100
          33    0.0042   -0.0012   -0.0006   -0.0002    0.0026   -0.0009    0.0009    0.0043
          34   -0.1453    0.1901   -0.0508   -0.0166    0.1704    0.0809   -0.0620    0.0710
          35    0.0073   -0.0283   -0.0740   -0.0337   -0.0039   -0.0100   -0.0112   -0.0071
          36    0.0003   -0.0091   -0.0374   -0.0168    0.0017   -0.0066   -0.0171   -0.0067
          37   -0.0015   -0.1070   -0.1150   -0.0586   -0.0306   -0.0211   -0.0267    0.0772
          38    0.0380    0.0902    0.0647    0.0449    0.0273   -0.0272    0.0085   -0.0579
          39    0.0638    0.0785    0.0639    0.0424    0.0168   -0.0623    0.0062   -0.0666
          40   -0.0270    0.0155    0.0076    0.0627   -0.0477   -0.0096   -0.0443    0.0911
          41    0.0288   -0.0145   -0.0035   -0.0632    0.0527   -0.0065    0.0422   -0.0971
          42    0.0104   -0.0415    0.0199   -0.0732    0.0524   -0.0338    0.0273   -0.0798
          43   -0.0117   -0.0208    0.1564    0.0693   -0.0347    0.0027   -0.0290    0.0687
          44   -0.0307   -0.0386    0.0982    0.0575   -0.0298    0.0088   -0.0798    0.0242
          45   -0.0496   -0.0305    0.0966    0.0596   -0.0228    0.0177   -0.1114    0.0271
          46   -0.0432   -0.0013   -0.0366   -0.0386   -0.0686    0.0233   -0.0298    0.0801
          47   -0.0438    0.0003   -0.0340   -0.0353   -0.0722    0.0196   -0.0422    0.0777
          48   -0.0357    0.0345   -0.0372   -0.0463   -0.0719   -0.0002   -0.0487    0.0474
          49    0.0235    0.0350   -0.0468    0.0623   -0.0319   -0.0645   -0.0034   -0.0002
          50    0.0384    0.1087   -0.1376    0.1914   -0.0651   -0.1443    0.0064   -0.0258
          51    0.0123    0.0033   -0.0424    0.0367   -0.0558   -0.1789   -0.0196   -0.0183
          52    0.0391    0.0023   -0.0022   -0.0027    0.0093    0.0335    0.0140    0.0073
          53   -0.0068   -0.0156   -0.0103    0.0194    0.0135    0.0116    0.0973    0.0260
          54    0.0030    0.0071    0.0070   -0.0104   -0.0099   -0.0103   -0.0638   -0.0183
          55    0.0929    0.0239    0.0234   -0.0229   -0.0165    0.0591   -0.0242   -0.0036
          56    0.0347    0.0104    0.0076   -0.0063   -0.0062    0.0256   -0.0031    0.0015
          57   -0.0123   -0.0088   -0.0037   -0.0032    0.0086   -0.0153   -0.0388   -0.0114


   Root No.      33        34        35        36        37        38        39        40

                33 A      34 A      35 A      36 A      37 A      38 A      39 A      40 A   

                1312.7    1333.2    1348.7    1356.1    1390.6    1394.7    1401.8    1420.7
  
           1    0.0013    0.0034   -0.0027    0.0020    0.0014   -0.0026   -0.0011   -0.0000
           2   -0.0156   -0.0106    0.0142   -0.0306   -0.0133    0.0190    0.0065    0.0020
           3   -0.0000   -0.0006    0.0001   -0.0008   -0.0005   -0.0000    0.0006   -0.0001
           4    0.0004   -0.0009   -0.0026    0.0029    0.0017   -0.0034   -0.0013   -0.0003
           5   -0.0104   -0.0002   -0.0104   -0.0116    0.0084   -0.0295   -0.0051    0.0005
           6   -0.0001   -0.0002   -0.0004    0.0000   -0.0001   -0.0010   -0.0005   -0.0001
           7   -0.0128   -0.0135    0.0105   -0.0113   -0.0009   -0.0075    0.0046   -0.0008
           8    0.0289    0.0115   -0.0233    0.0719    0.0289   -0.0355   -0.0135   -0.0064
           9   -0.0130    0.0123    0.0024    0.0071    0.0016    0.0052   -0.0034   -0.0004
          10    0.0231    0.0072   -0.0233   -0.0201    0.0064    0.0226   -0.0344    0.0153
          11    0.0229    0.0057   -0.0123   -0.0288   -0.0096    0.0124   -0.0026    0.0138
          12    0.0304    0.0039   -0.0241   -0.0183   -0.0212   -0.0009    0.0168    0.0069
          13    0.0092    0.0037    0.0646    0.0083    0.0179   -0.0187    0.0370   -0.0025
          14   -0.0123   -0.0060   -0.0008    0.0017    0.0016    0.0007   -0.0019   -0.0500
          15   -0.0145   -0.0032    0.0017    0.0044    0.0042    0.0009   -0.0007   -0.0200
          16   -0.0246   -0.0078   -0.0200    0.0114   -0.0303    0.0016   -0.0277   -0.0124
          17    0.0221    0.0070    0.0102   -0.0173    0.0086   -0.0159    0.0057    0.0122
          18    0.0293    0.0073    0.0205   -0.0047   -0.0161   -0.0160   -0.0093    0.0055
          19    0.0078    0.0077    0.0091   -0.0028    0.0022    0.0013    0.0046    0.0013
          20    0.0227   -0.0011    0.0155    0.0423   -0.0158    0.0684    0.0097   -0.0035
          21   -0.0119    0.0045   -0.0001   -0.0142    0.0058   -0.0165    0.0006    0.0009
          22   -0.0003   -0.0159    0.0058    0.0117   -0.0113    0.0422    0.0082   -0.0034
          23   -0.0087    0.0264    0.0055   -0.0079   -0.0082    0.0193    0.0043   -0.0007
          24    0.0098   -0.0445   -0.0021    0.0003    0.0030   -0.0096   -0.0019    0.0014
          25    0.0060    0.0048   -0.0055   -0.0002    0.0055   -0.0205   -0.0060    0.0031
          26   -0.0063   -0.0005   -0.0031   -0.0159    0.0058   -0.0240   -0.0027    0.0009
          27    0.0061    0.0001    0.0012    0.0126   -0.0024    0.0155    0.0016   -0.0013
          28    0.0069    0.0040   -0.0129    0.0265    0.0148   -0.0189   -0.0112   -0.0006
          29   -0.0579   -0.0130    0.0470   -0.1015   -0.0343    0.0248    0.0244    0.0049
          30   -0.0152   -0.0357    0.0329    0.0088   -0.0048   -0.0036    0.0263   -0.0111
          31   -0.0221   -0.0049   -0.0899    0.0012   -0.0222    0.0174   -0.0649    0.0092
          32   -0.0874    0.0001    0.0107    0.0738   -0.0205   -0.0107    0.0080    0.2817
          33    0.0042   -0.0054   -0.0042   -0.0136    0.0078    0.0039   -0.0050   -0.1008
          34   -0.0177   -0.0167   -0.1082   -0.0128   -0.0274    0.0232   -0.0657    0.0022
          35   -0.0353   -0.0039    0.0056    0.0402   -0.0218   -0.0108    0.0071    0.1672
          36   -0.0445   -0.0020    0.0031    0.0549   -0.0298   -0.0131    0.0072    0.2699
          37    0.0219    0.0044   -0.0543   -0.0574    0.1651    0.0446    0.1160    0.0382
          38   -0.0493   -0.0236   -0.0693    0.0265    0.0768    0.0931    0.0569   -0.0061
          39   -0.0532   -0.0270   -0.0669    0.0451    0.0483    0.0991    0.0386   -0.0167
          40    0.0486    0.0122   -0.0409   -0.0426    0.0578    0.0191    0.0333    0.0341
          41   -0.0526   -0.0133    0.0511    0.0531   -0.1150   -0.0413   -0.0771   -0.0458
          42   -0.1002   -0.0323   -0.1069   -0.0201    0.1361    0.0563    0.0825    0.0020
          43   -0.0407   -0.0073   -0.0457    0.0707   -0.0913   -0.0886    0.1605   -0.0439
          44   -0.0413   -0.0151    0.0711    0.0450    0.0970    0.0150   -0.0991   -0.0073
          45   -0.0468   -0.0198    0.0635    0.0688    0.0787   -0.0109   -0.0607   -0.0218
          46   -0.0724   -0.0186   -0.0364    0.0470   -0.0421   -0.0364    0.0557   -0.0373
          47   -0.0778   -0.0210   -0.0362    0.0517   -0.0687   -0.0585    0.1048   -0.0475
          48   -0.0997   -0.0320    0.1133   -0.0230    0.0997    0.0583   -0.1290    0.0039
          49   -0.0114    0.0022   -0.0103   -0.0162    0.0014   -0.0239   -0.0070   -0.0003
          50   -0.0457   -0.0024   -0.0373   -0.0571    0.0127   -0.0891   -0.0221    0.0027
          51   -0.0219   -0.0161   -0.0226    0.0202   -0.0232    0.0325   -0.0126   -0.0093
          52   -0.0201    0.1130   -0.0065   -0.0051    0.0144   -0.0429   -0.0091   -0.0040
          53    0.0466   -0.2769   -0.0067    0.0211    0.0141   -0.0371   -0.0093    0.0112
          54   -0.0133    0.0836    0.0045   -0.0091   -0.0095    0.0262    0.0060   -0.0048
          55   -0.0218    0.0359   -0.0007   -0.0505    0.0076   -0.0482   -0.0047   -0.0007
          56   -0.0139    0.0295    0.0022   -0.0317    0.0009   -0.0205   -0.0015    0.0004
          57   -0.0380    0.3333   -0.0064    0.0336    0.0054    0.0223    0.0007   -0.0249


   Root No.      41        42        43        44        45        46        47        48

                41 A      42 A      43 A      44 A      45 A      46 A      47 A      48 A   

                1466.1    2917.8    2928.7    2936.4    2938.1    2960.5    2967.9    3024.1
  
           1    0.0081    0.0005   -0.0025   -0.0004   -0.0001   -0.0000    0.0000    0.0000
           2   -0.0176    0.0005    0.0021    0.0006   -0.0001   -0.0002    0.0000    0.0002
           3   -0.0011    0.0000   -0.0003   -0.0003   -0.0000   -0.0003    0.0001   -0.0000
           4   -0.0017   -0.0037    0.0005    0.0001    0.0001    0.0000    0.0000   -0.0000
           5    0.0208   -0.0032   -0.0003   -0.0000   -0.0000    0.0000    0.0002    0.0000
           6   -0.0002    0.0004   -0.0000   -0.0000   -0.0001    0.0000    0.0003    0.0000
           7   -0.0254   -0.0018   -0.0455   -0.0083   -0.0012   -0.0016    0.0002    0.0008
           8    0.0254   -0.0005   -0.0111   -0.0022   -0.0003   -0.0002   -0.0000   -0.0004
           9    0.0018   -0.0005   -0.0109   -0.0023   -0.0003   -0.0005    0.0001    0.0009
          10    0.0044   -0.0000    0.0022   -0.0004   -0.0027   -0.0167    0.0027   -0.0014
          11   -0.0013    0.0002   -0.0034    0.0014    0.0069    0.0362   -0.0053   -0.0002
          12    0.0005   -0.0001    0.0001   -0.0009   -0.0038   -0.0172    0.0025    0.0012
          13    0.0001    0.0002    0.0002   -0.0002   -0.0010    0.0002   -0.0002   -0.0000
          14   -0.0026   -0.0010    0.0019   -0.0038   -0.0171    0.0030   -0.0029   -0.0042
          15   -0.0011    0.0012   -0.0031    0.0072    0.0336   -0.0077    0.0086   -0.0032
          16   -0.0048    0.0019   -0.0003    0.0005    0.0023   -0.0029   -0.0182    0.0012
          17    0.0151    0.0029   -0.0006    0.0011    0.0054   -0.0064   -0.0373   -0.0002
          18    0.0066    0.0006    0.0003   -0.0006   -0.0029    0.0031    0.0175    0.0010
          19    0.0208   -0.0602    0.0012    0.0007    0.0010   -0.0002   -0.0011   -0.0007
          20   -0.0692    0.0162   -0.0002   -0.0003   -0.0003    0.0001    0.0001    0.0001
          21    0.0328    0.0157   -0.0003   -0.0003   -0.0003    0.0001    0.0003   -0.0001
          22    0.1414    0.0004   -0.0014    0.0050   -0.0009   -0.0002    0.0001    0.0162
          23    0.0191   -0.0005    0.0082   -0.0319    0.0060    0.0004   -0.0001   -0.0213
          24   -0.0042   -0.0002    0.0087   -0.0265    0.0053    0.0005   -0.0000    0.0221
          25   -0.1301   -0.0007    0.0006   -0.0002    0.0001   -0.0000   -0.0001    0.0007
          26    0.0276    0.0006    0.0003   -0.0004   -0.0000    0.0000   -0.0001   -0.0000
          27   -0.0389   -0.0002    0.0000   -0.0007   -0.0001    0.0000   -0.0002    0.0005
          28   -0.0131    0.0243    0.5769    0.1059    0.0132    0.0211   -0.0030   -0.0125
          29   -0.0787    0.0045    0.1107    0.0201    0.0028    0.0056   -0.0008   -0.0037
          30    0.0587    0.0058    0.1401    0.0246    0.0034    0.0059   -0.0009   -0.0013
          31    0.0049    0.0009    0.0001    0.0008    0.0037   -0.0010    0.0013   -0.0012
          32    0.0023   -0.0042    0.0079   -0.0159   -0.0771    0.0205   -0.0240    0.0167
          33   -0.0025   -0.0113    0.0216   -0.0439   -0.2150    0.0573   -0.0674    0.0644
          34    0.0014    0.0006   -0.0006    0.0020    0.0077   -0.0054   -0.0014    0.0013
          35   -0.0003    0.0118   -0.0280    0.0631    0.2854   -0.0558    0.0587    0.0347
          36    0.0017   -0.0076    0.0180   -0.0401   -0.1848    0.0338   -0.0348   -0.0266
          37    0.0040    0.0004   -0.0003    0.0007    0.0031   -0.0055   -0.0375   -0.0006
          38   -0.0594   -0.0039    0.0038   -0.0087   -0.0410    0.0455    0.2601    0.0128
          39   -0.0724    0.0060   -0.0040    0.0090    0.0419   -0.0449   -0.2533   -0.0119
          40    0.0108   -0.0290    0.0036   -0.0057   -0.0295    0.0434    0.2531   -0.0127
          41   -0.0058   -0.0195    0.0028   -0.0044   -0.0225    0.0317    0.1852   -0.0111
          42   -0.0131    0.0008    0.0005   -0.0010   -0.0047    0.0069    0.0413   -0.0012
          43   -0.0066   -0.0002    0.0019   -0.0024   -0.0080   -0.0516    0.0084    0.0018
          44    0.0065   -0.0013    0.0098   -0.0142   -0.0489   -0.2341    0.0339    0.0154
          45    0.0069    0.0014   -0.0130    0.0147    0.0520    0.2386   -0.0341   -0.0150
          46   -0.0074    0.0008   -0.0316    0.0057    0.0402    0.2502   -0.0367    0.0147
          47   -0.0120   -0.0009    0.0237   -0.0049   -0.0328   -0.1980    0.0293   -0.0138
          48   -0.0160   -0.0003   -0.0004   -0.0014   -0.0049   -0.0305    0.0046   -0.0006
          49    0.0326    0.7698   -0.0155   -0.0091   -0.0108    0.0028    0.0140    0.0039
          50    0.0218   -0.1587    0.0034    0.0018    0.0024   -0.0008   -0.0043   -0.0005
          51    0.0036   -0.2069    0.0041    0.0026    0.0028   -0.0008   -0.0047   -0.0011
          52   -0.1158    0.0016   -0.0184    0.0537   -0.0106   -0.0008    0.0001   -0.0329
          53   -0.0212    0.0039   -0.0439    0.1308   -0.0262   -0.0017   -0.0001   -0.1383
          54    0.0436    0.0087   -0.1059    0.3403   -0.0673   -0.0039   -0.0003   -0.2893
          55   -0.0891    0.0008    0.0263   -0.1127    0.0202    0.0015   -0.0005   -0.1612
          56   -0.0729   -0.0019   -0.0615    0.2531   -0.0456   -0.0038    0.0011    0.3955
          57    0.0391   -0.0003    0.0050   -0.0139    0.0028    0.0006   -0.0001    0.0157


   Root No.      49        50        51

                49 A      50 A      51 A   

                3026.8    3036.9    3041.2
  
           1   -0.0000   -0.0001    0.0000
           2   -0.0000   -0.0000    0.0000
           3    0.0000    0.0000    0.0000
           4    0.0000   -0.0000   -0.0001
           5   -0.0000   -0.0000    0.0000
           6    0.0000   -0.0000   -0.0000
           7   -0.0002   -0.0010    0.0004
           8    0.0002    0.0001    0.0000
           9    0.0001    0.0003   -0.0000
          10   -0.0070   -0.0202    0.0053
          11   -0.0013   -0.0003   -0.0004
          12    0.0060    0.0162   -0.0039
          13   -0.0000   -0.0005   -0.0002
          14   -0.0204    0.0059   -0.0072
          15   -0.0130    0.0048   -0.0062
          16    0.0047   -0.0068   -0.0210
          17   -0.0012    0.0006   -0.0001
          18    0.0042   -0.0058   -0.0166
          19    0.0001   -0.0002   -0.0009
          20    0.0001   -0.0001   -0.0000
          21    0.0002   -0.0002   -0.0003
          22   -0.0020    0.0001    0.0001
          23    0.0028   -0.0003   -0.0000
          24   -0.0027   -0.0002    0.0002
          25   -0.0001    0.0000   -0.0000
          26   -0.0001    0.0000   -0.0000
          27   -0.0002    0.0000    0.0001
          28    0.0048    0.0121   -0.0038
          29    0.0014    0.0030   -0.0009
          30    0.0019    0.0050   -0.0014
          31   -0.0058   -0.0015   -0.0041
          32    0.0742   -0.0262    0.0338
          33    0.2899   -0.0969    0.1226
          34    0.0052   -0.0018    0.0015
          35    0.1726   -0.0484    0.0589
          36   -0.1331    0.0383   -0.0470
          37   -0.0032    0.0034    0.0095
          38    0.0532   -0.0711   -0.2010
          39   -0.0491    0.0644    0.1804
          40   -0.0479    0.0791    0.2478
          41   -0.0425    0.0652    0.2004
          42   -0.0048    0.0074    0.0228
          43    0.0093    0.0231   -0.0056
          44    0.0758    0.2010   -0.0478
          45   -0.0723   -0.1884    0.0444
          46    0.0687    0.2242   -0.0589
          47   -0.0642   -0.1962    0.0507
          48   -0.0037   -0.0105    0.0027
          49   -0.0019    0.0027    0.0108
          50    0.0006   -0.0008   -0.0029
          51    0.0012   -0.0015   -0.0050
          52    0.0041    0.0002   -0.0003
          53    0.0171    0.0003   -0.0009
          54    0.0354    0.0007   -0.0022
          55    0.0205   -0.0013   -0.0002
          56   -0.0502    0.0027    0.0009
          57   -0.0018    0.0001    0.0001


           MASS-WEIGHTED COORDINATE ANALYSIS (NORMAL COORDINATES)


   Root No.       1         2         3         4         5         6         7         8

                 1 A       2 A       3 A       4 A       5 A       6 A       7 A       8 A   

                 123.5     242.4     265.4     323.8     344.1     424.4     468.3     498.4
  
           1   -0.1265    0.0747   -0.1143    0.1952    0.0251    0.0140   -0.1542   -0.1511
           2    0.0208    0.0596   -0.0443   -0.0427   -0.1436    0.1669   -0.2484    0.1188
           3   -0.4280    0.2474   -0.1118   -0.3260    0.1375    0.4290    0.2730   -0.1510
           4   -0.1265    0.0518   -0.1172    0.1844   -0.0053   -0.0043   -0.2069    0.0614
           5   -0.0473    0.0197    0.0636   -0.0293   -0.2226    0.1426    0.1806    0.2731
           6    0.4731    0.0454    0.2578    0.3917   -0.0242    0.3973   -0.1858   -0.1460
           7   -0.0193    0.0221   -0.0532   -0.0189   -0.0139   -0.0625   -0.0260   -0.3026
           8    0.0489    0.0365   -0.0318   -0.1096   -0.1385    0.1082   -0.1828   -0.0125
           9   -0.0447   -0.0398   -0.1277   -0.0072   -0.0404   -0.1496   -0.2460    0.0941
          10    0.1009   -0.2312    0.1046    0.0227   -0.1475   -0.0819    0.2455   -0.2369
          11   -0.2801    0.1374    0.0462    0.2156    0.0677   -0.2463   -0.1150    0.0042
          12    0.1074   -0.1048   -0.1599   -0.1639   -0.1606   -0.0220   -0.2726    0.0404
          13   -0.0448   -0.0852    0.1846    0.1550   -0.0531   -0.0181    0.1266    0.0299
          14   -0.0076   -0.2913   -0.1656    0.0146   -0.0121   -0.2800    0.0394   -0.2767
          15    0.0220    0.3772    0.1474   -0.0555   -0.2532   -0.2562    0.0101   -0.2477
          16    0.1235    0.0538    0.2795    0.0164    0.0796    0.0443    0.1727    0.3078
          17    0.3066    0.0826    0.0349   -0.2129    0.1247   -0.2472    0.1001    0.0233
          18   -0.1318   -0.1498    0.0084    0.1140   -0.2415   -0.0601    0.2535    0.1587
          19   -0.0189    0.0376   -0.0826   -0.0254    0.0506    0.0746   -0.1342    0.2622
          20   -0.0658    0.0193    0.0639    0.0538   -0.2216    0.0981    0.1499    0.0993
          21    0.0260   -0.1102    0.0065   -0.0012   -0.0943   -0.1705    0.2330    0.1687
          22    0.0312    0.0318   -0.0706   -0.2852    0.0396    0.0196   -0.0149   -0.0127
          23    0.1452    0.0376   -0.1967    0.1314    0.2361    0.1667    0.0366   -0.1414
          24    0.0637   -0.0264   -0.2623    0.0845    0.3003   -0.0927   -0.0622    0.1856
          25    0.0711    0.0656   -0.1759   -0.2475    0.0245    0.0167    0.0025    0.0275
          26   -0.1719   -0.1742    0.3071   -0.0901    0.2239    0.1733   -0.0402   -0.1984
          27   -0.1254   -0.3164    0.3377   -0.0766    0.4525   -0.0864   -0.0683   -0.0213
          28   -0.0128    0.0191   -0.0260   -0.0018    0.0139    0.0010   -0.0156   -0.0838
          29    0.0520   -0.0166    0.0054   -0.1031   -0.0652    0.0208   -0.0168    0.0057
          30   -0.0190   -0.0425   -0.0072    0.0440   -0.0603   -0.1013   -0.0614    0.0048
          31   -0.0059   -0.0170    0.0255    0.0207   -0.0048    0.0021   -0.0622   -0.0091
          32   -0.0198   -0.2979   -0.1388    0.0163   -0.0048   -0.0027    0.0037    0.0753
          33    0.0124    0.1792    0.0714   -0.0204   -0.0727   -0.1006    0.0039   -0.1239
          34   -0.0941   -0.0285    0.0657    0.1245   -0.0275   -0.0073    0.0701    0.0226
          35    0.0090    0.0302    0.0001   -0.0007    0.0088   -0.1234    0.0183   -0.1602
          36    0.0212    0.2882    0.1150   -0.0207   -0.0595   -0.1422    0.0157   -0.2038
          37    0.1631    0.1741    0.1787   -0.1053    0.1150   -0.0555    0.0665    0.1871
          38    0.1534    0.0336    0.0238   -0.1144    0.1092   -0.1297    0.0434    0.0508
          39    0.0118   -0.0541    0.0021   -0.0036   -0.0105   -0.0646    0.0840    0.0741
          40   -0.0104   -0.0419    0.0580    0.0512   -0.0162    0.0162    0.0538    0.0171
          41    0.1732    0.1175    0.0555   -0.1443    0.1106   -0.1015    0.0308    0.1126
          42   -0.1546   -0.1171   -0.0706    0.1312   -0.1762    0.0973    0.0428    0.0173
          43    0.1380   -0.2597   -0.0567   -0.1033   -0.1080    0.0569    0.1084   -0.1743
          44   -0.1482    0.0771    0.0269    0.1394    0.0829   -0.1390   -0.0453    0.0614
          45   -0.0135   -0.0325   -0.0503    0.0033    0.0004   -0.0533   -0.0811    0.0458
          46   -0.0182    0.0023    0.0757    0.0602   -0.0145   -0.0386    0.0556    0.0142
          47   -0.1540    0.1442    0.0756    0.1462    0.0673   -0.1097   -0.0571    0.1139
          48    0.1366   -0.1510   -0.0819   -0.1634   -0.1307    0.1197   -0.0554   -0.0337
          49   -0.0131    0.0141   -0.0504   -0.0065    0.0020    0.0014   -0.0474    0.0697
          50   -0.0637   -0.0035    0.0148    0.0771   -0.0781    0.0215    0.0018    0.0095
          51    0.0194   -0.0158   -0.0922   -0.0488   -0.0555   -0.1073    0.0607    0.0396
          52   -0.0577   -0.0852    0.1655   -0.2152    0.0437    0.0110   -0.1912    0.0140
          53    0.1147    0.0789   -0.2173    0.1862    0.1981    0.0678    0.2577   -0.0727
          54   -0.0006   -0.0196   -0.0413   -0.0111    0.0340   -0.0350   -0.0799    0.0609
          55    0.0781    0.0829   -0.1574   -0.0145   -0.0125   -0.0006    0.1157    0.0402
          56    0.0738    0.0460   -0.1230    0.0744    0.0625    0.0470    0.0753   -0.0238
          57    0.0922    0.0770   -0.2546    0.1929    0.2080   -0.0135    0.2499   -0.0037


   Root No.       9        10        11        12        13        14        15        16

                 9 A      10 A      11 A      12 A      13 A      14 A      15 A      16 A   

                 541.6     647.6     699.5     745.0     850.9     862.2     894.5     906.8
  
           1    0.2015   -0.3130    0.1116   -0.5533    0.1195    0.1169   -0.0478   -0.0154
           2    0.3479    0.0464   -0.0114   -0.2203   -0.0334   -0.1541   -0.0743    0.1156
           3    0.1256    0.0274    0.0712    0.0509   -0.0483   -0.0049   -0.0335    0.0101
           4    0.2403    0.2811   -0.0414    0.5621    0.1353   -0.0899   -0.0338   -0.1101
           5   -0.2625    0.0834   -0.0190   -0.2190   -0.0099   -0.0009   -0.2601   -0.0239
           6   -0.1600    0.0308   -0.0285    0.0180    0.0349   -0.0209   -0.0374    0.0387
           7   -0.0718   -0.3506   -0.0950    0.0726   -0.2561   -0.1645    0.1460   -0.0315
           8    0.2429   -0.0359   -0.0263    0.0097   -0.0533   -0.1312    0.0748   -0.0184
           9   -0.1557   -0.1092   -0.0829   -0.0205   -0.0533   -0.2181    0.1161   -0.0829
          10    0.0122    0.0777    0.1012    0.0193   -0.1740   -0.2881   -0.2975    0.1094
          11   -0.0288    0.0369   -0.0377   -0.0034    0.3027    0.0575    0.1225    0.0397
          12   -0.0428   -0.1618   -0.2038    0.0907   -0.0191    0.2924   -0.0977   -0.1575
          13   -0.0173    0.0128    0.0490    0.0003    0.0724    0.0587   -0.0898   -0.1048
          14   -0.0312    0.1691    0.0267   -0.0195    0.0257    0.1981    0.0673    0.0978
          15    0.0028    0.0358   -0.0056    0.0901   -0.0101    0.2806   -0.1072    0.3665
          16    0.0730   -0.0553    0.0244   -0.0172   -0.0801    0.2384    0.4045   -0.0713
          17    0.0401    0.0528    0.0176    0.0002   -0.2676    0.1053    0.1290   -0.1083
          18    0.1127   -0.1492    0.0716    0.1021    0.0196    0.0243    0.2431    0.1713
          19   -0.0041    0.3679   -0.0710   -0.0918   -0.2805    0.0501    0.0350    0.3599
          20   -0.2085   -0.0170   -0.0078    0.0240    0.0522   -0.0076   -0.0367   -0.1375
          21    0.1819   -0.1142    0.0723   -0.0104    0.0661   -0.1236   -0.0600   -0.2966
          22   -0.2465   -0.0096   -0.0995    0.0201    0.1340    0.0511   -0.0417   -0.1057
          23    0.1107   -0.1592    0.3533    0.2044   -0.1605    0.0612    0.0354   -0.0953
          24   -0.2696    0.1240    0.3721   -0.0891    0.0999   -0.1638    0.0472    0.0728
          25   -0.2661   -0.0351   -0.0836   -0.0186    0.1010   -0.0704    0.0792    0.0536
          26   -0.2681   -0.1238   -0.1938    0.1112    0.1574   -0.1430    0.1583    0.1309
          27    0.2439    0.1752   -0.2442   -0.1600   -0.1179    0.0472   -0.1532   -0.0825
          28   -0.0078   -0.1108   -0.0051   -0.0097   -0.0415    0.0032    0.0557   -0.0215
          29   -0.0233    0.0288   -0.0648    0.1627   -0.0755   -0.1028    0.0042   -0.0435
          30   -0.0081   -0.0266   -0.0569   -0.0407   -0.0702   -0.1787   -0.0289    0.0373
          31   -0.0340   -0.0037   -0.0527   -0.0007    0.0475    0.1280   -0.1836   -0.1801
          32    0.0105   -0.2180   -0.0597    0.1476   -0.0196    0.2589   -0.1461    0.3597
          33   -0.0062    0.1016    0.0196   -0.0252    0.0065    0.0153    0.0200   -0.0067
          34   -0.0036   -0.0001    0.0427    0.0036    0.1941   -0.0404    0.0205    0.0840
          35   -0.0200    0.1936    0.0382   -0.0872    0.0202   -0.0456    0.1000   -0.1418
          36   -0.0176    0.2472    0.0513   -0.1069    0.0263   -0.0802    0.1101   -0.1650
          37    0.1226   -0.2071   -0.0008    0.0840    0.2733   -0.0645   -0.0385    0.2005
          38    0.0926   -0.0661    0.0119    0.0314    0.0373   -0.0659   -0.0157    0.0029
          39    0.0978   -0.0942    0.0300    0.0461    0.0778   -0.0736    0.0379    0.0440
          40   -0.0171    0.0347    0.0210   -0.0339   -0.0736    0.1619    0.1617   -0.1260
          41    0.0888   -0.0928   -0.0116    0.0546    0.0585   -0.1184   -0.0625    0.1280
          42   -0.0876    0.1345    0.0137   -0.0368   -0.2918    0.1102    0.2521   -0.0478
          43    0.0924    0.1927    0.0713   -0.0816    0.2988   -0.0884    0.1258    0.0668
          44   -0.0981   -0.0584   -0.0279    0.0325   -0.0472   -0.0016   -0.0612   -0.0401
          45   -0.0792   -0.0750   -0.0658    0.0381   -0.0622    0.0592   -0.0730   -0.0901
          46   -0.0260   -0.0284    0.0173    0.0390   -0.1463   -0.0957   -0.2250   -0.0268
          47   -0.0653   -0.0782   -0.0316    0.0522   -0.0868   -0.0064   -0.1565   -0.0596
          48    0.1210    0.1075   -0.0322   -0.0406    0.3259    0.1158    0.1172   -0.0663
          49    0.0178    0.1158   -0.0111    0.0098   -0.0646   -0.0332   -0.0461    0.0958
          50    0.0501    0.0304   -0.0262    0.1671    0.0827   -0.0154   -0.0439   -0.1562
          51    0.0208   -0.0243    0.0744   -0.0296   -0.0029   -0.1938   -0.1752    0.0081
          52   -0.1224    0.0393    0.5467    0.0803    0.0674    0.2827   -0.2430   -0.0898
          53    0.0467    0.0236   -0.1273    0.0369    0.0275    0.1893   -0.1511    0.0058
          54   -0.0743    0.0038    0.0955   -0.0302   -0.0024   -0.1551    0.1091    0.0156
          55    0.0153    0.0682   -0.3065   -0.0731    0.0980    0.0694   -0.1163   -0.2264
          56    0.0707   -0.0138   -0.0357    0.0247   -0.0200    0.0417   -0.0353   -0.1068
          57   -0.0824    0.0818   -0.2294   -0.0592    0.0974    0.0037   -0.0461    0.1075


   Root No.      17        18        19        20        21        22        23        24

                17 A      18 A      19 A      20 A      21 A      22 A      23 A      24 A   

                 925.7     942.7     985.3     999.4    1013.1    1060.4    1074.0    1081.7
  
           1   -0.0065   -0.1185   -0.0716    0.0570    0.0703   -0.1240   -0.0308   -0.0758
           2   -0.1904   -0.2518    0.2557    0.0081   -0.2101    0.1563   -0.0646    0.1346
[...]
 FREQ.      1224.06         C  7 -- H 17         +23.1% ( 72.9%)      0.3%
 T-DIPOLE    0.6115         C  6 -- C  7         +20.7% ( 69.0%)     85.2%
 TRAVEL      0.0772         C  7 -- C  9         +18.5% ( 65.1%)     55.9%
 RED. MASS   2.9451         O  2 -- C  7         +17.1% ( 62.6%)     43.4%
 EFF. MASS   9.2431

 VIBRATION   31   31A         ATOM PAIR      ENERGY CONTRIBUTION    RADIAL
 FREQ.      1246.76         C  3 -- H 10         +26.9% ( 73.8%)      0.1%
 T-DIPOLE    0.2000         C  3 -- C  8         +18.4% ( 61.1%)     68.4%
 TRAVEL      0.0897         C  3 -- C  4         +18.1% ( 60.4%)     64.2%
 RED. MASS   2.4458         O  1 -- C  3         +14.9% ( 54.8%)      2.3%
 EFF. MASS   6.7220

 VIBRATION   32   32A         ATOM PAIR      ENERGY CONTRIBUTION    RADIAL
 FREQ.      1275.77         C  6 -- H 14         +15.0% ( 50.2%)      0.0%
 T-DIPOLE    0.1418         C  6 -- H 13         +11.2% ( 43.5%)      0.0%
 TRAVEL      0.1055         C  5 -- H 11         +11.0% ( 43.1%)      0.0%
 RED. MASS   0.5138         C  4 -- H 16         +10.0% ( 41.1%)      0.4%
 EFF. MASS   4.7461

 VIBRATION   33   33A         ATOM PAIR      ENERGY CONTRIBUTION    RADIAL
 FREQ.      1312.68         C  4 -- H 16         +12.8% ( 49.5%)      0.0%
 T-DIPOLE    0.1798         C  6 -- H 14         +10.6% ( 44.9%)      0.0%
 TRAVEL      0.0882         C  3 -- C  4          +8.5% ( 40.1%)     44.7%
 RED. MASS   0.7561         C  5 -- C  6          +7.9% ( 38.7%)     67.0%
 EFF. MASS   6.6071

 VIBRATION   34   34A         ATOM PAIR      ENERGY CONTRIBUTION    RADIAL
 FREQ.      1333.23         C  8 -- H 19         +37.3% ( 62.4%)      4.1%
 T-DIPOLE    0.5340         C  8 -- H 18         +31.8% ( 57.5%)      5.2%
 TRAVEL      0.1356         C  3 -- C  8         +10.1% ( 32.5%)     64.8%
 RED. MASS   0.5357         C  8 -- C  9          +8.6% ( 29.9%)     17.3%
 EFF. MASS   2.7518

 VIBRATION   35   35A         ATOM PAIR      ENERGY CONTRIBUTION    RADIAL
 FREQ.      1348.72         C  4 -- C  5         +15.8% ( 54.2%)     84.4%
 T-DIPOLE    0.1112         C  5 -- H 12         +14.5% ( 51.8%)      0.0%
 TRAVEL      0.0864         C  5 -- C  6         +14.4% ( 51.7%)     82.9%
 RED. MASS   1.1919         C  5 -- H 11         +13.3% ( 49.7%)      0.0%
 EFF. MASS   6.6990

 VIBRATION   36   36A         ATOM PAIR      ENERGY CONTRIBUTION    RADIAL
 FREQ.      1356.05         O  1 -- C  3         +16.5% ( 59.7%)     92.8%
 T-DIPOLE    0.5295         C  3 -- C  4         +14.5% ( 55.9%)     40.6%
 TRAVEL      0.0759         C  3 -- H 10         +13.7% ( 54.4%)      0.3%
 RED. MASS   1.6816         C  3 -- C  8         +10.9% ( 48.4%)     13.7%
 EFF. MASS   8.6252

 VIBRATION   37   37A         ATOM PAIR      ENERGY CONTRIBUTION    RADIAL
 FREQ.      1390.65         C  6 -- H 13         +17.1% ( 46.2%)      4.6%
 T-DIPOLE    0.1469         C  6 -- H 14         +16.6% ( 45.5%)      4.9%
 TRAVEL      0.1105         C  4 -- H 15         +11.0% ( 37.0%)      1.8%
 RED. MASS   0.3142         C  4 -- H 16          +7.4% ( 30.4%)      4.9%
 EFF. MASS   3.9682

 VIBRATION   38   38A         ATOM PAIR      ENERGY CONTRIBUTION    RADIAL
 FREQ.      1394.69         O  2 -- C  7         +13.9% ( 53.4%)     85.4%
 T-DIPOLE    0.4668         C  7 -- C  9         +12.0% ( 49.6%)     54.6%
 TRAVEL      0.0736         C  7 -- H 17         +11.5% ( 48.6%)      0.7%
 RED. MASS   1.3319         C  6 -- C  7         +10.1% ( 45.5%)     16.5%
 EFF. MASS   8.9315

 VIBRATION   39   39A         ATOM PAIR      ENERGY CONTRIBUTION    RADIAL
 FREQ.      1401.84         C  4 -- H 15         +18.2% ( 49.3%)      3.5%
 T-DIPOLE    0.0939         C  4 -- H 16         +14.1% ( 43.4%)      8.0%
 TRAVEL      0.1071         C  4 -- C  5         +11.9% ( 39.8%)     60.4%
 RED. MASS   0.4252         C  5 -- C  6          +9.7% ( 36.0%)     74.5%
 EFF. MASS   4.1921

 VIBRATION   40   40A         ATOM PAIR      ENERGY CONTRIBUTION    RADIAL
 FREQ.      1420.70         C  5 -- H 12         +36.4% ( 61.8%)      4.4%
 T-DIPOLE    0.0707         C  5 -- H 11         +31.6% ( 57.6%)      5.7%
 TRAVEL      0.1312         C  4 -- C  5         +10.7% ( 33.5%)     53.5%
 RED. MASS   0.5431         C  5 -- C  6          +9.9% ( 32.2%)     43.8%
 EFF. MASS   2.7591

 VIBRATION   41   41A         ATOM PAIR      ENERGY CONTRIBUTION    RADIAL
 FREQ.      1466.09         C  8 -- C  9         +32.0% ( 82.6%)     98.8%
 T-DIPOLE    1.6628         C  7 -- C  9         +16.1% ( 58.5%)     75.3%
 TRAVEL      0.0646         C  8 -- H 18         +12.3% ( 51.3%)      0.9%
 RED. MASS   3.5459         C  8 -- H 19         +12.1% ( 50.8%)      2.8%
 EFF. MASS  11.0147         C  3 -- C  8         +11.9% ( 50.4%)     18.5%

 VIBRATION   42   42A         ATOM PAIR      ENERGY CONTRIBUTION    RADIAL
 FREQ.      2917.82         C  7 -- H 17         +96.7% ( 99.8%)     99.9%
 T-DIPOLE    0.4117         C  6 -- C  7          +1.0% ( 10.0%)     10.6%
 TRAVEL      0.1278         C  7 -- C  9          +1.0% ( 10.0%)     12.7%
 RED. MASS   0.9229         O  2 -- C  7          +1.0% ( 10.0%)      0.3%
 EFF. MASS   1.4153

 VIBRATION   43   43A         ATOM PAIR      ENERGY CONTRIBUTION    RADIAL
 FREQ.      2928.73         C  3 -- H 10         +91.2% ( 97.1%)     99.9%
 T-DIPOLE    0.2164         C  8 -- H 18          +3.5% ( 19.1%)     98.6%
 TRAVEL      0.1271         C  8 -- H 19          +1.3% ( 11.5%)     92.2%
 RED. MASS   0.8276         C  3 -- C  8          +1.0% ( 10.1%)      9.6%
 EFF. MASS   1.4256

 VIBRATION   44   44A         ATOM PAIR      ENERGY CONTRIBUTION    RADIAL
 FREQ.      2936.45         C  8 -- H 18         +56.1% ( 77.5%)     97.9%
 T-DIPOLE    0.4502         C  8 -- H 19         +33.4% ( 59.8%)     95.1%
 TRAVEL      0.1233         C  3 -- H 10          +4.8% ( 22.6%)     99.9%
 RED. MASS   0.4566         C  5 -- H 12          +2.3% ( 15.7%)     98.3%
 EFF. MASS   1.5106

 VIBRATION   45   45A         ATOM PAIR      ENERGY CONTRIBUTION    RADIAL
 FREQ.      2938.05         C  5 -- H 12         +58.5% ( 79.4%)     98.0%
 T-DIPOLE    0.1088         C  5 -- H 11         +28.3% ( 55.2%)     93.5%
 TRAVEL      0.1220         C  8 -- H 18          +2.7% ( 17.0%)     98.2%
 RED. MASS   0.4581         C  4 -- H 15          +2.7% ( 17.0%)     97.3%
 EFF. MASS   1.5425

 VIBRATION   46   46A         ATOM PAIR      ENERGY CONTRIBUTION    RADIAL
 FREQ.      2960.54         C  4 -- H 15         +47.8% ( 71.8%)     96.8%
 T-DIPOLE    0.1165         C  4 -- H 16         +43.4% ( 68.4%)     96.2%
 TRAVEL      0.1214         C  5 -- H 12          +1.7% ( 13.7%)     97.2%
 RED. MASS   0.4545         C  6 -- H 13          +1.7% ( 13.6%)     97.4%
 EFF. MASS   1.5451

 VIBRATION   47   47A         ATOM PAIR      ENERGY CONTRIBUTION    RADIAL
 FREQ.      2967.93         C  6 -- H 13         +52.0% ( 74.8%)     97.3%
 T-DIPOLE    0.1845         C  6 -- H 14         +40.0% ( 65.6%)     95.7%
 TRAVEL      0.1212         C  5 -- H 11          +2.0% ( 14.7%)     97.1%
 RED. MASS   0.4685         C  5 -- H 12          +1.8% ( 13.9%)     96.9%
 EFF. MASS   1.5462

 VIBRATION   48   48A         ATOM PAIR      ENERGY CONTRIBUTION    RADIAL
 FREQ.      3024.08         C  8 -- H 19         +62.0% ( 77.6%)     98.9%
 T-DIPOLE    0.4911         C  8 -- H 18         +34.0% ( 57.5%)     95.2%
 TRAVEL      0.1319         C  5 -- H 11          +1.5% ( 12.2%)     99.3%
 RED. MASS   0.4912         C  3 -- C  8          +0.6% (  7.8%)     36.3%
 EFF. MASS   1.2819

 VIBRATION   49   49A         ATOM PAIR      ENERGY CONTRIBUTION    RADIAL
 FREQ.      3026.75         C  5 -- H 11         +52.5% ( 71.5%)     99.1%
 T-DIPOLE    0.0886         C  5 -- H 12         +26.7% ( 51.0%)     94.9%
 TRAVEL      0.1318         C  4 -- H 15          +6.4% ( 25.0%)     98.0%
 RED. MASS   0.3476         C  4 -- H 16          +5.1% ( 22.3%)     97.0%
 EFF. MASS   1.2828

 VIBRATION   50   50A         ATOM PAIR      ENERGY CONTRIBUTION    RADIAL
 FREQ.      3036.87         C  4 -- H 16         +44.3% ( 65.5%)     98.1%
 T-DIPOLE    0.1480         C  4 -- H 15         +37.7% ( 60.5%)     97.1%
 TRAVEL      0.1322         C  6 -- H 14          +5.3% ( 22.6%)     98.0%
 RED. MASS   0.3428         C  5 -- H 11          +5.1% ( 22.2%)     99.4%
 EFF. MASS   1.2698

 VIBRATION   51   51A         ATOM PAIR      ENERGY CONTRIBUTION    RADIAL
 FREQ.      3041.23         C  6 -- H 14         +49.0% ( 69.0%)     98.4%
 T-DIPOLE    0.1678         C  6 -- H 13         +34.4% ( 57.8%)     96.2%
 TRAVEL      0.1319         C  5 -- H 11          +7.8% ( 27.5%)     99.4%
 RED. MASS   0.3616         C  4 -- H 16          +2.9% ( 16.8%)     98.5%
 EFF. MASS   1.2753

      SYMMETRY NUMBER FOR POINT-GROUP C1  =  1


          SYSTEM IS A GROUND STATE



 InChI=1S/C7H10O2/c1-2-6-4-5-7(3-1)9-8-6/h6-7H,1-4H2/lp5


          MOLECULE IS NOT LINEAR

          THERE ARE 51 GENUINE VIBRATIONS IN THIS SYSTEM
          THIS THERMODYNAMICS CALCULATION IS LIMITED TO
          MOLECULES WHICH HAVE NO INTERNAL ROTATIONS




                    CALCULATED THERMODYNAMIC PROPERTIES
                                          *
   TEMP. (K)   PARTITION FUNCTION   H.O.F.    ENTHALPY  HEAT CAPACITY ENTROPY
                                   KCAL/MOL   CAL/MOLE    CAL/K/MOL  CAL/K/MOL


 298.00  VIB.     0.1387D+02                  2792.7662    24.1574    14.5973
         ROT.     0.3126D+06                   888.2813     2.9808    28.1245
         INT.     0.4336D+07                  3681.0475    27.1382    42.7218
         TRA.     0.1370D+28                  1480.4688     4.9680    40.4083
         TOT.                       54.290    5161.5163    32.1062    83.1301

 200.00  VIB.     0.3460D+01                   980.2787    13.1225     7.3682
         ROT.     0.1719D+06                   596.1620     2.9808    26.9358
         INT.     0.5948D+06                  1576.4406    16.1033    34.3040
         TRA.     0.7532D+27                   993.6033     4.9680    38.4272
         TOT.                       51.699    2570.0439    21.0713    72.7312

 210.00  VIB.     0.3922D+01                  1116.6332    14.1531     8.0332
         ROT.     0.1849D+06                   625.9700     2.9808    27.0812
         INT.     0.7254D+06                  1742.6033    17.1340    35.1145
         TRA.     0.8104D+27                  1043.2834     4.9680    38.6696
         TOT.                       51.915    2785.8867    22.1020    73.7841

 220.00  VIB.     0.4464D+01                  1263.4340    15.2115     8.7160
         ROT.     0.1983D+06                   655.7781     2.9808    27.2199
         INT.     0.8853D+06                  1919.2121    18.1923    35.9359
         TRA.     0.8689D+27                  1092.9636     4.9680    38.9007
         TOT.                       52.141    3012.1757    23.1603    74.8366

 230.00  VIB.     0.5101D+01                  1420.9509    16.2961     9.4160
         ROT.     0.2120D+06                   685.5862     2.9808    27.3524
         INT.     0.1081D+07                  2106.5371    19.2769    36.7684
         TRA.     0.9289D+27                  1142.6437     4.9680    39.1215
         TOT.                       52.378    3249.1809    24.2449    75.8899

 240.00  VIB.     0.5850D+01                  1589.4359    17.4047    10.1329
         ROT.     0.2260D+06                   715.3943     2.9808    27.4793
         INT.     0.1322D+07                  2304.8302    20.3855    37.6121
         TRA.     0.9901D+27                  1192.3239     4.9680    39.3330
         TOT.                       52.626    3497.1541    25.3536    76.9451

 250.00  VIB.     0.6733D+01                  1769.1169    18.5348    10.8662
         ROT.     0.2402D+06                   745.2024     2.9808    27.6010
         INT.     0.1618D+07                  2514.3193    21.5156    38.4672
         TRA.     0.1053D+28                  1242.0041     4.9680    39.5358
         TOT.                       52.885    3756.3234    26.4836    78.0029

 260.00  VIB.     0.7778D+01                  1960.1935    19.6833    11.6155
         ROT.     0.2548D+06                   775.0105     2.9808    27.7179
         INT.     0.1982D+07                  2735.2040    22.6641    39.3333
         TRA.     0.1116D+28                  1291.6842     4.9680    39.7306
         TOT.                       53.156    4026.8882    27.6321    79.0640

 270.00  VIB.     0.9015D+01                  2162.8339    20.8470    12.3801
         ROT.     0.2696D+06                   804.8186     2.9808    27.8304
         INT.     0.2431D+07                  2967.6525    23.8278    40.2105
         TRA.     0.1181D+28                  1341.3644     4.9680    39.9181
         TOT.                       53.438    4309.0169    28.7958    80.1286

 280.00  VIB.     0.1048D+02                  2377.1732    22.0225    13.1595
         ROT.     0.2847D+06                   834.6267     2.9808    27.9388
         INT.     0.2985D+07                  3211.7999    25.0033    41.0983
         TRA.     0.1248D+28                  1391.0445     4.9680    40.0988
         TOT.                       53.732    4602.8444    29.9714    81.1971

 290.00  VIB.     0.1223D+02                  2603.3124    23.2064    13.9529
         ROT.     0.3001D+06                   864.4348     2.9808    28.0434
         INT.     0.3671D+07                  3467.7472    26.1873    41.9963
         TRA.     0.1315D+28                  1440.7247     4.9680    40.2731
         TOT.                       54.037    4908.4719    31.1553    82.2694

 300.00  VIB.     0.1432D+02                  2841.3190    24.3954    14.7597
         ROT.     0.3158D+06                   894.2429     2.9808    28.1444
         INT.     0.4521D+07                  3735.5620    27.3763    42.9041
         TRA.     0.1384D+28                  1490.4049     4.9680    40.4416
         TOT.                       54.355    5225.9668    32.3443    83.3457

 310.00  VIB.     0.1681D+02                  3091.2276    25.5863    15.5790
         ROT.     0.3317D+06                   924.0510     2.9808    28.2422
         INT.     0.5574D+07                  4015.2786    28.5671    43.8212
         TRA.     0.1453D+28                  1540.0850     4.9680    40.6045
         TOT.                       54.684    5555.3636    33.5351    84.4256

 320.00  VIB.     0.1979D+02                  3353.0413    26.7760    16.4101
         ROT.     0.3479D+06                   953.8591     2.9808    28.3368
         INT.     0.6884D+07                  4306.9004    29.7568    44.7469
         TRA.     0.1524D+28                  1589.7652     4.9680    40.7622
         TOT.                       55.025    5896.6656    34.7248    85.5091

 330.00  VIB.     0.2336D+02                  3626.7342    27.9617    17.2522
         ROT.     0.3643D+06                   983.6672     2.9808    28.4285
         INT.     0.8512D+07                  4610.4014    30.9425    45.6808
         TRA.     0.1596D+28                  1639.4454     4.9680    40.9151
         TOT.                       55.379    6249.8468    35.9105    86.5958

 340.00  VIB.     0.2767D+02                  3912.2531    29.1408    18.1045
         ROT.     0.3810D+06                  1013.4753     2.9808    28.5175
         INT.     0.1054D+08                  4925.7284    32.1216    46.6220
         TRA.     0.1669D+28                  1689.1255     4.9680    41.0634
         TOT.                       55.744    6614.8540    37.0896    87.6854

 350.00  VIB.     0.3285D+02                  4209.5203    30.3110    18.9661
         ROT.     0.3979D+06                  1043.2834     2.9808    28.6039
         INT.     0.1307D+08                  5252.8037    33.2918    47.5701
         TRA.     0.1744D+28                  1738.8057     4.9680    41.2074
         TOT.                       56.120    6991.6094    38.2598    88.7774

 360.00  VIB.     0.3910D+02                  4518.4360    31.4702    19.8363
         ROT.     0.4151D+06                  1073.0915     2.9808    28.6879
         INT.     0.1623D+08                  5591.5275    34.4510    48.5242
         TRA.     0.1819D+28                  1788.4859     4.9680    41.3473
         TOT.                       56.509    7380.0133    39.4190    89.8715

 370.00  VIB.     0.4665D+02                  4838.8806    32.6165    20.7142
         ROT.     0.4325D+06                  1102.8996     2.9808    28.7696
         INT.     0.2018D+08                  5941.7802    35.5973    49.4838
         TRA.     0.1895D+28                  1838.1660     4.9680    41.4835
         TOT.                       56.909    7779.9462    40.5653    90.9672

 380.00  VIB.     0.5580D+02                  5170.7178    33.7484    21.5991
         ROT.     0.4502D+06                  1132.7077     2.9808    28.8491
         INT.     0.2512D+08                  6303.4256    36.7292    50.4482
         TRA.     0.1973D+28                  1887.8462     4.9680    41.6160
         TOT.                       57.320    8191.2717    41.6973    92.0641

 390.00  VIB.     0.6689D+02                  5513.7966    34.8646    22.4902
         ROT.     0.4681D+06                  1162.5158     2.9808    28.9265
         INT.     0.3131D+08                  6676.3124    37.8454    51.4167
         TRA.     0.2051D+28                  1937.5263     4.9680    41.7450
         TOT.                       57.743    8613.8388    42.8134    93.1617

 400.00  VIB.     0.8036D+02                  5867.9535    35.9639    23.3868
         ROT.     0.4862D+06                  1192.3239     2.9808    29.0020
         INT.     0.3907D+08                  7060.2774    38.9447    52.3887
         TRA.     0.2130D+28                  1987.2065     4.9680    41.8708
         TOT.                       58.176    9047.4839    43.9127    94.2595

   *: NOTE: HEATS OF FORMATION ARE RELATIVE TO THE
            ELEMENTS IN THEIR STANDARD STATE AT 298K
              (=  Standard Enthalpy of Formation).

            Hvib:  Zero-point energy is not included.
                   frequencies of less than zero cm-1 are not included.
            Hrot = (3/2)RT
            Htra = (3/2)RT + pV = (5/2)RT

            Heat capacity is Cp, not Cv

          For more information, see: HTTP://OpenMOPAC.net/Manual/thermochemistry.html


           FORCE CONSTANT IN CARTESIAN COORDINATES (Millidynes/A)

    ATOM   CHEMICAL       X               Y               Z
   NUMBER   SYMBOL  FORCE CONSTANT  FORCE CONSTANT  FORCE CONSTANT

      1       O        4.098551        7.258859        0.859290
      2       O        4.151105        7.080902        0.763234
      3       C        8.906219        8.747811        7.150068
      4       C        8.271254        8.377608        7.675665
      5       C        7.996644        8.128752        8.439183
      6       C        8.257657        8.230206        7.625482
      7       C        8.771409        8.964151        6.609445
      8       C        9.242885        7.892417        7.461224
      9       C        7.510874        3.754601        2.801937
     10       H        4.417059        0.867474        0.917733
     11       H        0.737547        1.040765        4.642486
     12       H        0.752907        3.564374        2.051909
     13       H        0.704491        2.975743        2.743670
     14       H        3.378744        2.315897        0.729612
     15       H        0.743769        2.869121        2.809644
     16       H        3.225377        2.464858        0.705347
     17       H        4.317548        0.877095        0.867811
     18       H        0.515564        1.255467        4.203580
     19       H        1.213232        4.303035        0.651319

 **********************
 *                    *
 * JOB ENDED NORMALLY *
 *                    *
 **********************



 TOTAL JOB TIME:             1.50 SECONDS

 == MOPAC DONE ==
