 *******************************************************************************
 ** Site#: 14399        For non-commercial use only    Version 18.184L 64BITS **
 *******************************************************************************
 ** Cite this program as: MOPAC2016, Version: 18.184L, James J. P. Stewart,   **
 ** Stewart Computational Chemistry, web: HTTP://OpenMOPAC.net. Days left:  18**
 *******************************************************************************
 **                                                                           **
 **                                MOPAC2016                                  **
 **                                                                           **
 *******************************************************************************

                              PM3 CALCULATION RESULTS

 *******************************************************************************
 *  CALCULATION DONE:                                Sat Jun 15 10:46:12 2019  *
 *  PM3        - The PM3 Hamiltonian to be used
 *  PRECISE    - CRITERIA TO BE INCREASED BY 100 TIMES
 *  NOSYM      - POINT-GROUP SYMMETRY SET TO C1
 *  THREADS=1  - MULTI-THREADING NOT USED
 *  T=         - A TIME OF 172800.0 SECONDS REQUESTED
 *  DUMP=N     - RESTART FILE WRITTEN EVERY  7200.000 SECONDS
 *******************************************************************************
pm3  precise nosym THREADS=1
 InChI=1S/C7H12O2/c8-6-3-1-2-5-4-7(6)9-5/h5-8H,1-4H2

   ATOM   CHEMICAL          X               Y               Z
  NUMBER   SYMBOL      (ANGSTROMS)     (ANGSTROMS)     (ANGSTROMS)
 
     1       O         -0.28770000  *   0.84020000  *  -1.56350000  *
     2       O         -2.30290000  *  -0.50450000  *   1.13250000  *
     3       C         -1.13560000  *   0.88160000  *  -0.44090000  *
     4       C          0.78130000  *   1.32630000  *  -0.78780000  *
     5       C         -1.39130000  *  -0.55940000  *   0.06690000  *
     6       C         -0.12400000  *   1.65040000  *   0.38310000  *
     7       C          1.76260000  *   0.17420000  *  -0.47550000  *
     8       C         -0.11030000  *  -1.32700000  *   0.51660000  *
     9       C          1.08680000  *  -1.22020000  *  -0.45330000  *
    10       H          1.26070000  *   2.22220000  *  -1.24020000  *
    11       H         -1.85310000  *  -1.12000000  *  -0.77940000  *
    12       H         -2.06660000  *   1.45220000  *  -0.65410000  *
    13       H          1.85230000  *  -1.96540000  *  -0.14670000  *
    14       H          0.76000000  *  -1.50050000  *  -1.47850000  *
    15       H          2.54790000  *   0.16250000  *  -1.26140000  *
    16       H          2.27290000  *   0.36350000  *   0.49400000  *
    17       H          0.20630000  *  -1.00650000  *   1.53180000  *
    18       H         -0.37740000  *  -2.40230000  *   0.60870000  *
    19       H          0.15930000  *   1.21790000  *   1.36460000  *
    20       H         -0.36770000  *   2.73410000  *   0.42710000  *
    21       H         -2.67380000  *  -1.41920000  *   1.24090000  *
 


          CARTESIAN COORDINATES 

    NO.       ATOM           X           Y           Z

     1         O         -0.2877      0.8402     -1.5635
     2         O         -2.3029     -0.5045      1.1325
     3         C         -1.1356      0.8816     -0.4409
     4         C          0.7813      1.3263     -0.7878
     5         C         -1.3913     -0.5594      0.0669
     6         C         -0.1240      1.6504      0.3831
     7         C          1.7626      0.1742     -0.4755
     8         C         -0.1103     -1.3270      0.5166
     9         C          1.0868     -1.2202     -0.4533
    10         H          1.2607      2.2222     -1.2402
    11         H         -1.8531     -1.1200     -0.7794
    12         H         -2.0666      1.4522     -0.6541
    13         H          1.8523     -1.9654     -0.1467
    14         H          0.7600     -1.5005     -1.4785
    15         H          2.5479      0.1625     -1.2614
    16         H          2.2729      0.3635      0.4940
    17         H          0.2063     -1.0065      1.5318
    18         H         -0.3774     -2.4023      0.6087
    19         H          0.1593      1.2179      1.3646
    20         H         -0.3677      2.7341      0.4271
    21         H         -2.6738     -1.4192      1.2409

  H: (PM3): J. J. P. STEWART, J. COMP. CHEM. 10, 209 (1989).
  C: (PM3): J. J. P. STEWART, J. COMP. CHEM. 10, 209 (1989).
  O: (PM3): J. J. P. STEWART, J. COMP. CHEM. 10, 209 (1989).

           Empirical Formula: C7 H12 O2  =    21 atoms



      MOLECULAR POINT GROUP   :   C1  


      RHF CALCULATION, NO. OF DOUBLY OCCUPIED LEVELS = 26


          Geometry optimization using EF

          DIAGONAL MATRIX USED AS START HESSIAN

 CYCLE:     1 TIME:   0.004 TIME LEFT:  2.00D  GRAD.:   159.663 HEAT: -66.11048
 CYCLE:     2 TIME:   0.012 TIME LEFT:  2.00D  GRAD.:    67.859 HEAT: -71.33443
 CYCLE:     3 TIME:   0.004 TIME LEFT:  2.00D  GRAD.:    78.626 HEAT: -71.68262
 CYCLE:     4 TIME:   0.008 TIME LEFT:  2.00D  GRAD.:    35.841 HEAT: -73.44157
 CYCLE:     5 TIME:   0.008 TIME LEFT:  2.00D  GRAD.:    22.811 HEAT: -73.92705
 CYCLE:     6 TIME:   0.004 TIME LEFT:  2.00D  GRAD.:    35.052 HEAT: -74.09328
 CYCLE:     7 TIME:   0.004 TIME LEFT:  2.00D  GRAD.:    34.337 HEAT: -74.36252
 CYCLE:     8 TIME:   0.004 TIME LEFT:  2.00D  GRAD.:    30.833 HEAT: -74.47353
 CYCLE:     9 TIME:   0.008 TIME LEFT:  2.00D  GRAD.:    19.458 HEAT: -74.73059
 CYCLE:    10 TIME:   0.008 TIME LEFT:  2.00D  GRAD.:    10.587 HEAT: -74.84954
 CYCLE:    11 TIME:   0.004 TIME LEFT:  2.00D  GRAD.:    16.953 HEAT: -74.86302
 CYCLE:    12 TIME:   0.004 TIME LEFT:  2.00D  GRAD.:    19.362 HEAT: -74.89428
 CYCLE:    13 TIME:   0.004 TIME LEFT:  2.00D  GRAD.:    17.498 HEAT: -74.93869
 CYCLE:    14 TIME:   0.004 TIME LEFT:  2.00D  GRAD.:    12.641 HEAT: -74.99894
 CYCLE:    15 TIME:   0.008 TIME LEFT:  2.00D  GRAD.:     8.089 HEAT: -75.04490
 CYCLE:    16 TIME:   0.008 TIME LEFT:  2.00D  GRAD.:     6.258 HEAT: -75.06285
 CYCLE:    17 TIME:   0.004 TIME LEFT:  2.00D  GRAD.:     5.675 HEAT: -75.08126
 CYCLE:    18 TIME:   0.004 TIME LEFT:  2.00D  GRAD.:     4.925 HEAT: -75.10672
 CYCLE:    19 TIME:   0.004 TIME LEFT:  2.00D  GRAD.:     6.507 HEAT: -75.14853
 CYCLE:    20 TIME:   0.004 TIME LEFT:  2.00D  GRAD.:    10.018 HEAT: -75.20703
 CYCLE:    21 TIME:   0.008 TIME LEFT:  2.00D  GRAD.:     8.389 HEAT: -75.29537
 CYCLE:    22 TIME:   0.004 TIME LEFT:  2.00D  GRAD.:    14.225 HEAT: -75.33958
 CYCLE:    23 TIME:   0.004 TIME LEFT:  2.00D  GRAD.:     8.955 HEAT: -75.42990
 CYCLE:    24 TIME:   0.004 TIME LEFT:  2.00D  GRAD.:     9.686 HEAT: -75.49386
 CYCLE:    25 TIME:   0.004 TIME LEFT:  2.00D  GRAD.:     8.373 HEAT: -75.54961
 CYCLE:    26 TIME:   0.004 TIME LEFT:  2.00D  GRAD.:     6.450 HEAT: -75.59704
 CYCLE:    27 TIME:   0.004 TIME LEFT:  2.00D  GRAD.:     7.731 HEAT: -75.62550
 CYCLE:    28 TIME:   0.004 TIME LEFT:  2.00D  GRAD.:     6.986 HEAT: -75.68146
 CYCLE:    29 TIME:   0.004 TIME LEFT:  2.00D  GRAD.:     6.914 HEAT: -75.71773
 CYCLE:    30 TIME:   0.004 TIME LEFT:  2.00D  GRAD.:     5.060 HEAT: -75.74977
 CYCLE:    31 TIME:   0.004 TIME LEFT:  2.00D  GRAD.:     6.352 HEAT: -75.76946
 CYCLE:    32 TIME:   0.004 TIME LEFT:  2.00D  GRAD.:     5.335 HEAT: -75.79559
 CYCLE:    33 TIME:   0.008 TIME LEFT:  2.00D  GRAD.:     4.346 HEAT: -75.81688
 CYCLE:    34 TIME:   0.004 TIME LEFT:  2.00D  GRAD.:     5.370 HEAT: -75.83004
 CYCLE:    35 TIME:   0.004 TIME LEFT:  2.00D  GRAD.:     2.782 HEAT: -75.84647
 CYCLE:    36 TIME:   0.004 TIME LEFT:  2.00D  GRAD.:     1.887 HEAT: -75.85512
 CYCLE:    37 TIME:   0.004 TIME LEFT:  2.00D  GRAD.:     2.202 HEAT: -75.86331
 CYCLE:    38 TIME:   0.004 TIME LEFT:  2.00D  GRAD.:     1.837 HEAT: -75.87014
 CYCLE:    39 TIME:   0.004 TIME LEFT:  2.00D  GRAD.:     1.576 HEAT: -75.87694
 CYCLE:    40 TIME:   0.004 TIME LEFT:  2.00D  GRAD.:     1.626 HEAT: -75.88340
 CYCLE:    41 TIME:   0.004 TIME LEFT:  2.00D  GRAD.:     1.516 HEAT: -75.88769
 CYCLE:    42 TIME:   0.004 TIME LEFT:  2.00D  GRAD.:     1.226 HEAT: -75.89133
 CYCLE:    43 TIME:   0.004 TIME LEFT:  2.00D  GRAD.:     1.063 HEAT: -75.89454
 CYCLE:    44 TIME:   0.004 TIME LEFT:  2.00D  GRAD.:     1.169 HEAT: -75.89720
 CYCLE:    45 TIME:   0.008 TIME LEFT:  2.00D  GRAD.:     0.790 HEAT: -75.89931
 CYCLE:    46 TIME:   0.004 TIME LEFT:  2.00D  GRAD.:     0.625 HEAT: -75.90068
 CYCLE:    47 TIME:   0.004 TIME LEFT:  2.00D  GRAD.:     0.628 HEAT: -75.90161
 CYCLE:    48 TIME:   0.004 TIME LEFT:  2.00D  GRAD.:     0.626 HEAT: -75.90242
 CYCLE:    49 TIME:   0.004 TIME LEFT:  2.00D  GRAD.:     0.594 HEAT: -75.90341
 CYCLE:    50 TIME:   0.004 TIME LEFT:  2.00D  GRAD.:     0.517 HEAT: -75.90396
 CYCLE:    51 TIME:   0.004 TIME LEFT:  2.00D  GRAD.:     0.725 HEAT: -75.90500
 CYCLE:    52 TIME:   0.004 TIME LEFT:  2.00D  GRAD.:     0.574 HEAT: -75.90539
 CYCLE:    53 TIME:   0.004 TIME LEFT:  2.00D  GRAD.:     0.637 HEAT: -75.90665
 CYCLE:    54 TIME:   0.004 TIME LEFT:  2.00D  GRAD.:     0.390 HEAT: -75.90700
 CYCLE:    55 TIME:   0.008 TIME LEFT:  2.00D  GRAD.:     0.361 HEAT: -75.90742
 CYCLE:    56 TIME:   0.004 TIME LEFT:  2.00D  GRAD.:     0.280 HEAT: -75.90755
 CYCLE:    57 TIME:   0.004 TIME LEFT:  2.00D  GRAD.:     0.309 HEAT: -75.90784
 CYCLE:    58 TIME:   0.004 TIME LEFT:  2.00D  GRAD.:     0.238 HEAT: -75.90797
 CYCLE:    59 TIME:   0.004 TIME LEFT:  2.00D  GRAD.:     0.330 HEAT: -75.90820
 CYCLE:    60 TIME:   0.004 TIME LEFT:  2.00D  GRAD.:     0.185 HEAT: -75.90831
 CYCLE:    61 TIME:   0.004 TIME LEFT:  2.00D  GRAD.:     0.124 HEAT: -75.90838
 CYCLE:    62 TIME:   0.004 TIME LEFT:  2.00D  GRAD.:     0.116 HEAT: -75.90844
 CYCLE:    63 TIME:   0.004 TIME LEFT:  2.00D  GRAD.:     0.116 HEAT: -75.90848
 CYCLE:    64 TIME:   0.004 TIME LEFT:  2.00D  GRAD.:     0.094 HEAT: -75.90850
 CYCLE:    65 TIME:   0.008 TIME LEFT:  2.00D  GRAD.:     0.092 HEAT: -75.90855
 CYCLE:    66 TIME:   0.004 TIME LEFT:  2.00D  GRAD.:     0.062 HEAT: -75.90856
 CYCLE:    67 TIME:   0.004 TIME LEFT:  2.00D  GRAD.:     0.043 HEAT: -75.90857

     GRADIENT =  0.04325  IS LESS THAN CUTOFF =  0.05000



 -------------------------------------------------------------------------------
 pm3  precise nosym THREADS=1
 InChI=1S/C7H12O2/c8-6-3-1-2-5-4-7(6)9-5/h5-8H,1-4H2



     GEOMETRY OPTIMISED USING EIGENVECTOR FOLLOWING (EF).     
     SCF FIELD WAS ACHIEVED                                   


                              PM3 CALCULATION
                                                       MOPAC2016 (Version: 18.184L)
                                                       Sat Jun 15 10:46:12 2019
                                                       No. of days remaining =  18




          FINAL HEAT OF FORMATION =        -75.90857 KCAL/MOL =    -317.60144 KJ/MOL


          TOTAL ENERGY            =      -1601.61663 EV
          ELECTRONIC ENERGY       =      -8184.73937 EV  POINT GROUP:     C1  
          CORE-CORE REPULSION     =       6583.12275 EV
          COSMO AREA              =        155.26 SQUARE ANGSTROMS
          COSMO VOLUME            =        159.09 CUBIC ANGSTROMS

          GRADIENT NORM           =          0.04325 = 0.00944 PER ATOM
          IONIZATION POTENTIAL    =         10.712958 EV
          HOMO LUMO ENERGIES (EV) =        -10.713  2.670
          NO. OF FILLED LEVELS    =         26
          MOLECULAR WEIGHT        =        128.1706

          MOLECULAR DIMENSIONS (Angstroms)

            Atom       Atom       Distance
            H    21    H    10     5.90603
            H    13    H    12     5.20512
            H    14    H    19     3.41935


          SCF CALCULATIONS        =         75
 
          WALL-CLOCK TIME         =          0.320 SECONDS
          COMPUTATION TIME        =          0.294 SECONDS




   ATOM   CHEMICAL          X               Y               Z
  NUMBER   SYMBOL      (ANGSTROMS)     (ANGSTROMS)     (ANGSTROMS)
 
     1       O         -0.33263486  *   0.93902765  *  -1.58230199  *
     2       O         -2.41124227  *  -0.58333430  *   0.99694132  *
     3       C         -1.17829380  *   0.87908434  *  -0.39282374  *
     4       C          0.83475100  *   1.31298930  *  -0.78827209  *
     5       C         -1.37999961  *  -0.59296031  *   0.02735278  *
     6       C         -0.08809190  *   1.62009529  *   0.42220985  *
     7       C          1.76807084  *   0.13068772  *  -0.54715355  *
     8       C         -0.08742659  *  -1.22412247  *   0.58718720  *
     9       C          1.05809453  *  -1.21420921  *  -0.41596698  *
    10       H          1.35219333  *   2.17367479  *  -1.25367753  *
    11       H         -1.72247452  *  -1.17484562  *  -0.86482545  *
    12       H         -2.13387108  *   1.41097749  *  -0.56603646  *
    13       H          1.80662559  *  -1.97452314  *  -0.11644816  *
    14       H          0.68384906  *  -1.53933399  *  -1.40778901  *
    15       H          2.50154454  *   0.06355880  *  -1.37411010  *
    16       H          2.35862245  *   0.34205072  *   0.36658862  *
    17       H          0.21710633  *  -0.68255149  *   1.51100850  *
    18       H         -0.29498177  *  -2.26740062  *   0.89660668  *
    19       H          0.19555478  *   1.15639671  *   1.38349501  *
    20       H         -0.28473456  *   2.68550968  *   0.60430477  *
    21       H         -2.54679989  *  -1.48518445  *   1.25467073  *

                             CARTESIAN COORDINATES

   1    O       -0.332634857     0.939027649    -1.582301986
   2    O       -2.411242271    -0.583334302     0.996941321
   3    C       -1.178293796     0.879084338    -0.392823740
   4    C        0.834750999     1.312989299    -0.788272091
   5    C       -1.379999615    -0.592960310     0.027352781
   6    C       -0.088091898     1.620095293     0.422209855
   7    C        1.768070843     0.130687717    -0.547153555
   8    C       -0.087426593    -1.224122470     0.587187197
   9    C        1.058094534    -1.214209208    -0.415966985
  10    H        1.352193330     2.173674788    -1.253677526
  11    H       -1.722474515    -1.174845616    -0.864825448
  12    H       -2.133871080     1.410977485    -0.566036465
  13    H        1.806625590    -1.974523140    -0.116448161
  14    H        0.683849062    -1.539333990    -1.407789012
  15    H        2.501544541     0.063558801    -1.374110097
  16    H        2.358622454     0.342050723     0.366588616
  17    H        0.217106325    -0.682551489     1.511008496
  18    H       -0.294981767    -2.267400622     0.896606681
  19    H        0.195554784     1.156396709     1.383495008
  20    H       -0.284734558     2.685509683     0.604304768
  21    H       -2.546799887    -1.485184448     1.254670734


           Empirical Formula: C7 H12 O2  =    21 atoms



      MOLECULAR POINT GROUP   :   C1  


                  EIGENVALUES  
 -42.84929 -37.42798 -34.48207 -30.08935 -29.18622 -24.32570 -23.26317 -19.84865
 -18.93474 -18.12400 -17.99646 -16.67579 -16.23210 -15.11063 -14.89812 -14.71769
 -14.41754 -13.81769 -13.01102 -12.95661 -12.20221 -11.95277 -11.83951 -11.60076
 -11.05166 -10.71296   2.66981   2.98220   3.05791   3.24754   3.40599   3.54760
   3.57050   3.61238   3.76669   3.81689   3.95040   4.13098   4.23713   4.27031
   4.42157   4.64685   4.86793   4.89214   4.97414   5.01995   5.20412   5.64803


              NET ATOMIC CHARGES AND DIPOLE CONTRIBUTIONS

  ATOM NO.   TYPE          CHARGE      No. of ELECS.   s-Pop       p-Pop       
    1          O          -0.269998        6.2700     1.88636     4.38364
    2          O          -0.308144        6.3081     1.80996     4.49818
    3          C           0.065620        3.9344     1.19161     2.74277
    4          C           0.068152        3.9318     1.18935     2.74250
    5          C           0.061882        3.9381     1.18026     2.75786
    6          C          -0.171234        4.1712     1.19099     2.98025
    7          C          -0.113325        4.1133     1.16617     2.94716
    8          C          -0.141078        4.1411     1.17448     2.96660
    9          C          -0.083596        4.0836     1.15798     2.92562
   10          H           0.072428        0.9276     0.92757
   11          H           0.055078        0.9449     0.94492
   12          H           0.086870        0.9131     0.91313
   13          H           0.046542        0.9535     0.95346
   14          H           0.063288        0.9367     0.93671
   15          H           0.055980        0.9440     0.94402
   16          H           0.054274        0.9457     0.94573
   17          H           0.067819        0.9322     0.93218
   18          H           0.049092        0.9509     0.95091
   19          H           0.080953        0.9190     0.91905
   20          H           0.071345        0.9287     0.92866
   21          H           0.188051        0.8119     0.81195
 DIPOLE           X         Y         Z       TOTAL
 POINT-CHG.     0.939    -0.408     0.875     1.347
 HYBRID         0.218    -0.652     0.265     0.737
 SUM            1.157    -1.060     1.140     1.940


          ATOMIC ORBITAL ELECTRON POPULATIONS

     Atom    s        px        py        pz   
    1  O   1.88636   1.20813   1.92141   1.25409
    2  O   1.80996   1.55344   1.34167   1.60308
    3  C   1.19161   0.94690   0.94043   0.85544
    4  C   1.18935   0.88769   0.95565   0.89915
    5  C   1.18026   0.87833   0.96226   0.91727
    6  C   1.19099   0.97564   1.01727   0.98733
    7  C   1.16617   0.97720   0.95270   1.01726
    8  C   1.17448   0.96506   1.00503   0.99651
    9  C   1.15798   0.96643   0.96159   0.99760
   10  H   0.92757
   11  H   0.94492
   12  H   0.91313
   13  H   0.95346
   14  H   0.93671
   15  H   0.94402
   16  H   0.94573
   17  H   0.93218
   18  H   0.95091
   19  H   0.91905
   20  H   0.92866
   21  H   0.81195
 *******************************************************************************
 ** Site#: 14399        For non-commercial use only    Version 18.184L 64BITS **
 *******************************************************************************
 ** Cite this program as: MOPAC2016, Version: 18.184L, James J. P. Stewart,   **
 ** Stewart Computational Chemistry, web: HTTP://OpenMOPAC.net. Days left:  18**
 *******************************************************************************
 **                                                                           **
 **                                MOPAC2016                                  **
 **                                                                           **
 *******************************************************************************

                              PM3 CALCULATION RESULTS

 *******************************************************************************
 *  CALCULATION DONE:                                Sat Jun 15 10:46:12 2019  *
 *  PM3        - The PM3 Hamiltonian to be used
 *  OLDGEO     - PREVIOUS GEOMETRY TO BE USED
 *  PRECISE    - CRITERIA TO BE INCREASED BY 100 TIMES
 *  NOSYM      - POINT-GROUP SYMMETRY SET TO C1
 *  THREADS=1  - MULTI-THREADING NOT USED
 *  T=         - A TIME OF 172800.0 SECONDS REQUESTED
 *  DUMP=N     - RESTART FILE WRITTEN EVERY  7200.000 SECONDS
 *  THERMO     - THERMODYNAMIC QUANTITIES TO BE CALCULATED
 *******************************************************************************
oldgeo thermo nosym precise THREADS=1  pm3
 InChI=1S/C7H12O2/c8-6-3-1-2-5-4-7(6)9-5/h5-8H,1-4H2

   ATOM   CHEMICAL          X               Y               Z
  NUMBER   SYMBOL      (ANGSTROMS)     (ANGSTROMS)     (ANGSTROMS)
 
     1       O         -0.33263486  *   0.93902765  *  -1.58230199  *
     2       O         -2.41124227  *  -0.58333430  *   0.99694132  *
     3       C         -1.17829380  *   0.87908434  *  -0.39282374  *
     4       C          0.83475100  *   1.31298930  *  -0.78827209  *
     5       C         -1.37999961  *  -0.59296031  *   0.02735278  *
     6       C         -0.08809190  *   1.62009529  *   0.42220985  *
     7       C          1.76807084  *   0.13068772  *  -0.54715355  *
     8       C         -0.08742659  *  -1.22412247  *   0.58718720  *
     9       C          1.05809453  *  -1.21420921  *  -0.41596698  *
    10       H          1.35219333  *   2.17367479  *  -1.25367753  *
    11       H         -1.72247452  *  -1.17484562  *  -0.86482545  *
    12       H         -2.13387108  *   1.41097749  *  -0.56603646  *
    13       H          1.80662559  *  -1.97452314  *  -0.11644816  *
    14       H          0.68384906  *  -1.53933399  *  -1.40778901  *
    15       H          2.50154454  *   0.06355880  *  -1.37411010  *
    16       H          2.35862245  *   0.34205072  *   0.36658862  *
    17       H          0.21710633  *  -0.68255149  *   1.51100850  *
    18       H         -0.29498177  *  -2.26740062  *   0.89660668  *
    19       H          0.19555478  *   1.15639671  *   1.38349501  *
    20       H         -0.28473456  *   2.68550968  *   0.60430477  *
    21       H         -2.54679989  *  -1.48518445  *   1.25467073  *
 


          CARTESIAN COORDINATES 

    NO.       ATOM           X           Y           Z

     1         O         -0.3326      0.9390     -1.5823
     2         O         -2.4112     -0.5833      0.9969
     3         C         -1.1783      0.8791     -0.3928
     4         C          0.8348      1.3130     -0.7883
     5         C         -1.3800     -0.5930      0.0274
     6         C         -0.0881      1.6201      0.4222
     7         C          1.7681      0.1307     -0.5472
     8         C         -0.0874     -1.2241      0.5872
     9         C          1.0581     -1.2142     -0.4160
    10         H          1.3522      2.1737     -1.2537
    11         H         -1.7225     -1.1748     -0.8648
    12         H         -2.1339      1.4110     -0.5660
    13         H          1.8066     -1.9745     -0.1164
    14         H          0.6838     -1.5393     -1.4078
    15         H          2.5015      0.0636     -1.3741
    16         H          2.3586      0.3421      0.3666
    17         H          0.2171     -0.6826      1.5110
    18         H         -0.2950     -2.2674      0.8966
    19         H          0.1956      1.1564      1.3835
    20         H         -0.2847      2.6855      0.6043
    21         H         -2.5468     -1.4852      1.2547

  H: (PM3): J. J. P. STEWART, J. COMP. CHEM. 10, 209 (1989).
  C: (PM3): J. J. P. STEWART, J. COMP. CHEM. 10, 209 (1989).
  O: (PM3): J. J. P. STEWART, J. COMP. CHEM. 10, 209 (1989).

           Empirical Formula: C7 H12 O2  =    21 atoms



      MOLECULAR POINT GROUP   :   C1  


      RHF CALCULATION, NO. OF DOUBLY OCCUPIED LEVELS = 26



          HEAT OF FORMATION =     -75.908566 KCALS/MOLE


          CARTESIAN COORDINATE DERIVATIVES

   NUMBER  ATOM         X            Y            Z

     1       O     -0.006576     0.003136    -0.002490
     2       O     -0.002730    -0.000764     0.003081
     3       C     -0.001589     0.002835     0.000818
     4       C      0.006278    -0.005260    -0.005362
     5       C     -0.006491    -0.000687    -0.004826
     6       C     -0.002367    -0.004381    -0.005520
     7       C      0.001419    -0.001664    -0.001589
     8       C      0.002300    -0.002500     0.002125
     9       C     -0.003437    -0.000606    -0.003167
    10       H      0.005566    -0.003214     0.012049
    11       H      0.003399     0.008157     0.015668
    12       H      0.008077     0.005153     0.009140
    13       H      0.012372    -0.000885     0.002374
    14       H     -0.009251    -0.006668    -0.012770
    15       H      0.002892     0.004209     0.003166
    16       H      0.005472     0.005536     0.008787
    17       H     -0.006141    -0.000011    -0.007893
    18       H     -0.002233     0.002296    -0.006457
    19       H     -0.000043    -0.005062    -0.001364
    20       H     -0.002691     0.001734    -0.003346
    21       H     -0.004226    -0.001354    -0.002422
 


          GRADIENT NORM =   0.04346

          MOLECULAR WEIGHT =  128.17



          ROTATIONAL CONSTANTS IN CM(-1)

          A =    0.08418554   B =    0.05503658   C =    0.04157366



           PRINCIPAL MOMENTS OF INERTIA IN UNITS OF 10**(-40)*GRAM-CM**2

          A =      332.5128   B =      508.6212   C =      673.3295


          ORIENTATION OF MOLECULE IN FORCE CALCULATION

    NO.       ATOM         X         Y         Z

     1          O      -1.2854    0.1571    0.9940
     2          O       2.3602    0.1571    0.9940
     3          C       0.0633    0.7179    0.9940
     4          C      -1.5454    0.6662   -0.3500
     5          C       1.0903   -0.3993    0.7087
     6          C      -0.2911    1.5758   -0.2471
     7          C      -1.4133   -0.4212   -1.4117
     8          C       1.0129   -0.9075   -0.7467
     9          C      -0.3541   -1.4761   -1.1028
    10          H      -2.5291    1.1726   -0.3819
    11          H       0.8973   -1.2489    1.4106
    12          H       0.2635    1.2532    1.9424
    13          H      -0.2514   -2.1350   -1.9878
    14          H      -0.7066   -2.1327   -0.2818
    15          H      -2.3885   -0.9287   -1.5451
    16          H      -1.1918    0.0710   -2.3796
    17          H       1.2667   -0.0756   -1.4417
    18          H       1.7858   -1.6856   -0.9032
    19          H       0.4209    1.5241   -1.0897
    20          H      -0.4951    2.6351   -0.0396
    21          H       2.9964   -0.5256    0.8287


    FIRST DERIVATIVES WILL BE USED IN THE CALCULATION OF SECOND DERIVATIVES

    FOR POINT-GROUP C1   THERE ARE   1 UNIQUE SYMMETRY FUNCTIONS.

 STEP:   1 TIME =     0.02 SECS, INTEGRAL =      0.02 TIME LEFT: 172799.98
 STEP:   2 TIME =     0.02 SECS, INTEGRAL =      0.04 TIME LEFT: 172799.96
 STEP:   3 TIME =     0.02 SECS, INTEGRAL =      0.05 TIME LEFT: 172799.95
 STEP:   4 TIME =     0.02 SECS, INTEGRAL =      0.07 TIME LEFT: 172799.93
 STEP:   5 TIME =     0.02 SECS, INTEGRAL =      0.09 TIME LEFT: 172799.91
 STEP:   6 TIME =     0.02 SECS, INTEGRAL =      0.11 TIME LEFT: 172799.89
 STEP:   7 TIME =     0.02 SECS, INTEGRAL =      0.13 TIME LEFT: 172799.87
 STEP:   8 TIME =     0.02 SECS, INTEGRAL =      0.15 TIME LEFT: 172799.85
 STEP:   9 TIME =     0.02 SECS, INTEGRAL =      0.17 TIME LEFT: 172799.83
 STEP:  10 TIME =     0.02 SECS, INTEGRAL =      0.19 TIME LEFT: 172799.81
 STEP:  11 TIME =     0.02 SECS, INTEGRAL =      0.20 TIME LEFT: 172799.80
 STEP:  12 TIME =     0.02 SECS, INTEGRAL =      0.22 TIME LEFT: 172799.78
 STEP:  13 TIME =     0.02 SECS, INTEGRAL =      0.24 TIME LEFT: 172799.76
 STEP:  14 TIME =     0.02 SECS, INTEGRAL =      0.26 TIME LEFT: 172799.74
 STEP:  15 TIME =     0.02 SECS, INTEGRAL =      0.27 TIME LEFT: 172799.73
 STEP:  16 TIME =     0.02 SECS, INTEGRAL =      0.29 TIME LEFT: 172799.71
 STEP:  17 TIME =     0.02 SECS, INTEGRAL =      0.31 TIME LEFT: 172799.69
 STEP:  18 TIME =     0.02 SECS, INTEGRAL =      0.33 TIME LEFT: 172799.67
 STEP:  19 TIME =     0.02 SECS, INTEGRAL =      0.35 TIME LEFT: 172799.65
 STEP:  20 TIME =     0.02 SECS, INTEGRAL =      0.37 TIME LEFT: 172799.63
 STEP:  21 TIME =     0.02 SECS, INTEGRAL =      0.38 TIME LEFT: 172799.62
 STEP:  22 TIME =     0.02 SECS, INTEGRAL =      0.40 TIME LEFT: 172799.60
 STEP:  23 TIME =     0.02 SECS, INTEGRAL =      0.42 TIME LEFT: 172799.58
 STEP:  24 TIME =     0.02 SECS, INTEGRAL =      0.44 TIME LEFT: 172799.56
 STEP:  25 TIME =     0.02 SECS, INTEGRAL =      0.46 TIME LEFT: 172799.54
 STEP:  26 TIME =     0.02 SECS, INTEGRAL =      0.48 TIME LEFT: 172799.52
 STEP:  27 TIME =     0.02 SECS, INTEGRAL =      0.49 TIME LEFT: 172799.51
 STEP:  28 TIME =     0.02 SECS, INTEGRAL =      0.51 TIME LEFT: 172799.49
 STEP:  29 TIME =     0.02 SECS, INTEGRAL =      0.53 TIME LEFT: 172799.47
 STEP:  30 TIME =     0.02 SECS, INTEGRAL =      0.55 TIME LEFT: 172799.45
 STEP:  31 TIME =     0.02 SECS, INTEGRAL =      0.56 TIME LEFT: 172799.44
 STEP:  32 TIME =     0.02 SECS, INTEGRAL =      0.58 TIME LEFT: 172799.42
 STEP:  33 TIME =     0.02 SECS, INTEGRAL =      0.60 TIME LEFT: 172799.40
 STEP:  34 TIME =     0.02 SECS, INTEGRAL =      0.62 TIME LEFT: 172799.38
 STEP:  35 TIME =     0.02 SECS, INTEGRAL =      0.63 TIME LEFT: 172799.37
 STEP:  36 TIME =     0.02 SECS, INTEGRAL =      0.65 TIME LEFT: 172799.35
 STEP:  37 TIME =     0.02 SECS, INTEGRAL =      0.67 TIME LEFT: 172799.33
 STEP:  38 TIME =     0.02 SECS, INTEGRAL =      0.69 TIME LEFT: 172799.31
 STEP:  39 TIME =     0.02 SECS, INTEGRAL =      0.71 TIME LEFT: 172799.29
 STEP:  40 TIME =     0.02 SECS, INTEGRAL =      0.73 TIME LEFT: 172799.27
 STEP:  41 TIME =     0.02 SECS, INTEGRAL =      0.74 TIME LEFT: 172799.26
 STEP:  42 TIME =     0.02 SECS, INTEGRAL =      0.76 TIME LEFT: 172799.24
 STEP:  43 TIME =     0.02 SECS, INTEGRAL =      0.78 TIME LEFT: 172799.22
 STEP:  44 TIME =     0.02 SECS, INTEGRAL =      0.80 TIME LEFT: 172799.20
 STEP:  45 TIME =     0.02 SECS, INTEGRAL =      0.81 TIME LEFT: 172799.19
 STEP:  46 TIME =     0.02 SECS, INTEGRAL =      0.83 TIME LEFT: 172799.17
 STEP:  47 TIME =     0.02 SECS, INTEGRAL =      0.85 TIME LEFT: 172799.15
 STEP:  48 TIME =     0.02 SECS, INTEGRAL =      0.87 TIME LEFT: 172799.13
 STEP:  49 TIME =     0.02 SECS, INTEGRAL =      0.89 TIME LEFT: 172799.11
 STEP:  50 TIME =     0.02 SECS, INTEGRAL =      0.91 TIME LEFT: 172799.09
 STEP:  51 TIME =     0.02 SECS, INTEGRAL =      0.92 TIME LEFT: 172799.08
 STEP:  52 TIME =     0.02 SECS, INTEGRAL =      0.94 TIME LEFT: 172799.06
 STEP:  53 TIME =     0.02 SECS, INTEGRAL =      0.96 TIME LEFT: 172799.04
 STEP:  54 TIME =     0.02 SECS, INTEGRAL =      0.98 TIME LEFT: 172799.02
 STEP:  55 TIME =     0.02 SECS, INTEGRAL =      1.00 TIME LEFT: 172799.00
 STEP:  56 TIME =     0.02 SECS, INTEGRAL =      1.02 TIME LEFT: 172798.98
 STEP:  57 TIME =     0.02 SECS, INTEGRAL =      1.03 TIME LEFT: 172798.97
 STEP:  58 TIME =     0.02 SECS, INTEGRAL =      1.05 TIME LEFT: 172798.95
 STEP:  59 TIME =     0.02 SECS, INTEGRAL =      1.07 TIME LEFT: 172798.93
 STEP:  60 TIME =     0.02 SECS, INTEGRAL =      1.09 TIME LEFT: 172798.91
 STEP:  61 TIME =     0.02 SECS, INTEGRAL =      1.10 TIME LEFT: 172798.90
 STEP:  62 TIME =     0.02 SECS, INTEGRAL =      1.12 TIME LEFT: 172798.88
 STEP:  63 TIME =     0.02 SECS, INTEGRAL =      1.14 TIME LEFT: 172798.86

(To convert to Hartree/Bohr^2, multiply by (10^(-21) x N x a0^2)/(4.184 x 627.51) =  0.0642)


           FORCE MATRIX IN MILLIDYNES/ANGSTROM


                  O  1       O  2       C  3       C  4       C  5       C  6
 ------------------------------------------------------------------------------
     O    1   8.810969
     O    2   0.081682  11.962079
     C    3   3.964245   0.837766  14.440852
     C    4   3.950997   0.016141   2.367508  14.470645
     C    5   0.732582   5.141951   3.453311   0.083514  14.292343
     C    6   2.146374   0.023702   3.398935   3.318569   0.523158  14.404859
     C    7   0.740190   0.004041   0.072833   3.935730   0.023613   0.550522
     C    8   0.037658   0.842759   0.552637   0.041071   3.454039   0.105236
     C    9   0.081808   0.073501   0.042396   0.589733   0.567746   0.029062
     H   10   0.331955   0.003511   0.064327   4.500038   0.009028   0.405351
     H   11   0.049167   0.411849   0.426669   0.005822   4.118754   0.045012
     H   12   0.328669   0.074546   4.505541   0.063751   0.446934   0.406186
     H   13   0.008181   0.013510   0.005365   0.053670   0.043292   0.001471
     H   14   0.030347   0.006101   0.010046   0.014370   0.040551   0.001337
     H   15   0.011686   0.001713   0.005237   0.439177   0.003904   0.045569
     H   16   0.055564   0.001295   0.009572   0.411520   0.002287   0.025916
     H   17   0.003425   0.037882   0.018161   0.011361   0.460368   0.101942
     H   18   0.004709   0.045404   0.049328   0.005505   0.444099   0.007918
     H   19   0.060251   0.005353   0.431831   0.430065   0.029811   4.562720
     H   20   0.045612   0.002445   0.449732   0.446572   0.044409   4.760314
     H   21   0.017360   8.329288   0.106947   0.004313   0.809999   0.003342


                  C  7       C  8       C  9       H 10       H 11       H 12
 ------------------------------------------------------------------------------
     C    7  14.230894
     C    8   0.583237  14.035525
     C    9   4.004484   4.108678  14.167488
     H   10   0.421726   0.002807   0.043348   4.889387
     H   11   0.001622   0.426973   0.020431   0.000934   4.534315
     H   12   0.009199   0.042355   0.002838   0.006711   0.015287   4.910416
     H   13   0.431394   0.434100   4.459373   0.007861   0.001237   0.000344
     H   14   0.441958   0.443505   4.447263   0.001702   0.024308   0.000429
     H   15   4.492440   0.049270   0.427360   0.036476   0.000512   0.001068
     H   16   4.450186   0.012703   0.445846   0.017610   0.000528   0.001692
     H   17   0.028257   4.295814   0.444549   0.000882   0.044241   0.002006
     H   18   0.048191   4.467898   0.432955   0.000442   0.026726   0.007626
     H   19   0.025813   0.112560   0.008797   0.025984   0.003741   0.024370
     H   20   0.043293   0.007295   0.001901   0.019129   0.006898   0.019155
     H   21   0.002143   0.081812   0.007499   0.000941   0.042462   0.003946


                  H 13       H 14       H 15       H 16       H 17       H 18
 ------------------------------------------------------------------------------
     H   13   5.059197
     H   14   0.569646   5.059378
     H   15   0.033466   0.036701   5.087555
     H   16   0.035399   0.045709   0.563964   5.054623
     H   17   0.018042   0.043197   0.002803   0.012755   4.938971
     H   18   0.036910   0.019034   0.008057   0.001593   0.544350   5.069122
     H   19   0.000728   0.001014   0.003375   0.023061   0.078123   0.001601
     H   20   0.000362   0.000332   0.006855   0.002655   0.000901   0.000762
     H   21   0.001617   0.001579   0.000636   0.000428   0.007118   0.033853


                  H 19       H 20       H 21
 ------------------------------------------
     H   19   5.220126
     H   20   0.520850   5.373474
     H   21   0.002176   0.000724   8.576650


          HEAT OF FORMATION =     -75.908566 KCALS/MOLE

          ZERO POINT ENERGY     114.369 KCAL/MOL


           NORMAL COORDINATE ANALYSIS (Total motion = 1 Angstrom)


   Root No.       1         2         3         4         5         6         7         8

                 1 A       2 A       3 A       4 A       5 A       6 A       7 A       8 A   

                 136.5     224.8     262.7     300.3     340.4     373.0     411.3     454.0
  
           1   -0.0106   -0.0001    0.0118   -0.0215   -0.0188    0.0044    0.0586    0.0021
           2   -0.0191   -0.0051   -0.0149    0.0137    0.0438   -0.0221   -0.0204   -0.0074
           3   -0.0132    0.0038   -0.0074   -0.0108    0.0333   -0.0309   -0.0021   -0.0282
           4   -0.0024    0.0093    0.0178   -0.0088   -0.0106    0.0371   -0.0441   -0.0018
           5    0.0430    0.0053   -0.0299   -0.0011   -0.0232   -0.0249    0.0232    0.0002
           6   -0.0410   -0.0624    0.0088   -0.0066   -0.0402   -0.0230    0.0261    0.0094
           7   -0.0103   -0.0035    0.0030   -0.0085   -0.0085   -0.0089    0.0242    0.0011
           8   -0.0220    0.0053    0.0128   -0.0175    0.0226    0.0188    0.0325   -0.0055
           9    0.0185    0.0045   -0.0118    0.0136    0.0172    0.0181    0.0101   -0.0246
          10    0.0105   -0.0030   -0.0111    0.0186    0.0063    0.0134    0.0449   -0.0107
          11    0.0090   -0.0040   -0.0093    0.0129   -0.0132    0.0003   -0.0164    0.0321
          12   -0.0075    0.0044   -0.0011   -0.0193    0.0069   -0.0231    0.0010   -0.0049
          13    0.0057   -0.0047    0.0051   -0.0026   -0.0286   -0.0005   -0.0211    0.0073
          14   -0.0046    0.0047    0.0111   -0.0082    0.0016    0.0222    0.0082   -0.0047
          15    0.0097    0.0050   -0.0086   -0.0150   -0.0027    0.0352   -0.0121   -0.0203
          16    0.0158   -0.0100   -0.0325    0.0219   -0.0171    0.0000    0.0162   -0.0287
          17   -0.0019    0.0054    0.0203    0.0067    0.0205    0.0171    0.0309    0.0540
          18    0.0260    0.0079    0.0022    0.0219    0.0199    0.0128    0.0151    0.0235
          19    0.0204    0.0090    0.0234    0.0012    0.0467   -0.0225   -0.0001   -0.0016
          20    0.0233    0.0052    0.0098   -0.0239   -0.0108   -0.0190   -0.0145   -0.0018
          21   -0.0211   -0.0039   -0.0196    0.0137    0.0021   -0.0054   -0.0089    0.0311
          22   -0.0113    0.0015   -0.0064   -0.0001    0.0030   -0.0239   -0.0422    0.0291
          23   -0.0311   -0.0013    0.0131    0.0295   -0.0137    0.0196   -0.0057   -0.0496
          24    0.0193    0.0081   -0.0067   -0.0281    0.0032    0.0379   -0.0133   -0.0014
          25   -0.0211    0.0045   -0.0120    0.0062    0.0281   -0.0015   -0.0286    0.0105
          26   -0.0063    0.0008   -0.0058   -0.0150   -0.0317    0.0012   -0.0442   -0.0064
          27    0.0188   -0.0032    0.0413    0.0269   -0.0245   -0.0095   -0.0240    0.0042
          28    0.0148   -0.0076   -0.0261    0.0288   -0.0059    0.0160    0.0384   -0.0193
          29    0.0166   -0.0129   -0.0387    0.0318   -0.0389    0.0075   -0.0263    0.0161
          30   -0.0123    0.0066    0.0106   -0.0518   -0.0291   -0.0231    0.0246   -0.0080
          31    0.0482   -0.0183   -0.0138    0.0058   -0.0375   -0.0006   -0.0345   -0.0044
          32    0.0034    0.0112    0.0125   -0.0289    0.0113    0.0383    0.0037    0.0083
          33    0.0301    0.0093   -0.0106   -0.0381    0.0067    0.0541   -0.0199   -0.0060
          34   -0.0273   -0.0031    0.0029   -0.0115    0.0192   -0.0437    0.0271    0.0006
          35   -0.0401    0.0044    0.0117   -0.0444    0.0165    0.0147    0.0256   -0.0374
          36    0.0323    0.0048   -0.0112    0.0289    0.0144    0.0268    0.0139   -0.0055
          37   -0.0290    0.0096   -0.0311   -0.0126    0.0432    0.0425   -0.0187   -0.0128
          38   -0.0314    0.0066   -0.0697   -0.0532    0.0018    0.0345   -0.0282    0.0140
          39    0.0367   -0.0070    0.0875    0.0538   -0.0485   -0.0298   -0.0349   -0.0145
          40   -0.0514   -0.0026   -0.0234    0.0323    0.0237   -0.0025   -0.0328    0.0178
          41    0.0250   -0.0040    0.0576    0.0158   -0.0623   -0.0361   -0.0589   -0.0245
          42    0.0306   -0.0104    0.0875    0.0635   -0.0520   -0.0405   -0.0389   -0.0067
          43    0.0119    0.0102    0.0225   -0.0035    0.0472   -0.0248   -0.0213   -0.0012
          44    0.0528    0.0080    0.0319   -0.0271    0.0005   -0.0328    0.0249   -0.0221
          45   -0.0699   -0.0223   -0.0927    0.0590   -0.0425    0.0588   -0.0029    0.0965
          46    0.0769    0.0220    0.0974   -0.0195    0.0789   -0.0725    0.0098   -0.0497
          47    0.0281    0.0153    0.0196   -0.0614    0.0152   -0.0476   -0.0155   -0.0359
          48   -0.0057    0.0040    0.0019   -0.0093    0.0214   -0.0301   -0.0072    0.0043
          49    0.0055    0.0073   -0.0402   -0.0550    0.0012   -0.0237   -0.0749    0.0596
          50   -0.0454   -0.0015    0.0200    0.0544   -0.0093    0.0272   -0.0002   -0.0724
          51    0.0079    0.0099   -0.0110   -0.0189    0.0064    0.0454   -0.0192   -0.0147
          52   -0.0268    0.0076    0.0040    0.0319    0.0206   -0.0168   -0.0186    0.0001
          53   -0.0493    0.0037    0.0284    0.0706   -0.0013    0.0260    0.0196   -0.0874
          54    0.0337    0.0191   -0.0283   -0.0713    0.0227    0.0348   -0.0169    0.0422
          55    0.0303   -0.0076   -0.0384    0.0370   -0.0053    0.0196    0.0294   -0.0366
          56   -0.0007    0.0095    0.0484    0.0294    0.0399    0.0363    0.0624    0.0939
          57    0.0380    0.0094   -0.0042    0.0341    0.0294    0.0292    0.0256    0.0167
          58    0.0222   -0.0175   -0.0589    0.0162   -0.0512   -0.0285   -0.0322   -0.0498
          59   -0.0026    0.0034    0.0117    0.0020    0.0133    0.0116    0.0208    0.0374
          60    0.0353    0.0102    0.0207    0.0426    0.0242    0.0150    0.0216    0.0906
          61    0.0160   -0.0742   -0.0008   -0.0062   -0.0227   -0.0016   -0.0210    0.0072
          62    0.0639   -0.2381   -0.0402   -0.0049   -0.0189   -0.0502    0.0383    0.0075
          63   -0.0561    0.6268   -0.0213    0.0193   -0.1070   -0.0712    0.0558    0.0142


   Root No.       9        10        11        12        13        14        15        16

                 9 A      10 A      11 A      12 A      13 A      14 A      15 A      16 A   

                 541.0     565.6     614.9     817.6     840.6     873.0     895.4     913.9
  
           1   -0.0233   -0.0161   -0.0142    0.0017   -0.0289    0.0050    0.0169   -0.0059
           2    0.0433   -0.0078   -0.0207    0.0041   -0.0251   -0.0008    0.0122    0.0134
           3    0.0120    0.0099   -0.0149   -0.0033    0.0315    0.0100   -0.0062   -0.0094
           4    0.0483    0.0195    0.0163   -0.0077    0.0054   -0.0019   -0.0038    0.0055
           5    0.0186   -0.0074    0.0003   -0.0025    0.0016    0.0001   -0.0016    0.0004
           6    0.0331    0.0158    0.0091   -0.0014    0.0035    0.0008    0.0014    0.0013
           7    0.0105   -0.0208   -0.0147    0.0099   -0.0066    0.0133    0.0043   -0.0169
           8   -0.0207    0.0239   -0.0004   -0.0147   -0.0153   -0.0174   -0.0076   -0.0231
           9   -0.0034    0.0335   -0.0057   -0.0163   -0.0316   -0.0229    0.0220   -0.0135
          10   -0.0056    0.0109   -0.0138    0.0022    0.0450   -0.0249   -0.0028    0.0148
          11   -0.0107   -0.0128    0.0278   -0.0138   -0.0107    0.0198    0.0051   -0.0246
          12   -0.0142   -0.0010    0.0162   -0.0075    0.0004    0.0096   -0.0109    0.0239
          13    0.0444    0.0003    0.0044   -0.0051   -0.0040   -0.0126    0.0068   -0.0005
          14   -0.0020    0.0574    0.0216    0.0126    0.0111    0.0245   -0.0055   -0.0024
          15    0.0001   -0.0377   -0.0086   -0.0200   -0.0065   -0.0096   -0.0145    0.0057
          16   -0.0148    0.0114    0.0092    0.0139   -0.0004    0.0118   -0.0243    0.0203
          17    0.0012   -0.0116   -0.0028   -0.0098   -0.0049   -0.0058   -0.0080    0.0391
          18    0.0157    0.0168   -0.0136    0.0034   -0.0232    0.0190   -0.0000   -0.0230
          19   -0.0131   -0.0087    0.0231   -0.0127    0.0361    0.0046    0.0352    0.0066
          20   -0.0124   -0.0047    0.0110   -0.0157    0.0223   -0.0046    0.0087   -0.0091
          21   -0.0238   -0.0099    0.0404    0.0131    0.0095   -0.0264   -0.0029    0.0110
          22   -0.0236    0.0117   -0.0166   -0.0083   -0.0197   -0.0137   -0.0263   -0.0162
          23   -0.0102   -0.0158    0.0036    0.0218    0.0035    0.0130    0.0094    0.0157
          24   -0.0013   -0.0291   -0.0045    0.0106    0.0068    0.0160    0.0049    0.0002
          25   -0.0262   -0.0075   -0.0024   -0.0043   -0.0064    0.0124   -0.0027   -0.0002
          26   -0.0259    0.0029   -0.0382    0.0187    0.0105   -0.0179    0.0121    0.0018
          27   -0.0256   -0.0071   -0.0008    0.0274   -0.0026   -0.0126    0.0158   -0.0164
          28   -0.0077    0.0190   -0.0066    0.0132    0.0631   -0.0267   -0.0344   -0.0316
          29   -0.0150    0.0031    0.0404    0.0066    0.0239    0.0133   -0.0572   -0.1184
          30   -0.0411   -0.0112    0.0089   -0.0227   -0.0682    0.0225   -0.0191    0.1372
          31    0.0713   -0.0183    0.0045   -0.0178   -0.0051   -0.0318    0.0316    0.0276
          32   -0.0047    0.0473    0.0203    0.0007    0.0251    0.0372   -0.0449   -0.0096
          33    0.0016   -0.0525   -0.0105   -0.0349    0.0104    0.0034   -0.0540    0.0047
          34    0.0228   -0.0349   -0.0407    0.0249    0.0312    0.0414   -0.0075   -0.1167
          35   -0.0309    0.0016    0.0003   -0.0259    0.0461   -0.0166   -0.0566   -0.1021
          36    0.0003    0.0476   -0.0016   -0.0122   -0.0734   -0.0262    0.0503    0.0466
          37   -0.0029   -0.0345    0.0027    0.0508   -0.0189    0.0591    0.0364   -0.0159
          38   -0.0012   -0.0336    0.0394    0.1042    0.0020   -0.0772    0.0567   -0.0509
          39   -0.0422    0.0172   -0.0599   -0.0321    0.0029    0.0378   -0.0151    0.0220
          40   -0.0406   -0.0039    0.0145    0.0199   -0.0374   -0.0169   -0.0295    0.0098
          41   -0.0466    0.0387   -0.1126   -0.0698    0.0286    0.0290   -0.0293    0.0486
          42   -0.0507    0.0246   -0.0568   -0.0355    0.0002    0.0140   -0.0289    0.0282
          43   -0.0210   -0.0110    0.0131   -0.0076    0.0180    0.0164    0.0419    0.0112
          44    0.0102   -0.0058    0.0483    0.0049    0.0192   -0.0391   -0.0327   -0.0153
          45   -0.0520    0.0060   -0.0135   -0.0891    0.1379    0.0167    0.0924    0.0001
          46    0.0120   -0.0251    0.0879    0.0839   -0.0634   -0.0420   -0.0330   -0.0082
          47   -0.0001   -0.0049    0.0234    0.0100   -0.0115   -0.0334   -0.0580    0.0388
          48   -0.0127   -0.0132    0.0597    0.0452   -0.0286   -0.0494   -0.0512    0.0330
          49   -0.0588    0.0780   -0.0685    0.0535   -0.0177   -0.0056   -0.0093    0.0498
          50    0.0040   -0.0924    0.0080   -0.0283   -0.0009   -0.0153   -0.0278   -0.0064
          51    0.0023   -0.0902   -0.0209   -0.0242    0.0020   -0.0141   -0.0325    0.0011
          52   -0.0177   -0.0337    0.0184   -0.0559   -0.0304    0.0033   -0.0592   -0.0560
          53    0.0045   -0.0822    0.0428   -0.0411   -0.0077    0.0148   -0.0289   -0.0339
          54   -0.0363    0.0688   -0.0229    0.0737    0.0149    0.0845    0.0256    0.0471
          55   -0.0175    0.0483   -0.0038    0.0231   -0.0081   -0.0581   -0.0421    0.0133
          56    0.0568   -0.0592   -0.0576    0.0599    0.0917   -0.0237   -0.0733    0.0290
          57    0.0130    0.0485   -0.0245    0.0102   -0.0329   -0.0399   -0.0139   -0.0275
          58   -0.0502    0.0100    0.0739   -0.0274   -0.0738    0.1441    0.0043    0.0332
          59   -0.0148   -0.0004    0.0154   -0.0298   -0.0285    0.0014    0.0064    0.0395
          60    0.0693   -0.0473   -0.0494    0.0729    0.0433    0.1097   -0.0599   -0.0223
          61    0.0533   -0.0166   -0.0004   -0.0138   -0.0088   -0.0242    0.0098   -0.0024
          62    0.0179   -0.0387   -0.0144   -0.0076   -0.0108   -0.0184    0.0091   -0.0070
          63    0.0584    0.0036    0.0043   -0.0044   -0.0009   -0.0106    0.0107    0.0006


   Root No.      17        18        19        20        21        22        23        24

                17 A      18 A      19 A      20 A      21 A      22 A      23 A      24 A   

                 932.0     956.6     975.6     996.1    1019.3    1041.5    1054.1    1082.9
  
           1   -0.0038    0.0125    0.0379   -0.0210    0.0020    0.0103   -0.0011   -0.0078
           2   -0.0029   -0.0164    0.0168    0.0013   -0.0029    0.0017   -0.0029    0.0001
           3    0.0208    0.0414    0.0082   -0.0163   -0.0023    0.0105   -0.0001   -0.0036
           4   -0.0026    0.0028   -0.0029   -0.0005    0.0003    0.0037   -0.0042   -0.0161
           5   -0.0034   -0.0013   -0.0025   -0.0004   -0.0007    0.0004   -0.0046   -0.0075
           6   -0.0002   -0.0009   -0.0010   -0.0028    0.0009    0.0006   -0.0010    0.0035
           7   -0.0176   -0.0219   -0.0131    0.0162    0.0050   -0.0199   -0.0098    0.0103
           8   -0.0048   -0.0094   -0.0257   -0.0029   -0.0018   -0.0050    0.0150   -0.0053
           9   -0.0121   -0.0007    0.0069    0.0186   -0.0069   -0.0132    0.0195    0.0072
          10    0.0089    0.0066   -0.0002    0.0224   -0.0123   -0.0252   -0.0057    0.0079
          11   -0.0086    0.0257    0.0107    0.0066    0.0041    0.0172    0.0071    0.0122
          12    0.0032   -0.0090   -0.0134    0.0132    0.0039   -0.0101    0.0068    0.0085
          13    0.0028    0.0059   -0.0088   -0.0003    0.0028   -0.0001    0.0100    0.0065
          14    0.0069   -0.0167    0.0241   -0.0054   -0.0050   -0.0057   -0.0064    0.0142
          15   -0.0264    0.0058    0.0017   -0.0055   -0.0194    0.0079    0.0055   -0.0108
          16    0.0112   -0.0148   -0.0106   -0.0137    0.0004    0.0104    0.0118   -0.0051
          17    0.0238    0.0334   -0.0300   -0.0036    0.0031   -0.0101   -0.0008   -0.0040
          18   -0.0040   -0.0137   -0.0215   -0.0096    0.0016   -0.0003   -0.0163   -0.0032
          19   -0.0145   -0.0138   -0.0067   -0.0152   -0.0020    0.0079   -0.0007   -0.0020
          20    0.0058   -0.0168    0.0171    0.0108   -0.0001    0.0121   -0.0017   -0.0064
          21   -0.0279   -0.0120    0.0057   -0.0100    0.0115   -0.0109   -0.0054   -0.0073
          22    0.0182   -0.0006    0.0147    0.0125   -0.0146   -0.0055   -0.0077   -0.0180
          23   -0.0232    0.0183   -0.0044    0.0160    0.0024    0.0095   -0.0075   -0.0126
          24    0.0201   -0.0031    0.0047    0.0097    0.0208   -0.0096   -0.0083   -0.0014
          25    0.0012    0.0001    0.0026    0.0031    0.0109    0.0029    0.0107    0.0156
          26    0.0057   -0.0075   -0.0143   -0.0234   -0.0034   -0.0137    0.0006    0.0099
          27    0.0308   -0.0043   -0.0064    0.0031   -0.0126    0.0048    0.0065   -0.0025
          28    0.0030    0.0432    0.0219    0.0251    0.0153   -0.0495    0.0142    0.0358
          29   -0.0211    0.0964    0.0591    0.0167    0.0596   -0.0247    0.0468    0.0691
          30    0.0657   -0.0873   -0.0149    0.1183   -0.0599    0.1426    0.0239    0.0832
          31   -0.0102    0.0463    0.0003   -0.0105    0.0043    0.0289    0.0813    0.1301
          32    0.0145   -0.0475    0.0284   -0.0537   -0.0187   -0.0137   -0.0703    0.0980
          33   -0.0201   -0.0208    0.0110   -0.0638   -0.0341    0.0043   -0.0549    0.1165
          34   -0.0313   -0.0364   -0.1417    0.0748    0.0451    0.0060   -0.0768    0.0516
          35   -0.0558   -0.0148   -0.1139    0.0119   -0.0455    0.0725    0.0944   -0.0430
          36    0.0169    0.0028    0.0792   -0.0007    0.0085   -0.0617   -0.0117    0.0211
          37    0.0897    0.0275   -0.0277    0.0582    0.0638   -0.0019    0.0729    0.0313
          38    0.0780   -0.0202   -0.0295   -0.0356   -0.0622   -0.0025   -0.0004   -0.0003
          39   -0.0128    0.0073    0.0031    0.0200    0.0392   -0.0056    0.0137    0.0057
          40   -0.0643    0.0374   -0.0025   -0.0098   -0.0482    0.0433   -0.0279    0.0907
          41   -0.0536   -0.0152    0.0054   -0.0258    0.0555   -0.0412    0.0012    0.0066
          42   -0.0485    0.0052    0.0066   -0.0055    0.0114   -0.0001   -0.0094    0.0269
          43   -0.0110   -0.0340   -0.0272   -0.0633    0.0330    0.0040    0.0458    0.0135
          44   -0.0079    0.0350    0.0544    0.0987   -0.0566    0.0058   -0.0821   -0.0265
          45   -0.0088   -0.0499    0.0189    0.0181   -0.0245    0.0454   -0.0353   -0.0283
          46   -0.0443    0.0671   -0.0077   -0.0006   -0.0396    0.0049   -0.0396    0.0315
          47   -0.0146   -0.0675    0.0247   -0.0159    0.0985   -0.0688    0.0530   -0.0366
          48   -0.0447   -0.0209    0.0091   -0.0191    0.0540   -0.0508    0.0138   -0.0152
          49   -0.0972    0.0782   -0.0230    0.0311   -0.0248    0.0291   -0.0470   -0.0234
          50    0.0144   -0.0068   -0.0002   -0.0190    0.0005   -0.0122   -0.0444    0.0141
          51    0.0159   -0.0004   -0.0045   -0.0226    0.0133   -0.0206   -0.0644    0.0263
          52    0.0838   -0.0460    0.0666    0.0351    0.0092   -0.0236   -0.0150   -0.0521
          53    0.0583   -0.0380    0.0423    0.0185    0.0201   -0.0152   -0.0184   -0.0322
          54   -0.0597    0.0415    0.0303    0.0939    0.0449    0.0192    0.0024   -0.0661
          55    0.0331   -0.0205   -0.0158   -0.0478    0.0855    0.1675   -0.0328   -0.0225
          56   -0.0090   -0.0245    0.0628    0.0058   -0.0078    0.0413    0.0763    0.0032
          57    0.0141   -0.0181   -0.0261   -0.0381    0.0729    0.1320   -0.0534   -0.0181
          58    0.0314    0.0361   -0.0982   -0.0665   -0.0814   -0.0793   -0.0041   -0.0528
          59    0.0349    0.0531   -0.0602   -0.0088    0.0066   -0.0240   -0.0209   -0.0061
          60   -0.0472   -0.0668    0.0557   -0.0323   -0.0984   -0.0091    0.0864   -0.0375
          61   -0.0032    0.0161   -0.0372    0.0159    0.0184    0.0011    0.0114   -0.0330
          62   -0.0036    0.0096   -0.0319    0.0143    0.0151   -0.0020    0.0077   -0.0240
          63   -0.0033    0.0059   -0.0173    0.0019    0.0082    0.0001    0.0079    0.0013


   Root No.      25        26        27        28        29        30        31        32

                25 A      26 A      27 A      28 A      29 A      30 A      31 A      32 A   

                1101.2    1115.0    1123.7    1142.8    1154.0    1157.9    1176.2    1207.6
  
           1    0.0043    0.0019    0.0045   -0.0062    0.0116    0.0045    0.0062   -0.0018
           2    0.0034    0.0006   -0.0050   -0.0017    0.0046    0.0046    0.0137   -0.0057
           3   -0.0018   -0.0029    0.0051    0.0007   -0.0005    0.0000   -0.0066    0.0094
           4   -0.0208   -0.0047    0.0103   -0.0054    0.0087    0.0074   -0.0035   -0.0026
           5   -0.0146   -0.0041    0.0047   -0.0054    0.0073    0.0021   -0.0029   -0.0118
           6   -0.0011   -0.0002    0.0028   -0.0017    0.0029    0.0011   -0.0016   -0.0023
           7   -0.0085   -0.0093   -0.0141    0.0061   -0.0201   -0.0090   -0.0064   -0.0119
           8   -0.0059    0.0135   -0.0152    0.0232   -0.0155    0.0020   -0.0116    0.0119
           9   -0.0040    0.0048    0.0255   -0.0045    0.0090   -0.0085   -0.0223    0.0183
          10    0.0049   -0.0057    0.0042   -0.0118    0.0172    0.0120    0.0258    0.0120
          11   -0.0123    0.0029    0.0144   -0.0120    0.0050   -0.0076   -0.0049    0.0171
          12   -0.0127    0.0003   -0.0169    0.0085   -0.0186   -0.0108   -0.0045   -0.0220
          13    0.0120    0.0077   -0.0158    0.0096   -0.0102    0.0011    0.0058    0.0163
          14    0.0092    0.0050    0.0101   -0.0026    0.0052   -0.0077    0.0025   -0.0265
          15   -0.0045   -0.0266   -0.0099   -0.0226   -0.0007   -0.0105   -0.0048   -0.0321
          16   -0.0046    0.0035   -0.0006    0.0107   -0.0180   -0.0102   -0.0286   -0.0090
          17    0.0058   -0.0119    0.0070   -0.0034   -0.0026   -0.0060   -0.0079   -0.0083
          18    0.0080   -0.0020   -0.0209    0.0018   -0.0032    0.0108    0.0295   -0.0131
          19   -0.0072    0.0040   -0.0012    0.0029   -0.0044   -0.0117    0.0094   -0.0018
          20    0.0091   -0.0117   -0.0088    0.0168    0.0069    0.0063   -0.0152   -0.0006
          21    0.0074    0.0165    0.0054   -0.0204   -0.0001    0.0056    0.0019    0.0077
          22    0.0089    0.0030   -0.0013   -0.0024   -0.0001   -0.0285    0.0033   -0.0053
          23    0.0083   -0.0058   -0.0122    0.0052    0.0000   -0.0207    0.0066    0.0099
          24    0.0073    0.0198    0.0182    0.0215   -0.0078    0.0152    0.0086   -0.0031
          25   -0.0030   -0.0038   -0.0019   -0.0030    0.0048    0.0293   -0.0079   -0.0071
          26   -0.0073    0.0079    0.0111   -0.0205   -0.0178    0.0190    0.0033   -0.0016
          27   -0.0006   -0.0173   -0.0092    0.0098    0.0138   -0.0084   -0.0020   -0.0004
          28   -0.0323   -0.0169   -0.0223    0.0118    0.0021    0.0031    0.0941   -0.0236
          29   -0.0866   -0.0184   -0.0373    0.0346   -0.0230   -0.0247    0.1294   -0.0516
          30   -0.0684    0.0191    0.0476   -0.0284    0.0261    0.0063    0.1308    0.0468
          31    0.2298    0.0436    0.0200    0.0291   -0.0360   -0.0631    0.0056   -0.0745
          32    0.0046   -0.0251   -0.0577   -0.0326    0.0109   -0.0309   -0.0135    0.1390
          33    0.0395   -0.0565   -0.0800   -0.0550   -0.0003   -0.0513   -0.0244    0.1405
          34    0.0299   -0.0344    0.1383   -0.0548    0.0646   -0.0571   -0.0944   -0.0140
          35    0.0608    0.0363    0.0029   -0.0213    0.0289    0.0458    0.0862    0.0095
          36   -0.0482   -0.0035   -0.0126    0.0311   -0.0315   -0.0252   -0.0622    0.0195
          37   -0.0192    0.0586   -0.1328   -0.1056    0.0904    0.0394   -0.0916    0.0078
          38   -0.0016   -0.0396    0.0164    0.0050   -0.0195   -0.0157    0.0225    0.0018
          39   -0.0045    0.0259   -0.0282   -0.0213    0.0253    0.0204   -0.0261   -0.0001
          40   -0.0015   -0.1010    0.0423    0.1412    0.0094    0.1729   -0.0542   -0.0134
          41   -0.0005    0.0609    0.0222   -0.0724   -0.0395    0.0325    0.0150    0.0032
          42    0.0037   -0.0160    0.0198    0.0323   -0.0002    0.0639   -0.0119    0.0006
          43   -0.0412   -0.0378    0.0407    0.0140   -0.0042   -0.0583    0.0421    0.0230
          44    0.0691    0.0664   -0.0768   -0.0156    0.0090    0.0988   -0.0705   -0.0405
          45    0.0201    0.0279   -0.0454    0.0181   -0.0023    0.0127   -0.0223   -0.0195
          46   -0.0281    0.0783    0.0257   -0.0722   -0.0811    0.0340    0.0026   -0.0007
          47    0.0604   -0.0832   -0.0105    0.0464    0.1444    0.0036    0.0202    0.0297
          48    0.0282   -0.0018    0.0092   -0.0224    0.0528    0.0137    0.0182    0.0232
          49   -0.0080    0.0531   -0.0324    0.0727    0.0704   -0.1179    0.0111    0.0231
          50   -0.0192    0.0693    0.0157    0.0610    0.0394   -0.0348    0.0104    0.0125
          51   -0.0321    0.1236    0.0392    0.1159    0.0648   -0.0341    0.0150    0.0093
          52    0.0550   -0.0273    0.0496   -0.0230   -0.0828   -0.0081    0.0205    0.0405
          53    0.0400   -0.0172    0.0370   -0.0120   -0.0627    0.0011    0.0210    0.0361
          54    0.0689   -0.0721    0.0285    0.0031   -0.1042    0.0061    0.0252    0.0941
          55    0.0123    0.0088   -0.0011   -0.0093   -0.0047   -0.0019   -0.0248    0.0042
          56   -0.0339    0.0203    0.0315    0.0189   -0.0241   -0.0333   -0.0823    0.0164
          57    0.0227    0.0017   -0.0221   -0.0160    0.0083    0.0182    0.0348   -0.0037
          58    0.0586    0.0181    0.0198    0.0042    0.0524    0.0373    0.0267    0.0405
          59    0.0169   -0.0180    0.0033   -0.0066    0.0045    0.0012    0.0123   -0.0114
          60    0.0065    0.0483    0.0193    0.0152    0.0265    0.0179   -0.0223    0.0555
          61   -0.0213    0.0073   -0.0176    0.0335   -0.0352    0.0335    0.0028    0.1402
          62   -0.0171    0.0057   -0.0188    0.0280   -0.0305    0.0253    0.0024    0.1131
          63   -0.0003    0.0055   -0.0086    0.0143   -0.0131    0.0119   -0.0007    0.0530


   Root No.      33        34        35        36        37        38        39        40

                33 A      34 A      35 A      36 A      37 A      38 A      39 A      40 A   

                1224.3    1252.7    1269.2    1282.5    1320.8    1336.6    1361.3    1380.5
  
           1    0.0018   -0.0145    0.0076   -0.0132    0.0074    0.0052   -0.0072   -0.0048
           2    0.0008   -0.0091   -0.0008   -0.0133    0.0066    0.0051   -0.0027   -0.0041
           3   -0.0041    0.0122    0.0063    0.0188   -0.0053   -0.0103    0.0083    0.0050
           4    0.0071   -0.0285    0.0012    0.0068   -0.0127    0.0137   -0.0028    0.0114
           5    0.0012   -0.0116   -0.0024    0.0047   -0.0089    0.0046    0.0033    0.0133
           6    0.0015   -0.0085   -0.0007    0.0019   -0.0054    0.0033    0.0014    0.0056
           7   -0.0149    0.0253   -0.0288    0.0113   -0.0303   -0.0171    0.0269    0.0218
           8    0.0298    0.0022    0.0069    0.0454   -0.0016    0.0102   -0.0092    0.0030
           9   -0.0036   -0.0012   -0.0056   -0.0388   -0.0033   -0.0093    0.0124    0.0110
          10   -0.0134    0.0069   -0.0174    0.0229    0.0016    0.0247   -0.0125   -0.0079
          11   -0.0319    0.0204   -0.0040    0.0232   -0.0243    0.0063   -0.0359   -0.0010
          12   -0.0038   -0.0137   -0.0250   -0.0372   -0.0040    0.0298   -0.0408   -0.0128
          13   -0.0093    0.0436    0.0022   -0.0154    0.0267   -0.0264    0.0077   -0.0203
          14   -0.0122    0.0218   -0.0072   -0.0057    0.0104   -0.0179    0.0020   -0.0269
          15    0.0069    0.0171   -0.0044    0.0160    0.0108   -0.0163    0.0008   -0.0260
          16   -0.0178   -0.0168    0.0362   -0.0006    0.0066   -0.0087   -0.0008   -0.0023
          17    0.0007   -0.0019    0.0010   -0.0209    0.0037   -0.0105    0.0110    0.0008
          18   -0.0189   -0.0151    0.0265    0.0205    0.0052   -0.0008    0.0012   -0.0014
          19    0.0117   -0.0029    0.0052   -0.0088   -0.0086   -0.0205   -0.0289   -0.0015
          20   -0.0035   -0.0095   -0.0089    0.0086    0.0341    0.0228    0.0501   -0.0045
          21    0.0000   -0.0009    0.0012    0.0139    0.0144    0.0061    0.0217   -0.0104
          22   -0.0017    0.0140    0.0050   -0.0040    0.0175    0.0090   -0.0168    0.0247
          23    0.0030    0.0145    0.0120   -0.0054    0.0075    0.0162   -0.0060    0.0159
          24   -0.0043    0.0241    0.0109   -0.0099    0.0148    0.0170   -0.0202    0.0240
          25    0.0071    0.0131    0.0199   -0.0085   -0.0337    0.0282    0.0444   -0.0182
          26    0.0033   -0.0082   -0.0050   -0.0002   -0.0004   -0.0104   -0.0129    0.0071
          27    0.0028   -0.0068    0.0015   -0.0023   -0.0173    0.0026    0.0087   -0.0075
          28    0.0685   -0.0272   -0.0081   -0.0285    0.0279    0.0002    0.0167   -0.0047
          29    0.1336   -0.0445    0.0175   -0.0776    0.0260   -0.0489    0.0275    0.0086
          30    0.0546    0.0263    0.0522    0.0742   -0.0014   -0.0635    0.0288    0.0194
          31    0.0464   -0.0672   -0.0061    0.0853   -0.0407    0.0430   -0.0152    0.0214
          32   -0.0178   -0.0118    0.0136   -0.0708   -0.0003    0.0096    0.0069    0.0231
          33    0.0130   -0.0485    0.0174   -0.0385   -0.0187    0.0324    0.0017    0.0466
          34    0.1047   -0.0115    0.0577   -0.0173    0.0774   -0.0010   -0.0323   -0.0600
          35   -0.1203   -0.0420   -0.0140   -0.1238   -0.0210   -0.0092    0.0292    0.0354
          36    0.0571    0.0310   -0.0102    0.0597   -0.0133   -0.0038    0.0043    0.0092
          37   -0.0172   -0.0911   -0.0727    0.0572    0.0715   -0.0786   -0.0376   -0.0079
          38    0.0171   -0.0130    0.0093   -0.0146   -0.0815   -0.0365   -0.0315   -0.0531
          39   -0.0096   -0.0172   -0.0197    0.0162    0.0505    0.0054    0.0101    0.0333
          40   -0.0323   -0.0333   -0.0571    0.0116    0.0745   -0.0535   -0.0830    0.0285
          41    0.0155    0.0090    0.0198   -0.0034   -0.0509   -0.0228   -0.0090   -0.0483
          42   -0.0054   -0.0126   -0.0123    0.0042   -0.0071   -0.0393   -0.0400   -0.0267
          43   -0.0274   -0.0128   -0.0355    0.0328    0.0633    0.0222    0.0272    0.0059
          44    0.0598    0.0130    0.0636   -0.0586   -0.1001   -0.0418   -0.0493   -0.0326
          45    0.0527   -0.0205    0.0169   -0.0243    0.0221   -0.0969   -0.0054    0.1081
          46    0.0015   -0.0179   -0.0203    0.0204    0.0679   -0.0203    0.0539    0.0854
          47    0.0114    0.0326    0.0382    0.0178   -0.0570   -0.0839   -0.0632    0.0544
          48    0.0064    0.0161    0.0184    0.0253   -0.0117   -0.0525   -0.0159    0.0479
          49   -0.0176   -0.0623   -0.0390    0.0356   -0.0051   -0.0361   -0.0059   -0.0561
          50   -0.0217   -0.0383   -0.0170   -0.0024   -0.0343   -0.0220    0.0566   -0.0265
          51   -0.0391   -0.0651   -0.0381    0.0068   -0.0440   -0.0448    0.0634   -0.0549
          52   -0.0047   -0.0852   -0.0589    0.0336   -0.0022   -0.0659   -0.0233   -0.0311
          53   -0.0020   -0.0593   -0.0417    0.0258   -0.0014   -0.0441   -0.0252   -0.0291
          54    0.0060   -0.0867   -0.0256    0.0069   -0.0479   -0.0449    0.0672   -0.0224
          55    0.0632    0.0617   -0.1128   -0.0418   -0.0301    0.0153   -0.0077    0.0049
          56    0.0073    0.0046    0.0037   -0.0472   -0.0178   -0.0375    0.0516    0.0413
          57    0.0496    0.0491   -0.0990   -0.0162   -0.0232    0.0229   -0.0111   -0.0001
          58    0.1123    0.0389   -0.0836   -0.0261   -0.0052   -0.0105    0.0666    0.0294
          59    0.0027    0.0010   -0.0047   -0.0248   -0.0007   -0.0208    0.0357    0.0134
          60    0.0989    0.0266   -0.0615    0.0144    0.0104    0.0446   -0.0510   -0.0251
          61    0.0195   -0.0015    0.0300   -0.0215    0.0255    0.0130   -0.0388   -0.0786
          62    0.0123    0.0103    0.0226   -0.0197    0.0237    0.0046   -0.0284   -0.0653
          63    0.0076    0.0004    0.0117   -0.0088    0.0081    0.0058   -0.0131   -0.0283


   Root No.      41        42        43        44        45        46        47        48

                41 A      42 A      43 A      44 A      45 A      46 A      47 A      48 A   

                1401.0    1409.0    1410.2    1417.2    1455.6    2830.2    2927.1    2948.1
  
           1    0.0001    0.0021    0.0044    0.0006    0.0045    0.0004    0.0000    0.0002
           2    0.0006    0.0020    0.0035    0.0002    0.0041   -0.0002    0.0001   -0.0001
           3    0.0002   -0.0034   -0.0053   -0.0012   -0.0055    0.0000   -0.0000    0.0001
           4    0.0022   -0.0014   -0.0044   -0.0059   -0.0012    0.0003    0.0001    0.0000
           5   -0.0119    0.0029   -0.0020    0.0095    0.0011    0.0011   -0.0000   -0.0000
           6   -0.0033    0.0006   -0.0015    0.0030    0.0004    0.0001    0.0001   -0.0000
           7    0.0085   -0.0127   -0.0212   -0.0164   -0.0158    0.0006   -0.0004   -0.0006
           8   -0.0123    0.0055    0.0083    0.0109    0.0070   -0.0011   -0.0007   -0.0021
           9   -0.0023   -0.0029   -0.0107    0.0008   -0.0068   -0.0004   -0.0010   -0.0037
          10    0.0017    0.0084    0.0119    0.0032    0.0090   -0.0000    0.0010   -0.0158
          11    0.0027    0.0031    0.0131    0.0044    0.0068   -0.0000   -0.0005    0.0078
          12    0.0055    0.0135    0.0204    0.0085    0.0125   -0.0000    0.0001   -0.0006
          13   -0.0259    0.0117    0.0147    0.0385    0.0098   -0.0109   -0.0002   -0.0001
          14    0.0232   -0.0070    0.0035   -0.0180   -0.0043   -0.0526   -0.0019   -0.0001
          15    0.0113   -0.0020    0.0100   -0.0068    0.0010    0.0434    0.0020   -0.0002
          16    0.0005   -0.0003   -0.0048    0.0055   -0.0147   -0.0001   -0.0033    0.0000
          17    0.0045   -0.0028   -0.0172    0.0061   -0.0338    0.0002    0.0011   -0.0004
          18   -0.0018   -0.0002    0.0072   -0.0057    0.0201   -0.0004    0.0038   -0.0004
          19   -0.0161   -0.0226   -0.0044   -0.0053   -0.0024    0.0001   -0.0007    0.0102
          20   -0.0018    0.0118   -0.0110   -0.0055   -0.0017    0.0000   -0.0005    0.0090
          21   -0.0210   -0.0189   -0.0160   -0.0098   -0.0027   -0.0000    0.0006   -0.0080
          22   -0.0130    0.0012    0.0119   -0.0277   -0.0177   -0.0007    0.0059    0.0011
          23   -0.0073    0.0060   -0.0058   -0.0035   -0.0019    0.0040   -0.0432   -0.0030
          24   -0.0024    0.0017   -0.0242    0.0007    0.0092   -0.0008    0.0209    0.0008
          25    0.0197    0.0061    0.0020    0.0191    0.0071   -0.0001    0.0012   -0.0063
          26    0.0079   -0.0377    0.0136    0.0126    0.0003   -0.0003    0.0009   -0.0005
          27    0.0081    0.0009    0.0049    0.0060    0.0015    0.0006   -0.0046    0.0237
          28   -0.0046   -0.0028   -0.0059   -0.0021   -0.0030    0.0002   -0.0123    0.1872
          29   -0.0101   -0.0213   -0.0259   -0.0075   -0.0193   -0.0000    0.0064   -0.0933
          30   -0.0156   -0.0278   -0.0234   -0.0109   -0.0133   -0.0000   -0.0001    0.0021
          31    0.0354   -0.0184   -0.0065   -0.0505   -0.0118    0.1196    0.0045   -0.0003
          32   -0.0106    0.0003   -0.0120    0.0133   -0.0013    0.6272    0.0202   -0.0008
          33   -0.0180    0.0008   -0.0147    0.0112   -0.0001   -0.5304   -0.0217   -0.0002
          34   -0.0037    0.0148    0.0346    0.0190    0.0179    0.0013    0.0025    0.0087
          35    0.0000   -0.0078   -0.0305   -0.0041   -0.0195    0.0011    0.0084    0.0261
          36   -0.0065   -0.0017   -0.0010    0.0016    0.0006    0.0070    0.0147    0.0474
          37   -0.0458    0.0333   -0.0207   -0.0564   -0.0154   -0.0001   -0.0010    0.0165
          38   -0.0383    0.1565   -0.0455   -0.0475    0.0022    0.0001    0.0144   -0.1096
          39    0.0280   -0.1209    0.0384    0.0344   -0.0027    0.0003    0.0187   -0.1429
          40   -0.0333   -0.0196   -0.0097   -0.0226   -0.0043    0.0040   -0.0128    0.0625
          41   -0.0497    0.1604   -0.0638   -0.0549    0.0020    0.0054   -0.0286    0.1153
          42   -0.0540    0.1271   -0.0544   -0.0575   -0.0017   -0.0041    0.0376   -0.1405
          43   -0.0048    0.0174   -0.0052   -0.0104   -0.0022   -0.0001    0.0013   -0.0983
          44   -0.0392   -0.0781   -0.0169   -0.0003   -0.0014   -0.0000    0.0009   -0.0492
          45    0.1246    0.1154    0.0561    0.0349   -0.0100    0.0000    0.0003   -0.0140
          46    0.1180    0.1303    0.0512    0.0327   -0.0055   -0.0001    0.0017   -0.0262
          47    0.0546    0.0241    0.0341    0.0217   -0.0062   -0.0001    0.0042   -0.0547
          48    0.0504    0.0345    0.0254    0.0163   -0.0053    0.0003   -0.0089    0.1125
          49    0.0662   -0.0021   -0.1324    0.0865    0.1111   -0.0100    0.1086    0.0062
          50   -0.0331    0.0061    0.1087   -0.0353   -0.0832   -0.0324    0.3548    0.0162
          51   -0.0125    0.0022    0.0777   -0.0053   -0.0531    0.0210   -0.3007   -0.0131
          52    0.0190   -0.0196   -0.0459    0.0593    0.0510    0.0160   -0.1742   -0.0194
          53    0.0328   -0.0155   -0.0783    0.0724    0.0672   -0.0154    0.1637    0.0202
          54   -0.0729    0.0076    0.1389    0.0019   -0.0683    0.0001    0.0443    0.0049
          55    0.0020   -0.0018   -0.0002   -0.0044   -0.0143   -0.0029    0.0376   -0.0017
          56   -0.0259   -0.0149    0.0550   -0.0810    0.2735    0.0006   -0.0014    0.0004
          57    0.0022   -0.0001    0.0033   -0.0038   -0.0114    0.0031   -0.0450    0.0026
          58   -0.0194   -0.0094    0.0267   -0.0506    0.1340   -0.0004    0.0005   -0.0019
          59   -0.0026   -0.0081    0.0007   -0.0225    0.0446    0.0022   -0.0097    0.0031
          60    0.0079    0.0155   -0.0365    0.0667   -0.1615   -0.0003   -0.0004    0.0002
          61    0.1291   -0.0359   -0.0055   -0.1186   -0.0167   -0.0037   -0.0009   -0.0000
          62    0.1007   -0.0280   -0.0037   -0.0909   -0.0130   -0.0063   -0.0006   -0.0000
          63    0.0479   -0.0133   -0.0024   -0.0444   -0.0063   -0.0032   -0.0004   -0.0001


   Root No.      49        50        51        52        53        54        55        56

                49 A      50 A      51 A      52 A      53 A      54 A      55 A      56 A   

                2950.6    2956.3    2960.4    3010.7    3027.0    3029.6    3036.5    3101.7
  
           1    0.0002    0.0001    0.0000   -0.0001   -0.0001   -0.0000    0.0000    0.0004
           2   -0.0001    0.0004    0.0001   -0.0001   -0.0003   -0.0000    0.0000    0.0004
           3    0.0002    0.0002    0.0001    0.0001    0.0002   -0.0001    0.0001   -0.0005
           4    0.0000    0.0003    0.0000   -0.0000    0.0000   -0.0000   -0.0000   -0.0000
           5   -0.0000   -0.0002   -0.0000   -0.0001    0.0000   -0.0000   -0.0000   -0.0000
           6   -0.0000   -0.0001    0.0000   -0.0002    0.0000   -0.0000   -0.0000   -0.0000
           7   -0.0017   -0.0086   -0.0006   -0.0001   -0.0002   -0.0000    0.0001   -0.0002
           8   -0.0052   -0.0206   -0.0011   -0.0001   -0.0008    0.0000    0.0001   -0.0011
           9   -0.0092   -0.0383   -0.0021   -0.0006   -0.0020    0.0001    0.0003   -0.0001
          10   -0.0247    0.0141    0.0061    0.0008    0.0018    0.0005   -0.0015    0.0001
          11    0.0124   -0.0066   -0.0028   -0.0003   -0.0007   -0.0000    0.0004   -0.0010
          12   -0.0007    0.0011    0.0001   -0.0001   -0.0002    0.0003   -0.0004    0.0002
          13    0.0002    0.0003    0.0001    0.0000   -0.0001    0.0001    0.0001   -0.0001
          14    0.0000   -0.0001    0.0000   -0.0003    0.0003    0.0001    0.0000    0.0002
          15   -0.0000   -0.0006    0.0001   -0.0007    0.0000   -0.0001   -0.0000   -0.0002
          16    0.0004   -0.0022   -0.0003    0.0089    0.0224   -0.0009   -0.0021   -0.0041
          17   -0.0006    0.0020    0.0003   -0.0050   -0.0147    0.0006    0.0015   -0.0464
          18   -0.0010    0.0022    0.0003   -0.0104   -0.0261    0.0011    0.0025    0.0064
          19   -0.0028   -0.0031    0.0231   -0.0005   -0.0008    0.0085   -0.0153    0.0003
          20   -0.0029   -0.0025    0.0198    0.0002   -0.0000   -0.0001   -0.0023    0.0003
          21    0.0041    0.0015   -0.0177   -0.0008   -0.0012    0.0121   -0.0180   -0.0001
          22   -0.0008   -0.0002   -0.0008    0.0253   -0.0079    0.0031    0.0019    0.0006
          23    0.0019    0.0016    0.0015   -0.0115   -0.0002   -0.0021   -0.0013    0.0011
          24   -0.0003   -0.0006   -0.0004   -0.0132    0.0064   -0.0017   -0.0009   -0.0011
          25    0.0059   -0.0015    0.0042    0.0017   -0.0010   -0.0042   -0.0025    0.0000
          26    0.0000    0.0001   -0.0009    0.0040   -0.0038   -0.0232   -0.0136    0.0001
          27   -0.0216    0.0055   -0.0166   -0.0017    0.0003   -0.0010   -0.0023   -0.0000
          28    0.2911   -0.1536   -0.0701   -0.0091   -0.0201   -0.0068    0.0163   -0.0084
          29   -0.1462    0.0771    0.0368    0.0036    0.0077    0.0042   -0.0090    0.0024
          30    0.0034   -0.0015   -0.0004   -0.0003   -0.0006    0.0009   -0.0012    0.0001
          31    0.0002   -0.0007    0.0002    0.0008   -0.0005   -0.0004   -0.0002   -0.0003
          32   -0.0005   -0.0051    0.0001    0.0009   -0.0005   -0.0014   -0.0007   -0.0004
          33    0.0006    0.0026    0.0003   -0.0013    0.0003    0.0007    0.0003    0.0007
          34    0.0211    0.0818    0.0043    0.0014    0.0043   -0.0002   -0.0006    0.0014
          35    0.0633    0.2478    0.0132    0.0035    0.0094   -0.0003   -0.0014    0.0029
          36    0.1149    0.4486    0.0239    0.0076    0.0213   -0.0007   -0.0029    0.0085
          37   -0.0147    0.0036   -0.0129    0.0060   -0.0054   -0.0281   -0.0206    0.0001
          38    0.1001   -0.0258    0.0857   -0.0128    0.0200    0.1390    0.0931    0.0001
          39    0.1310   -0.0338    0.1120   -0.0232    0.0319    0.2160    0.1388   -0.0001
          40   -0.0556    0.0133   -0.0357   -0.0190    0.0153    0.0832    0.0457   -0.0003
          41   -0.1042    0.0261   -0.0743   -0.0339    0.0260    0.1408    0.0772   -0.0005
          42    0.1263   -0.0313    0.0867    0.0456   -0.0364   -0.2034   -0.1136    0.0005
          43    0.0190    0.0339   -0.2213    0.0065    0.0173   -0.1391    0.2502   -0.0014
          44    0.0113    0.0165   -0.1138    0.0043    0.0089   -0.0788    0.1344   -0.0005
          45    0.0052    0.0040   -0.0355    0.0002    0.0014   -0.0090    0.0184   -0.0000
          46    0.0134    0.0044   -0.0525   -0.0019   -0.0040    0.0406   -0.0619   -0.0005
          47    0.0264    0.0113   -0.1256   -0.0045   -0.0073    0.0750   -0.1117   -0.0012
          48   -0.0526   -0.0231    0.2480    0.0085    0.0142   -0.1368    0.2007    0.0017
          49   -0.0037   -0.0039   -0.0035   -0.0299    0.0201   -0.0019   -0.0012   -0.0052
          50   -0.0084   -0.0136   -0.0064   -0.1589    0.0871   -0.0179   -0.0095   -0.0164
          51    0.0064    0.0118    0.0047    0.1189   -0.0678    0.0133    0.0067    0.0143
          52    0.0129    0.0040    0.0097   -0.2753    0.0754   -0.0410   -0.0227   -0.0033
          53   -0.0138   -0.0031   -0.0108    0.2976   -0.0838    0.0410    0.0228    0.0041
          54   -0.0033   -0.0006   -0.0026    0.0474   -0.0118    0.0066    0.0037    0.0002
          55   -0.0060    0.0198    0.0021   -0.1006   -0.2470    0.0102    0.0231    0.1761
          56    0.0009   -0.0026   -0.0009    0.0064    0.0131   -0.0003   -0.0012   -0.0354
          57    0.0092   -0.0219   -0.0037    0.1190    0.2927   -0.0117   -0.0278   -0.2075
          58   -0.0030    0.0038    0.0011   -0.0070   -0.0233    0.0011    0.0022   -0.1245
          59    0.0066   -0.0216   -0.0052    0.0542    0.1623   -0.0072   -0.0151    0.5960
          60    0.0002   -0.0062   -0.0010    0.0067    0.0224   -0.0011   -0.0021    0.1282
          61    0.0002    0.0009    0.0001   -0.0011    0.0003   -0.0002   -0.0001    0.0001
          62   -0.0000   -0.0001   -0.0000   -0.0003    0.0001   -0.0000   -0.0000    0.0000
          63    0.0001   -0.0000    0.0000   -0.0012    0.0005   -0.0002   -0.0001   -0.0001


   Root No.      57

                57 A   

                3901.3
  
           1   -0.0000
           2    0.0000
           3    0.0000
           4    0.0389
           5   -0.0415
           6   -0.0100
           7   -0.0003
           8    0.0001
           9   -0.0000
          10    0.0000
          11   -0.0000
          12    0.0000
          13    0.0021
          14   -0.0005
          15    0.0002
          16   -0.0000
          17    0.0000
          18   -0.0000
          19   -0.0000
          20   -0.0000
          21   -0.0000
          22    0.0001
          23    0.0001
          24    0.0002
          25   -0.0000
          26   -0.0000
          27   -0.0000
          28   -0.0000
          29    0.0000
          30    0.0000
          31    0.0016
          32    0.0023
          33   -0.0019
          34   -0.0005
          35    0.0004
          36    0.0006
          37   -0.0001
          38   -0.0000
          39   -0.0000
          40   -0.0000
          41    0.0000
          42    0.0000
          43   -0.0000
          44    0.0000
          45   -0.0000
          46   -0.0000
          47   -0.0000
          48    0.0000
          49    0.0001
          50   -0.0002
          51    0.0001
          52    0.0014
          53   -0.0002
          54    0.0008
          55    0.0000
          56   -0.0000
          57   -0.0001
          58   -0.0000
          59    0.0000
          60    0.0000
          61   -0.6416
          62    0.6593
          63    0.1552


           MASS-WEIGHTED COORDINATE ANALYSIS (NORMAL COORDINATES)


   Root No.       1         2         3         4         5         6         7         8

                 1 A       2 A       3 A       4 A       5 A       6 A       7 A       8 A   

                 136.5     224.8     262.7     300.3     340.4     373.0     411.3     454.0
  
           1   -0.0978   -0.0004    0.1200   -0.2285   -0.1561    0.0400    0.4358    0.0186
           2   -0.1773   -0.0281   -0.1519    0.1460    0.3627   -0.2009   -0.1520   -0.0651
           3   -0.1226    0.0208   -0.0750   -0.1149    0.2759   -0.2806   -0.0153   -0.2481
           4   -0.0221    0.0507    0.1808   -0.0938   -0.0877    0.3366   -0.3282   -0.0156
           5    0.3987    0.0290   -0.3050   -0.0120   -0.1923   -0.2264    0.1728    0.0019
[...]
 FREQ.      1282.47         C  3 -- H 12         +12.5% ( 53.1%)      0.3%
 T-DIPOLE    0.3247         C  3 -- C  6         +10.9% ( 49.7%)     82.5%
 TRAVEL      0.0831         C  3 -- C  4         +10.8% ( 49.4%)     14.2%
 RED. MASS   1.2590         O  1 -- C  3          +9.4% ( 46.0%)     28.4%
 EFF. MASS   7.6111

 VIBRATION   37   37A         ATOM PAIR      ENERGY CONTRIBUTION    RADIAL
 FREQ.      1320.75         C  7 -- H 15          +8.8% ( 42.3%)      0.8%
 T-DIPOLE    0.0823         C  9 -- H 13          +8.5% ( 41.5%)      1.0%
 TRAVEL      0.0872         C  8 -- C  9          +7.3% ( 38.6%)     85.7%
 RED. MASS   0.6105         C  4 -- C  7          +7.3% ( 38.5%)     79.4%
 EFF. MASS   6.7100

 VIBRATION   38   38A         ATOM PAIR      ENERGY CONTRIBUTION    RADIAL
 FREQ.      1336.59         C  3 -- C  4          +7.3% ( 39.3%)     98.8%
 T-DIPOLE    0.1572         C  4 -- H 10          +6.7% ( 37.6%)      5.8%
 TRAVEL      0.0851         C  4 -- C  7          +6.6% ( 37.4%)      0.0%
 RED. MASS   0.6150         C  7 -- C  9          +6.6% ( 37.3%)     90.1%
 EFF. MASS   6.9608

 VIBRATION   39   39A         ATOM PAIR      ENERGY CONTRIBUTION    RADIAL
 FREQ.      1361.35         C  4 -- C  7         +14.8% ( 60.6%)     97.5%
 T-DIPOLE    0.2831         C  7 -- C  9         +12.1% ( 54.9%)     88.6%
 TRAVEL      0.0754         C  7 -- H 16          +8.1% ( 44.9%)      0.0%
 RED. MASS   1.5246         C  3 -- C  4          +7.9% ( 44.4%)     82.8%
 EFF. MASS   8.7212

 VIBRATION   40   40A         ATOM PAIR      ENERGY CONTRIBUTION    RADIAL
 FREQ.      1380.48         C  5 -- C  8         +12.9% ( 47.8%)     63.5%
 T-DIPOLE    0.4413         O  2 -- C  5          +9.2% ( 40.3%)     71.3%
 TRAVEL      0.0894         C  3 -- C  5          +8.8% ( 39.4%)      0.0%
 RED. MASS   0.6931         C  8 -- H 17          +8.0% ( 37.5%)      0.1%
 EFF. MASS   6.1128

 VIBRATION   41   41A         ATOM PAIR      ENERGY CONTRIBUTION    RADIAL
 FREQ.      1400.95         O  2 -- H 21         +15.9% ( 45.6%)      3.4%
 T-DIPOLE    0.2803         C  7 -- H 16         +11.4% ( 38.5%)      4.2%
 TRAVEL      0.1109         C  7 -- H 15          +9.9% ( 35.9%)      6.7%
 RED. MASS   0.3662         C  3 -- C  5          +7.9% ( 32.0%)     99.3%
 EFF. MASS   3.9162

 VIBRATION   42   42A         ATOM PAIR      ENERGY CONTRIBUTION    RADIAL
 FREQ.      1408.97         C  9 -- H 14         +21.2% ( 50.0%)      4.4%
 T-DIPOLE    0.1082         C  9 -- H 13         +19.8% ( 48.3%)      5.1%
 TRAVEL      0.1204         C  7 -- C  9         +11.3% ( 36.5%)     92.2%
 RED. MASS   0.3611         C  7 -- H 15         +11.1% ( 36.2%)      4.7%
 EFF. MASS   3.3024         C  7 -- H 16         +10.7% ( 35.6%)      5.2%

 VIBRATION   43   43A         ATOM PAIR      ENERGY CONTRIBUTION    RADIAL
 FREQ.      1410.21         C  8 -- H 17         +16.7% ( 49.6%)      2.7%
 T-DIPOLE    0.2248         C  8 -- H 18         +12.2% ( 42.4%)      4.3%
 TRAVEL      0.1054         C  3 -- C  4          +6.4% ( 30.8%)     99.0%
 RED. MASS   0.3109         C  4 -- C  7          +5.6% ( 28.8%)     77.8%
 EFF. MASS   4.3022

 VIBRATION   44   44A         ATOM PAIR      ENERGY CONTRIBUTION    RADIAL
 FREQ.      1417.22         O  2 -- H 21         +11.4% ( 41.8%)      5.2%
 T-DIPOLE    0.1446         C  5 -- C  8         +10.7% ( 40.4%)      1.6%
 TRAVEL      0.0982         C  3 -- C  5         +10.1% ( 39.3%)     88.6%
 RED. MASS   0.5636         C  5 -- H 11          +8.9% ( 36.9%)      0.0%
 EFF. MASS   4.9326

 VIBRATION   45   45A         ATOM PAIR      ENERGY CONTRIBUTION    RADIAL
 FREQ.      1455.59         C  6 -- H 19         +31.2% ( 61.0%)      2.8%
 T-DIPOLE    0.1064         C  6 -- H 20         +19.3% ( 48.0%)      5.3%
 TRAVEL      0.1262         C  8 -- H 17          +8.0% ( 30.9%)      2.9%
 RED. MASS   0.3826         C  3 -- C  6          +7.8% ( 30.5%)     82.3%
 EFF. MASS   2.9095

 VIBRATION   46   46A         ATOM PAIR      ENERGY CONTRIBUTION    RADIAL
 FREQ.      2830.18         C  5 -- H 11         +96.4% ( 99.8%)     99.9%
 T-DIPOLE    0.0365         C  5 -- C  8          +1.1% ( 10.6%)      9.7%
 TRAVEL      0.1280         O  2 -- C  5          +1.1% ( 10.6%)     10.3%
 RED. MASS   0.9236         C  3 -- C  5          +1.1% ( 10.5%)      9.8%
 EFF. MASS   1.4545

 VIBRATION   47   47A         ATOM PAIR      ENERGY CONTRIBUTION    RADIAL
 FREQ.      2927.14         C  8 -- H 17         +73.5% ( 88.7%)     98.9%
 T-DIPOLE    0.0886         C  8 -- H 18         +21.5% ( 48.0%)     90.5%
 TRAVEL      0.1232         C  6 -- H 19          +1.2% ( 11.1%)    100.0%
 RED. MASS   0.6230         C  8 -- C  9          +1.1% ( 11.0%)      1.5%
 EFF. MASS   1.5182

 VIBRATION   48   48A         ATOM PAIR      ENERGY CONTRIBUTION    RADIAL
 FREQ.      2948.14         C  4 -- H 10         +27.6% ( 54.4%)    100.0%
 T-DIPOLE    0.0509         C  9 -- H 14         +24.9% ( 51.7%)     96.8%
 TRAVEL      0.1226         C  9 -- H 13         +22.2% ( 48.8%)     96.1%
 RED. MASS   0.2213         C  7 -- H 16         +11.0% ( 34.3%)     97.0%
 EFF. MASS   1.5225

 VIBRATION   49   49A         ATOM PAIR      ENERGY CONTRIBUTION    RADIAL
 FREQ.      2950.58         C  4 -- H 10         +53.6% ( 75.4%)    100.0%
 T-DIPOLE    0.0928         C  9 -- H 14         +16.1% ( 41.4%)     96.6%
 TRAVEL      0.1237         C  9 -- H 13         +14.9% ( 39.8%)     96.2%
 RED. MASS   0.3594         C  3 -- H 12          +8.9% ( 30.7%)     99.9%
 EFF. MASS   1.4941

 VIBRATION   50   50A         ATOM PAIR      ENERGY CONTRIBUTION    RADIAL
 FREQ.      2956.35         C  3 -- H 12         +83.3% ( 93.7%)    100.0%
 T-DIPOLE    0.1524         C  4 -- H 10          +9.2% ( 31.1%)    100.0%
 TRAVEL      0.1234         C  3 -- C  4          +1.3% ( 11.7%)     81.8%
 RED. MASS   0.7252         C  3 -- C  6          +1.1% ( 10.7%)     20.9%
 EFF. MASS   1.4970

 VIBRATION   51   51A         ATOM PAIR      ENERGY CONTRIBUTION    RADIAL
 FREQ.      2960.44         C  7 -- H 16         +42.0% ( 67.1%)     97.1%
 T-DIPOLE    0.0769         C  7 -- H 15         +33.9% ( 60.3%)     95.9%
 TRAVEL      0.1217         C  9 -- H 13         +10.5% ( 33.6%)     97.4%
 RED. MASS   0.3344         C  9 -- H 14          +7.6% ( 28.6%)     95.8%
 EFF. MASS   1.5369

 VIBRATION   52   52A         ATOM PAIR      ENERGY CONTRIBUTION    RADIAL
 FREQ.      3010.66         C  8 -- H 18         +68.7% ( 82.8%)     99.7%
 T-DIPOLE    0.1147         C  8 -- H 17         +15.4% ( 39.1%)     86.7%
 TRAVEL      0.1299         C  6 -- H 19         +10.7% ( 32.7%)     99.5%
 RED. MASS   0.4973         C  6 -- H 20          +1.6% ( 12.8%)     84.4%
 EFF. MASS   1.3266

 VIBRATION   53   53A         ATOM PAIR      ENERGY CONTRIBUTION    RADIAL
 FREQ.      3027.03         C  6 -- H 19         +68.9% ( 85.2%)     99.4%
 T-DIPOLE    0.1685         C  6 -- H 20         +15.0% ( 39.8%)     88.3%
 TRAVEL      0.1227         C  8 -- H 18          +5.5% ( 24.1%)     97.7%
 RED. MASS   0.5256         C  8 -- H 17          +5.2% ( 23.4%)     97.4%
 EFF. MASS   1.4786

 VIBRATION   54   54A         ATOM PAIR      ENERGY CONTRIBUTION    RADIAL
 FREQ.      3029.57         C  9 -- H 14         +35.2% ( 58.5%)     97.7%
 T-DIPOLE    0.0638         C  9 -- H 13         +34.5% ( 57.9%)     97.7%
 TRAVEL      0.1321         C  7 -- H 16         +13.5% ( 36.2%)     97.5%
 RED. MASS   0.2777         C  7 -- H 15         +13.4% ( 36.0%)     97.7%
 EFF. MASS   1.2751

 VIBRATION   55   55A         ATOM PAIR      ENERGY CONTRIBUTION    RADIAL
 FREQ.      3036.52         C  7 -- H 15         +42.4% ( 64.2%)     98.5%
 T-DIPOLE    0.0818         C  7 -- H 16         +29.1% ( 53.1%)     96.3%
 TRAVEL      0.1319         C  9 -- H 13         +14.7% ( 37.8%)     98.4%
 RED. MASS   0.2947         C  9 -- H 14         +10.8% ( 32.3%)     96.8%
 EFF. MASS   1.2759

 VIBRATION   56   56A         ATOM PAIR      ENERGY CONTRIBUTION    RADIAL
 FREQ.      3101.71         C  6 -- H 20         +82.8% ( 91.0%)     99.5%
 T-DIPOLE    0.1645         C  6 -- H 19         +14.8% ( 38.5%)     81.6%
 TRAVEL      0.1283         O  1 -- C  6          +0.8% (  8.7%)     61.5%
 RED. MASS   0.6889         C  4 -- C  6          +0.8% (  8.7%)     41.3%
 EFF. MASS   1.3198

 VIBRATION   57   57A         ATOM PAIR      ENERGY CONTRIBUTION    RADIAL
 FREQ.      3901.32         O  2 -- H 21         +99.6% (100.0%)    100.0%
 T-DIPOLE    0.2014         O  2 -- C  5          +0.4% (  6.3%)      7.2%
 TRAVEL      0.1116
 RED. MASS   0.9481
 EFF. MASS   1.3889

      SYMMETRY NUMBER FOR POINT-GROUP C1  =  1


          SYSTEM IS A GROUND STATE



 InChI=1S/C7H12O2/c8-6-3-1-2-5-4-7(6)9-5/h5-8H,1-4H2


          MOLECULE IS NOT LINEAR

          THERE ARE 57 GENUINE VIBRATIONS IN THIS SYSTEM
          THIS THERMODYNAMICS CALCULATION IS LIMITED TO
          MOLECULES WHICH HAVE NO INTERNAL ROTATIONS




                    CALCULATED THERMODYNAMIC PROPERTIES
                                          *
   TEMP. (K)   PARTITION FUNCTION   H.O.F.    ENTHALPY  HEAT CAPACITY ENTROPY
                                   KCAL/MOL   CAL/MOLE    CAL/K/MOL  CAL/K/MOL


 298.00  VIB.     0.1627D+02                  2985.1026    25.6430    15.5603
         ROT.     0.3807D+06                   888.2813     2.9808    28.5158
         INT.     0.6194D+07                  3873.3839    28.6238    44.0761
         TRA.     0.1403D+28                  1480.4688     4.9680    40.4556
         TOT.                      -75.909    5353.8527    33.5918    84.5317

 200.00  VIB.     0.3666D+01                  1058.4166    14.0590     7.8736
         ROT.     0.2093D+06                   596.1620     2.9808    27.3271
         INT.     0.7673D+06                  1654.5786    17.0398    35.2008
         TRA.     0.7713D+27                   993.6033     4.9680    38.4745
         TOT.                      -78.614    2648.1818    22.0079    73.6752

 210.00  VIB.     0.4197D+01                  1204.2975    15.1224     8.5851
         ROT.     0.2252D+06                   625.9700     2.9808    27.4726
         INT.     0.9451D+06                  1830.2676    18.1032    36.0577
         TRA.     0.8299D+27                  1043.2834     4.9680    38.7168
         TOT.                      -78.389    2873.5510    23.0712    74.7746

 220.00  VIB.     0.4825D+01                  1360.9691    16.2172     9.3138
         ROT.     0.2415D+06                   655.7781     2.9808    27.6113
         INT.     0.1165D+07                  2016.7472    19.1980    36.9250
         TRA.     0.8899D+27                  1092.9636     4.9680    38.9480
         TOT.                      -78.153    3109.7108    24.1660    75.8730

 230.00  VIB.     0.5570D+01                  1528.7449    17.3431    10.0594
         ROT.     0.2581D+06                   685.5862     2.9808    27.7438
         INT.     0.1438D+07                  2214.3311    20.3239    37.8031
         TRA.     0.9512D+27                  1142.6437     4.9680    39.1688
         TOT.                      -77.905    3356.9749    25.2919    76.9719

 240.00  VIB.     0.6454D+01                  1707.9296    18.4987    10.8218
         ROT.     0.2751D+06                   715.3943     2.9808    27.8706
         INT.     0.1776D+07                  2423.3239    21.4795    38.6924
         TRA.     0.1014D+28                  1192.3239     4.9680    39.3802
         TOT.                      -77.647    3615.6478    26.4475    78.0727

 250.00  VIB.     0.7506D+01                  1898.8097    19.6817    11.6009
         ROT.     0.2925D+06                   745.2024     2.9808    27.9923
         INT.     0.2196D+07                  2644.0121    22.6625    39.5932
         TRA.     0.1078D+28                  1242.0041     4.9680    39.5830
         TOT.                      -77.376    3886.0162    27.6306    79.1762

 260.00  VIB.     0.8762D+01                  2101.6464    20.8895    12.3963
         ROT.     0.3102D+06                   775.0105     2.9808    28.1092
         INT.     0.2718D+07                  2876.6569    23.8703    40.5055
         TRA.     0.1143D+28                  1291.6842     4.9680    39.7779
         TOT.                      -77.094    4168.3412    28.8383    80.2833

 270.00  VIB.     0.1026D+02                  2316.6703    22.1186    13.2076
         ROT.     0.3283D+06                   804.8186     2.9808    28.2217
         INT.     0.3369D+07                  3121.4890    25.0994    41.4293
         TRA.     0.1210D+28                  1341.3644     4.9680    39.9654
         TOT.                      -76.800    4462.8534    30.0674    81.3947

 280.00  VIB.     0.1206D+02                  2544.0777    23.3655    14.0345
         ROT.     0.3467D+06                   834.6267     2.9808    28.3301
         INT.     0.4183D+07                  3378.7044    26.3463    42.3646
         TRA.     0.1278D+28                  1391.0445     4.9680    40.1461
         TOT.                      -76.493    4769.7490    31.3144    82.5107

 290.00  VIB.     0.1423D+02                  2784.0280    24.6266    14.8764
         ROT.     0.3655D+06                   864.4348     2.9808    28.4347
         INT.     0.5199D+07                  3648.4629    27.6074    43.3111
         TRA.     0.1347D+28                  1440.7247     4.9680    40.3204
         TOT.                      -76.173    5089.1876    32.5754    83.6315

 300.00  VIB.     0.1683D+02                  3036.6435    25.8979    15.7327
         ROT.     0.3845D+06                   894.2429     2.9808    28.5358
         INT.     0.6472D+07                  3930.8864    28.8787    44.2684
         TRA.     0.1417D+28                  1490.4049     4.9680    40.4888
         TOT.                      -75.841    5421.2913    33.8468    84.7573

 310.00  VIB.     0.1998D+02                  3302.0089    27.1759    16.6027
         ROT.     0.4039D+06                   924.0510     2.9808    28.6335
         INT.     0.8070D+07                  4226.0599    30.1568    45.2362
         TRA.     0.1488D+28                  1540.0850     4.9680    40.6517
         TOT.                      -75.496    5766.1450    35.1248    85.8879

 320.00  VIB.     0.2379D+02                  3580.1728    28.4571    17.4857
         ROT.     0.4236D+06                   953.8591     2.9808    28.7281
         INT.     0.1008D+08                  4534.0319    31.4379    46.2139
         TRA.     0.1561D+28                  1589.7652     4.9680    40.8094
         TOT.                      -75.139    6123.7971    36.4059    87.0233

 330.00  VIB.     0.2840D+02                  3871.1492    29.7379    18.3810
         ROT.     0.4436D+06                   983.6672     2.9808    28.8199
         INT.     0.1260D+08                  4854.8164    32.7187    47.2009
         TRA.     0.1635D+28                  1639.4454     4.9680    40.9623
         TOT.                      -74.768    6494.2617    37.6867    88.1632

 340.00  VIB.     0.3402D+02                  4174.9197    31.0154    19.2877
         ROT.     0.4639D+06                  1013.4753     2.9808    28.9089
         INT.     0.1578D+08                  5188.3950    33.9962    48.1966
         TRA.     0.1710D+28                  1689.1255     4.9680    41.1106
         TOT.                      -74.385    6877.5205    38.9642    89.3072

 350.00  VIB.     0.4085D+02                  4491.4362    32.2867    20.2052
         ROT.     0.4845D+06                  1043.2834     2.9808    28.9953
         INT.     0.1979D+08                  5534.7197    35.2675    49.2004
         TRA.     0.1786D+28                  1738.8057     4.9680    41.2546
         TOT.                      -73.989    7273.5253    40.2355    90.4551

 360.00  VIB.     0.4920D+02                  4820.6235    33.5491    21.1324
         ROT.     0.5055D+06                  1073.0915     2.9808    29.0792
         INT.     0.2487D+08                  5893.7150    36.5299    50.2117
         TRA.     0.1863D+28                  1788.4859     4.9680    41.3946
         TOT.                      -73.580    7682.2009    41.4980    91.6063

 370.00  VIB.     0.5940D+02                  5162.3819    34.8005    22.0687
         ROT.     0.5267D+06                  1102.8996     2.9808    29.1609
         INT.     0.3128D+08                  6265.2815    37.7813    51.2296
         TRA.     0.1941D+28                  1838.1660     4.9680    41.5307
         TOT.                      -73.159    8103.4475    42.7494    92.7604

 380.00  VIB.     0.7190D+02                  5516.5904    36.0388    23.0133
         ROT.     0.5482D+06                  1132.7077     2.9808    29.2404
         INT.     0.3941D+08                  6649.2981    39.0196    52.2537
         TRA.     0.2020D+28                  1887.8462     4.9680    41.6632
         TOT.                      -72.725    8537.1442    43.9877    93.9169

 390.00  VIB.     0.8725D+02                  5883.1091    37.2623    23.9653
         ROT.     0.5699D+06                  1162.5158     2.9808    29.3178
         INT.     0.4973D+08                  7045.6249    40.2431    53.2831
         TRA.     0.2100D+28                  1937.5263     4.9680    41.7923
         TOT.                      -72.279    8983.1512    45.2111    95.0753

 400.00  VIB.     0.1061D+03                  6261.7822    38.4695    24.9239
         ROT.     0.5920D+06                  1192.3239     2.9808    29.3933
         INT.     0.6282D+08                  7454.1061    41.4503    54.3172
         TRA.     0.2182D+28                  1987.2065     4.9680    41.9180
         TOT.                      -71.821    9441.3126    46.4183    96.2352

   *: NOTE: HEATS OF FORMATION ARE RELATIVE TO THE
            ELEMENTS IN THEIR STANDARD STATE AT 298K
              (=  Standard Enthalpy of Formation).

            Hvib:  Zero-point energy is not included.
                   frequencies of less than zero cm-1 are not included.
            Hrot = (3/2)RT
            Htra = (3/2)RT + pV = (5/2)RT

            Heat capacity is Cp, not Cv

          For more information, see: HTTP://OpenMOPAC.net/Manual/thermochemistry.html


           FORCE CONSTANT IN CARTESIAN COORDINATES (Millidynes/A)

    ATOM   CHEMICAL       X               Y               Z
   NUMBER   SYMBOL  FORCE CONSTANT  FORCE CONSTANT  FORCE CONSTANT

      1       O        5.122109        3.079212        5.366015
      2       O        8.864350        6.833940        1.300945
      3       C        8.296477        7.060802        9.117002
      4       C        9.604171        7.219676        7.733240
      5       C        8.829537        8.261425        7.584017
      6       C        7.109849        9.431417        7.790399
      7       C        8.247788        8.128480        8.257138
      8       C        8.437593        8.329374        7.504532
      9       C        7.921465        8.181982        8.423210
     10       H        3.969518        1.513772        0.640619
     11       H        0.790299        2.828347        2.222839
     12       H        0.794872        1.620183        3.754823
     13       H        0.779390        2.101995        3.503692
     14       H        1.173462        2.110273        3.131888
     15       H        4.027659        1.662585        0.714830
     16       H        0.896467        1.585045        3.883430
     17       H        0.949414        3.072373        2.341874
     18       H        2.715645        2.891257        0.802458
     19       H        2.508091        0.865835        3.251277
     20       H        0.838830        4.953823        0.857970
     21       H        4.559132        4.591613        0.341344

 **********************
 *                    *
 * JOB ENDED NORMALLY *
 *                    *
 **********************



 TOTAL JOB TIME:             1.82 SECONDS

 == MOPAC DONE ==
