 *******************************************************************************
 ** Site#: 14399        For non-commercial use only    Version 18.184L 64BITS **
 *******************************************************************************
 ** Cite this program as: MOPAC2016, Version: 18.184L, James J. P. Stewart,   **
 ** Stewart Computational Chemistry, web: HTTP://OpenMOPAC.net. Days left:  18**
 *******************************************************************************
 **                                                                           **
 **                                MOPAC2016                                  **
 **                                                                           **
 *******************************************************************************

                              PM3 CALCULATION RESULTS

 *******************************************************************************
 *  CALCULATION DONE:                                Sat Jun 15 10:16:19 2019  *
 *  PM3        - The PM3 Hamiltonian to be used
 *  PRECISE    - CRITERIA TO BE INCREASED BY 100 TIMES
 *  NOSYM      - POINT-GROUP SYMMETRY SET TO C1
 *  THREADS=1  - MULTI-THREADING NOT USED
 *  T=         - A TIME OF 172800.0 SECONDS REQUESTED
 *  DUMP=N     - RESTART FILE WRITTEN EVERY  7200.000 SECONDS
 *******************************************************************************
pm3  precise nosym THREADS=1
 InChI=1S/C10H12/c1-3-7-8(4-1)10-6-2-5-9(7)10/h1-3,6-10H,4-5H2

   ATOM   CHEMICAL          X               Y               Z
  NUMBER   SYMBOL      (ANGSTROMS)     (ANGSTROMS)     (ANGSTROMS)
 
     1       C          0.50610000  *  -0.68490000  *  -0.67520000  *
     2       C         -0.50610000  *   0.68490000  *   0.67520000  *
     3       C          0.46110000  *   0.83350000  *  -0.50930000  *
     4       C         -0.46110000  *  -0.83350000  *   0.50930000  *
     5       C          1.95640000  *  -1.10790000  *  -0.38880000  *
     6       C         -1.95640000  *   1.10790000  *   0.38880000  *
     7       C          1.84460000  *   1.21190000  *  -0.10260000  *
     8       C         -1.84460000  *  -1.21190000  *   0.10260000  *
     9       C          2.65010000  *   0.16340000  *  -0.04080000  *
    10       C         -2.65010000  *  -0.16340000  *   0.04080000  *
    11       H          0.10950000  *  -1.03650000  *  -1.65440000  *
    12       H         -0.10950000  *   1.03650000  *   1.65440000  *
    13       H          0.07820000  *   1.37110000  *  -1.40400000  *
    14       H         -0.07820000  *  -1.37110000  *   1.40400000  *
    15       H          2.41820000  *  -1.54330000  *  -1.30020000  *
    16       H          2.02680000  *  -1.83450000  *   0.44840000  *
    17       H         -2.41820000  *   1.54330000  *   1.30020000  *
    18       H         -2.02680000  *   1.83450000  *  -0.44840000  *
    19       H          2.15810000  *   2.22470000  *   0.12760000  *
    20       H          3.69740000  *   0.22940000  *   0.23500000  *
    21       H         -2.15810000  *  -2.22470000  *  -0.12760000  *
    22       H         -3.69740000  *  -0.22940000  *  -0.23500000  *
 


          CARTESIAN COORDINATES 

    NO.       ATOM           X           Y           Z

     1         C          0.5061     -0.6849     -0.6752
     2         C         -0.5061      0.6849      0.6752
     3         C          0.4611      0.8335     -0.5093
     4         C         -0.4611     -0.8335      0.5093
     5         C          1.9564     -1.1079     -0.3888
     6         C         -1.9564      1.1079      0.3888
     7         C          1.8446      1.2119     -0.1026
     8         C         -1.8446     -1.2119      0.1026
     9         C          2.6501      0.1634     -0.0408
    10         C         -2.6501     -0.1634      0.0408
    11         H          0.1095     -1.0365     -1.6544
    12         H         -0.1095      1.0365      1.6544
    13         H          0.0782      1.3711     -1.4040
    14         H         -0.0782     -1.3711      1.4040
    15         H          2.4182     -1.5433     -1.3002
    16         H          2.0268     -1.8345      0.4484
    17         H         -2.4182      1.5433      1.3002
    18         H         -2.0268      1.8345     -0.4484
    19         H          2.1581      2.2247      0.1276
    20         H          3.6974      0.2294      0.2350
    21         H         -2.1581     -2.2247     -0.1276
    22         H         -3.6974     -0.2294     -0.2350

  H: (PM3): J. J. P. STEWART, J. COMP. CHEM. 10, 209 (1989).
  C: (PM3): J. J. P. STEWART, J. COMP. CHEM. 10, 209 (1989).

           Empirical Formula: C10 H12  =    22 atoms



      MOLECULAR POINT GROUP   :   C1  


      RHF CALCULATION, NO. OF DOUBLY OCCUPIED LEVELS = 26


          Geometry optimization using EF

          DIAGONAL MATRIX USED AS START HESSIAN

 CYCLE:     1 TIME:   0.004 TIME LEFT:  2.00D  GRAD.:    86.126 HEAT:  39.91756
 CYCLE:     2 TIME:   0.016 TIME LEFT:  2.00D  GRAD.:    56.673 HEAT:  38.35707
 CYCLE:     3 TIME:   0.004 TIME LEFT:  2.00D  GRAD.:    52.735 HEAT:  37.70571
 CYCLE:     4 TIME:   0.004 TIME LEFT:  2.00D  GRAD.:    37.351 HEAT:  36.87166
 CYCLE:     5 TIME:   0.004 TIME LEFT:  2.00D  GRAD.:    46.418 HEAT:  36.76273
 CYCLE:     6 TIME:   0.004 TIME LEFT:  2.00D  GRAD.:    52.910 HEAT:  36.37610
 CYCLE:     7 TIME:   0.012 TIME LEFT:  2.00D  GRAD.:    22.184 HEAT:  35.84953
 CYCLE:     8 TIME:   0.008 TIME LEFT:  2.00D  GRAD.:    21.687 HEAT:  35.78876
 CYCLE:     9 TIME:   0.004 TIME LEFT:  2.00D  GRAD.:    15.838 HEAT:  35.70424
 CYCLE:    10 TIME:   0.008 TIME LEFT:  2.00D  GRAD.:     9.004 HEAT:  35.63229
 CYCLE:    11 TIME:   0.008 TIME LEFT:  2.00D  GRAD.:     5.550 HEAT:  35.60735
 CYCLE:    12 TIME:   0.004 TIME LEFT:  2.00D  GRAD.:     3.674 HEAT:  35.58196
 CYCLE:    13 TIME:   0.008 TIME LEFT:  2.00D  GRAD.:     6.922 HEAT:  35.57373
 CYCLE:    14 TIME:   0.004 TIME LEFT:  2.00D  GRAD.:     2.921 HEAT:  35.55950
 CYCLE:    15 TIME:   0.004 TIME LEFT:  2.00D  GRAD.:     2.169 HEAT:  35.55499
 CYCLE:    16 TIME:   0.004 TIME LEFT:  2.00D  GRAD.:     1.439 HEAT:  35.55103
 CYCLE:    17 TIME:   0.004 TIME LEFT:  2.00D  GRAD.:     1.931 HEAT:  35.54373
 CYCLE:    18 TIME:   0.004 TIME LEFT:  2.00D  GRAD.:     3.357 HEAT:  35.54236
 CYCLE:    19 TIME:   0.008 TIME LEFT:  2.00D  GRAD.:     4.530 HEAT:  35.54544
 CYCLE:    20 TIME:   0.008 TIME LEFT:  2.00D  GRAD.:     1.271 HEAT:  35.53798
 CYCLE:    21 TIME:   0.004 TIME LEFT:  2.00D  GRAD.:     1.591 HEAT:  35.53750
 CYCLE:    22 TIME:   0.004 TIME LEFT:  2.00D  GRAD.:     1.543 HEAT:  35.53668
 CYCLE:    23 TIME:   0.008 TIME LEFT:  2.00D  GRAD.:     3.002 HEAT:  35.53778
 CYCLE:    24 TIME:   0.004 TIME LEFT:  2.00D  GRAD.:     2.366 HEAT:  35.53628
 CYCLE:    25 TIME:   0.004 TIME LEFT:  2.00D  GRAD.:     5.023 HEAT:  35.54219
 CYCLE:    26 TIME:   0.004 TIME LEFT:  2.00D  GRAD.:     1.209 HEAT:  35.53434
 CYCLE:    27 TIME:   0.008 TIME LEFT:  2.00D  GRAD.:     5.885 HEAT:  35.53966
 CYCLE:    28 TIME:   0.004 TIME LEFT:  2.00D  GRAD.:     0.381 HEAT:  35.53380
 CYCLE:    29 TIME:   0.004 TIME LEFT:  2.00D  GRAD.:     0.663 HEAT:  35.53371
 CYCLE:    30 TIME:   0.004 TIME LEFT:  2.00D  GRAD.:     0.342 HEAT:  35.53342
 CYCLE:    31 TIME:   0.008 TIME LEFT:  2.00D  GRAD.:     0.406 HEAT:  35.53326
 CYCLE:    32 TIME:   0.004 TIME LEFT:  2.00D  GRAD.:     0.437 HEAT:  35.53320
 CYCLE:    33 TIME:   0.004 TIME LEFT:  2.00D  GRAD.:     0.411 HEAT:  35.53316
 CYCLE:    34 TIME:   0.004 TIME LEFT:  2.00D  GRAD.:     0.168 HEAT:  35.53307
 CYCLE:    35 TIME:   0.004 TIME LEFT:  2.00D  GRAD.:     0.113 HEAT:  35.53302
 CYCLE:    36 TIME:   0.008 TIME LEFT:  2.00D  GRAD.:     0.129 HEAT:  35.53299
 CYCLE:    37 TIME:   0.004 TIME LEFT:  2.00D  GRAD.:     0.126 HEAT:  35.53297
 CYCLE:    38 TIME:   0.004 TIME LEFT:  2.00D  GRAD.:     0.078 HEAT:  35.53296
 CYCLE:    39 TIME:   0.004 TIME LEFT:  2.00D  GRAD.:     0.105 HEAT:  35.53294
 CYCLE:    40 TIME:   0.008 TIME LEFT:  2.00D  GRAD.:     0.061 HEAT:  35.53294
 CYCLE:    41 TIME:   0.004 TIME LEFT:  2.00D  GRAD.:     0.048 HEAT:  35.53294

     GRADIENT =  0.04809  IS LESS THAN CUTOFF =  0.05000



 -------------------------------------------------------------------------------
 pm3  precise nosym THREADS=1
 InChI=1S/C10H12/c1-3-7-8(4-1)10-6-2-5-9(7)10/h1-3,6-10H,4-5H2



     GEOMETRY OPTIMISED USING EIGENVECTOR FOLLOWING (EF).     
     SCF FIELD WAS ACHIEVED                                   


                              PM3 CALCULATION
                                                       MOPAC2016 (Version: 18.184L)
                                                       Sat Jun 15 10:16:20 2019
                                                       No. of days remaining =  18




          FINAL HEAT OF FORMATION =         35.53294 KCAL/MOL =     148.66980 KJ/MOL


          TOTAL ENERGY            =      -1368.85545 EV
          ELECTRONIC ENERGY       =      -7708.65386 EV  POINT GROUP:     C1  
          CORE-CORE REPULSION     =       6339.79842 EV
          COSMO AREA              =        171.75 SQUARE ANGSTROMS
          COSMO VOLUME            =        175.78 CUBIC ANGSTROMS

          GRADIENT NORM           =          0.04809 = 0.01025 PER ATOM
          IONIZATION POTENTIAL    =          9.523471 EV
          HOMO LUMO ENERGIES (EV) =         -9.523  1.060
          NO. OF FILLED LEVELS    =         26
          MOLECULAR WEIGHT        =        132.2048

          MOLECULAR DIMENSIONS (Angstroms)

            Atom       Atom       Distance
            H    22    H    20     7.47711
            H    17    H    15     4.40557
            H    14    H    13     3.94022


          SCF CALCULATIONS        =         49
 
          WALL-CLOCK TIME         =          0.230 SECONDS
          COMPUTATION TIME        =          0.217 SECONDS




   ATOM   CHEMICAL          X               Y               Z
  NUMBER   SYMBOL      (ANGSTROMS)     (ANGSTROMS)     (ANGSTROMS)
 
     1       C          0.52094252  *  -0.70003479  *  -0.67699933  *
     2       C         -0.52094794  *   0.70000523  *   0.67701912  *
     3       C          0.47273500  *   0.85647557  *  -0.50114856  *
     4       C         -0.47272872  *  -0.85646641  *   0.50113941  *
     5       C          1.96650937  *  -1.11177142  *  -0.39296622  *
     6       C         -1.96651165  *   1.11177030  *   0.39297166  *
     7       C          1.86096295  *   1.23445244  *  -0.10057494  *
     8       C         -1.86096270  *  -1.23444424  *   0.10056691  *
     9       C          2.66954445  *   0.16763530  *  -0.05021998  *
    10       C         -2.66954311  *  -0.16762218  *   0.05022162  *
    11       H          0.14426189  *  -1.09307283  *  -1.63886013  *
    12       H         -0.14425290  *   1.09307374  *   1.63887521  *
    13       H          0.10031211  *   1.44617202  *  -1.35958826  *
    14       H         -0.10031882  *  -1.44616911  *   1.35955603  *
    15       H          2.43821382  *  -1.59124837  *  -1.27032447  *
    16       H          2.04016740  *  -1.84072994  *   0.43579926  *
    17       H         -2.43821064  *   1.59123434  *   1.27033014  *
    18       H         -2.04017013  *   1.84074071  *  -0.43579079  *
    19       H          2.12990356  *   2.26831328  *   0.11251932  *
    20       H          3.72892080  *   0.17233276  *   0.20549801  *
    21       H         -2.12990711  *  -2.26831850  *  -0.11254174  *
    22       H         -3.72892055  *  -0.17232739  *  -0.20550608  *

                             CARTESIAN COORDINATES

   1    C        0.520942525    -0.700034793    -0.676999327
   2    C       -0.520947935     0.700005233     0.677019121
   3    C        0.472734999     0.856475567    -0.501148561
   4    C       -0.472728724    -0.856466414     0.501139413
   5    C        1.966509373    -1.111771415    -0.392966222
   6    C       -1.966511646     1.111770298     0.392971658
   7    C        1.860962945     1.234452436    -0.100574939
   8    C       -1.860962705    -1.234444243     0.100566913
   9    C        2.669544446     0.167635305    -0.050219977
  10    C       -2.669543112    -0.167622179     0.050221623
  11    H        0.144261894    -1.093072825    -1.638860127
  12    H       -0.144252899     1.093073739     1.638875214
  13    H        0.100312110     1.446172022    -1.359588256
  14    H       -0.100318824    -1.446169112     1.359556027
  15    H        2.438213819    -1.591248372    -1.270324472
  16    H        2.040167398    -1.840729938     0.435799263
  17    H       -2.438210642     1.591234336     1.270330140
  18    H       -2.040170134     1.840740710    -0.435790794
  19    H        2.129903560     2.268313282     0.112519324
  20    H        3.728920796     0.172332756     0.205498006
  21    H       -2.129907105    -2.268318495    -0.112541735
  22    H       -3.728920549    -0.172327392    -0.205506084


           Empirical Formula: C10 H12  =    22 atoms



      MOLECULAR POINT GROUP   :   C1  


                  EIGENVALUES  
 -43.13698 -36.32079 -29.54942 -29.21474 -26.48888 -23.82753 -20.72213 -19.32991
 -18.87133 -17.76961 -17.38463 -17.22879 -15.67269 -14.41604 -14.34745 -13.69178
 -13.59763 -13.28084 -13.08129 -12.34231 -12.30186 -12.08440 -11.88072 -11.19711
  -9.79051  -9.52347   1.06027   1.06550   3.17083   3.29186   3.42815   3.48772
   3.59211   3.66366   3.74434   3.92560   3.97112   4.06815   4.08858   4.19256
   4.22865   4.31780   4.41913   4.69791   4.85060   4.99610   5.27945   5.32377
   5.72749   5.74050   5.95634   6.02041


              NET ATOMIC CHARGES AND DIPOLE CONTRIBUTIONS

  ATOM NO.   TYPE          CHARGE      No. of ELECS.   s-Pop       p-Pop       
    1          C          -0.091027        4.0910     1.19911     2.89192
    2          C          -0.091024        4.0910     1.19911     2.89191
    3          C          -0.059979        4.0600     1.18876     2.87122
    4          C          -0.059969        4.0600     1.18874     2.87123
    5          C          -0.058464        4.0585     1.15318     2.90529
    6          C          -0.058465        4.0585     1.15318     2.90529
    7          C          -0.147681        4.1477     1.20017     2.94751
    8          C          -0.147683        4.1477     1.20018     2.94750
    9          C          -0.147761        4.1478     1.20443     2.94333
   10          C          -0.147763        4.1478     1.20443     2.94334
   11          H           0.081763        0.9182     0.91824
   12          H           0.081763        0.9182     0.91824
   13          H           0.084562        0.9154     0.91544
   14          H           0.084559        0.9154     0.91544
   15          H           0.055942        0.9441     0.94406
   16          H           0.061011        0.9390     0.93899
   17          H           0.055941        0.9441     0.94406
   18          H           0.061014        0.9390     0.93899
   19          H           0.112743        0.8873     0.88726
   20          H           0.108887        0.8911     0.89111
   21          H           0.112744        0.8873     0.88726
   22          H           0.108887        0.8911     0.89111
 DIPOLE           X         Y         Z       TOTAL
 POINT-CHG.    -0.000     0.000    -0.000     0.000
 HYBRID         0.000     0.000    -0.000     0.000
 SUM           -0.000     0.000    -0.000     0.000


          ATOMIC ORBITAL ELECTRON POPULATIONS

     Atom    s        px        py        pz   
    1  C   1.19911   0.94591   0.96269   0.98333
    2  C   1.19911   0.94590   0.96268   0.98332
    3  C   1.18876   0.94052   0.95585   0.97485
    4  C   1.18874   0.94052   0.95586   0.97485
    5  C   1.15318   0.94074   0.95836   1.00619
    6  C   1.15318   0.94074   0.95836   1.00619
    7  C   1.20017   0.95645   0.97847   1.01259
    8  C   1.20018   0.95645   0.97847   1.01259
    9  C   1.20443   0.98330   0.95395   1.00608
   10  C   1.20443   0.98330   0.95395   1.00608
   11  H   0.91824
   12  H   0.91824
   13  H   0.91544
   14  H   0.91544
   15  H   0.94406
   16  H   0.93899
   17  H   0.94406
   18  H   0.93899
   19  H   0.88726
   20  H   0.89111
   21  H   0.88726
   22  H   0.89111
 *******************************************************************************
 ** Site#: 14399        For non-commercial use only    Version 18.184L 64BITS **
 *******************************************************************************
 ** Cite this program as: MOPAC2016, Version: 18.184L, James J. P. Stewart,   **
 ** Stewart Computational Chemistry, web: HTTP://OpenMOPAC.net. Days left:  18**
 *******************************************************************************
 **                                                                           **
 **                                MOPAC2016                                  **
 **                                                                           **
 *******************************************************************************

                              PM3 CALCULATION RESULTS

 *******************************************************************************
 *  CALCULATION DONE:                                Sat Jun 15 10:16:20 2019  *
 *  PM3        - The PM3 Hamiltonian to be used
 *  OLDGEO     - PREVIOUS GEOMETRY TO BE USED
 *  PRECISE    - CRITERIA TO BE INCREASED BY 100 TIMES
 *  NOSYM      - POINT-GROUP SYMMETRY SET TO C1
 *  THREADS=1  - MULTI-THREADING NOT USED
 *  T=         - A TIME OF 172800.0 SECONDS REQUESTED
 *  DUMP=N     - RESTART FILE WRITTEN EVERY  7200.000 SECONDS
 *  THERMO     - THERMODYNAMIC QUANTITIES TO BE CALCULATED
 *******************************************************************************
oldgeo thermo nosym precise THREADS=1  pm3
 InChI=1S/C10H12/c1-3-7-8(4-1)10-6-2-5-9(7)10/h1-3,6-10H,4-5H2

   ATOM   CHEMICAL          X               Y               Z
  NUMBER   SYMBOL      (ANGSTROMS)     (ANGSTROMS)     (ANGSTROMS)
 
     1       C          0.52094252  *  -0.70003479  *  -0.67699933  *
     2       C         -0.52094794  *   0.70000523  *   0.67701912  *
     3       C          0.47273500  *   0.85647557  *  -0.50114856  *
     4       C         -0.47272872  *  -0.85646641  *   0.50113941  *
     5       C          1.96650937  *  -1.11177142  *  -0.39296622  *
     6       C         -1.96651165  *   1.11177030  *   0.39297166  *
     7       C          1.86096295  *   1.23445244  *  -0.10057494  *
     8       C         -1.86096270  *  -1.23444424  *   0.10056691  *
     9       C          2.66954445  *   0.16763530  *  -0.05021998  *
    10       C         -2.66954311  *  -0.16762218  *   0.05022162  *
    11       H          0.14426189  *  -1.09307283  *  -1.63886013  *
    12       H         -0.14425290  *   1.09307374  *   1.63887521  *
    13       H          0.10031211  *   1.44617202  *  -1.35958826  *
    14       H         -0.10031882  *  -1.44616911  *   1.35955603  *
    15       H          2.43821382  *  -1.59124837  *  -1.27032447  *
    16       H          2.04016740  *  -1.84072994  *   0.43579926  *
    17       H         -2.43821064  *   1.59123434  *   1.27033014  *
    18       H         -2.04017013  *   1.84074071  *  -0.43579079  *
    19       H          2.12990356  *   2.26831328  *   0.11251932  *
    20       H          3.72892080  *   0.17233276  *   0.20549801  *
    21       H         -2.12990711  *  -2.26831850  *  -0.11254174  *
    22       H         -3.72892055  *  -0.17232739  *  -0.20550608  *
 


          CARTESIAN COORDINATES 

    NO.       ATOM           X           Y           Z

     1         C          0.5209     -0.7000     -0.6770
     2         C         -0.5209      0.7000      0.6770
     3         C          0.4727      0.8565     -0.5011
     4         C         -0.4727     -0.8565      0.5011
     5         C          1.9665     -1.1118     -0.3930
     6         C         -1.9665      1.1118      0.3930
     7         C          1.8610      1.2345     -0.1006
     8         C         -1.8610     -1.2344      0.1006
     9         C          2.6695      0.1676     -0.0502
    10         C         -2.6695     -0.1676      0.0502
    11         H          0.1443     -1.0931     -1.6389
    12         H         -0.1443      1.0931      1.6389
    13         H          0.1003      1.4462     -1.3596
    14         H         -0.1003     -1.4462      1.3596
    15         H          2.4382     -1.5912     -1.2703
    16         H          2.0402     -1.8407      0.4358
    17         H         -2.4382      1.5912      1.2703
    18         H         -2.0402      1.8407     -0.4358
    19         H          2.1299      2.2683      0.1125
    20         H          3.7289      0.1723      0.2055
    21         H         -2.1299     -2.2683     -0.1125
    22         H         -3.7289     -0.1723     -0.2055

  H: (PM3): J. J. P. STEWART, J. COMP. CHEM. 10, 209 (1989).
  C: (PM3): J. J. P. STEWART, J. COMP. CHEM. 10, 209 (1989).

           Empirical Formula: C10 H12  =    22 atoms



      MOLECULAR POINT GROUP   :   C1  


      RHF CALCULATION, NO. OF DOUBLY OCCUPIED LEVELS = 26



          HEAT OF FORMATION =      35.532935 KCALS/MOLE


          CARTESIAN COORDINATE DERIVATIVES

   NUMBER  ATOM         X            Y            Z

     1       C     -0.002044    -0.022464     0.001487
     2       C     -0.004010    -0.016670    -0.001482
     3       C     -0.002991     0.012510    -0.009734
     4       C      0.001542     0.008504    -0.000145
     5       C     -0.001482    -0.000434     0.003010
     6       C      0.003413    -0.005461     0.003245
     7       C     -0.004456     0.008330    -0.006222
     8       C      0.009945    -0.001450     0.000841
     9       C     -0.002166     0.006399    -0.006224
    10       C      0.010496     0.004551    -0.000412
    11       H      0.001073     0.003699    -0.007458
    12       H      0.004609    -0.000560     0.000890
    13       H     -0.003640     0.005198     0.003911
    14       H      0.002643     0.005203     0.008018
    15       H     -0.003098     0.005428    -0.000387
    16       H     -0.004377     0.001430     0.000840
    17       H     -0.002607    -0.005069     0.000972
    18       H      0.005223     0.001155     0.002867
    19       H     -0.006312    -0.001343     0.001358
    20       H      0.004859     0.001421    -0.002819
    21       H     -0.001659    -0.008186     0.002268
    22       H     -0.004963    -0.002190     0.005175
 


          GRADIENT NORM =   0.04730


          TIME FOR SCF CALCULATION =    0.00

          TIME FOR DERIVATIVES     =    0.00

          MOLECULAR WEIGHT =  132.20



          ROTATIONAL CONSTANTS IN CM(-1)

          A =    0.10936772   B =    0.03750538   C =    0.03073138



           PRINCIPAL MOMENTS OF INERTIA IN UNITS OF 10**(-40)*GRAM-CM**2

          A =      255.9510   B =      746.3669   C =      910.8856


          ORIENTATION OF MOLECULE IN FORCE CALCULATION

    NO.       ATOM         X         Y         Z

     1          C      -1.1044   -0.0000   -0.0000
     2          C       1.1044   -0.0000   -0.0000
     3          C       0.0127    1.0991   -0.0000
     4          C      -0.0127   -1.0991    0.0000
     5          C      -1.8731    0.1802   -1.3101
     6          C       1.8731   -0.1802    1.3101
     7          C      -0.1570    1.8100   -1.3024
     8          C       0.1570   -1.8100    1.3024
     9          C      -1.1837    1.3154   -2.0064
    10          C       1.1837   -1.3154    2.0064
    11          H      -1.7655   -0.0221    0.8855
    12          H       1.7655    0.0221   -0.8855
    13          H       0.0359    1.7896    0.8637
    14          H      -0.0359   -1.7896   -0.8637
    15          H      -2.9374    0.4218   -1.1334
    16          H      -1.8619   -0.7341   -1.9326
    17          H       2.9374   -0.4218    1.1334
    18          H       1.8619    0.7341    1.9326
    19          H       0.5021    2.6266   -1.5948
    20          H      -1.5237    1.6620   -2.9821
    21          H      -0.5021   -2.6266    1.5948
    22          H       1.5237   -1.6620    2.9821


    FIRST DERIVATIVES WILL BE USED IN THE CALCULATION OF SECOND DERIVATIVES

          ESTIMATED TIME TO COMPLETE CALCULATION =        2.06 SECONDS

    FOR POINT-GROUP C1   THERE ARE   1 UNIQUE SYMMETRY FUNCTIONS.

 STEP:   1 TIME =     0.02 SECS, INTEGRAL =      0.02 TIME LEFT: 172799.97
 STEP:   2 TIME =     0.02 SECS, INTEGRAL =      0.04 TIME LEFT: 172799.95
 STEP:   3 TIME =     0.02 SECS, INTEGRAL =      0.06 TIME LEFT: 172799.93
 STEP:   4 TIME =     0.02 SECS, INTEGRAL =      0.09 TIME LEFT: 172799.91
 STEP:   5 TIME =     0.02 SECS, INTEGRAL =      0.11 TIME LEFT: 172799.89
 STEP:   6 TIME =     0.02 SECS, INTEGRAL =      0.12 TIME LEFT: 172799.87
 STEP:   7 TIME =     0.02 SECS, INTEGRAL =      0.15 TIME LEFT: 172799.84
 STEP:   8 TIME =     0.02 SECS, INTEGRAL =      0.17 TIME LEFT: 172799.82
 STEP:   9 TIME =     0.02 SECS, INTEGRAL =      0.19 TIME LEFT: 172799.80
 STEP:  10 TIME =     0.02 SECS, INTEGRAL =      0.21 TIME LEFT: 172799.78
 STEP:  11 TIME =     0.02 SECS, INTEGRAL =      0.23 TIME LEFT: 172799.76
 STEP:  12 TIME =     0.02 SECS, INTEGRAL =      0.25 TIME LEFT: 172799.74
 STEP:  13 TIME =     0.02 SECS, INTEGRAL =      0.27 TIME LEFT: 172799.72
 STEP:  14 TIME =     0.02 SECS, INTEGRAL =      0.29 TIME LEFT: 172799.70
 STEP:  15 TIME =     0.02 SECS, INTEGRAL =      0.31 TIME LEFT: 172799.68
 STEP:  16 TIME =     0.02 SECS, INTEGRAL =      0.34 TIME LEFT: 172799.66
 STEP:  17 TIME =     0.02 SECS, INTEGRAL =      0.36 TIME LEFT: 172799.64
 STEP:  18 TIME =     0.02 SECS, INTEGRAL =      0.38 TIME LEFT: 172799.62
 STEP:  19 TIME =     0.02 SECS, INTEGRAL =      0.40 TIME LEFT: 172799.59
 STEP:  20 TIME =     0.02 SECS, INTEGRAL =      0.42 TIME LEFT: 172799.57
 STEP:  21 TIME =     0.02 SECS, INTEGRAL =      0.44 TIME LEFT: 172799.55
 STEP:  22 TIME =     0.02 SECS, INTEGRAL =      0.46 TIME LEFT: 172799.53
 STEP:  23 TIME =     0.02 SECS, INTEGRAL =      0.48 TIME LEFT: 172799.51
 STEP:  24 TIME =     0.02 SECS, INTEGRAL =      0.50 TIME LEFT: 172799.49
 STEP:  25 TIME =     0.02 SECS, INTEGRAL =      0.52 TIME LEFT: 172799.47
 STEP:  26 TIME =     0.02 SECS, INTEGRAL =      0.55 TIME LEFT: 172799.45
 STEP:  27 TIME =     0.02 SECS, INTEGRAL =      0.57 TIME LEFT: 172799.43
 STEP:  28 TIME =     0.02 SECS, INTEGRAL =      0.59 TIME LEFT: 172799.41
 STEP:  29 TIME =     0.02 SECS, INTEGRAL =      0.61 TIME LEFT: 172799.39
 STEP:  30 TIME =     0.02 SECS, INTEGRAL =      0.62 TIME LEFT: 172799.37
 STEP:  31 TIME =     0.02 SECS, INTEGRAL =      0.65 TIME LEFT: 172799.34
 STEP:  32 TIME =     0.02 SECS, INTEGRAL =      0.67 TIME LEFT: 172799.32
 STEP:  33 TIME =     0.02 SECS, INTEGRAL =      0.69 TIME LEFT: 172799.30
 STEP:  34 TIME =     0.02 SECS, INTEGRAL =      0.71 TIME LEFT: 172799.28
 STEP:  35 TIME =     0.02 SECS, INTEGRAL =      0.73 TIME LEFT: 172799.26
 STEP:  36 TIME =     0.02 SECS, INTEGRAL =      0.75 TIME LEFT: 172799.24
 STEP:  37 TIME =     0.02 SECS, INTEGRAL =      0.77 TIME LEFT: 172799.22
 STEP:  38 TIME =     0.02 SECS, INTEGRAL =      0.79 TIME LEFT: 172799.20
 STEP:  39 TIME =     0.02 SECS, INTEGRAL =      0.81 TIME LEFT: 172799.18
 STEP:  40 TIME =     0.02 SECS, INTEGRAL =      0.83 TIME LEFT: 172799.16
 STEP:  41 TIME =     0.02 SECS, INTEGRAL =      0.86 TIME LEFT: 172799.14
 STEP:  42 TIME =     0.02 SECS, INTEGRAL =      0.88 TIME LEFT: 172799.12
 STEP:  43 TIME =     0.02 SECS, INTEGRAL =      0.89 TIME LEFT: 172799.10
 STEP:  44 TIME =     0.02 SECS, INTEGRAL =      0.92 TIME LEFT: 172799.07
 STEP:  45 TIME =     0.02 SECS, INTEGRAL =      0.94 TIME LEFT: 172799.05
 STEP:  46 TIME =     0.02 SECS, INTEGRAL =      0.96 TIME LEFT: 172799.03
 STEP:  47 TIME =     0.02 SECS, INTEGRAL =      0.98 TIME LEFT: 172799.01
 STEP:  48 TIME =     0.02 SECS, INTEGRAL =      1.00 TIME LEFT: 172798.99
 STEP:  49 TIME =     0.02 SECS, INTEGRAL =      1.02 TIME LEFT: 172798.97
 STEP:  50 TIME =     0.02 SECS, INTEGRAL =      1.04 TIME LEFT: 172798.95
 STEP:  51 TIME =     0.02 SECS, INTEGRAL =      1.07 TIME LEFT: 172798.93
 STEP:  52 TIME =     0.02 SECS, INTEGRAL =      1.09 TIME LEFT: 172798.91
 STEP:  53 TIME =     0.02 SECS, INTEGRAL =      1.11 TIME LEFT: 172798.89
 STEP:  54 TIME =     0.02 SECS, INTEGRAL =      1.13 TIME LEFT: 172798.86
 STEP:  55 TIME =     0.02 SECS, INTEGRAL =      1.15 TIME LEFT: 172798.84
 STEP:  56 TIME =     0.02 SECS, INTEGRAL =      1.17 TIME LEFT: 172798.82
 STEP:  57 TIME =     0.02 SECS, INTEGRAL =      1.19 TIME LEFT: 172798.80
 STEP:  58 TIME =     0.02 SECS, INTEGRAL =      1.21 TIME LEFT: 172798.78
 STEP:  59 TIME =     0.02 SECS, INTEGRAL =      1.23 TIME LEFT: 172798.76
 STEP:  60 TIME =     0.02 SECS, INTEGRAL =      1.26 TIME LEFT: 172798.73
 STEP:  61 TIME =     0.02 SECS, INTEGRAL =      1.28 TIME LEFT: 172798.71
 STEP:  62 TIME =     0.02 SECS, INTEGRAL =      1.30 TIME LEFT: 172798.70
 STEP:  63 TIME =     0.02 SECS, INTEGRAL =      1.32 TIME LEFT: 172798.67
 STEP:  64 TIME =     0.02 SECS, INTEGRAL =      1.34 TIME LEFT: 172798.65
 STEP:  65 TIME =     0.02 SECS, INTEGRAL =      1.36 TIME LEFT: 172798.63
 STEP:  66 TIME =     0.02 SECS, INTEGRAL =      1.38 TIME LEFT: 172798.61

(To convert to Hartree/Bohr^2, multiply by (10^(-21) x N x a0^2)/(4.184 x 627.51) =  0.0642)


           FORCE MATRIX IN MILLIDYNES/ANGSTROM


                  C  1       C  2       C  3       C  4       C  5       C  6
 ------------------------------------------------------------------------------
     C    1  14.391842
     C    2   1.728094  14.391002
     C    3   2.930163   3.354478  14.832117
     C    4   3.355449   2.931020   1.774638  14.833173
     C    5   3.879016   0.044218   0.701458   0.506378  14.672521
     C    6   0.044268   3.878573   0.506206   0.701491   0.003636  14.672626
     C    7   0.831627   0.560894   4.753142   0.044648   1.124525   0.037056
     C    8   0.560960   0.831612   0.044866   4.753054   0.037099   1.124493
     C    9   0.901763   0.043715   1.185953   0.029988   4.577821   0.005701
     C   10   0.043824   0.901923   0.029930   1.185824   0.005508   4.578207
     H   11   4.586765   0.028013   0.416721   0.434510   0.424310   0.003131
     H   12   0.028046   4.586459   0.434566   0.416768   0.003129   0.424384
     H   13   0.407888   0.434932   4.537672   0.028818   0.031138   0.025816
     H   14   0.434899   0.407951   0.028866   4.538152   0.025819   0.031124
     H   15   0.437612   0.005002   0.023675   0.032851   4.521442   0.000560
     H   16   0.443529   0.001837   0.033789   0.033434   4.492490   0.000542
     H   17   0.004969   0.437619   0.032881   0.023678   0.000514   4.521619
     H   18   0.001879   0.443538   0.033406   0.033796   0.000547   4.492369
     H   19   0.041339   0.006443   0.415782   0.002579   0.113378   0.001223
     H   20   0.042680   0.016313   0.114784   0.003063   0.411255   0.002256
     H   21   0.006452   0.041398   0.002532   0.415820   0.001204   0.113343
     H   22   0.016248   0.042691   0.003057   0.114763   0.002253   0.411281


                  C  7       C  8       C  9       C 10       H 11       H 12
 ------------------------------------------------------------------------------
     C    7  18.309906
     C    8   0.003499  18.309658
     C    9  10.476545   0.004312  18.232463
     C   10   0.004341  10.476307   0.001356  18.232447
     H   11   0.033988   0.024566   0.033634   0.004301   5.090770
     H   12   0.024558   0.033989   0.004315   0.033692   0.001474   5.090487
     H   13   0.417686   0.003372   0.040012   0.002149   0.015072   0.025343
     H   14   0.003381   0.417672   0.002212   0.040028   0.025365   0.015061
     H   15   0.038082   0.004367   0.429452   0.000979   0.032862   0.000646
     H   16   0.038593   0.002226   0.432202   0.000984   0.020325   0.000642
     H   17   0.004350   0.038094   0.000972   0.429493   0.000651   0.032859
     H   18   0.002290   0.038568   0.000896   0.432203   0.000643   0.020324
     H   19   5.026790   0.001120   0.449562   0.000711   0.003648   0.003521
     H   20   0.447811   0.001398   5.012166   0.000786   0.003974   0.000933
     H   21   0.001170   5.026393   0.000765   0.449638   0.003540   0.003643
     H   22   0.001474   0.447835   0.000787   5.012040   0.000921   0.003960


                  H 13       H 14       H 15       H 16       H 17       H 18
 ------------------------------------------------------------------------------
     H   13   5.049703
     H   14   0.001358   5.050172
     H   15   0.001058   0.002396   5.123580
     H   16   0.004496   0.028599   0.566612   5.106430
     H   17   0.002409   0.001054   0.000146   0.000128   5.123775
     H   18   0.028614   0.004483   0.000141   0.000260   0.566593   5.106348
     H   19   0.013671   0.000717   0.015662   0.014859   0.000345   0.000536
     H   20   0.012890   0.000728   0.014866   0.014163   0.000285   0.000242
     H   21   0.000723   0.013663   0.000351   0.000547   0.015645   0.014858
     H   22   0.000708   0.012882   0.000289   0.000250   0.014860   0.014166


                  H 19       H 20       H 21       H 22
 ------------------------------------------------------
     H   19   5.421887
     H   20   0.046947   5.407039
     H   21   0.000353   0.000304   5.421469
     H   22   0.000292   0.000164   0.046969   5.406942


          HEAT OF FORMATION =      35.532935 KCALS/MOLE

          ZERO POINT ENERGY     120.476 KCAL/MOL


           NORMAL COORDINATE ANALYSIS (Total motion = 1 Angstrom)


   Root No.       1         2         3         4         5         6         7         8

                 1 A       2 A       3 A       4 A       5 A       6 A       7 A       8 A   

                 110.8     197.3     259.9     288.8     357.5     434.8     450.8     610.4
  
           1    0.0100   -0.0304   -0.0017   -0.0114   -0.0062   -0.0160   -0.0048   -0.0259
           2    0.0134    0.0188   -0.0141   -0.0210   -0.0182    0.0098   -0.0077    0.0269
           3    0.0126    0.0144    0.0055   -0.0105   -0.0316    0.0119    0.0056   -0.0094
           4    0.0100   -0.0304    0.0018   -0.0114    0.0062   -0.0160    0.0049    0.0259
           5    0.0134    0.0188    0.0140   -0.0210    0.0182    0.0099    0.0077   -0.0269
           6    0.0126    0.0143   -0.0056   -0.0105    0.0316    0.0119   -0.0056    0.0094
           7    0.0106   -0.0299   -0.0141   -0.0080   -0.0194   -0.0111   -0.0013    0.0259
           8    0.0127    0.0195   -0.0015   -0.0263   -0.0052    0.0060   -0.0088   -0.0225
           9   -0.0113    0.0233    0.0261    0.0006   -0.0030    0.0069    0.0190    0.0082
          10    0.0106   -0.0298    0.0141   -0.0080    0.0194   -0.0111    0.0014   -0.0259
          11    0.0127    0.0195    0.0015   -0.0263    0.0052    0.0060    0.0088    0.0225
          12   -0.0114    0.0233   -0.0261    0.0006    0.0030    0.0068   -0.0190   -0.0082
          13   -0.0205    0.0045   -0.0129   -0.0183   -0.0301    0.0062    0.0039   -0.0326
          14    0.0115    0.0009    0.0063    0.0344    0.0200   -0.0037   -0.0179   -0.0058
          15    0.0314   -0.0109    0.0174   -0.0017   -0.0165   -0.0063    0.0045   -0.0268
          16   -0.0205    0.0046    0.0129   -0.0183    0.0301    0.0062   -0.0040    0.0326
          17    0.0115    0.0009   -0.0063    0.0344   -0.0200   -0.0036    0.0179    0.0058
          18    0.0314   -0.0109   -0.0174   -0.0017    0.0165   -0.0063   -0.0045    0.0268
          19    0.0089    0.0082    0.0039    0.0244    0.0012    0.0260    0.0317   -0.0144
          20   -0.0193   -0.0038   -0.0105   -0.0117   -0.0174   -0.0251   -0.0379   -0.0200
          21   -0.0295    0.0050    0.0197    0.0079   -0.0158   -0.0153    0.0060    0.0251
          22    0.0089    0.0082   -0.0039    0.0243   -0.0012    0.0259   -0.0319    0.0144
          23   -0.0192   -0.0038    0.0105   -0.0117    0.0174   -0.0249    0.0380    0.0200
          24   -0.0295    0.0050   -0.0197    0.0079    0.0158   -0.0154   -0.0059   -0.0251
          25   -0.0070    0.0452    0.0276    0.0150   -0.0193   -0.0108   -0.0048   -0.0036
          26   -0.0199   -0.0338   -0.0298    0.0191    0.0171    0.0172    0.0027   -0.0136
          27   -0.0061   -0.0273   -0.0012    0.0019   -0.0107    0.0099    0.0312    0.0008
          28   -0.0070    0.0451   -0.0277    0.0150    0.0193   -0.0108    0.0048    0.0036
          29   -0.0198   -0.0337    0.0299    0.0191   -0.0171    0.0172   -0.0028    0.0136
          30   -0.0061   -0.0273    0.0012    0.0019    0.0107    0.0098   -0.0312   -0.0008
          31    0.0314   -0.0480    0.0048   -0.0125   -0.0109   -0.0233   -0.0050   -0.0371
          32    0.0131    0.0218   -0.0475   -0.0300   -0.0408    0.0162   -0.0245    0.0618
          33    0.0287    0.0002    0.0100   -0.0113   -0.0344    0.0054    0.0051   -0.0181
          34    0.0313   -0.0480   -0.0047   -0.0125    0.0109   -0.0233    0.0051    0.0371
          35    0.0131    0.0220    0.0474   -0.0300    0.0408    0.0163    0.0244   -0.0618
          36    0.0287    0.0002   -0.0100   -0.0113    0.0344    0.0054   -0.0052    0.0181
          37    0.0108   -0.0347   -0.0232   -0.0136   -0.0594   -0.0169   -0.0103    0.0585
          38    0.0349    0.0224   -0.0107   -0.0340    0.0022    0.0253   -0.0031   -0.0363
          39   -0.0292    0.0199    0.0326    0.0076   -0.0085   -0.0092    0.0142    0.0192
          40    0.0108   -0.0347    0.0233   -0.0136    0.0594   -0.0168    0.0104   -0.0585
          41    0.0350    0.0224    0.0106   -0.0340   -0.0022    0.0253    0.0030    0.0363
          42   -0.0292    0.0198   -0.0326    0.0076    0.0085   -0.0092   -0.0141   -0.0192
          43   -0.0083    0.0069    0.0035   -0.0034   -0.0189   -0.0126   -0.0115   -0.0386
          44    0.0470    0.0354    0.0685    0.0852    0.0473   -0.0671   -0.0751   -0.0082
          45    0.0571   -0.0435    0.0348    0.0219    0.0176   -0.0407   -0.0172   -0.0593
          46   -0.0655   -0.0062   -0.0751   -0.0727   -0.0705    0.0786    0.0632   -0.0183
          47   -0.0004   -0.0185   -0.0031    0.0442    0.0316    0.0051   -0.0064   -0.0156
          48    0.0483    0.0174    0.0313   -0.0153   -0.0325   -0.0205   -0.0139   -0.0130
          49   -0.0083    0.0069   -0.0035   -0.0034    0.0189   -0.0126    0.0116    0.0386
          50    0.0470    0.0352   -0.0686    0.0852   -0.0473   -0.0669    0.0754    0.0082
          51    0.0571   -0.0436   -0.0348    0.0219   -0.0175   -0.0407    0.0174    0.0593
          52   -0.0654   -0.0060    0.0751   -0.0727    0.0705    0.0784   -0.0636    0.0183
          53   -0.0004   -0.0185    0.0032    0.0442   -0.0316    0.0052    0.0064    0.0156
          54    0.0483    0.0173   -0.0314   -0.0153    0.0325   -0.0204    0.0140    0.0130
          55    0.0197    0.0158    0.0105    0.0546    0.0291    0.0747    0.0815   -0.0452
          56   -0.0382   -0.0076   -0.0146   -0.0323   -0.0430   -0.0742   -0.0882    0.0105
          57   -0.0581    0.0115    0.0232    0.0185   -0.0246   -0.0427   -0.0221    0.0402
          58   -0.0116    0.0937    0.0647    0.0285   -0.0210   -0.0303   -0.0188    0.0245
          59   -0.0390   -0.0729   -0.0594    0.0316    0.0362    0.0416    0.0309    0.0147
          60   -0.0113   -0.0581   -0.0245    0.0018   -0.0034    0.0254    0.0463    0.0009
          61    0.0197    0.0158   -0.0106    0.0545   -0.0291    0.0744   -0.0819    0.0453
          62   -0.0382   -0.0076    0.0146   -0.0323    0.0430   -0.0739    0.0886   -0.0106
          63   -0.0581    0.0114   -0.0232    0.0185    0.0246   -0.0427    0.0223   -0.0402
          64   -0.0116    0.0935   -0.0648    0.0285    0.0210   -0.0302    0.0190   -0.0245
          65   -0.0389   -0.0727    0.0595    0.0316   -0.0362    0.0415   -0.0312   -0.0147
          66   -0.0113   -0.0580    0.0246    0.0017    0.0034    0.0252   -0.0465   -0.0008


   Root No.       9        10        11        12        13        14        15        16

                 9 A      10 A      11 A      12 A      13 A      14 A      15 A      16 A   

                 728.7     744.0     772.1     781.8     786.0     832.8     867.9     910.0
  
           1    0.0060   -0.0031   -0.0216   -0.0076   -0.0112   -0.0397    0.0057    0.0070
           2   -0.0111   -0.0100   -0.0044   -0.0022   -0.0156   -0.0200   -0.0087    0.0060
           3   -0.0213    0.0326    0.0018    0.0215    0.0041    0.0230   -0.0056   -0.0093
           4   -0.0060   -0.0032   -0.0216    0.0077   -0.0112    0.0397    0.0057   -0.0070
           5    0.0111   -0.0100   -0.0044    0.0023   -0.0155    0.0200   -0.0087   -0.0060
           6    0.0213    0.0327    0.0018   -0.0216    0.0039   -0.0230   -0.0056    0.0093
           7    0.0148   -0.0174   -0.0060   -0.0096   -0.0097   -0.0179   -0.0149   -0.0032
           8    0.0038   -0.0226    0.0044   -0.0179   -0.0076   -0.0318    0.0122    0.0152
           9   -0.0123   -0.0072   -0.0183    0.0023   -0.0232   -0.0398    0.0069    0.0127
          10   -0.0148   -0.0174   -0.0060    0.0097   -0.0096    0.0179   -0.0149    0.0033
          11   -0.0037   -0.0226    0.0044    0.0179   -0.0074    0.0318    0.0121   -0.0152
          12    0.0124   -0.0072   -0.0183   -0.0021   -0.0232    0.0398    0.0069   -0.0127
          13   -0.0048    0.0375   -0.0047    0.0211   -0.0003   -0.0181    0.0242   -0.0205
          14   -0.0230    0.0181   -0.0169    0.0063    0.0022    0.0021   -0.0162    0.0185
          15   -0.0022    0.0183    0.0034    0.0020    0.0207    0.0089   -0.0017    0.0106
          16    0.0048    0.0375   -0.0047   -0.0211   -0.0005    0.0181    0.0242    0.0205
          17    0.0230    0.0181   -0.0169   -0.0064    0.0022   -0.0021   -0.0162   -0.0185
          18    0.0022    0.0183    0.0034   -0.0022    0.0207   -0.0089   -0.0017   -0.0106
          19    0.0231   -0.0105    0.0299   -0.0008    0.0054    0.0158   -0.0042    0.0141
          20    0.0087   -0.0054    0.0156   -0.0269    0.0335    0.0212    0.0147   -0.0103
          21   -0.0037   -0.0160   -0.0154   -0.0022   -0.0092   -0.0080   -0.0035   -0.0121
          22   -0.0231   -0.0105    0.0299    0.0008    0.0054   -0.0158   -0.0042   -0.0140
          23   -0.0087   -0.0054    0.0156    0.0266    0.0337   -0.0213    0.0147    0.0103
          24    0.0037   -0.0160   -0.0154    0.0023   -0.0092    0.0080   -0.0035    0.0121
          25    0.0124   -0.0022    0.0192    0.0036    0.0036    0.0133   -0.0041    0.0046
          26   -0.0146    0.0126   -0.0135    0.0011    0.0048    0.0036    0.0023   -0.0071
          27    0.0264   -0.0358    0.0211   -0.0243    0.0145    0.0126    0.0034   -0.0022
          28   -0.0124   -0.0022    0.0192   -0.0036    0.0036   -0.0133   -0.0041   -0.0045
          29    0.0145    0.0127   -0.0135   -0.0012    0.0048   -0.0036    0.0023    0.0071
          30   -0.0264   -0.0358    0.0211    0.0241    0.0147   -0.0126    0.0034    0.0022
          31    0.0077   -0.0023   -0.0124   -0.0174    0.0115   -0.0393   -0.0241    0.0317
          32    0.0163   -0.0226   -0.0013   -0.0280   -0.0333   -0.0062   -0.0294   -0.0274
          33   -0.0185    0.0338    0.0083    0.0134    0.0212    0.0239   -0.0270    0.0082
          34   -0.0077   -0.0023   -0.0123    0.0173    0.0117    0.0393   -0.0241   -0.0317
          35   -0.0163   -0.0227   -0.0013    0.0283   -0.0331    0.0062   -0.0294    0.0274
          36    0.0184    0.0338    0.0083   -0.0136    0.0211   -0.0240   -0.0270   -0.0082
          37   -0.0154   -0.0273   -0.0200    0.0059   -0.0161   -0.0462   -0.0538   -0.0348
          38    0.0050    0.0028    0.0142   -0.0076   -0.0212   -0.0484   -0.0026    0.0361
          39   -0.0122   -0.0269   -0.0264   -0.0065   -0.0126   -0.0258    0.0185   -0.0038
          40    0.0155   -0.0273   -0.0200   -0.0058   -0.0161    0.0462   -0.0538    0.0349
          41   -0.0050    0.0028    0.0142    0.0078   -0.0212    0.0485   -0.0026   -0.0362
          42    0.0122   -0.0269   -0.0264    0.0066   -0.0125    0.0258    0.0185    0.0038
          43    0.0130    0.0393    0.0006    0.0305   -0.0159   -0.0331    0.0491   -0.0471
          44    0.0390    0.0265    0.0261    0.0507   -0.0540   -0.0206    0.0535   -0.0743
          45    0.0343    0.0123   -0.0158   -0.0009   -0.0049   -0.0564    0.0661   -0.0351
          46   -0.0829    0.0444   -0.0359   -0.0072    0.0613    0.0375   -0.0720    0.0827
          47   -0.0206    0.0068   -0.0239   -0.0111    0.0160    0.0119   -0.0121    0.0210
          48   -0.0048    0.0359    0.0133    0.0295   -0.0019   -0.0062   -0.0061    0.0046
          49   -0.0130    0.0393    0.0006   -0.0303   -0.0162    0.0331    0.0491    0.0471
          50   -0.0389    0.0265    0.0261   -0.0501   -0.0545    0.0206    0.0535    0.0743
          51   -0.0343    0.0123   -0.0158    0.0010   -0.0049    0.0564    0.0662    0.0351
          52    0.0828    0.0444   -0.0359    0.0066    0.0614   -0.0375   -0.0721   -0.0827
          53    0.0206    0.0068   -0.0239    0.0109    0.0161   -0.0119   -0.0121   -0.0210
          54    0.0048    0.0359    0.0133   -0.0294   -0.0021    0.0062   -0.0061   -0.0046
          55   -0.0449   -0.0413   -0.0529   -0.0510    0.0449    0.0125    0.0595   -0.0885
          56    0.0705    0.0424    0.0976    0.0419   -0.0088    0.0401   -0.0563    0.0888
          57    0.0149    0.0495    0.0261    0.0779   -0.0382    0.0363   -0.0579    0.0335
          58   -0.0559   -0.0627   -0.0797   -0.0893    0.0595    0.0328   -0.0393   -0.0032
          59    0.0497    0.0298    0.0627    0.1032   -0.1077   -0.0335   -0.0039   -0.0023
          60    0.0731   -0.0087    0.0826    0.0444   -0.0448   -0.0071    0.0134    0.0020
          61    0.0449   -0.0413   -0.0530    0.0505    0.0455   -0.0125    0.0595    0.0884
          62   -0.0704    0.0424    0.0977   -0.0417   -0.0093   -0.0401   -0.0563   -0.0887
          63   -0.0149    0.0495    0.0262   -0.0775   -0.0390   -0.0362   -0.0579   -0.0335
          64    0.0559   -0.0627   -0.0799    0.0885    0.0603   -0.0327   -0.0393    0.0031
          65   -0.0496    0.0298    0.0628   -0.1021   -0.1087    0.0335   -0.0040    0.0023
          66   -0.0730   -0.0087    0.0827   -0.0439   -0.0452    0.0071    0.0134   -0.0019


   Root No.      17        18        19        20        21        22        23        24

                17 A      18 A      19 A      20 A      21 A      22 A      23 A      24 A   

                 934.8     962.6     964.8     975.7    1007.3    1026.2    1039.1    1043.8
  
           1    0.0181    0.0043   -0.0147   -0.0090   -0.0100   -0.0065    0.0046   -0.0028
           2    0.0213   -0.0150   -0.0200    0.0040    0.0004    0.0098   -0.0065    0.0095
           3   -0.0108   -0.0027    0.0137    0.0062    0.0146   -0.0151    0.0076    0.0025
           4    0.0181   -0.0043    0.0147   -0.0089   -0.0100    0.0065    0.0046    0.0029
           5    0.0213    0.0150    0.0200    0.0041    0.0004   -0.0098   -0.0064   -0.0096
           6   -0.0108    0.0027   -0.0137    0.0061    0.0145    0.0151    0.0076   -0.0024
           7   -0.0192    0.0150    0.0175    0.0069    0.0034    0.0046   -0.0050   -0.0074
           8   -0.0194   -0.0119    0.0131   -0.0119   -0.0066   -0.0115    0.0110    0.0069
           9   -0.0106   -0.0068    0.0086   -0.0104   -0.0090    0.0074   -0.0062    0.0046
          10   -0.0191   -0.0150   -0.0175    0.0069    0.0034   -0.0046   -0.0051    0.0074
          11   -0.0194    0.0119   -0.0131   -0.0118   -0.0066    0.0115    0.0111   -0.0068
          12   -0.0106    0.0068   -0.0086   -0.0104   -0.0090   -0.0074   -0.0061   -0.0046
          13   -0.0036    0.0140    0.0008   -0.0020    0.0100    0.0176   -0.0127    0.0040
          14   -0.0081   -0.0008    0.0073   -0.0024   -0.0177    0.0120   -0.0118   -0.0091
          15    0.0050    0.0024   -0.0082   -0.0009   -0.0127    0.0096   -0.0011   -0.0064
          16   -0.0036   -0.0139   -0.0008   -0.0020    0.0100   -0.0176   -0.0127   -0.0042
          17   -0.0081    0.0008   -0.0073   -0.0024   -0.0177   -0.0120   -0.0118    0.0090
          18    0.0049   -0.0024    0.0082   -0.0009   -0.0127   -0.0096   -0.0012    0.0064
          19    0.0043    0.0049   -0.0022   -0.0134    0.0035    0.0014   -0.0036    0.0092
          20    0.0007   -0.0216    0.0045    0.0155   -0.0055    0.0009    0.0041   -0.0061
          21    0.0043   -0.0002   -0.0066    0.0105   -0.0003   -0.0061    0.0062   -0.0057
          22    0.0043   -0.0049    0.0022   -0.0134    0.0035   -0.0014   -0.0036   -0.0092
          23    0.0007    0.0216   -0.0045    0.0156   -0.0055   -0.0009    0.0041    0.0062
          24    0.0043    0.0002    0.0066    0.0105   -0.0003    0.0061    0.0062    0.0057
          25    0.0033   -0.0128    0.0002    0.0074   -0.0135   -0.0069    0.0091   -0.0152
          26    0.0016    0.0124   -0.0072   -0.0043    0.0189   -0.0062    0.0043    0.0175
          27    0.0002    0.0057    0.0049   -0.0062    0.0114    0.0075   -0.0137    0.0136
          28    0.0033    0.0128   -0.0002    0.0074   -0.0135    0.0069    0.0090    0.0152
          29    0.0016   -0.0124    0.0072   -0.0043    0.0189    0.0062    0.0044   -0.0174
          30    0.0002   -0.0057   -0.0049   -0.0062    0.0114   -0.0075   -0.0136   -0.0137
          31    0.0484   -0.0076   -0.0451    0.0142   -0.0018   -0.0550    0.0424   -0.0181
          32    0.1365   -0.0097   -0.0958    0.0321    0.0611    0.0067   -0.0714   -0.0264
          33    0.0169   -0.0108   -0.0126    0.0234    0.0215   -0.0516    0.0349   -0.0108
          34    0.0484    0.0075    0.0451    0.0143   -0.0018    0.0551    0.0423    0.0184
          35    0.1364    0.0097    0.0959    0.0323    0.0611   -0.0067   -0.0715    0.0256
          36    0.0169    0.0108    0.0126    0.0234    0.0215    0.0516    0.0349    0.0110
          37   -0.1134    0.0323    0.0841    0.0688    0.0451   -0.0567   -0.0090   -0.0128
          38   -0.0396   -0.0006    0.0317   -0.0161    0.0536   -0.0755    0.0598    0.0495
          39    0.0104   -0.0164   -0.0095   -0.0078   -0.0584    0.0609   -0.0457   -0.0299
          40   -0.1133   -0.0324   -0.0843    0.0687    0.0451    0.0567   -0.0092    0.0127
          41   -0.0396    0.0006   -0.0317   -0.0161    0.0537    0.0755    0.0601   -0.0492
          42    0.0104    0.0164    0.0096   -0.0078   -0.0584   -0.0610   -0.0459    0.0297
          43   -0.0040    0.0237   -0.0004   -0.0038    0.0278    0.0176   -0.0144    0.0091
          44   -0.0311   -0.0146    0.0348    0.0371    0.0543    0.0304   -0.0618    0.0674
          45    0.0332    0.0799   -0.0524   -0.0655    0.0037   -0.0130    0.0550   -0.0747
          46   -0.0070   -0.0113    0.0053    0.0007   -0.0631    0.0268   -0.0176   -0.0256
          47   -0.0221    0.0417    0.0308   -0.0466   -0.0216    0.0063   -0.0076   -0.0779
          48    0.0251   -0.0591   -0.0434    0.0643   -0.0054    0.0177   -0.0082    0.0949
          49   -0.0039   -0.0236    0.0004   -0.0038    0.0278   -0.0176   -0.0143   -0.0093
          50   -0.0310    0.0147   -0.0349    0.0371    0.0543   -0.0304   -0.0612   -0.0678
          51    0.0331   -0.0799    0.0526   -0.0655    0.0038    0.0131    0.0544    0.0751
          52   -0.0071    0.0113   -0.0052    0.0006   -0.0631   -0.0268   -0.0177    0.0255
          53   -0.0221   -0.0417   -0.0307   -0.0467   -0.0215   -0.0062   -0.0082    0.0775
          54    0.0251    0.0591    0.0433    0.0644   -0.0055   -0.0178   -0.0075   -0.0945
          55    0.0336   -0.0515   -0.0329    0.0715   -0.0062   -0.0271    0.0431   -0.0219
          56   -0.0047    0.0439    0.0043   -0.0674    0.0141    0.0098   -0.0168    0.0269
          57    0.0558    0.0565   -0.0766   -0.0306    0.0314   -0.0413    0.0489    0.0155
          58    0.0064    0.0698   -0.0193   -0.0316    0.0781   -0.0752    0.0478    0.0539
          59    0.0069   -0.0682   -0.0048    0.0482   -0.0370   -0.0885    0.0822   -0.0348
          60    0.0019   -0.0514    0.0116    0.0261   -0.0401    0.0015    0.0010   -0.0288
          61    0.0336    0.0514    0.0328    0.0716   -0.0062    0.0271    0.0429    0.0223
          62   -0.0048   -0.0438   -0.0042   -0.0674    0.0141   -0.0098   -0.0166   -0.0270
          63    0.0557   -0.0565    0.0767   -0.0305    0.0315    0.0413    0.0490   -0.0150
          64    0.0063   -0.0698    0.0193   -0.0316    0.0781    0.0752    0.0481   -0.0535
          65    0.0069    0.0681    0.0046    0.0482   -0.0370    0.0885    0.0819    0.0355
          66    0.0019    0.0514   -0.0116    0.0261   -0.0401   -0.0015    0.0008    0.0287


   Root No.      25        26        27        28        29        30        31        32

                25 A      26 A      27 A      28 A      29 A      30 A      31 A      32 A   

                1058.7    1076.9    1078.1    1094.1    1101.4    1101.7    1134.1    1135.3
  
           1   -0.0002    0.0015   -0.0114   -0.0022    0.0095    0.0010    0.0074    0.0016
           2    0.0071   -0.0048    0.0026    0.0055    0.0050    0.0168   -0.0236   -0.0059
           3   -0.0138    0.0111   -0.0080    0.0144   -0.0070    0.0115   -0.0043    0.0145
           4   -0.0002   -0.0017   -0.0114    0.0023    0.0094   -0.0018   -0.0074    0.0017
           5    0.0071    0.0049    0.0026   -0.0055    0.0039   -0.0171    0.0236   -0.0059
           6   -0.0137   -0.0112   -0.0079   -0.0145   -0.0077   -0.0109    0.0043    0.0145
           7   -0.0006   -0.0066   -0.0019   -0.0065   -0.0034   -0.0254    0.0249    0.0046
           8    0.0049    0.0049   -0.0008    0.0020    0.0032    0.0074   -0.0013    0.0077
           9    0.0042   -0.0010    0.0022    0.0104   -0.0060    0.0112   -0.0001    0.0116
          10   -0.0006    0.0066   -0.0020    0.0065   -0.0016    0.0256   -0.0249    0.0046
          11    0.0050   -0.0049   -0.0007   -0.0020    0.0026   -0.0076    0.0013    0.0077
          12    0.0042    0.0010    0.0021   -0.0104   -0.0067   -0.0106    0.0001    0.0116
          13   -0.0019    0.0074    0.0018   -0.0034    0.0015   -0.0056   -0.0045   -0.0110
          14   -0.0070    0.0062   -0.0019   -0.0114    0.0058   -0.0083   -0.0017   -0.0096
          15    0.0071   -0.0068    0.0070   -0.0089   -0.0009   -0.0146   -0.0021   -0.0134
          16   -0.0019   -0.0074    0.0019    0.0034    0.0019    0.0055    0.0045   -0.0110
          17   -0.0071   -0.0062   -0.0019    0.0115    0.0064    0.0078    0.0017   -0.0096
          18    0.0071    0.0069    0.0070    0.0089    0.0001    0.0146    0.0021   -0.0134
          19    0.0114   -0.0048    0.0028    0.0108   -0.0037    0.0115    0.0005    0.0073
          20   -0.0044   -0.0114    0.0034    0.0023   -0.0043    0.0052   -0.0007    0.0063
          21   -0.0072    0.0053   -0.0017   -0.0151    0.0082   -0.0120   -0.0022   -0.0109
          22    0.0114    0.0048    0.0027   -0.0108   -0.0044   -0.0112   -0.0005    0.0073
          23   -0.0044    0.0115    0.0033   -0.0023   -0.0046   -0.0048    0.0007    0.0063
          24   -0.0072   -0.0054   -0.0016    0.0151    0.0090    0.0112    0.0022   -0.0109
          25   -0.0090   -0.0030    0.0044   -0.0024   -0.0026   -0.0029   -0.0041   -0.0033
          26    0.0174   -0.0067   -0.0011    0.0102   -0.0077    0.0007    0.0076    0.0093
          27   -0.0035    0.0121   -0.0084   -0.0048    0.0093    0.0038   -0.0089   -0.0099
          28   -0.0091    0.0030    0.0044    0.0024   -0.0024    0.0031    0.0041   -0.0034
          29    0.0175    0.0067   -0.0012   -0.0103   -0.0077   -0.0000   -0.0076    0.0093
          30   -0.0034   -0.0122   -0.0082    0.0048    0.0090   -0.0046    0.0089   -0.0099
          31   -0.0344    0.0409   -0.0387    0.0207    0.0000    0.0117    0.1071    0.0807
          32   -0.0754    0.1022    0.0464   -0.0062   -0.0444    0.0157   -0.0080   -0.0107
          33   -0.0418    0.0436   -0.0270    0.0321   -0.0167    0.0191    0.0714    0.0750
          34   -0.0344   -0.0413   -0.0382   -0.0208   -0.0008   -0.0117   -0.1070    0.0808
          35   -0.0755   -0.1018    0.0475    0.0061   -0.0454   -0.0117    0.0080   -0.0107
          36   -0.0417   -0.0439   -0.0266   -0.0321   -0.0180   -0.0175   -0.0713    0.0751
          37    0.0148   -0.0696    0.1106   -0.0019   -0.0258    0.0691    0.0020   -0.0000
          38   -0.0378    0.0228   -0.0074   -0.0970    0.0700   -0.0034   -0.0575   -0.0591
          39    0.0379   -0.0136    0.0045    0.0905   -0.0597    0.0172    0.0472    0.0675
          40    0.0148    0.0709    0.1099    0.0018   -0.0304   -0.0665   -0.0021    0.0001
          41   -0.0375   -0.0230   -0.0071    0.0972    0.0699   -0.0028    0.0575   -0.0591
          42    0.0378    0.0138    0.0043   -0.0906   -0.0606   -0.0119   -0.0471    0.0675
          43   -0.0063    0.0144    0.0033    0.0011   -0.0010   -0.0006   -0.0086   -0.0097
          44   -0.0095    0.0650   -0.0519   -0.0212    0.0389    0.0114    0.0288    0.0145
          45   -0.0109   -0.0513    0.0897    0.0342   -0.0624   -0.0043   -0.0743   -0.0369
          46   -0.0042    0.0076   -0.0072   -0.0366    0.0151   -0.0405    0.0081   -0.0308
          47   -0.0969    0.0468    0.0227   -0.0129    0.0134    0.0349   -0.0222    0.0054
          48    0.1375   -0.0635   -0.0290   -0.0075   -0.0127   -0.0785    0.0260   -0.0361
          49   -0.0063   -0.0144    0.0034   -0.0011   -0.0010    0.0007    0.0085   -0.0097
          50   -0.0092   -0.0656   -0.0513    0.0212    0.0379   -0.0147   -0.0288    0.0146
          51   -0.0112    0.0523    0.0892   -0.0344   -0.0618    0.0098    0.0742   -0.0370
          52   -0.0043   -0.0077   -0.0071    0.0366    0.0178    0.0390   -0.0081   -0.0307
          53   -0.0971   -0.0466    0.0232    0.0129    0.0109   -0.0360    0.0222    0.0054
          54    0.1378    0.0633   -0.0297    0.0075   -0.0072    0.0794   -0.0260   -0.0360
          55    0.0116   -0.0412    0.0410   -0.0552    0.0551    0.0329    0.0299    0.0277
          56    0.0201   -0.0011   -0.0028    0.0332   -0.0192    0.0182   -0.0068    0.0103
          57    0.0593   -0.0437    0.0651   -0.0782    0.0997    0.0711    0.0450    0.0427
          58    0.0218    0.0199   -0.0573    0.0570   -0.0685   -0.0795   -0.0394   -0.0583
          59   -0.0158    0.0042   -0.0338    0.0453   -0.0741   -0.0853   -0.0386   -0.0530
          60   -0.0258    0.0082    0.0013   -0.0136    0.0089   -0.0011   -0.0143   -0.0149
          61    0.0115    0.0416    0.0406    0.0552    0.0527   -0.0376   -0.0299    0.0277
          62    0.0202    0.0010   -0.0028   -0.0332   -0.0204   -0.0165    0.0068    0.0103
          63    0.0593    0.0444    0.0646    0.0782    0.0944   -0.0797   -0.0450    0.0429
          64    0.0222   -0.0205   -0.0571   -0.0571   -0.0629    0.0853    0.0394   -0.0584
          65   -0.0158   -0.0044   -0.0337   -0.0454   -0.0680    0.0916    0.0386   -0.0531
          66   -0.0260   -0.0082    0.0015    0.0136    0.0090    0.0004    0.0143   -0.0149


   Root No.      33        34        35        36        37        38        39        40

                33 A      34 A      35 A      36 A      37 A      38 A      39 A      40 A   

                1168.9    1200.8    1202.4    1227.0    1230.5    1238.0    1263.9    1330.6
  
           1   -0.0236    0.0015    0.0127   -0.0050   -0.0117    0.0045    0.0452    0.0412
           2   -0.0215   -0.0160   -0.0236    0.0236   -0.0094    0.0351   -0.0031   -0.0097
           3    0.0138    0.0165   -0.0109    0.0173   -0.0090    0.0132    0.0161    0.0310
           4    0.0236    0.0013   -0.0128   -0.0050    0.0117    0.0044    0.0452   -0.0412
           5    0.0215   -0.0156    0.0238    0.0235    0.0095    0.0352   -0.0030    0.0097
           6   -0.0138    0.0167    0.0106    0.0173    0.0091    0.0132    0.0161   -0.0310
           7    0.0181    0.0307   -0.0210    0.0181   -0.0112   -0.0047   -0.0363    0.0023
           8    0.0261   -0.0071    0.0081   -0.0054   -0.0147   -0.0294   -0.0124    0.0019
           9    0.0206    0.0122   -0.0036   -0.0162    0.0074   -0.0001    0.0157   -0.0194
          10   -0.0181    0.0311    0.0206    0.0180    0.0112   -0.0047   -0.0363   -0.0023
          11   -0.0261   -0.0072   -0.0079   -0.0054    0.0146   -0.0294   -0.0124   -0.0019
          12   -0.0206    0.0123    0.0034   -0.0162   -0.0074   -0.0001    0.0157    0.0194
          13   -0.0045   -0.0150   -0.0008    0.0021    0.0015   -0.0033   -0.0146   -0.0077
          14   -0.0071   -0.0013    0.0057   -0.0065    0.0045    0.0039   -0.0053    0.0216
          15    0.0026   -0.0031    0.0134    0.0030   -0.0064   -0.0242    0.0019   -0.0307
          16    0.0045   -0.0150    0.0010    0.0021   -0.0015   -0.0033   -0.0146    0.0077
          17    0.0071   -0.0014   -0.0057   -0.0065   -0.0045    0.0039   -0.0053   -0.0216
          18   -0.0026   -0.0033   -0.0134    0.0030    0.0064   -0.0242    0.0019    0.0307
          19    0.0044    0.0011    0.0011   -0.0063    0.0054    0.0055    0.0050    0.0028
          20    0.0027    0.0138   -0.0052    0.0021   -0.0001    0.0042    0.0160   -0.0097
          21   -0.0053   -0.0023   -0.0047   -0.0082    0.0110    0.0087   -0.0223    0.0160
          22   -0.0044    0.0011   -0.0011   -0.0063   -0.0054    0.0055    0.0050   -0.0028
          23   -0.0027    0.0139    0.0050    0.0021    0.0001    0.0042    0.0160    0.0097
          24    0.0053   -0.0023    0.0047   -0.0082   -0.0110    0.0087   -0.0223   -0.0160
          25    0.0004    0.0045   -0.0023   -0.0076    0.0098    0.0073   -0.0026    0.0060
          26    0.0129    0.0094   -0.0028   -0.0110    0.0115    0.0031   -0.0039    0.0000
          27   -0.0169   -0.0148    0.0031    0.0033   -0.0033    0.0042    0.0026    0.0068
          28   -0.0004    0.0045    0.0022   -0.0075   -0.0098    0.0073   -0.0026   -0.0060
          29   -0.0129    0.0094    0.0027   -0.0110   -0.0115    0.0031   -0.0039   -0.0000
          30    0.0169   -0.0149   -0.0028    0.0033    0.0033    0.0042    0.0026   -0.0069
          31   -0.0810   -0.0976   -0.0447   -0.0685    0.0481    0.0029   -0.0578   -0.0560
          32    0.1133    0.0551    0.1027   -0.0500    0.0440   -0.0926    0.0094   -0.0055
          33   -0.0252   -0.0577   -0.0527   -0.0331    0.0381    0.0089   -0.0597   -0.0438
          34    0.0809   -0.0969    0.0463   -0.0684   -0.0482    0.0031   -0.0578    0.0560
          35   -0.1132    0.0535   -0.1035   -0.0499   -0.0441   -0.0927    0.0094    0.0055
          36    0.0251   -0.0569    0.0537   -0.0331   -0.0381    0.0091   -0.0597    0.0438
          37   -0.0686   -0.0906    0.1311   -0.0330    0.0548    0.0115    0.0918   -0.0334
          38    0.0375    0.0469   -0.0490   -0.0743    0.0411    0.0073    0.0121   -0.0284
          39    0.0150   -0.0285    0.0396    0.0423   -0.0399   -0.0281   -0.0077    0.0064
          40    0.0685   -0.0928   -0.1296   -0.0329   -0.0549    0.0114    0.0917    0.0334
          41   -0.0374    0.0477    0.0481   -0.0742   -0.0412    0.0073    0.0121    0.0284
          42   -0.0151   -0.0291   -0.0390    0.0422    0.0399   -0.0282   -0.0077   -0.0064
          43   -0.0089   -0.0294   -0.0083    0.0075    0.0002   -0.0036   -0.0241   -0.0292
          44   -0.0394   -0.0470    0.0167    0.0219   -0.0335   -0.0476    0.0123   -0.0726
          45    0.0320   -0.0113   -0.0487   -0.0013    0.0389    0.0533   -0.0744   -0.0092
          46   -0.0287   -0.0316    0.0286   -0.0087   -0.0044   -0.0382   -0.0152   -0.0541
          47   -0.0152   -0.0187   -0.0063    0.0383   -0.0317   -0.0189    0.0148   -0.0329
          48    0.0126    0.0184    0.0307   -0.0608    0.0453    0.0074   -0.0281    0.0431
          49    0.0089   -0.0292    0.0088    0.0075   -0.0002   -0.0036   -0.0241    0.0291
          50    0.0394   -0.0473   -0.0158    0.0218    0.0335   -0.0476    0.0123    0.0726
          51   -0.0321   -0.0105    0.0488   -0.0012   -0.0389    0.0534   -0.0744    0.0091
          52    0.0287   -0.0320   -0.0280   -0.0087    0.0043   -0.0382   -0.0152    0.0541
          53    0.0151   -0.0186    0.0066    0.0382    0.0318   -0.0189    0.0148    0.0329
          54   -0.0126    0.0179   -0.0311   -0.0607   -0.0454    0.0074   -0.0281   -0.0431
          55    0.0210    0.0149   -0.0035    0.0394   -0.0456   -0.0311    0.0114   -0.0188
          56    0.0069    0.0024    0.0041   -0.0105    0.0079    0.0064    0.0200   -0.0053
          57    0.0381   -0.0086    0.0123    0.0592   -0.0803   -0.0657    0.0003   -0.0174
          58   -0.0309   -0.0383    0.0320    0.0484   -0.0529   -0.0512    0.0333   -0.0437
          59   -0.0150   -0.0247    0.0324    0.0418   -0.0490   -0.0553    0.0340   -0.0467
          60   -0.0174   -0.0138    0.0043    0.0030   -0.0033    0.0036    0.0032    0.0076
          61   -0.0210    0.0149    0.0033    0.0394    0.0457   -0.0311    0.0114    0.0188
          62   -0.0070    0.0024   -0.0042   -0.0105   -0.0080    0.0064    0.0200    0.0053
          63   -0.0381   -0.0089   -0.0121    0.0591    0.0805   -0.0658    0.0003    0.0174
          64    0.0309   -0.0389   -0.0313    0.0483    0.0530   -0.0513    0.0333    0.0437
          65    0.0150   -0.0252   -0.0319    0.0417    0.0491   -0.0553    0.0340    0.0467
          66    0.0174   -0.0139   -0.0041    0.0030    0.0033    0.0036    0.0032   -0.0077


   Root No.      41        42        43        44        45        46        47        48

                41 A      42 A      43 A      44 A      45 A      46 A      47 A      48 A   

                1354.4    1362.5    1394.2    1405.3    1419.0    1420.5    1819.8    1820.2
  
           1    0.0200   -0.0054   -0.0053   -0.0090   -0.0340   -0.0166    0.0009    0.0007
           2    0.0050    0.0195    0.0077   -0.0013    0.0126    0.0090    0.0018    0.0042
           3   -0.0001   -0.0179   -0.0089   -0.0069   -0.0144   -0.0218   -0.0021   -0.0034
           4   -0.0200   -0.0053   -0.0053    0.0090    0.0341   -0.0164    0.0009   -0.0007
           5   -0.0050    0.0195    0.0078    0.0013   -0.0126    0.0089    0.0019   -0.0041
           6    0.0000   -0.0179   -0.0089    0.0069    0.0146   -0.0217   -0.0022    0.0033
           7    0.0017    0.0004    0.0082    0.0002   -0.0112    0.0110    0.0052    0.0049
           8   -0.0153   -0.0080   -0.0171   -0.0093    0.0572   -0.0223   -0.0006   -0.0003
           9    0.0032    0.0017    0.0231    0.0100   -0.0444    0.0346    0.0089    0.0087
          10   -0.0017    0.0004    0.0082   -0.0002    0.0111    0.0111    0.0053   -0.0048
          11    0.0153   -0.0081   -0.0171    0.0093   -0.0570   -0.0226   -0.0006    0.0003
          12   -0.0031    0.0017    0.0231   -0.0100    0.0441    0.0348    0.0091   -0.0085
          13   -0.0061   -0.0025   -0.0212    0.0274    0.0139    0.0188   -0.0077   -0.0075
          14   -0.0252   -0.0360   -0.0182    0.0208    0.0004    0.0104   -0.0063   -0.0068
          15    0.0329    0.0459   -0.0023    0.0045    0.0134    0.0083   -0.0012   -0.0008
          16    0.0060   -0.0025   -0.0212   -0.0274   -0.0141    0.0187   -0.0079    0.0073
          17    0.0250   -0.0361   -0.0182   -0.0208   -0.0005    0.0104   -0.0065    0.0066
          18   -0.0327    0.0461   -0.0023   -0.0045   -0.0134    0.0082   -0.0012    0.0007
          19    0.0035    0.0040    0.0024   -0.0050   -0.0012   -0.0035   -0.0881   -0.0893
          20   -0.0016   -0.0072    0.0125    0.0063   -0.0283    0.0152   -0.0347   -0.0351
          21    0.0111    0.0164   -0.0119   -0.0145    0.0332   -0.0252   -0.0719   -0.0728
          22   -0.0035    0.0040    0.0024    0.0050    0.0012   -0.0035   -0.0901    0.0873
          23    0.0016   -0.0072    0.0125   -0.0063    0.0282    0.0154   -0.0354    0.0344
          24   -0.0111    0.0164   -0.0119    0.0145   -0.0330   -0.0253   -0.0735    0.0712
          25    0.0112    0.0130   -0.0021   -0.0087    0.0091   -0.0119    0.0934    0.0946
          26    0.0230    0.0283    0.0008   -0.0142    0.0117   -0.0148    0.0521    0.0528
          27   -0.0195   -0.0231   -0.0048    0.0086   -0.0018    0.0047    0.0532    0.0539
          28   -0.0112    0.0131   -0.0021    0.0087   -0.0090   -0.0120    0.0955   -0.0925
          29   -0.0229    0.0284    0.0008    0.0143   -0.0116   -0.0149    0.0533   -0.0516
          30    0.0195   -0.0232   -0.0048   -0.0086    0.0017    0.0047    0.0543   -0.0527
          31   -0.0281    0.0036    0.0148    0.0257    0.0227    0.0564    0.0014    0.0019
          32   -0.0062   -0.0311   -0.0122    0.0095   -0.0465   -0.0153   -0.0000    0.0012
          33   -0.0368   -0.0124    0.0059    0.0197    0.0268    0.0324   -0.0023   -0.0044
          34    0.0281    0.0035    0.0148   -0.0257   -0.0232    0.0562    0.0015   -0.0019
          35    0.0060   -0.0312   -0.0122   -0.0095    0.0466   -0.0151   -0.0000   -0.0012
          36    0.0368   -0.0126    0.0059   -0.0198   -0.0270    0.0323   -0.0024    0.0043
          37   -0.0108    0.0020   -0.0129    0.0038    0.0131   -0.0115   -0.0038   -0.0034
          38    0.0160    0.0135    0.0387    0.0124   -0.0547    0.0482   -0.0124   -0.0132
          39   -0.0221   -0.0149   -0.0209   -0.0087    0.0455   -0.0206    0.0165    0.0171
          40    0.0108    0.0020   -0.0129   -0.0038   -0.0130   -0.0116   -0.0039    0.0033
          41   -0.0159    0.0135    0.0386   -0.0124    0.0542    0.0484   -0.0127    0.0130
          42    0.0220   -0.0150   -0.0208    0.0087   -0.0453   -0.0208    0.0169   -0.0167
          43   -0.0299   -0.0145    0.0370   -0.0281   -0.0054   -0.0110   -0.0048   -0.0043
          44   -0.0105    0.0197    0.1253   -0.1162   -0.0404   -0.0551   -0.0127   -0.0127
          45   -0.1056   -0.0880    0.0830   -0.0742   -0.0201   -0.0427    0.0116    0.0120
          46   -0.0689   -0.0436    0.1566   -0.1453   -0.0580   -0.0746   -0.0052   -0.0048
          47    0.0358    0.0465   -0.0013    0.0059    0.0077    0.0102   -0.0127   -0.0130
          48   -0.0641   -0.0794   -0.0047    0.0039   -0.0053   -0.0043    0.0124    0.0124
          49    0.0299   -0.0147    0.0370    0.0281    0.0055   -0.0110   -0.0049    0.0042
          50    0.0106    0.0195    0.1253    0.1162    0.0409   -0.0548   -0.0130    0.0124
          51    0.1053   -0.0886    0.0830    0.0742    0.0205   -0.0425    0.0118   -0.0117
          52    0.0687   -0.0441    0.1566    0.1453    0.0587   -0.0742   -0.0053    0.0047
          53   -0.0356    0.0467   -0.0013   -0.0059   -0.0077    0.0102   -0.0130    0.0127
          54    0.0638   -0.0797   -0.0047   -0.0039    0.0053   -0.0042    0.0127   -0.0121
          55   -0.0296   -0.0371    0.0127    0.0178   -0.0303    0.0275   -0.0352   -0.0358
          56    0.0029    0.0005    0.0100    0.0005   -0.0203    0.0084   -0.0640   -0.0649
          57   -0.0514   -0.0543   -0.0005    0.0219   -0.0029    0.0236    0.0452    0.0459
          58   -0.0233   -0.0249    0.0066    0.0321   -0.0292    0.0398    0.0042    0.0044
          59   -0.0093   -0.0080    0.0095    0.0238   -0.0250    0.0342   -0.0455   -0.0460
          60   -0.0202   -0.0237   -0.0059    0.0087    0.0002    0.0042    0.0739    0.0749
          61    0.0295   -0.0373    0.0127   -0.0178    0.0300    0.0277   -0.0360    0.0350
          62   -0.0029    0.0005    0.0100   -0.0005    0.0202    0.0085   -0.0655    0.0635
          63    0.0512   -0.0546   -0.0005   -0.0219    0.0027    0.0236    0.0462   -0.0449
          64    0.0232   -0.0250    0.0066   -0.0322    0.0289    0.0399    0.0043   -0.0044
          65    0.0093   -0.0080    0.0095   -0.0239    0.0247    0.0343   -0.0465    0.0450
          66    0.0201   -0.0238   -0.0059   -0.0088   -0.0002    0.0042    0.0755   -0.0733


   Root No.      49        50        51        52        53        54        55        56

                49 A      50 A      51 A      52 A      53 A      54 A      55 A      56 A   

                2972.8    2973.0    2992.4    2995.7    3007.5    3008.9    3050.2    3050.3
  
           1    0.0022   -0.0020   -0.0054    0.0007   -0.0188    0.0146   -0.0013   -0.0005
           2    0.0002   -0.0002   -0.0008   -0.0000   -0.0008    0.0004   -0.0000    0.0000
           3   -0.0030    0.0025    0.0071   -0.0006    0.0242   -0.0201    0.0009    0.0005
           4    0.0022    0.0021   -0.0054   -0.0010    0.0198    0.0137    0.0006   -0.0013
           5    0.0002    0.0002   -0.0008   -0.0000    0.0008    0.0004    0.0000   -0.0000
           6   -0.0029   -0.0026    0.0071    0.0012   -0.0255   -0.0189   -0.0004    0.0010
           7    0.0002    0.0002   -0.0009    0.0010    0.0000    0.0003    0.0002    0.0001
           8    0.0013    0.0008   -0.0147    0.0213    0.0001   -0.0057   -0.0000    0.0008
           9    0.0018    0.0013   -0.0189    0.0258    0.0004   -0.0076    0.0000    0.0011
          10    0.0002   -0.0002   -0.0009   -0.0010   -0.0000    0.0003   -0.0000    0.0002
          11    0.0013   -0.0008   -0.0140   -0.0221   -0.0005   -0.0058    0.0006    0.0006
          12    0.0019   -0.0012   -0.0181   -0.0268   -0.0009   -0.0077    0.0008    0.0008
          13   -0.0155    0.0155   -0.0026   -0.0018   -0.0017    0.0008   -0.0234   -0.0099
          14    0.0176   -0.0176    0.0025    0.0008    0.0034   -0.0027   -0.0132   -0.0055
          15    0.0121   -0.0121    0.0019    0.0007    0.0026   -0.0020   -0.0086   -0.0036
          16   -0.0149   -0.0161   -0.0026    0.0017    0.0017    0.0008    0.0100   -0.0231
          17    0.0169    0.0183    0.0025   -0.0007   -0.0036   -0.0025    0.0057   -0.0129
          18    0.0117    0.0126    0.0019   -0.0006   -0.0027   -0.0019    0.0037   -0.0085
          19   -0.0001    0.0001    0.0001   -0.0003    0.0001    0.0002   -0.0000   -0.0000
          20    0.0000   -0.0001    0.0003   -0.0003   -0.0001   -0.0000   -0.0001   -0.0001
          21    0.0001   -0.0001   -0.0002    0.0003    0.0000    0.0000    0.0002    0.0001
          22   -0.0001   -0.0001    0.0001    0.0003   -0.0001    0.0002    0.0000   -0.0001
          23    0.0000    0.0001    0.0003    0.0004    0.0001   -0.0000    0.0000   -0.0002
          24    0.0001    0.0001   -0.0002   -0.0003   -0.0000    0.0000   -0.0001    0.0002
          25   -0.0000    0.0000    0.0001   -0.0002    0.0000    0.0000    0.0001    0.0000
          26    0.0000   -0.0000    0.0000    0.0000    0.0001   -0.0001   -0.0007   -0.0003
          27    0.0000   -0.0000    0.0000    0.0000   -0.0000    0.0000    0.0011    0.0005
          28   -0.0000   -0.0000    0.0001    0.0002   -0.0000    0.0000   -0.0000    0.0001
          29    0.0000    0.0000    0.0000   -0.0000   -0.0001   -0.0001    0.0003   -0.0007
          30    0.0000    0.0000    0.0000   -0.0000    0.0000    0.0000   -0.0005    0.0011
          31   -0.0286    0.0245    0.0643   -0.0056    0.2214   -0.1822    0.0114    0.0053
          32   -0.0004    0.0004    0.0020    0.0023    0.0078   -0.0064    0.0001    0.0001
          33    0.0351   -0.0294   -0.0877    0.0069   -0.2918    0.2388   -0.0169   -0.0077
          34   -0.0277   -0.0258    0.0645    0.0103   -0.2335   -0.1713   -0.0045    0.0116
          35   -0.0004   -0.0005    0.0021   -0.0022   -0.0082   -0.0061    0.0000    0.0001
          36    0.0340    0.0310   -0.0880   -0.0132    0.3076    0.2244    0.0069   -0.0170
          37   -0.0000   -0.0001    0.0062   -0.0085   -0.0026    0.0027    0.0003   -0.0008
          38   -0.0171   -0.0113    0.1840   -0.2523   -0.0031    0.0743    0.0010   -0.0099
          39   -0.0208   -0.0130    0.2268   -0.3097   -0.0042    0.0886    0.0014   -0.0127
          40   -0.0000    0.0001    0.0059    0.0089    0.0028    0.0026   -0.0008   -0.0004
          41   -0.0174    0.0105    0.1756    0.2622    0.0088    0.0749   -0.0078   -0.0065
          42   -0.0211    0.0120    0.2165    0.3219    0.0111    0.0893   -0.0100   -0.0082
          43    0.1872   -0.1871    0.0341    0.0217    0.0210   -0.0094    0.3035    0.1279
          44   -0.0390    0.0390   -0.0076   -0.0049   -0.0036    0.0010   -0.0856   -0.0361
          45   -0.0291    0.0291   -0.0047   -0.0037   -0.0003   -0.0010   -0.0615   -0.0259
          46   -0.0013    0.0013   -0.0001    0.0003   -0.0001    0.0001   -0.0224   -0.0095
          47   -0.1734    0.1725   -0.0227   -0.0086   -0.0392    0.0327    0.2433    0.1024
          48   -0.1183    0.1177   -0.0150   -0.0049   -0.0274    0.0232    0.1665    0.0701
          49    0.1795    0.1948    0.0348   -0.0199   -0.0216   -0.0085   -0.1302    0.2987
          50   -0.0373   -0.0406   -0.0077    0.0045    0.0037    0.0009    0.0367   -0.0842
          51   -0.0279   -0.0302   -0.0048    0.0035    0.0003   -0.0010    0.0264   -0.0605
          52   -0.0013   -0.0014   -0.0000   -0.0003    0.0001    0.0001    0.0096   -0.0221
          53   -0.1664   -0.1798   -0.0232    0.0073    0.0414    0.0308   -0.1044    0.2391
          54   -0.1136   -0.1227   -0.0153    0.0041    0.0290    0.0219   -0.0714    0.1636
          55   -0.0002    0.0007   -0.0026    0.0042    0.0016   -0.0023    0.0046    0.0022
          56    0.0002    0.0003   -0.0029    0.0051    0.0019   -0.0033    0.0055    0.0027
          57    0.0002   -0.0003    0.0002   -0.0007   -0.0007    0.0010   -0.0018   -0.0008
          58   -0.0003    0.0001    0.0008   -0.0015   -0.0008    0.0009   -0.0051   -0.0022
          59    0.0003   -0.0002   -0.0005    0.0013    0.0011   -0.0012    0.0034    0.0015
          60    0.0006   -0.0008    0.0016   -0.0033   -0.0023    0.0027   -0.0120   -0.0051
          61   -0.0002   -0.0007   -0.0024   -0.0043   -0.0017   -0.0023   -0.0018    0.0047
          62    0.0002   -0.0003   -0.0028   -0.0053   -0.0021   -0.0033   -0.0021    0.0057
          63    0.0002    0.0003    0.0002    0.0007    0.0008    0.0010    0.0007   -0.0018
          64   -0.0003   -0.0001    0.0007    0.0016    0.0009    0.0009    0.0022   -0.0050
          65    0.0003    0.0002   -0.0005   -0.0014   -0.0012   -0.0012   -0.0015    0.0034
          66    0.0005    0.0009    0.0015    0.0033    0.0025    0.0026    0.0051   -0.0118


   Root No.      57        58        59        60

                57 A      58 A      59 A      60 A   

                3114.5    3114.6    3133.9    3134.1
  
           1   -0.0000   -0.0000    0.0001    0.0003
           2    0.0000   -0.0000    0.0002    0.0004
           3   -0.0001    0.0002   -0.0004   -0.0007
           4    0.0000   -0.0000    0.0003   -0.0002
           5   -0.0001   -0.0000    0.0004   -0.0002
           6    0.0002    0.0001   -0.0007    0.0003
           7   -0.0000    0.0001   -0.0002   -0.0004
           8    0.0001   -0.0001   -0.0002   -0.0004
           9   -0.0000    0.0001   -0.0005   -0.0009
          10    0.0001    0.0001   -0.0004    0.0002
          11   -0.0001   -0.0000   -0.0004    0.0002
          12    0.0001    0.0001   -0.0010    0.0004
          13    0.0001   -0.0003    0.0006    0.0011
          14    0.0000   -0.0001    0.0004    0.0008
          15    0.0001   -0.0002    0.0002    0.0004
          16   -0.0003   -0.0001    0.0011   -0.0005
          17   -0.0001   -0.0000    0.0008   -0.0004
          18   -0.0002   -0.0001    0.0004   -0.0002
          19    0.0049   -0.0144   -0.0098   -0.0204
          20    0.0062   -0.0183   -0.0111   -0.0229
          21   -0.0024    0.0071    0.0026    0.0054
[...]
 TRAVEL      0.0791         C  2 -- C  3          +7.9% ( 46.3%)     38.3%
 RED. MASS   1.0338         C  1 -- C  4          +7.9% ( 46.3%)     38.3%
 EFF. MASS   8.5302

 VIBRATION   40   40A         ATOM PAIR      ENERGY CONTRIBUTION    RADIAL
 FREQ.      1330.61         C  1 -- C  2         +11.2% ( 54.5%)     61.7%
 T-DIPOLE    0.0001         C  2 -- C  6          +9.7% ( 50.7%)     91.6%
 TRAVEL      0.0768         C  1 -- C  5          +9.7% ( 50.7%)     91.6%
 RED. MASS   1.2158         C  2 -- H 12          +6.8% ( 42.4%)      0.0%
 EFF. MASS   8.6028

 VIBRATION   41   41A         ATOM PAIR      ENERGY CONTRIBUTION    RADIAL
 FREQ.      1354.42         C  5 -- C  9         +10.8% ( 46.3%)     88.1%
 T-DIPOLE    0.0002         C  6 -- C 10         +10.7% ( 46.1%)     88.1%
 TRAVEL      0.0833         C  5 -- H 15          +8.3% ( 40.6%)      0.2%
 RED. MASS   0.7324         C  6 -- H 17          +8.2% ( 40.4%)      0.2%
 EFF. MASS   7.1736

 VIBRATION   42   42A         ATOM PAIR      ENERGY CONTRIBUTION    RADIAL
 FREQ.      1362.49         C  6 -- C 10         +11.8% ( 51.7%)     84.5%
 T-DIPOLE    0.0948         C  5 -- C  9         +11.7% ( 51.5%)     84.5%
 TRAVEL      0.0748         C  6 -- H 18          +8.2% ( 43.1%)      0.1%
 RED. MASS   1.3027         C  5 -- H 16          +8.1% ( 43.0%)      0.1%
 EFF. MASS   8.8534

 VIBRATION   43   43A         ATOM PAIR      ENERGY CONTRIBUTION    RADIAL
 FREQ.      1394.20         C  5 -- H 16         +10.0% ( 39.2%)      4.5%
 T-DIPOLE    0.1198         C  6 -- H 18         +10.0% ( 39.2%)      4.5%
 TRAVEL      0.1033         C  5 -- H 15          +9.7% ( 38.6%)      4.6%
 RED. MASS   0.3184         C  6 -- H 17          +9.7% ( 38.6%)      4.6%
 EFF. MASS   4.5334

 VIBRATION   44   44A         ATOM PAIR      ENERGY CONTRIBUTION    RADIAL
 FREQ.      1405.31         C  6 -- H 18         +11.9% ( 42.3%)      5.5%
 T-DIPOLE    0.0001         C  5 -- H 16         +11.9% ( 42.2%)      5.5%
 TRAVEL      0.0999         C  6 -- H 17         +11.1% ( 40.9%)      6.7%
 RED. MASS   0.3790         C  5 -- H 15         +11.1% ( 40.8%)      6.7%
 EFF. MASS   4.8065

 VIBRATION   45   45A         ATOM PAIR      ENERGY CONTRIBUTION    RADIAL
 FREQ.      1418.99         C  3 -- C  4         +12.1% ( 59.7%)     60.7%
 T-DIPOLE    0.0002         C  3 -- C  7         +10.4% ( 55.4%)     89.3%
 TRAVEL      0.0671         C  4 -- C  8         +10.3% ( 55.2%)     89.2%
 RED. MASS   1.7911         C  2 -- C  3          +8.1% ( 48.9%)     63.7%
 EFF. MASS  10.5450

 VIBRATION   46   46A         ATOM PAIR      ENERGY CONTRIBUTION    RADIAL
 FREQ.      1420.54         C  4 -- C  8          +8.4% ( 45.6%)     98.8%
 T-DIPOLE    0.0581         C  3 -- C  7          +8.3% ( 45.3%)     98.8%
 TRAVEL      0.0744         C  3 -- C  4          +7.6% ( 43.3%)     61.4%
 RED. MASS   0.7986         C  1 -- C  4          +6.5% ( 40.0%)     35.3%
 EFF. MASS   8.5802

 VIBRATION   47   47A         ATOM PAIR      ENERGY CONTRIBUTION    RADIAL
 FREQ.      1819.79         C  8 -- C 10         +23.4% ( 71.6%)    100.0%
 T-DIPOLE    0.1699         C  7 -- C  9         +22.4% ( 70.0%)    100.0%
 TRAVEL      0.0558         C  6 -- C 10          +7.2% ( 39.6%)     25.9%
 RED. MASS   2.7000         C  4 -- C  8          +7.1% ( 39.3%)     25.7%
 EFF. MASS  11.8813

 VIBRATION   48   48A         ATOM PAIR      ENERGY CONTRIBUTION    RADIAL
 FREQ.      1820.19         C  7 -- C  9         +23.4% ( 71.5%)    100.0%
 T-DIPOLE    0.0015         C  8 -- C 10         +22.4% ( 70.0%)    100.0%
 TRAVEL      0.0558         C  5 -- C  9          +7.2% ( 39.6%)     26.2%
 RED. MASS   2.6971         C  3 -- C  7          +7.1% ( 39.3%)     25.4%
 EFF. MASS  11.8807

 VIBRATION   49   49A         ATOM PAIR      ENERGY CONTRIBUTION    RADIAL
 FREQ.      2972.75         C  5 -- H 16         +26.4% ( 53.4%)     97.1%
 T-DIPOLE    0.0646         C  6 -- H 18         +24.4% ( 51.2%)     97.1%
 TRAVEL      0.1214         C  5 -- H 15         +22.8% ( 49.5%)     96.2%
 RED. MASS   0.2443         C  6 -- H 17         +20.9% ( 47.5%)     96.2%
 EFF. MASS   1.5403

 VIBRATION   50   50A         ATOM PAIR      ENERGY CONTRIBUTION    RADIAL
 FREQ.      2972.96         C  6 -- H 18         +26.7% ( 53.6%)     97.1%
 T-DIPOLE    0.0014         C  5 -- H 16         +24.6% ( 51.4%)     97.1%
 TRAVEL      0.1213         C  6 -- H 17         +23.1% ( 49.9%)     96.2%
 RED. MASS   0.2503         C  5 -- H 15         +21.3% ( 47.9%)     96.2%
 EFF. MASS   1.5418

 VIBRATION   51   51A         ATOM PAIR      ENERGY CONTRIBUTION    RADIAL
 FREQ.      2992.38         C  3 -- H 13         +42.6% ( 66.9%)    100.0%
 T-DIPOLE    0.1615         C  4 -- H 14         +38.9% ( 63.9%)    100.0%
 TRAVEL      0.1247         C  2 -- H 12          +6.0% ( 25.1%)    100.0%
 RED. MASS   0.3472         C  1 -- H 11          +6.0% ( 25.0%)    100.0%
 EFF. MASS   1.4490

 VIBRATION   52   52A         ATOM PAIR      ENERGY CONTRIBUTION    RADIAL
 FREQ.      2995.69         C  4 -- H 14         +49.3% ( 71.9%)    100.0%
 T-DIPOLE    0.0034         C  3 -- H 13         +45.7% ( 69.2%)    100.0%
 TRAVEL      0.1240         C  3 -- C  4          +1.2% ( 11.2%)     40.5%
 RED. MASS   0.4611         C  2 -- C  4          +0.6% (  7.9%)     18.9%
 EFF. MASS   1.4643

 VIBRATION   53   53A         ATOM PAIR      ENERGY CONTRIBUTION    RADIAL
 FREQ.      3007.46         C  2 -- H 12         +49.2% ( 71.8%)    100.0%
 T-DIPOLE    0.0072         C  1 -- H 11         +44.3% ( 68.1%)    100.0%
 TRAVEL      0.1238         C  1 -- C  2          +1.2% ( 11.0%)     37.6%
 RED. MASS   0.4470         C  6 -- H 18          +0.9% (  9.4%)     99.3%
 EFF. MASS   1.4622

 VIBRATION   54   54A         ATOM PAIR      ENERGY CONTRIBUTION    RADIAL
 FREQ.      3008.87         C  1 -- H 11         +43.3% ( 67.1%)    100.0%
 T-DIPOLE    0.2503         C  2 -- H 12         +38.2% ( 63.0%)    100.0%
 TRAVEL      0.1250         C  4 -- H 14          +6.5% ( 25.9%)    100.0%
 RED. MASS   0.3451         C  3 -- H 13          +6.4% ( 25.7%)    100.0%
 EFF. MASS   1.4353

 VIBRATION   55   55A         ATOM PAIR      ENERGY CONTRIBUTION    RADIAL
 FREQ.      3050.25         C  5 -- H 15         +45.1% ( 66.3%)     98.0%
 T-DIPOLE    0.0479         C  5 -- H 16         +37.8% ( 60.7%)     96.9%
 TRAVEL      0.1312         C  6 -- H 17          +8.3% ( 28.4%)     98.0%
 RED. MASS   0.3565         C  6 -- H 18          +7.0% ( 26.0%)     96.9%
 EFF. MASS   1.2837

 VIBRATION   56   56A         ATOM PAIR      ENERGY CONTRIBUTION    RADIAL
 FREQ.      3050.27         C  6 -- H 17         +45.1% ( 66.3%)     98.0%
 T-DIPOLE    0.1192         C  6 -- H 18         +37.7% ( 60.6%)     96.9%
 TRAVEL      0.1312         C  5 -- H 15          +8.3% ( 28.4%)     98.0%
 RED. MASS   0.3559         C  5 -- H 16          +6.9% ( 26.0%)     96.9%
 EFF. MASS   1.2845

 VIBRATION   57   57A         ATOM PAIR      ENERGY CONTRIBUTION    RADIAL
 FREQ.      3114.53         C 10 -- H 22         +54.8% ( 75.2%)    100.0%
 T-DIPOLE    0.2266         C  8 -- H 21         +32.6% ( 58.0%)    100.0%
 TRAVEL      0.1215         C  9 -- H 20          +6.3% ( 25.4%)    100.0%
 RED. MASS   0.4038         C  7 -- H 19          +3.7% ( 19.6%)    100.0%
 EFF. MASS   1.4656

 VIBRATION   58   58A         ATOM PAIR      ENERGY CONTRIBUTION    RADIAL
 FREQ.      3114.61         C  9 -- H 20         +55.0% ( 75.3%)    100.0%
 T-DIPOLE    0.4582         C  7 -- H 19         +32.4% ( 57.8%)    100.0%
 TRAVEL      0.1215         C 10 -- H 22          +6.3% ( 25.5%)    100.0%
 RED. MASS   0.4049         C  8 -- H 21          +3.7% ( 19.5%)    100.0%
 EFF. MASS   1.4658

 VIBRATION   59   59A         ATOM PAIR      ENERGY CONTRIBUTION    RADIAL
 FREQ.      3133.93         C  8 -- H 21         +48.9% ( 71.2%)     99.9%
 T-DIPOLE    0.4674         C 10 -- H 22         +28.7% ( 54.6%)     99.9%
 TRAVEL      0.1144         C  7 -- H 19         +11.4% ( 34.4%)     99.9%
 RED. MASS   0.3453         C  9 -- H 20          +6.6% ( 26.1%)     99.9%
 EFF. MASS   1.6430

 VIBRATION   60   60A         ATOM PAIR      ENERGY CONTRIBUTION    RADIAL
 FREQ.      3134.08         C  7 -- H 19         +49.0% ( 71.3%)     99.9%
 T-DIPOLE    0.1638         C  9 -- H 20         +28.7% ( 54.5%)     99.9%
 TRAVEL      0.1144         C  8 -- H 21         +11.3% ( 34.2%)     99.9%
 RED. MASS   0.3455         C 10 -- H 22          +6.7% ( 26.4%)     99.9%
 EFF. MASS   1.6432

      SYMMETRY NUMBER FOR POINT-GROUP C1  =  1


          SYSTEM IS A GROUND STATE



 InChI=1S/C10H12/c1-3-7-8(4-1)10-6-2-5-9(7)10/h1-3,6-10H,4-5H2


          MOLECULE IS NOT LINEAR

          THERE ARE 60 GENUINE VIBRATIONS IN THIS SYSTEM
          THIS THERMODYNAMICS CALCULATION IS LIMITED TO
          MOLECULES WHICH HAVE NO INTERNAL ROTATIONS




                    CALCULATED THERMODYNAMIC PROPERTIES
                                          *
   TEMP. (K)   PARTITION FUNCTION   H.O.F.    ENTHALPY  HEAT CAPACITY ENTROPY
                                   KCAL/MOL   CAL/MOLE    CAL/K/MOL  CAL/K/MOL


 298.00  VIB.     0.1646D+02                  2846.4350    25.2698    15.1177
         ROT.     0.4706D+06                   888.2813     2.9808    28.9371
         INT.     0.7745D+07                  3734.7163    28.2506    44.0549
         TRA.     0.1470D+28                  1480.4688     4.9680    40.5480
         TOT.                       35.533    5215.1852    33.2186    84.6028

 200.00  VIB.     0.4022D+01                  1002.5931    12.9169     7.7786
         ROT.     0.2587D+06                   596.1620     2.9808    27.7484
         INT.     0.1041D+07                  1598.7551    15.8977    35.5270
         TRA.     0.8080D+27                   993.6033     4.9680    38.5668
         TOT.                       32.910    2592.3583    20.8657    74.0938

 210.00  VIB.     0.4571D+01                  1137.1210    13.9975     8.4347
         ROT.     0.2784D+06                   625.9700     2.9808    27.8939
         INT.     0.1272D+07                  1763.0911    16.9783    36.3286
         TRA.     0.8694D+27                  1043.2834     4.9680    38.8092
         TOT.                       33.124    2806.3745    21.9463    75.1378

 220.00  VIB.     0.5213D+01                  1282.7153    15.1298     9.1118
         ROT.     0.2985D+06                   655.7781     2.9808    28.0325
         INT.     0.1556D+07                  1938.4935    18.1106    37.1444
         TRA.     0.9322D+27                  1092.9636     4.9680    39.0403
         TOT.                       33.349    3031.4571    23.0786    76.1847

 230.00  VIB.     0.5968D+01                  1439.8791    16.3108     9.8103
         ROT.     0.3191D+06                   685.5862     2.9808    28.1650
         INT.     0.1904D+07                  2125.4653    19.2916    37.9753
         TRA.     0.9965D+27                  1142.6437     4.9680    39.2612
         TOT.                       33.586    3268.1091    24.2596    77.2365

 240.00  VIB.     0.6856D+01                  1609.0800    17.5365    10.5302
         ROT.     0.3401D+06                   715.3943     2.9808    28.2919
         INT.     0.2332D+07                  2324.4743    20.5173    38.8221
         TRA.     0.1062D+28                  1192.3239     4.9680    39.4726
         TOT.                       33.835    3516.7982    25.4853    78.2947

 250.00  VIB.     0.7905D+01                  1790.7423    18.8022    11.2716
         ROT.     0.3616D+06                   745.2024     2.9808    28.4136
         INT.     0.2858D+07                  2535.9448    21.7831    39.6852
         TRA.     0.1129D+28                  1242.0041     4.9680    39.6754
         TOT.                       34.096    3777.9488    26.7511    79.3606

 260.00  VIB.     0.9148D+01                  1985.2413    20.1029    12.0343
         ROT.     0.3835D+06                   775.0105     2.9808    28.5305
         INT.     0.3508D+07                  2760.2519    23.0838    40.5648
         TRA.     0.1198D+28                  1291.6842     4.9680    39.8703
         TOT.                       34.370    4051.9361    28.0518    80.4350

 270.00  VIB.     0.1062D+02                  2192.8998    21.4332    12.8178
         ROT.     0.4058D+06                   804.8186     2.9808    28.6430
         INT.     0.4311D+07                  2997.7185    24.4140    41.4608
         TRA.     0.1267D+28                  1341.3644     4.9680    40.0578
         TOT.                       34.657    4339.0828    29.3821    81.5186

 280.00  VIB.     0.1238D+02                  2413.9866    22.7877    13.6217
         ROT.     0.4286D+06                   834.6267     2.9808    28.7514
         INT.     0.5307D+07                  3248.6133    25.7685    42.3731
         TRA.     0.1338D+28                  1391.0445     4.9680    40.2384
         TOT.                       34.957    4639.6579    30.7365    82.6115

 290.00  VIB.     0.1448D+02                  2648.7167    24.1610    14.4453
         ROT.     0.4518D+06                   864.4348     2.9808    28.8560
         INT.     0.6543D+07                  3513.1516    27.1418    43.3013
         TRA.     0.1411D+28                  1440.7247     4.9680    40.4128
         TOT.                       35.272    4953.8763    32.1099    83.7140

 300.00  VIB.     0.1700D+02                  2897.2528    25.5481    15.2877
         ROT.     0.4753D+06                   894.2429     2.9808    28.9571
         INT.     0.8080D+07                  3791.4958    28.5289    44.2448
         TRA.     0.1484D+28                  1490.4049     4.9680    40.5812
         TOT.                       35.600    5281.9006    33.4969    84.8260

 310.00  VIB.     0.2002D+02                  3159.7074    26.9439    16.1482
         ROT.     0.4993D+06                   924.0510     2.9808    29.0548
         INT.     0.9998D+07                  4083.7585    29.9248    45.2030
         TRA.     0.1559D+28                  1540.0850     4.9680    40.7441
         TOT.                       35.942    5623.8435    34.8928    85.9471

 320.00  VIB.     0.2367D+02                  3436.1460    28.3441    17.0257
         ROT.     0.5236D+06                   953.8591     2.9808    29.1494
         INT.     0.1239D+08                  4390.0051    31.3249    46.1751
         TRA.     0.1635D+28                  1589.7652     4.9680    40.9018
         TOT.                       36.298    5979.7703    36.2929    87.0770

 330.00  VIB.     0.2807D+02                  3726.5903    29.7444    17.9193
         ROT.     0.5484D+06                   983.6672     2.9808    29.2412
         INT.     0.1539D+08                  4710.2575    32.7252    47.1605
         TRA.     0.1713D+28                  1639.4454     4.9680    41.0547
         TOT.                       36.667    6349.7029    37.6933    88.2152

 340.00  VIB.     0.3340D+02                  4031.0223    31.1411    18.8281
         ROT.     0.5735D+06                  1013.4753     2.9808    29.3301
         INT.     0.1915D+08                  5044.4977    34.1219    48.1582
         TRA.     0.1791D+28                  1689.1255     4.9680    41.2030
         TOT.                       37.051    6733.6232    39.0899    89.3612

 350.00  VIB.     0.3987D+02                  4349.3882    32.5307    19.7508
         ROT.     0.5990D+06                  1043.2834     2.9808    29.4165
         INT.     0.2388D+08                  5392.6716    35.5115    49.1674
         TRA.     0.1871D+28                  1738.8057     4.9680    41.3470
         TOT.                       37.449    7131.4773    40.4795    90.5144

 360.00  VIB.     0.4774D+02                  4681.6017    33.9102    20.6866
         ROT.     0.6248D+06                  1073.0915     2.9808    29.5005
         INT.     0.2983D+08                  5754.6933    36.8910    50.1871
         TRA.     0.1951D+28                  1788.4859     4.9680    41.4870
         TOT.                       37.861    7543.1791    41.8590    91.6741

 370.00  VIB.     0.5735D+02                  5027.5488    35.2769    21.6344
         ROT.     0.6510D+06                  1102.8996     2.9808    29.5822
         INT.     0.3733D+08                  6130.4484    38.2578    51.2166
         TRA.     0.2033D+28                  1838.1660     4.9680    41.6231
         TOT.                       38.286    7968.6144    43.2258    92.8397

 380.00  VIB.     0.6909D+02                  5387.0906    36.6287    22.5931
         ROT.     0.6776D+06                  1132.7077     2.9808    29.6617
         INT.     0.4681D+08                  6519.7983    39.6095    52.2548
         TRA.     0.2116D+28                  1887.8462     4.9680    41.7556
         TOT.                       38.725    8407.6445    44.5776    94.0104

 390.00  VIB.     0.8347D+02                  5760.0671    37.9636    23.5619
         ROT.     0.7045D+06                  1162.5158     2.9808    29.7391
         INT.     0.5881D+08                  6922.5829    40.9444    53.3010
         TRA.     0.2200D+28                  1937.5263     4.9680    41.8846
         TOT.                       39.178    8860.1093    45.9124    95.1856

 400.00  VIB.     0.1011D+03                  6146.3007    39.2799    24.5397
         ROT.     0.7318D+06                  1192.3239     2.9808    29.8146
         INT.     0.7401D+08                  7338.6246    42.2607    54.3543
         TRA.     0.2285D+28                  1987.2065     4.9680    42.0104
         TOT.                       39.644    9325.8311    47.2287    96.3647

   *: NOTE: HEATS OF FORMATION ARE RELATIVE TO THE
            ELEMENTS IN THEIR STANDARD STATE AT 298K
              (=  Standard Enthalpy of Formation).

            Hvib:  Zero-point energy is not included.
                   frequencies of less than zero cm-1 are not included.
            Hrot = (3/2)RT
            Htra = (3/2)RT + pV = (5/2)RT

            Heat capacity is Cp, not Cv

          For more information, see: HTTP://OpenMOPAC.net/Manual/thermochemistry.html


           FORCE CONSTANT IN CARTESIAN COORDINATES (Millidynes/A)

    ATOM   CHEMICAL       X               Y               Z
   NUMBER   SYMBOL  FORCE CONSTANT  FORCE CONSTANT  FORCE CONSTANT

      1       C        9.152451        6.321997        8.990525
      2       C        9.152300        6.322079        8.989382
      3       C        6.229852        9.267580        9.648173
      4       C        6.230757        9.268517        9.648299
      5       C        9.029046        8.546474        7.714397
      6       C        9.028527        8.546513        7.715149
      7       C       10.454615        8.214020        8.854329
      8       C       10.456273        8.213015        8.854082
      9       C        9.684408        6.724430       10.864063
     10       C        9.684553        6.724984       10.864078
     11       H        2.307592        0.643807        3.435604
     12       H        2.307521        0.643838        3.435399
     13       H        0.653559        2.405940        3.255631
     14       H        0.653494        2.406115        3.255827
     15       H        4.664656        0.888725        0.831392
     16       H        0.691329        3.627997        2.055179
     17       H        4.664833        0.888765        0.831400
     18       H        0.691381        3.628015        2.055116
     19       H        2.263578        3.173807        0.979901
     20       H        1.018768        1.040663        4.359994
     21       H        2.263541        3.173384        0.979902
     22       H        1.018774        1.040718        4.359949

 **********************
 *                    *
 * JOB ENDED NORMALLY *
 *                    *
 **********************



 TOTAL JOB TIME:             1.88 SECONDS

 == MOPAC DONE ==
