 *******************************************************************************
 ** Site#: 14399        For non-commercial use only    Version 18.184L 64BITS **
 *******************************************************************************
 ** Cite this program as: MOPAC2016, Version: 18.184L, James J. P. Stewart,   **
 ** Stewart Computational Chemistry, web: HTTP://OpenMOPAC.net. Days left:  18**
 *******************************************************************************
 **                                                                           **
 **                                MOPAC2016                                  **
 **                                                                           **
 *******************************************************************************

                              PM3 CALCULATION RESULTS

 *******************************************************************************
 *  CALCULATION DONE:                                Sat Jun 15 10:11:17 2019  *
 *  PM3        - The PM3 Hamiltonian to be used
 *  NONR       - DO NOT USE NEWTON-RAPHSON STEP IN EF
 *  PRECISE    - CRITERIA TO BE INCREASED BY 100 TIMES
 *  NOSYM      - POINT-GROUP SYMMETRY SET TO C1
 *  THREADS=1  - MULTI-THREADING NOT USED
 *  T=         - A TIME OF 172800.0 SECONDS REQUESTED
 *  DUMP=N     - RESTART FILE WRITTEN EVERY  7200.000 SECONDS
 *  GNORM=     - EXIT WHEN GRADIENT NORM DROPS BELOW   0.00    
 *******************************************************************************
pm3  precise nosym gnorm=0.0 nonr THREADS=1
 InChI=1S/C6H10/c1-6-4-2-3-5-6/h4H,2-3,5H2,1H3

   ATOM   CHEMICAL          X               Y               Z
  NUMBER   SYMBOL      (ANGSTROMS)     (ANGSTROMS)     (ANGSTROMS)
 
     1       C         -1.55280000  *   0.57860000  *   0.31950000  *
     2       C         -0.12350000  *   1.12610000  *   0.25020000  *
     3       C         -1.45880000  *  -0.91690000  *  -0.00390000  *
     4       C          2.19360000  *  -0.01170000  *  -0.28360000  *
     5       C          0.70710000  *  -0.05650000  *  -0.10240000  *
     6       C         -0.01220000  *  -1.15870000  *  -0.23960000  *
     7       H         -1.97650000  *   0.72900000  *   1.33660000  *
     8       H         -2.20190000  *   1.09500000  *  -0.42130000  *
     9       H         -0.03320000  *   1.90530000  *  -0.53710000  *
    10       H          0.19380000  *   1.53680000  *   1.23310000  *
    11       H         -2.03870000  *  -1.16490000  *  -0.91860000  *
    12       H         -1.81190000  *  -1.53320000  *   0.85060000  *
    13       H          2.57110000  *   1.01920000  *  -0.11740000  *
    14       H          2.68120000  *  -0.69370000  *   0.44430000  *
    15       H          2.45570000  *  -0.32740000  *  -1.31530000  *
    16       H          0.40710000  *  -2.12710000  *  -0.49500000  *
 


          CARTESIAN COORDINATES 

    NO.       ATOM           X           Y           Z

     1         C         -1.5528      0.5786      0.3195
     2         C         -0.1235      1.1261      0.2502
     3         C         -1.4588     -0.9169     -0.0039
     4         C          2.1936     -0.0117     -0.2836
     5         C          0.7071     -0.0565     -0.1024
     6         C         -0.0122     -1.1587     -0.2396
     7         H         -1.9765      0.7290      1.3366
     8         H         -2.2019      1.0950     -0.4213
     9         H         -0.0332      1.9053     -0.5371
    10         H          0.1938      1.5368      1.2331
    11         H         -2.0387     -1.1649     -0.9186
    12         H         -1.8119     -1.5332      0.8506
    13         H          2.5711      1.0192     -0.1174
    14         H          2.6812     -0.6937      0.4443
    15         H          2.4557     -0.3274     -1.3153
    16         H          0.4071     -2.1271     -0.4950

  H: (PM3): J. J. P. STEWART, J. COMP. CHEM. 10, 209 (1989).
  C: (PM3): J. J. P. STEWART, J. COMP. CHEM. 10, 209 (1989).

           Empirical Formula: C6 H10  =    16 atoms



      MOLECULAR POINT GROUP   :   C1  


      RHF CALCULATION, NO. OF DOUBLY OCCUPIED LEVELS = 17


          Geometry optimization using EF

  GNORM HAS BEEN SET TOO LOW, RESET TO 0.01

  SPECIFY LET AS KEYWORD TO ALLOW GNORM LESS THAN 0.01

          DIAGONAL MATRIX USED AS START HESSIAN

 CYCLE:     1 TIME:   0.004 TIME LEFT:  2.00D  GRAD.:    65.460 HEAT: -4.459253
 CYCLE:     2 TIME:   0.008 TIME LEFT:  2.00D  GRAD.:    52.520 HEAT: -5.195812
 CYCLE:     3 TIME:   0.004 TIME LEFT:  2.00D  GRAD.:    31.918 HEAT: -5.731333
 CYCLE:     4 TIME:   0.004 TIME LEFT:  2.00D  GRAD.:    21.781 HEAT: -6.002985
 CYCLE:     5 TIME:   0.004 TIME LEFT:  2.00D  GRAD.:    21.334 HEAT: -6.162092
 CYCLE:     6 TIME:   0.004 TIME LEFT:  2.00D  GRAD.:    18.456 HEAT: -6.304098
 CYCLE:     7 TIME:   0.000 TIME LEFT:  2.00D  GRAD.:    20.525 HEAT: -6.304748
 CYCLE:     8 TIME:   0.004 TIME LEFT:  2.00D  GRAD.:    12.216 HEAT: -6.423280
 CYCLE:     9 TIME:   0.008 TIME LEFT:  2.00D  GRAD.:     6.444 HEAT: -6.472483
 CYCLE:    10 TIME:   0.004 TIME LEFT:  2.00D  GRAD.:     7.114 HEAT: -6.489963
 CYCLE:    11 TIME:   0.004 TIME LEFT:  2.00D  GRAD.:     5.639 HEAT: -6.520863
 CYCLE:    12 TIME:   0.000 TIME LEFT:  2.00D  GRAD.:     5.573 HEAT: -6.540920
 CYCLE:    13 TIME:   0.004 TIME LEFT:  2.00D  GRAD.:     6.824 HEAT: -6.571067
 CYCLE:    14 TIME:   0.004 TIME LEFT:  2.00D  GRAD.:     6.094 HEAT: -6.587308
 CYCLE:    15 TIME:   0.004 TIME LEFT:  2.00D  GRAD.:     6.793 HEAT: -6.599868
 CYCLE:    16 TIME:   0.000 TIME LEFT:  2.00D  GRAD.:     7.654 HEAT: -6.602738
 CYCLE:    17 TIME:   0.004 TIME LEFT:  2.00D  GRAD.:     3.874 HEAT: -6.623292
 CYCLE:    18 TIME:   0.004 TIME LEFT:  2.00D  GRAD.:     3.674 HEAT: -6.631437
 CYCLE:    19 TIME:   0.000 TIME LEFT:  2.00D  GRAD.:     2.684 HEAT: -6.642052
 CYCLE:    20 TIME:   0.004 TIME LEFT:  2.00D  GRAD.:     2.241 HEAT: -6.649561
 CYCLE:    21 TIME:   0.004 TIME LEFT:  2.00D  GRAD.:     2.819 HEAT: -6.654615
 CYCLE:    22 TIME:   0.004 TIME LEFT:  2.00D  GRAD.:     1.699 HEAT: -6.657873
 CYCLE:    23 TIME:   0.000 TIME LEFT:  2.00D  GRAD.:     1.885 HEAT: -6.659138
 CYCLE:    24 TIME:   0.004 TIME LEFT:  2.00D  GRAD.:     0.961 HEAT: -6.660870
 CYCLE:    25 TIME:   0.004 TIME LEFT:  2.00D  GRAD.:     1.074 HEAT: -6.661345
 CYCLE:    26 TIME:   0.000 TIME LEFT:  2.00D  GRAD.:     0.471 HEAT: -6.661936
 CYCLE:    27 TIME:   0.004 TIME LEFT:  2.00D  GRAD.:     0.300 HEAT: -6.662139
 CYCLE:    28 TIME:   0.004 TIME LEFT:  2.00D  GRAD.:     0.244 HEAT: -6.662326
 CYCLE:    29 TIME:   0.000 TIME LEFT:  2.00D  GRAD.:     0.195 HEAT: -6.662386
 CYCLE:    30 TIME:   0.004 TIME LEFT:  2.00D  GRAD.:     0.134 HEAT: -6.662428
 CYCLE:    31 TIME:   0.004 TIME LEFT:  2.00D  GRAD.:     0.092 HEAT: -6.662456
 CYCLE:    32 TIME:   0.000 TIME LEFT:  2.00D  GRAD.:     0.061 HEAT: -6.662476
 CYCLE:    33 TIME:   0.004 TIME LEFT:  2.00D  GRAD.:     0.054 HEAT: -6.662481
 CYCLE:    34 TIME:   0.004 TIME LEFT:  2.00D  GRAD.:     0.052 HEAT: -6.662487
 CYCLE:    35 TIME:   0.000 TIME LEFT:  2.00D  GRAD.:     0.098 HEAT: -6.662503
 CYCLE:    36 TIME:   0.004 TIME LEFT:  2.00D  GRAD.:     0.075 HEAT: -6.662511
 CYCLE:    37 TIME:   0.004 TIME LEFT:  2.00D  GRAD.:     0.063 HEAT: -6.662518
 CYCLE:    38 TIME:   0.000 TIME LEFT:  2.00D  GRAD.:     0.036 HEAT: -6.662532
 CYCLE:    39 TIME:   0.004 TIME LEFT:  2.00D  GRAD.:     0.132 HEAT: -6.662524
 CYCLE:    40 TIME:   0.004 TIME LEFT:  2.00D  GRAD.:     0.040 HEAT: -6.662550
 CYCLE:    41 TIME:   0.000 TIME LEFT:  2.00D  GRAD.:     0.035 HEAT: -6.662552
 CYCLE:    42 TIME:   0.004 TIME LEFT:  2.00D  GRAD.:     0.031 HEAT: -6.662555
 CYCLE:    43 TIME:   0.004 TIME LEFT:  2.00D  GRAD.:     0.019 HEAT: -6.662556
 CYCLE:    44 TIME:   0.000 TIME LEFT:  2.00D  GRAD.:     0.017 HEAT: -6.662557
 CYCLE:    45 TIME:   0.004 TIME LEFT:  2.00D  GRAD.:     0.016 HEAT: -6.662558
 CYCLE:    46 TIME:   0.004 TIME LEFT:  2.00D  GRAD.:     0.027 HEAT: -6.662561
 CYCLE:    47 TIME:   0.000 TIME LEFT:  2.00D  GRAD.:     0.031 HEAT: -6.662564
 CYCLE:    48 TIME:   0.004 TIME LEFT:  2.00D  GRAD.:     0.034 HEAT: -6.662567
 CYCLE:    49 TIME:   0.004 TIME LEFT:  2.00D  GRAD.:     0.040 HEAT: -6.662575
 CYCLE:    50 TIME:   0.000 TIME LEFT:  2.00D  GRAD.:     0.032 HEAT: -6.662576
 CYCLE:    51 TIME:   0.004 TIME LEFT:  2.00D  GRAD.:     0.040 HEAT: -6.662585
 CYCLE:    52 TIME:   0.000 TIME LEFT:  2.00D  GRAD.:     0.023 HEAT: -6.662589
 CYCLE:    53 TIME:   0.004 TIME LEFT:  2.00D  GRAD.:     0.018 HEAT: -6.662593
 CYCLE:    54 TIME:   0.004 TIME LEFT:  2.00D  GRAD.:     0.022 HEAT: -6.662600
 CYCLE:    55 TIME:   0.004 TIME LEFT:  2.00D  GRAD.:     0.048 HEAT: -6.662619
 CYCLE:    56 TIME:   0.000 TIME LEFT:  2.00D  GRAD.:     0.067 HEAT: -6.662639
 CYCLE:    57 TIME:   0.016 TIME LEFT:  2.00D  GRAD.:     1.889 HEAT: -6.661799
 CYCLE:    58 TIME:   0.004 TIME LEFT:  2.00D  GRAD.:     1.897 HEAT: -6.661807
 CYCLE:    59 TIME:   0.004 TIME LEFT:  2.00D  GRAD.:     4.397 HEAT: -6.657952
 CYCLE:    60 TIME:   0.000 TIME LEFT:  2.00D  GRAD.:     0.037 HEAT: -6.662687
 CYCLE:    61 TIME:   0.004 TIME LEFT:  2.00D  GRAD.:     0.052 HEAT: -6.662723
 CYCLE:    62 TIME:   0.004 TIME LEFT:  2.00D  GRAD.:     0.046 HEAT: -6.662763
 CYCLE:    63 TIME:   0.000 TIME LEFT:  2.00D  GRAD.:     0.050 HEAT: -6.662899
 CYCLE:    64 TIME:   0.004 TIME LEFT:  2.00D  GRAD.:     0.162 HEAT: -6.663433
 CYCLE:    65 TIME:   0.004 TIME LEFT:  2.00D  GRAD.:     0.309 HEAT: -6.664055
 CYCLE:    66 TIME:   0.004 TIME LEFT:  2.00D  GRAD.:     1.027 HEAT: -6.666504
 CYCLE:    67 TIME:   0.004 TIME LEFT:  2.00D  GRAD.:     5.784 HEAT: -6.659260
 CYCLE:    68 TIME:   0.008 TIME LEFT:  2.00D  GRAD.:     2.732 HEAT: -6.674667
 CYCLE:    69 TIME:   0.004 TIME LEFT:  2.00D  GRAD.:     0.355 HEAT: -6.677564
 CYCLE:    70 TIME:   0.000 TIME LEFT:  2.00D  GRAD.:     0.356 HEAT: -6.677948
 CYCLE:    71 TIME:   0.004 TIME LEFT:  2.00D  GRAD.:     0.349 HEAT: -6.679153
 CYCLE:    72 TIME:   0.004 TIME LEFT:  2.00D  GRAD.:     0.421 HEAT: -6.682965
 CYCLE:    73 TIME:   0.000 TIME LEFT:  2.00D  GRAD.:     0.590 HEAT: -6.686603
 CYCLE:    74 TIME:   0.004 TIME LEFT:  2.00D  GRAD.:     1.220 HEAT: -6.714385
 CYCLE:    75 TIME:   0.016 TIME LEFT:  2.00D  GRAD.:     3.778 HEAT: -6.710104
 CYCLE:    76 TIME:   0.004 TIME LEFT:  2.00D  GRAD.:     3.787 HEAT: -6.711124
 CYCLE:    77 TIME:   0.000 TIME LEFT:  2.00D  GRAD.:     3.000 HEAT: -6.716151
 CYCLE:    78 TIME:   0.004 TIME LEFT:  2.00D  GRAD.:     1.376 HEAT: -6.728361
 CYCLE:    79 TIME:   0.035 TIME LEFT:  2.00D  GRAD.:     0.579 HEAT: -6.728889
 CYCLE:    80 TIME:   0.004 TIME LEFT:  2.00D  GRAD.:     0.465 HEAT: -6.729025
 CYCLE:    81 TIME:   0.004 TIME LEFT:  2.00D  GRAD.:     0.466 HEAT: -6.729124
 CYCLE:    82 TIME:   0.004 TIME LEFT:  2.00D  GRAD.:     0.442 HEAT: -6.729617
 CYCLE:    83 TIME:   0.000 TIME LEFT:  2.00D  GRAD.:     0.452 HEAT: -6.729949
 CYCLE:    84 TIME:   0.004 TIME LEFT:  2.00D  GRAD.:     0.477 HEAT: -6.730924
 CYCLE:    85 TIME:   0.000 TIME LEFT:  2.00D  GRAD.:     0.540 HEAT: -6.733792
 CYCLE:    86 TIME:   0.004 TIME LEFT:  2.00D  GRAD.:     0.713 HEAT: -6.742410
 CYCLE:    87 TIME:   0.004 TIME LEFT:  2.00D  GRAD.:     1.000 HEAT: -6.769398
 CYCLE:    88 TIME:   0.000 TIME LEFT:  2.00D  GRAD.:     1.845 HEAT: -6.779409
 CYCLE:    89 TIME:   0.004 TIME LEFT:  2.00D  GRAD.:     7.182 HEAT: -6.801975
 CYCLE:    90 TIME:   0.004 TIME LEFT:  2.00D  GRAD.:     6.376 HEAT: -6.810842
 CYCLE:    91 TIME:   0.004 TIME LEFT:  2.00D  GRAD.:     5.392 HEAT: -6.822406
 CYCLE:    92 TIME:   0.000 TIME LEFT:  2.00D  GRAD.:     3.417 HEAT: -6.850221
 CYCLE:    93 TIME:   0.008 TIME LEFT:  2.00D  GRAD.:     5.450 HEAT: -6.877091
 CYCLE:    94 TIME:   0.004 TIME LEFT:  2.00D  GRAD.:     4.963 HEAT: -6.881148
 CYCLE:    95 TIME:   0.004 TIME LEFT:  2.00D  GRAD.:     2.638 HEAT: -6.885843
 CYCLE:    96 TIME:   0.000 TIME LEFT:  2.00D  GRAD.:     3.126 HEAT: -6.895757
 CYCLE:    97 TIME:   0.004 TIME LEFT:  2.00D  GRAD.:     4.053 HEAT: -6.912389
 CYCLE:    98 TIME:   0.004 TIME LEFT:  2.00D  GRAD.:     5.178 HEAT: -6.935653
 CYCLE:    99 TIME:   0.000 TIME LEFT:  2.00D  GRAD.:     9.817 HEAT: -6.968786
 CYCLE:   100 TIME:   0.004 TIME LEFT:  2.00D  GRAD.:     4.972 HEAT: -6.992327
 CYCLE:   101 TIME:   0.004 TIME LEFT:  2.00D  GRAD.:     2.090 HEAT: -7.012158
 CYCLE:   102 TIME:   0.000 TIME LEFT:  2.00D  GRAD.:     3.791 HEAT: -7.018479
 CYCLE:   103 TIME:   0.004 TIME LEFT:  2.00D  GRAD.:     2.631 HEAT: -7.024030
 CYCLE:   104 TIME:   0.000 TIME LEFT:  2.00D  GRAD.:     1.536 HEAT: -7.029239
 CYCLE:   105 TIME:   0.004 TIME LEFT:  2.00D  GRAD.:     4.055 HEAT: -7.025837
 CYCLE:   106 TIME:   0.004 TIME LEFT:  2.00D  GRAD.:     1.087 HEAT: -7.034192
 CYCLE:   107 TIME:   0.004 TIME LEFT:  2.00D  GRAD.:     1.876 HEAT: -7.035163
 CYCLE:   108 TIME:   0.000 TIME LEFT:  2.00D  GRAD.:     1.591 HEAT: -7.037288
 CYCLE:   109 TIME:   0.004 TIME LEFT:  2.00D  GRAD.:     1.602 HEAT: -7.038652
 CYCLE:   110 TIME:   0.004 TIME LEFT:  2.00D  GRAD.:     1.714 HEAT: -7.042459
 CYCLE:   111 TIME:   0.000 TIME LEFT:  2.00D  GRAD.:     2.381 HEAT: -7.049243
 CYCLE:   112 TIME:   0.004 TIME LEFT:  2.00D  GRAD.:     3.331 HEAT: -7.054296
 CYCLE:   113 TIME:   0.004 TIME LEFT:  2.00D  GRAD.:     2.074 HEAT: -7.061832
 CYCLE:   114 TIME:   0.000 TIME LEFT:  2.00D  GRAD.:     1.988 HEAT: -7.069369
 CYCLE:   115 TIME:   0.004 TIME LEFT:  2.00D  GRAD.:     1.156 HEAT: -7.078339
 CYCLE:   116 TIME:   0.004 TIME LEFT:  2.00D  GRAD.:     2.389 HEAT: -7.084622
 CYCLE:   117 TIME:   0.000 TIME LEFT:  2.00D  GRAD.:     1.816 HEAT: -7.089315
 CYCLE:   118 TIME:   0.004 TIME LEFT:  2.00D  GRAD.:     1.656 HEAT: -7.096801
 CYCLE:   119 TIME:   0.000 TIME LEFT:  2.00D  GRAD.:     1.117 HEAT: -7.101177
 CYCLE:   120 TIME:   0.004 TIME LEFT:  2.00D  GRAD.:     2.358 HEAT: -7.101789
 CYCLE:   121 TIME:   0.004 TIME LEFT:  2.00D  GRAD.:     1.050 HEAT: -7.104775
 CYCLE:   122 TIME:   0.004 TIME LEFT:  2.00D  GRAD.:     0.907 HEAT: -7.106469
 CYCLE:   123 TIME:   0.000 TIME LEFT:  2.00D  GRAD.:     0.773 HEAT: -7.107634
 CYCLE:   124 TIME:   0.004 TIME LEFT:  2.00D  GRAD.:     0.951 HEAT: -7.108913
 CYCLE:   125 TIME:   0.004 TIME LEFT:  2.00D  GRAD.:     0.406 HEAT: -7.109456
 CYCLE:   126 TIME:   0.000 TIME LEFT:  2.00D  GRAD.:     0.295 HEAT: -7.109589
 CYCLE:   127 TIME:   0.004 TIME LEFT:  2.00D  GRAD.:     0.225 HEAT: -7.109717
 CYCLE:   128 TIME:   0.000 TIME LEFT:  2.00D  GRAD.:     0.161 HEAT: -7.109819
 CYCLE:   129 TIME:   0.004 TIME LEFT:  2.00D  GRAD.:     0.184 HEAT: -7.109870
 CYCLE:   130 TIME:   0.004 TIME LEFT:  2.00D  GRAD.:     0.149 HEAT: -7.109907
 CYCLE:   131 TIME:   0.000 TIME LEFT:  2.00D  GRAD.:     0.116 HEAT: -7.109945
 CYCLE:   132 TIME:   0.004 TIME LEFT:  2.00D  GRAD.:     0.147 HEAT: -7.109903
 CYCLE:   133 TIME:   0.004 TIME LEFT:  2.00D  GRAD.:     0.065 HEAT: -7.109981
 CYCLE:   134 TIME:   0.000 TIME LEFT:  2.00D  GRAD.:     0.055 HEAT: -7.109988
 CYCLE:   135 TIME:   0.004 TIME LEFT:  2.00D  GRAD.:     0.067 HEAT: -7.109987
 CYCLE:   136 TIME:   0.004 TIME LEFT:  2.00D  GRAD.:     0.022 HEAT: -7.109996
 CYCLE:   137 TIME:   0.000 TIME LEFT:  2.00D  GRAD.:     0.018 HEAT: -7.109996
 CYCLE:   138 TIME:   0.004 TIME LEFT:  2.00D  GRAD.:     0.012 HEAT: -7.109998
 CYCLE:   139 TIME:   0.004 TIME LEFT:  2.00D  GRAD.:     0.008 HEAT: -7.109999

     GRADIENT =  0.00795  IS LESS THAN CUTOFF =  0.01000



 -------------------------------------------------------------------------------
 pm3  precise nosym gnorm=0.0 nonr THREADS=1
 InChI=1S/C6H10/c1-6-4-2-3-5-6/h4H,2-3,5H2,1H3



     GEOMETRY OPTIMISED USING EIGENVECTOR FOLLOWING (EF).     
     SCF FIELD WAS ACHIEVED                                   


                              PM3 CALCULATION
                                                       MOPAC2016 (Version: 18.184L)
                                                       Sat Jun 15 10:11:17 2019
                                                       No. of days remaining =  18




          FINAL HEAT OF FORMATION =         -7.11000 KCAL/MOL =     -29.74824 KJ/MOL


          TOTAL ENERGY            =       -865.47760 EV
          ELECTRONIC ENERGY       =      -3827.30095 EV  POINT GROUP:     C1  
          CORE-CORE REPULSION     =       2961.82335 EV
          COSMO AREA              =        133.49 SQUARE ANGSTROMS
          COSMO VOLUME            =        123.36 CUBIC ANGSTROMS

          GRADIENT NORM           =          0.00795 = 0.00199 PER ATOM
          IONIZATION POTENTIAL    =          9.278453 EV
          HOMO LUMO ENERGIES (EV) =         -9.278  1.082
          NO. OF FILLED LEVELS    =         17
          MOLECULAR WEIGHT        =         82.1450

          MOLECULAR DIMENSIONS (Angstroms)

            Atom       Atom       Distance
            H    14    H     8     5.26640
            H    12    H    15     4.18540
            H    10    H    11     3.39236


          SCF CALCULATIONS        =        171
 
          WALL-CLOCK TIME         =          0.465 SECONDS
          COMPUTATION TIME        =          0.379 SECONDS




   ATOM   CHEMICAL          X               Y               Z
  NUMBER   SYMBOL      (ANGSTROMS)     (ANGSTROMS)     (ANGSTROMS)
 
     1       C         -1.55275879  *   0.59365282  *   0.25866232  *
     2       C         -0.11647873  *   1.12587051  *   0.14612758  *
     3       C         -1.46303639  *  -0.92789154  *   0.06555029  *
     4       C          2.18743240  *   0.02001394  *  -0.26918243  *
     5       C          0.72735843  *  -0.08894252  *  -0.10289499  *
     6       C         -0.01095004  *  -1.20820336  *  -0.14621143  *
     7       H         -1.99810294  *   0.84775278  *   1.23698229  *
     8       H         -2.21104255  *   1.05544827  *  -0.49858064  *
     9       H         -0.00481022  *   1.85578349  *  -0.67679725  *
    10       H          0.20905425  *   1.64709839  *   1.06526091  *
    11       H         -2.05894014  *  -1.27375219  *  -0.79905898  *
    12       H         -1.84519027  *  -1.48220858  *   0.94245285  *
    13       H          2.64787241  *   0.46180020  *   0.62483034  *
    14       H          2.65496688  *  -0.95789260  *  -0.44066938  *
    15       H          2.43346389  *   0.66573059  *  -1.12297929  *
    16       H          0.35671519  *  -2.22058329  *  -0.31245256  *

                             CARTESIAN COORDINATES

   1    C       -1.552758792     0.593652816     0.258662324
   2    C       -0.116478735     1.125870512     0.146127583
   3    C       -1.463036394    -0.927891536     0.065550292
   4    C        2.187432404     0.020013944    -0.269182432
   5    C        0.727358430    -0.088942523    -0.102894994
   6    C       -0.010950042    -1.208203363    -0.146211434
   7    H       -1.998102940     0.847752776     1.236982291
   8    H       -2.211042545     1.055448267    -0.498580638
   9    H       -0.004810215     1.855783490    -0.676797250
  10    H        0.209054250     1.647098391     1.065260908
  11    H       -2.058940142    -1.273752191    -0.799058981
  12    H       -1.845190273    -1.482208580     0.942452845
  13    H        2.647872413     0.461800204     0.624830337
  14    H        2.654966884    -0.957892600    -0.440669383
  15    H        2.433463888     0.665730586    -1.122979292
  16    H        0.356715186    -2.220583286    -0.312452557


           Empirical Formula: C6 H10  =    16 atoms



      MOLECULAR POINT GROUP   :   C1  


                  EIGENVALUES  
 -40.20936 -31.61876 -28.07851 -24.63745 -20.29107 -18.10519 -16.60308 -16.41491
 -14.40360 -14.23773 -13.33854 -13.23955 -12.79219 -12.63354 -12.40147 -11.77190
  -9.27845   1.08183   3.37083   3.63576   3.76476   3.78706   3.94786   4.13919
   4.20964   4.34784   4.43904   4.45692   4.53313   4.66657   5.08416   5.24278
   5.73120   6.10824


              NET ATOMIC CHARGES AND DIPOLE CONTRIBUTIONS

  ATOM NO.   TYPE          CHARGE      No. of ELECS.   s-Pop       p-Pop       
    1          C          -0.097679        4.0977     1.16553     2.93215
    2          C          -0.055551        4.0556     1.15298     2.90257
    3          C          -0.060349        4.0603     1.15291     2.90744
    4          C          -0.050549        4.0505     1.11762     2.93292
    5          C          -0.135824        4.1358     1.20368     2.93214
    6          C          -0.159537        4.1595     1.20034     2.95920
    7          H           0.049073        0.9509     0.95093
    8          H           0.049071        0.9509     0.95093
    9          H           0.054850        0.9451     0.94515
   10          H           0.054852        0.9451     0.94515
   11          H           0.054102        0.9459     0.94590
   12          H           0.054102        0.9459     0.94590
   13          H           0.044212        0.9558     0.95579
   14          H           0.041843        0.9582     0.95816
   15          H           0.044230        0.9558     0.95577
   16          H           0.113153        0.8868     0.88685
 DIPOLE           X         Y         Z       TOTAL
 POINT-CHG.     0.040     0.164     0.015     0.170
 HYBRID         0.001     0.004     0.000     0.004
 SUM            0.042     0.168     0.015     0.174


          ATOMIC ORBITAL ELECTRON POPULATIONS

     Atom    s        px        py        pz   
    1  C   1.16553   0.96239   0.95646   1.01331
    2  C   1.15298   0.93832   0.95564   1.00861
    3  C   1.15291   0.94824   0.95249   1.00672
    4  C   1.11762   0.92115   1.00869   1.00308
    5  C   1.20368   0.95867   0.96151   1.01196
    6  C   1.20034   0.95846   0.97279   1.02794
    7  H   0.95093
    8  H   0.95093
    9  H   0.94515
   10  H   0.94515
   11  H   0.94590
   12  H   0.94590
   13  H   0.95579
   14  H   0.95816
   15  H   0.95577
   16  H   0.88685
 *******************************************************************************
 ** Site#: 14399        For non-commercial use only    Version 18.184L 64BITS **
 *******************************************************************************
 ** Cite this program as: MOPAC2016, Version: 18.184L, James J. P. Stewart,   **
 ** Stewart Computational Chemistry, web: HTTP://OpenMOPAC.net. Days left:  18**
 *******************************************************************************
 **                                                                           **
 **                                MOPAC2016                                  **
 **                                                                           **
 *******************************************************************************

                              PM3 CALCULATION RESULTS

 *******************************************************************************
 *  CALCULATION DONE:                                Sat Jun 15 10:11:17 2019  *
 *  PM3        - The PM3 Hamiltonian to be used
 *  OLDGEO     - PREVIOUS GEOMETRY TO BE USED
 *  PRECISE    - CRITERIA TO BE INCREASED BY 100 TIMES
 *  NOSYM      - POINT-GROUP SYMMETRY SET TO C1
 *  THREADS=1  - MULTI-THREADING NOT USED
 *  T=         - A TIME OF 172800.0 SECONDS REQUESTED
 *  DUMP=N     - RESTART FILE WRITTEN EVERY  7200.000 SECONDS
 *  THERMO     - THERMODYNAMIC QUANTITIES TO BE CALCULATED
 *******************************************************************************
oldgeo thermo nosym precise THREADS=1  pm3
 InChI=1S/C6H10/c1-6-4-2-3-5-6/h4H,2-3,5H2,1H3

   ATOM   CHEMICAL          X               Y               Z
  NUMBER   SYMBOL      (ANGSTROMS)     (ANGSTROMS)     (ANGSTROMS)
 
     1       C         -1.55275879  *   0.59365282  *   0.25866232  *
     2       C         -0.11647873  *   1.12587051  *   0.14612758  *
     3       C         -1.46303639  *  -0.92789154  *   0.06555029  *
     4       C          2.18743240  *   0.02001394  *  -0.26918243  *
     5       C          0.72735843  *  -0.08894252  *  -0.10289499  *
     6       C         -0.01095004  *  -1.20820336  *  -0.14621143  *
     7       H         -1.99810294  *   0.84775278  *   1.23698229  *
     8       H         -2.21104255  *   1.05544827  *  -0.49858064  *
     9       H         -0.00481022  *   1.85578349  *  -0.67679725  *
    10       H          0.20905425  *   1.64709839  *   1.06526091  *
    11       H         -2.05894014  *  -1.27375219  *  -0.79905898  *
    12       H         -1.84519027  *  -1.48220858  *   0.94245285  *
    13       H          2.64787241  *   0.46180020  *   0.62483034  *
    14       H          2.65496688  *  -0.95789260  *  -0.44066938  *
    15       H          2.43346389  *   0.66573059  *  -1.12297929  *
    16       H          0.35671519  *  -2.22058329  *  -0.31245256  *
 


          CARTESIAN COORDINATES 

    NO.       ATOM           X           Y           Z

     1         C         -1.5528      0.5937      0.2587
     2         C         -0.1165      1.1259      0.1461
     3         C         -1.4630     -0.9279      0.0656
     4         C          2.1874      0.0200     -0.2692
     5         C          0.7274     -0.0889     -0.1029
     6         C         -0.0110     -1.2082     -0.1462
     7         H         -1.9981      0.8478      1.2370
     8         H         -2.2110      1.0554     -0.4986
     9         H         -0.0048      1.8558     -0.6768
    10         H          0.2091      1.6471      1.0653
    11         H         -2.0589     -1.2738     -0.7991
    12         H         -1.8452     -1.4822      0.9425
    13         H          2.6479      0.4618      0.6248
    14         H          2.6550     -0.9579     -0.4407
    15         H          2.4335      0.6657     -1.1230
    16         H          0.3567     -2.2206     -0.3125

  H: (PM3): J. J. P. STEWART, J. COMP. CHEM. 10, 209 (1989).
  C: (PM3): J. J. P. STEWART, J. COMP. CHEM. 10, 209 (1989).

           Empirical Formula: C6 H10  =    16 atoms



      MOLECULAR POINT GROUP   :   C1  


      RHF CALCULATION, NO. OF DOUBLY OCCUPIED LEVELS = 17



          HEAT OF FORMATION =      -7.109999 KCALS/MOLE


          CARTESIAN COORDINATE DERIVATIVES

   NUMBER  ATOM         X            Y            Z

     1       C      0.000402     0.000173     0.001799
     2       C      0.000764     0.000854    -0.000251
     3       C      0.001983     0.000083    -0.000227
     4       C     -0.000931     0.000372    -0.001411
     5       C      0.001115    -0.000537    -0.000514
     6       C     -0.000298     0.001115     0.001262
     7       H     -0.000620    -0.000173    -0.000248
     8       H     -0.001128     0.000893     0.000245
     9       H     -0.002066    -0.003310     0.000048
    10       H      0.002014     0.002203    -0.001291
    11       H     -0.000773    -0.001937     0.000999
    12       H      0.000126     0.000512    -0.000173
    13       H      0.001210    -0.003157    -0.000847
    14       H      0.000490     0.000832    -0.000805
    15       H     -0.001270     0.001809     0.002310
    16       H     -0.001018     0.000270    -0.000896
 


          GRADIENT NORM =   0.00874

          MOLECULAR WEIGHT =   82.14



          ROTATIONAL CONSTANTS IN CM(-1)

          A =    0.23241665   B =    0.10271276   C =    0.07523438



           PRINCIPAL MOMENTS OF INERTIA IN UNITS OF 10**(-40)*GRAM-CM**2

          A =      120.4422   B =      272.5345   C =      372.0742


          ORIENTATION OF MOLECULE IN FORCE CALCULATION

    NO.       ATOM         X         Y         Z

     1          C      -1.2147   -1.1586   -0.0001
     2          C       0.3212   -1.1586   -0.0001
     3          C      -1.6439    0.3166   -0.0001
     4          C       2.1230    0.7007    0.0002
     5          C       0.7076    0.2907    0.0000
     6          C      -0.3675    1.0931   -0.0000
     7          H      -1.6148   -1.6923   -0.8805
     8          H      -1.6147   -1.6922    0.8804
     9          H       0.7389   -1.6754    0.8836
    10          H       0.7389   -1.6752   -0.8839
    11          H      -2.2576    0.5717    0.8834
    12          H      -2.2576    0.5717   -0.8835
    13          H       2.6411    0.3067   -0.8845
    14          H       2.2339    1.7925   -0.0027
    15          H       2.6394    0.3117    0.8881
    16          H      -0.3623    2.1829   -0.0001


    FIRST DERIVATIVES WILL BE USED IN THE CALCULATION OF SECOND DERIVATIVES

    FOR POINT-GROUP C1   THERE ARE   1 UNIQUE SYMMETRY FUNCTIONS.

 STEP:   1 TIME =     0.01 SECS, INTEGRAL =      0.01 TIME LEFT: 172799.99
 STEP:   2 TIME =     0.01 SECS, INTEGRAL =      0.02 TIME LEFT: 172799.98
 STEP:   3 TIME =     0.01 SECS, INTEGRAL =      0.03 TIME LEFT: 172799.97
 STEP:   4 TIME =     0.01 SECS, INTEGRAL =      0.04 TIME LEFT: 172799.96
 STEP:   5 TIME =     0.01 SECS, INTEGRAL =      0.05 TIME LEFT: 172799.95
 STEP:   6 TIME =     0.01 SECS, INTEGRAL =      0.06 TIME LEFT: 172799.94
 STEP:   7 TIME =     0.01 SECS, INTEGRAL =      0.07 TIME LEFT: 172799.93
 STEP:   8 TIME =     0.01 SECS, INTEGRAL =      0.08 TIME LEFT: 172799.92
 STEP:   9 TIME =     0.01 SECS, INTEGRAL =      0.09 TIME LEFT: 172799.91
 STEP:  10 TIME =     0.01 SECS, INTEGRAL =      0.10 TIME LEFT: 172799.90
 STEP:  11 TIME =     0.01 SECS, INTEGRAL =      0.11 TIME LEFT: 172799.89
 STEP:  12 TIME =     0.01 SECS, INTEGRAL =      0.12 TIME LEFT: 172799.88
 STEP:  13 TIME =     0.01 SECS, INTEGRAL =      0.12 TIME LEFT: 172799.88
 STEP:  14 TIME =     0.01 SECS, INTEGRAL =      0.14 TIME LEFT: 172799.86
 STEP:  15 TIME =     0.01 SECS, INTEGRAL =      0.15 TIME LEFT: 172799.85
 STEP:  16 TIME =     0.01 SECS, INTEGRAL =      0.16 TIME LEFT: 172799.84
 STEP:  17 TIME =     0.01 SECS, INTEGRAL =      0.17 TIME LEFT: 172799.83
 STEP:  18 TIME =     0.01 SECS, INTEGRAL =      0.18 TIME LEFT: 172799.82
 STEP:  19 TIME =     0.01 SECS, INTEGRAL =      0.19 TIME LEFT: 172799.81
 STEP:  20 TIME =     0.01 SECS, INTEGRAL =      0.20 TIME LEFT: 172799.80
 STEP:  21 TIME =     0.01 SECS, INTEGRAL =      0.21 TIME LEFT: 172799.79
 STEP:  22 TIME =     0.01 SECS, INTEGRAL =      0.21 TIME LEFT: 172799.79
 STEP:  23 TIME =     0.01 SECS, INTEGRAL =      0.23 TIME LEFT: 172799.77
 STEP:  24 TIME =     0.01 SECS, INTEGRAL =      0.24 TIME LEFT: 172799.76
 STEP:  25 TIME =     0.01 SECS, INTEGRAL =      0.25 TIME LEFT: 172799.75
 STEP:  26 TIME =     0.01 SECS, INTEGRAL =      0.26 TIME LEFT: 172799.74
 STEP:  27 TIME =     0.01 SECS, INTEGRAL =      0.27 TIME LEFT: 172799.73
 STEP:  28 TIME =     0.01 SECS, INTEGRAL =      0.28 TIME LEFT: 172799.72
 STEP:  29 TIME =     0.01 SECS, INTEGRAL =      0.29 TIME LEFT: 172799.71
 STEP:  30 TIME =     0.01 SECS, INTEGRAL =      0.30 TIME LEFT: 172799.70
 STEP:  31 TIME =     0.01 SECS, INTEGRAL =      0.30 TIME LEFT: 172799.70
 STEP:  32 TIME =     0.01 SECS, INTEGRAL =      0.32 TIME LEFT: 172799.68
 STEP:  33 TIME =     0.01 SECS, INTEGRAL =      0.33 TIME LEFT: 172799.67
 STEP:  34 TIME =     0.01 SECS, INTEGRAL =      0.34 TIME LEFT: 172799.66
 STEP:  35 TIME =     0.01 SECS, INTEGRAL =      0.35 TIME LEFT: 172799.65
 STEP:  36 TIME =     0.01 SECS, INTEGRAL =      0.36 TIME LEFT: 172799.64
 STEP:  37 TIME =     0.01 SECS, INTEGRAL =      0.37 TIME LEFT: 172799.63
 STEP:  38 TIME =     0.01 SECS, INTEGRAL =      0.38 TIME LEFT: 172799.62
 STEP:  39 TIME =     0.01 SECS, INTEGRAL =      0.39 TIME LEFT: 172799.61
 STEP:  40 TIME =     0.01 SECS, INTEGRAL =      0.40 TIME LEFT: 172799.60
 STEP:  41 TIME =     0.01 SECS, INTEGRAL =      0.41 TIME LEFT: 172799.59
 STEP:  42 TIME =     0.01 SECS, INTEGRAL =      0.42 TIME LEFT: 172799.58
 STEP:  43 TIME =     0.01 SECS, INTEGRAL =      0.43 TIME LEFT: 172799.57
 STEP:  44 TIME =     0.01 SECS, INTEGRAL =      0.44 TIME LEFT: 172799.56
 STEP:  45 TIME =     0.01 SECS, INTEGRAL =      0.45 TIME LEFT: 172799.55
 STEP:  46 TIME =     0.01 SECS, INTEGRAL =      0.45 TIME LEFT: 172799.55
 STEP:  47 TIME =     0.01 SECS, INTEGRAL =      0.46 TIME LEFT: 172799.54
 STEP:  48 TIME =     0.01 SECS, INTEGRAL =      0.47 TIME LEFT: 172799.53

(To convert to Hartree/Bohr^2, multiply by (10^(-21) x N x a0^2)/(4.184 x 627.51) =  0.0642)


           FORCE MATRIX IN MILLIDYNES/ANGSTROM


                  C  1       C  2       C  3       C  4       C  5       C  6
 ------------------------------------------------------------------------------
     C    1  14.265475
     C    2   3.771101  14.612900
     C    3   3.757331   0.739686  14.676882
     C    4   0.047818   0.516853   0.127990  14.853074
     C    5   0.874066   4.532013   1.172731   5.433100  18.893132
     C    6   0.885378   1.137281   4.761962   0.724564  10.272636  18.348789
     H    7   4.573353   0.440749   0.440848   0.003996   0.028132   0.027765
     H    8   4.573329   0.440809   0.440920   0.004091   0.028076   0.027820
     H    9   0.436778   4.517981   0.027332   0.012628   0.438803   0.035593
     H   10   0.436760   4.518055   0.027398   0.012694   0.438756   0.035599
     H   11   0.436995   0.027750   4.517326   0.018485   0.036050   0.428718
     H   12   0.436954   0.027750   4.517468   0.018401   0.036028   0.428737
     H   13   0.002110   0.014037   0.017626   4.702248   0.450960   0.031815
     H   14   0.007590   0.043045   0.003337   4.752531   0.471921   0.027453
     H   15   0.002121   0.014040   0.017638   4.702482   0.450616   0.031592
     H   16   0.042250   0.106004   0.410473   0.054953   0.460052   5.011261


                  H  7       H  8       H  9       H 10       H 11       H 12
 ------------------------------------------------------------------------------
     H    7   5.180388
     H    8   0.585069   5.180335
     H    9   0.027388   0.028990   5.123791
     H   10   0.028999   0.027394   0.572026   5.123777
     H   11   0.027393   0.029050   0.001266   0.004167   5.124289
     H   12   0.029056   0.027403   0.004164   0.001267   0.573935   5.124344
     H   13   0.000336   0.000377   0.000974   0.006314   0.002187   0.003130
     H   14   0.000778   0.000777   0.001269   0.001274   0.000496   0.000489
     H   15   0.000378   0.000379   0.006228   0.000971   0.003136   0.002183
     H   16   0.003004   0.003005   0.014706   0.014682   0.014353   0.014307


                  H 13       H 14       H 15       H 16
 ------------------------------------------------------
     H   13   5.412832
     H   14   0.558219   5.456346
     H   15   0.570725   0.558487   5.413030
     H   16   0.006739   0.013215   0.006747   5.413317


          HEAT OF FORMATION =      -7.109999 KCALS/MOLE

          ZERO POINT ENERGY      89.897 KCAL/MOL


           NORMAL COORDINATE ANALYSIS (Total motion = 1 Angstrom)


   Root No.       1         2         3         4         5         6         7         8

                 1 A       2 A       3 A       4 A       5 A       6 A       7 A       8 A   

                 109.1     129.3     223.5     340.3     456.3     613.5     713.0     757.1
  
           1    0.0000    0.0000    0.0000   -0.0243   -0.0000   -0.0565   -0.0254    0.0000
           2   -0.0000   -0.0000   -0.0000    0.0066   -0.0000   -0.0242   -0.0678   -0.0000
           3    0.0468   -0.0068   -0.0041    0.0000   -0.0058    0.0000   -0.0000   -0.0193
           4    0.0000    0.0000   -0.0000   -0.0171   -0.0000   -0.0445   -0.0495    0.0000
           5    0.0000    0.0001    0.0000   -0.0389    0.0000    0.0371    0.0102   -0.0000
           6   -0.0398    0.0279    0.0164    0.0000   -0.0065   -0.0000   -0.0000   -0.0113
           7   -0.0000   -0.0000   -0.0000    0.0135    0.0000   -0.0212    0.0929    0.0000
           8   -0.0000   -0.0000   -0.0000    0.0169   -0.0000   -0.0346   -0.0297    0.0000
           9   -0.0234   -0.0046   -0.0458   -0.0000    0.0001   -0.0000    0.0000   -0.0215
          10   -0.0000    0.0000    0.0000   -0.0123    0.0000    0.0823   -0.0293   -0.0000
          11   -0.0000   -0.0001   -0.0000    0.0623    0.0000    0.0235    0.0019   -0.0000
          12    0.0217   -0.0095   -0.0444   -0.0000   -0.0066    0.0000   -0.0000    0.0048
          13   -0.0000   -0.0000   -0.0000    0.0172    0.0000    0.0460   -0.0181   -0.0000
          14    0.0000    0.0001    0.0000   -0.0456   -0.0000    0.0297    0.0202   -0.0000
          15   -0.0058    0.0038    0.0370   -0.0000    0.0916   -0.0000   -0.0000    0.0129
          16   -0.0000   -0.0001   -0.0000    0.0322   -0.0000   -0.0026    0.0330    0.0000
          17    0.0000    0.0000    0.0000   -0.0256   -0.0000   -0.0302    0.0708    0.0000
          18   -0.0016   -0.0093    0.0645    0.0000   -0.0352   -0.0000    0.0000   -0.0029
          19   -0.0542    0.0213    0.0095   -0.0400    0.0002   -0.0504   -0.0477   -0.0671
          20   -0.0624    0.0089   -0.0258    0.0186    0.0028   -0.0365   -0.0648   -0.1040
          21    0.1097   -0.0220    0.0074    0.0000   -0.0077    0.0033    0.0059    0.0788
          22    0.0542   -0.0212   -0.0095   -0.0400   -0.0002   -0.0504   -0.0477    0.0670
          23    0.0624   -0.0090    0.0258    0.0186   -0.0028   -0.0365   -0.0649    0.1040
          24    0.1097   -0.0220    0.0074    0.0000   -0.0077   -0.0033   -0.0059    0.0788
          25    0.0513   -0.0203   -0.0118   -0.0362    0.0157   -0.0599   -0.0338   -0.0570
          26   -0.0406    0.0229   -0.0064   -0.0534   -0.1210    0.0319    0.0288    0.0483
          27   -0.0881    0.0511    0.0183   -0.0000   -0.0877    0.0026    0.0028    0.0469
          28   -0.0513    0.0204    0.0119   -0.0362   -0.0157   -0.0599   -0.0339    0.0570
          29    0.0406   -0.0227    0.0064   -0.0535    0.1210    0.0318    0.0288   -0.0483
          30   -0.0881    0.0511    0.0183    0.0001   -0.0876   -0.0026   -0.0028    0.0468
          31   -0.0396    0.0046   -0.0999    0.0216    0.0447   -0.0178    0.1074    0.1069
          32    0.0316   -0.0003    0.0001    0.0366    0.0047   -0.0208   -0.0290   -0.0405
          33   -0.0604   -0.0012   -0.1164    0.0000    0.0307   -0.0009    0.0073    0.0690
          34    0.0396   -0.0046    0.0999    0.0217   -0.0447   -0.0178    0.1076   -0.1068
          35   -0.0317    0.0001   -0.0001    0.0366   -0.0047   -0.0208   -0.0290    0.0405
          36   -0.0604   -0.0012   -0.1164   -0.0001    0.0307    0.0009   -0.0074    0.0690
          37    0.0023   -0.0702   -0.0537    0.0271   -0.0879    0.0876   -0.0386   -0.0364
          38    0.0528    0.1965   -0.0295    0.1186   -0.0258    0.0218   -0.0041   -0.0110
          39   -0.0004   -0.1384   -0.0633   -0.0010   -0.0481    0.0031   -0.0020   -0.0124
          40    0.0000   -0.0000   -0.0001   -0.1204   -0.0002    0.1022   -0.0226   -0.0001
          41    0.0001    0.0005   -0.0001    0.0752   -0.0001    0.0219    0.0015   -0.0000
          42    0.0871    0.2233   -0.0885    0.0004   -0.0528    0.0001   -0.0000   -0.0153
          43   -0.0024    0.0701    0.0539    0.0268    0.0882    0.0878   -0.0386    0.0365
          44   -0.0531   -0.1975    0.0295    0.1177    0.0260    0.0218   -0.0041    0.0111
          45   -0.0001   -0.1369   -0.0633    0.0005   -0.0480   -0.0031    0.0020   -0.0124
          46   -0.0000   -0.0001   -0.0000    0.0660    0.0000   -0.0619    0.0045    0.0000
          47    0.0000    0.0000    0.0000   -0.0251   -0.0000   -0.0298    0.0708    0.0000
          48    0.0157   -0.0218    0.1137    0.0000   -0.1687    0.0001   -0.0001    0.0950


   Root No.       9        10        11        12        13        14        15        16

                 9 A      10 A      11 A      12 A      13 A      14 A      15 A      16 A   

                 830.9     895.7     951.8     987.4     990.4    1014.9    1022.7    1045.3
  
           1    0.0000    0.0000   -0.0029    0.0001    0.0225   -0.0000    0.0152    0.0251
           2   -0.0000   -0.0000    0.0033    0.0001    0.0204    0.0000    0.0590    0.0061
           3    0.0176    0.0117   -0.0000   -0.0121    0.0001   -0.0181    0.0000    0.0000
           4   -0.0000    0.0000    0.0104   -0.0001   -0.0139   -0.0000   -0.0197   -0.0319
           5   -0.0000   -0.0000   -0.0497   -0.0002   -0.0315    0.0001    0.0335    0.0129
           6    0.0243   -0.0294    0.0000    0.0075   -0.0000    0.0257   -0.0001   -0.0000
           7    0.0000    0.0000    0.0085    0.0000    0.0037    0.0000    0.0395   -0.0177
           8    0.0000    0.0000    0.0007   -0.0001   -0.0108   -0.0000   -0.0416   -0.0042
           9   -0.0236    0.0164   -0.0000    0.0248   -0.0001    0.0217   -0.0000   -0.0000
          10   -0.0000   -0.0000    0.0039    0.0001    0.0258   -0.0001   -0.0277   -0.0052
          11   -0.0000    0.0000    0.0450   -0.0001   -0.0139   -0.0000   -0.0015    0.0131
          12    0.0016    0.0214    0.0000   -0.0197    0.0002    0.0247   -0.0000    0.0000
          13   -0.0000   -0.0000   -0.0026   -0.0000   -0.0102    0.0000    0.0182    0.0042
          14   -0.0000    0.0000    0.0166    0.0000    0.0073   -0.0000   -0.0030   -0.0093
          15   -0.0056    0.0097   -0.0001    0.0156   -0.0001   -0.0301    0.0001   -0.0000
          16    0.0000   -0.0000   -0.0109   -0.0001   -0.0128    0.0000    0.0015    0.0194
          17    0.0000    0.0000    0.0064    0.0002    0.0380   -0.0001   -0.0449    0.0085
          18   -0.0223   -0.0256    0.0000   -0.0329    0.0002   -0.0177    0.0000    0.0000
          19    0.0855   -0.0267   -0.0409   -0.0675    0.0048   -0.0091    0.0018    0.0765
          20    0.0294    0.0729    0.0301    0.0034    0.0335   -0.0577    0.0814   -0.0355
          21   -0.0418   -0.0220    0.0007    0.0183   -0.0010    0.0230   -0.0074    0.0004
          22   -0.0855    0.0267   -0.0409    0.0676    0.0040    0.0092    0.0018    0.0765
          23   -0.0294   -0.0728    0.0303   -0.0030    0.0336    0.0577    0.0811   -0.0355
          24   -0.0418   -0.0220   -0.0006    0.0183    0.0009    0.0230    0.0073   -0.0004
          25    0.0777   -0.0243   -0.0253   -0.1033   -0.0599    0.0254   -0.0746   -0.0720
          26   -0.0614    0.0877   -0.0945   -0.0859   -0.0836   -0.0598    0.0089   -0.0155
          27   -0.0521    0.0361   -0.0085    0.0068   -0.0072   -0.0235    0.0094    0.0028
          28   -0.0777    0.0243   -0.0254    0.1026   -0.0611   -0.0253   -0.0746   -0.0720
          29    0.0614   -0.0878   -0.0942    0.0849   -0.0844    0.0602    0.0086   -0.0155
          30   -0.0521    0.0360    0.0084    0.0069    0.0071   -0.0235   -0.0093   -0.0028
          31    0.0864   -0.0385    0.0085   -0.0577   -0.0302   -0.0927    0.0519   -0.0612
          32    0.0291    0.0689    0.0031    0.0280   -0.0813   -0.1219   -0.0423   -0.0952
          33    0.0303   -0.0328    0.0000   -0.0255   -0.0023   -0.0082    0.0089   -0.0046
          34   -0.0863    0.0386    0.0085    0.0573   -0.0307    0.0929    0.0516   -0.0612
          35   -0.0291   -0.0688    0.0034   -0.0289   -0.0807    0.1221   -0.0427   -0.0951
          36    0.0303   -0.0328    0.0000   -0.0254    0.0026   -0.0082   -0.0089    0.0046
          37   -0.0162   -0.1090   -0.0835    0.0861    0.0860   -0.1062   -0.0647   -0.0335
          38   -0.0050   -0.0312   -0.0833    0.0243    0.0559   -0.0292   -0.0311   -0.0223
          39   -0.0063   -0.0308    0.0037    0.0213    0.0040   -0.0269   -0.0068   -0.0008
          40   -0.0000   -0.0002    0.2580   -0.0001   -0.0740   -0.0004   -0.0220    0.0593
          41   -0.0000   -0.0001    0.0157    0.0001   -0.0008   -0.0001   -0.0045    0.0060
          42   -0.0090   -0.0370    0.0000    0.0255   -0.0001   -0.0328   -0.0000   -0.0000
          43    0.0162    0.1092   -0.0824   -0.0855    0.0869    0.1063   -0.0648   -0.0332
          44    0.0050    0.0314   -0.0830   -0.0239    0.0560    0.0293   -0.0310   -0.0222
          45   -0.0063   -0.0306   -0.0037    0.0212   -0.0043   -0.0267    0.0069    0.0008
          46    0.0000   -0.0000   -0.0518   -0.0006   -0.1061    0.0000   -0.1269    0.1936
          47    0.0000    0.0000    0.0072    0.0002    0.0399   -0.0001   -0.0470    0.0063
          48    0.2447    0.0856   -0.0001    0.1326   -0.0007    0.0313   -0.0000   -0.0000


   Root No.      17        18        19        20        21        22        23        24

                17 A      18 A      19 A      20 A      21 A      22 A      23 A      24 A   

                1070.1    1103.8    1116.5    1119.5    1224.8    1232.5    1292.5    1348.1
  
           1    0.0000    0.0000    0.0002    0.0296    0.0166   -0.0306    0.0573   -0.0058
           2   -0.0000   -0.0000   -0.0001   -0.0171   -0.0024   -0.0051   -0.0503   -0.0043
           3   -0.0034   -0.0040    0.0545   -0.0002   -0.0000    0.0000   -0.0000   -0.0000
           4   -0.0000   -0.0000   -0.0001   -0.0280    0.0064    0.0535   -0.0139    0.0245
           5    0.0000    0.0000    0.0000    0.0028    0.0075    0.0223    0.0068    0.0207
           6    0.0031    0.0336   -0.0246    0.0001   -0.0000   -0.0000    0.0000    0.0000
           7    0.0000   -0.0000   -0.0000   -0.0036    0.0080   -0.0150   -0.0039    0.0235
           8    0.0000    0.0000    0.0001    0.0237   -0.0238   -0.0081    0.0332    0.0492
           9    0.0039   -0.0286   -0.0282    0.0001    0.0000   -0.0000    0.0000   -0.0000
          10   -0.0000   -0.0000    0.0000    0.0016    0.0071   -0.0117    0.0029   -0.0183
          11   -0.0000   -0.0000    0.0000    0.0014   -0.0065   -0.0122   -0.0006   -0.0016
          12    0.0159    0.0081    0.0019   -0.0000   -0.0000    0.0000    0.0000   -0.0000
          13    0.0000    0.0000   -0.0000    0.0009   -0.0202    0.0299    0.0165   -0.0113
          14   -0.0000    0.0000    0.0000    0.0016    0.0202    0.0275    0.0088   -0.0104
          15   -0.0336   -0.0224   -0.0055    0.0001    0.0000    0.0000   -0.0000    0.0000
          16   -0.0000   -0.0000   -0.0001   -0.0088   -0.0419    0.0190    0.0034   -0.0183
          17   -0.0000   -0.0000   -0.0001   -0.0115   -0.0117    0.0094   -0.0130   -0.0218
          18    0.0232    0.0188   -0.0002   -0.0000   -0.0000   -0.0000    0.0000   -0.0000
          19    0.0467   -0.2196    0.0531    0.1284   -0.0463   -0.0175   -0.1414   -0.0344
          20   -0.0449    0.1545    0.0882   -0.0863    0.0537   -0.0523    0.0825   -0.0690
          21    0.0027    0.0021   -0.0222   -0.0025   -0.0048    0.0194    0.0086    0.0459
          22   -0.0466    0.2198   -0.0518    0.1287   -0.0463   -0.0175   -0.1414   -0.0344
          23    0.0448   -0.1546   -0.0891   -0.0854    0.0537   -0.0523    0.0825   -0.0690
          24    0.0027    0.0021   -0.0221    0.0027    0.0048   -0.0194   -0.0085   -0.0459
          25   -0.1150    0.0241   -0.1549   -0.0779   -0.0594   -0.0992   -0.0589   -0.0625
          26   -0.0976   -0.0569   -0.0493   -0.0445   -0.0459   -0.1441    0.0248   -0.0106
          27   -0.0005   -0.0103    0.0206   -0.0024   -0.0006   -0.0225    0.0279    0.0195
          28    0.1149   -0.0242    0.1541   -0.0794   -0.0594   -0.0992   -0.0589   -0.0625
          29    0.0976    0.0568    0.0489   -0.0452   -0.0460   -0.1442    0.0249   -0.0106
          30   -0.0005   -0.0103    0.0206    0.0023    0.0006    0.0225   -0.0279   -0.0195
          31    0.0413    0.0544    0.0052    0.0538    0.0839   -0.0252   -0.0743    0.0205
          32    0.1323    0.0076   -0.1573    0.1315    0.0759    0.0105    0.0053   -0.1071
          33   -0.0056    0.0059    0.0220    0.0069    0.0205   -0.0105   -0.0358    0.0374
          34   -0.0411   -0.0543   -0.0046    0.0539    0.0839   -0.0252   -0.0743    0.0205
          35   -0.1321   -0.0074    0.1587    0.1303    0.0759    0.0105    0.0053   -0.1071
          36   -0.0056    0.0059    0.0219   -0.0071   -0.0205    0.0105    0.0357   -0.0374
          37   -0.0655   -0.0319   -0.0082    0.0008    0.0517   -0.0667   -0.0477    0.0825
          38   -0.0175   -0.0084   -0.0021   -0.0007    0.0250   -0.0202   -0.0176    0.0128
          39   -0.0162   -0.0076   -0.0024    0.0005    0.0097   -0.0225   -0.0176    0.0434
          40   -0.0002   -0.0001    0.0000    0.0045    0.0051   -0.1271   -0.0601    0.0797
          41   -0.0001   -0.0000   -0.0000    0.0009   -0.0037   -0.0041    0.0029   -0.0083
          42   -0.0204   -0.0100   -0.0029    0.0000    0.0001   -0.0002   -0.0001    0.0004
          43    0.0657    0.0321    0.0082    0.0005    0.0515   -0.0669   -0.0478    0.0827
          44    0.0177    0.0084    0.0021   -0.0008    0.0249   -0.0201   -0.0175    0.0129
          45   -0.0161   -0.0076   -0.0024   -0.0004   -0.0097    0.0225    0.0176   -0.0433
          46   -0.0000   -0.0001   -0.0006   -0.1143    0.2212    0.0075   -0.0371   -0.0232
          47   -0.0000   -0.0000   -0.0001   -0.0101   -0.0137    0.0108   -0.0129   -0.0230
          48   -0.0486   -0.0337   -0.0080    0.0001    0.0000    0.0000    0.0000    0.0000


   Root No.      25        26        27        28        29        30        31        32

                25 A      26 A      27 A      28 A      29 A      30 A      31 A      32 A   

                1362.0    1390.8    1391.0    1396.2    1411.1    1424.4    1485.0    1880.3
  
           1    0.0037   -0.0019    0.0029   -0.0050   -0.0239   -0.0250   -0.0008   -0.0056
           2   -0.0035   -0.0068    0.0106   -0.0120    0.0038   -0.0374    0.0021   -0.0077
           3    0.0000   -0.0000   -0.0000   -0.0000    0.0000    0.0000    0.0000   -0.0000
           4    0.0189   -0.0101    0.0154   -0.0082    0.0130    0.0211   -0.0239   -0.0102
           5    0.0159    0.0092   -0.0146    0.0227   -0.0215    0.0017   -0.0697    0.0075
           6    0.0000    0.0002    0.0001   -0.0000    0.0000    0.0000   -0.0000    0.0000
           7   -0.0109    0.0073   -0.0116    0.0175    0.0528   -0.0161   -0.0193    0.0129
           8   -0.0318    0.0043   -0.0066    0.0081    0.0066    0.0161    0.0066    0.0001
           9   -0.0000   -0.0001   -0.0000    0.0000   -0.0000    0.0000   -0.0000   -0.0000
          10   -0.0318   -0.0072    0.0113   -0.0083    0.0121    0.0027   -0.0838   -0.0520
          11    0.0010    0.0087   -0.0134   -0.0209    0.0006    0.0013   -0.0349   -0.0069
          12   -0.0001   -0.0276   -0.0132   -0.0001   -0.0000   -0.0000    0.0000    0.0000
          13   -0.0062    0.0029   -0.0042   -0.0024   -0.0061   -0.0011    0.0702    0.2349
          14   -0.0250    0.0044   -0.0065   -0.0008    0.0154   -0.0065    0.1091   -0.1236
          15    0.0000   -0.0007   -0.0003    0.0000   -0.0000   -0.0000    0.0000    0.0000
          16    0.0274   -0.0018    0.0027   -0.0022   -0.0282    0.0051    0.0230   -0.1922
          17    0.0188   -0.0053    0.0082   -0.0101   -0.0139    0.0051   -0.0256    0.1106
          18   -0.0000   -0.0001   -0.0001    0.0000   -0.0000   -0.0000    0.0000   -0.0000
          19   -0.0166    0.0141   -0.0221    0.0213    0.0722    0.1017    0.0263   -0.0018
          20    0.0280    0.0253   -0.0391    0.0382   -0.0080    0.1503   -0.0011   -0.0020
          21   -0.0086   -0.0231    0.0359   -0.0366   -0.0314   -0.1480   -0.0100   -0.0070
          22   -0.0167    0.0144   -0.0219    0.0213    0.0721    0.1017    0.0263   -0.0018
          23    0.0280    0.0251   -0.0392    0.0382   -0.0080    0.1503   -0.0011   -0.0020
          24    0.0086    0.0231   -0.0359    0.0365    0.0314    0.1480    0.0100    0.0070
          25   -0.0620    0.0419   -0.0653    0.0485   -0.0537   -0.0669    0.0214    0.0243
          26    0.0181   -0.0475    0.0716   -0.0754    0.0566    0.0243    0.0519    0.0319
          27    0.0347   -0.0504    0.0771   -0.0734    0.0665    0.0477    0.0419    0.0031
          28   -0.0621    0.0429   -0.0648    0.0485   -0.0537   -0.0669    0.0214    0.0243
          29    0.0181   -0.0456    0.0726   -0.0754    0.0567    0.0243    0.0520    0.0319
          30   -0.0347    0.0497   -0.0775    0.0734   -0.0665   -0.0477   -0.0419   -0.0031
          31   -0.0608   -0.0199    0.0319   -0.0487   -0.1256    0.0624    0.0128    0.0197
          32    0.0818   -0.0024    0.0038   -0.0015    0.0256   -0.0572   -0.0214    0.0216
          33   -0.0587   -0.0149    0.0237   -0.0377   -0.1122    0.0656    0.0272    0.0046
          34   -0.0608   -0.0203    0.0317   -0.0488   -0.1256    0.0624    0.0128    0.0197
          35    0.0818   -0.0028    0.0036   -0.0016    0.0256   -0.0572   -0.0214    0.0216
          36    0.0587    0.0149   -0.0237    0.0377    0.1122   -0.0656   -0.0272   -0.0045
          37    0.0968   -0.0008   -0.0889   -0.0270   -0.0107   -0.0059    0.0932   -0.0251
          38    0.0140   -0.2170    0.0216    0.1305   -0.0156   -0.0042    0.0765   -0.0016
          39    0.0574    0.0900   -0.0703   -0.0751   -0.0039   -0.0020    0.0410    0.0047
          40    0.1180   -0.0382    0.0562    0.1181   -0.0458   -0.0032    0.0626    0.0519
          41   -0.0095    0.0066   -0.0085   -0.0194    0.0038    0.0012   -0.0369   -0.0173
          42    0.0009    0.2709    0.1304    0.0013    0.0002    0.0000   -0.0001    0.0000
          43    0.0974    0.0883   -0.0465   -0.0270   -0.0107   -0.0059    0.0931   -0.0248
          44    0.0145    0.0906    0.1704    0.1324   -0.0153   -0.0041    0.0759   -0.0016
          45   -0.0572   -0.0233    0.1017    0.0747    0.0040    0.0020   -0.0413   -0.0048
          46   -0.0471    0.0049   -0.0072   -0.0041    0.0468   -0.0210    0.0437    0.0565
          47    0.0193   -0.0057    0.0089   -0.0114   -0.0149    0.0063   -0.0269    0.1551
          48   -0.0000    0.0005    0.0003    0.0000    0.0000   -0.0000   -0.0000    0.0000


   Root No.      33        34        35        36        37        38        39        40

                33 A      34 A      35 A      36 A      37 A      38 A      39 A      40 A   

                2969.7    2975.0    2994.2    3053.5    3054.4    3067.5    3071.6    3078.3
  
           1   -0.0000   -0.0000    0.0000   -0.0019    0.0026   -0.0000   -0.0208    0.0001
           2   -0.0000   -0.0000    0.0000   -0.0016    0.0040    0.0000   -0.0278    0.0002
           3    0.0174    0.0004   -0.0345   -0.0000    0.0000   -0.0000   -0.0000    0.0000
           4    0.0000    0.0000    0.0000   -0.0191    0.0062   -0.0000    0.0019    0.0003
           5    0.0000    0.0000    0.0000    0.0238   -0.0076    0.0000   -0.0031    0.0001
           6   -0.0217   -0.0307   -0.0135   -0.0000   -0.0000    0.0001    0.0000    0.0000
           7    0.0000   -0.0000    0.0000   -0.0094   -0.0268   -0.0000   -0.0037    0.0001
           8   -0.0000   -0.0000    0.0000    0.0038    0.0111    0.0000    0.0010    0.0000
           9   -0.0225    0.0300   -0.0133    0.0000   -0.0000   -0.0001   -0.0000   -0.0000
          10    0.0000    0.0000    0.0000   -0.0000   -0.0000    0.0001    0.0000    0.0143
          11   -0.0000   -0.0000   -0.0000   -0.0001   -0.0000   -0.0001   -0.0003   -0.0485
          12   -0.0001   -0.0001   -0.0001    0.0000    0.0000   -0.0577    0.0000    0.0001
          13   -0.0000    0.0000   -0.0000    0.0001    0.0006   -0.0000    0.0005    0.0004
          14    0.0000    0.0000   -0.0000    0.0005   -0.0002    0.0000    0.0001   -0.0002
          15   -0.0001    0.0001   -0.0001    0.0000    0.0000   -0.0001   -0.0000    0.0000
          16    0.0000    0.0000    0.0000    0.0001   -0.0005   -0.0000    0.0000   -0.0005
          17    0.0000   -0.0000    0.0000   -0.0002   -0.0014    0.0000   -0.0008   -0.0007
          18   -0.0001   -0.0001   -0.0001   -0.0000    0.0000   -0.0002    0.0000   -0.0000
          19   -0.0478    0.0017    0.0975    0.0071   -0.0162   -0.0000    0.1254   -0.0008
          20   -0.0636   -0.0036    0.1301    0.0114   -0.0207    0.0000    0.1673   -0.0011
          21   -0.1047   -0.0025    0.2066    0.0205   -0.0405   -0.0000    0.3187   -0.0021
          22    0.0478   -0.0017   -0.0976    0.0071   -0.0162    0.0000    0.1254   -0.0008
          23    0.0636    0.0036   -0.1301    0.0114   -0.0207   -0.0000    0.1673   -0.0011
          24   -0.1047   -0.0025    0.2066   -0.0205    0.0404    0.0000   -0.3187    0.0020
          25    0.0627    0.0903    0.0420    0.1155   -0.0354   -0.0008   -0.0156   -0.0002
          26   -0.0794   -0.1120   -0.0491   -0.1431    0.0442    0.0003    0.0178    0.0007
          27    0.1310    0.1851    0.0808    0.2811   -0.0867   -0.0010   -0.0358   -0.0010
          28   -0.0627   -0.0904   -0.0420    0.1155   -0.0354    0.0008   -0.0155   -0.0001
          29    0.0794    0.1120    0.0491   -0.1430    0.0442   -0.0004    0.0178    0.0007
          30    0.1311    0.1851    0.0808   -0.2810    0.0867   -0.0011    0.0358    0.0009
          31   -0.0971    0.1299   -0.0583    0.0577    0.1597    0.0000    0.0220   -0.0004
          32    0.0392   -0.0541    0.0262   -0.0243   -0.0665    0.0000   -0.0102    0.0002
          33    0.1355   -0.1807    0.0799   -0.0955   -0.2646    0.0000   -0.0368    0.0006
          34    0.0971   -0.1299    0.0583    0.0577    0.1597    0.0002    0.0220   -0.0004
          35   -0.0392    0.0541   -0.0262   -0.0243   -0.0665   -0.0001   -0.0102    0.0002
          36    0.1355   -0.1807    0.0798    0.0955    0.2646    0.0004    0.0368   -0.0006
          37   -0.0003   -0.0006   -0.0002    0.0002   -0.0000   -0.2144   -0.0006   -0.1071
          38    0.0000    0.0001    0.0000    0.0002   -0.0001    0.1765    0.0004    0.0704
          39    0.0003    0.0006    0.0002    0.0000    0.0000    0.3596    0.0012    0.2088
          40    0.0000    0.0000    0.0000    0.0002   -0.0000   -0.0000    0.0003    0.0421
          41    0.0000    0.0000    0.0000    0.0024   -0.0006   -0.0003    0.0022    0.4380
          42   -0.0000   -0.0001   -0.0000   -0.0000    0.0000   -0.0290   -0.0000   -0.0011
          43    0.0002    0.0006    0.0002    0.0001   -0.0002    0.2138   -0.0006   -0.1065
          44   -0.0000   -0.0001   -0.0000    0.0002    0.0000   -0.1746    0.0004    0.0691
          45    0.0002    0.0006    0.0002   -0.0002   -0.0002    0.3612   -0.0012   -0.2092
          46   -0.0000    0.0000   -0.0000   -0.0003   -0.0013    0.0000    0.0002   -0.0007
          47   -0.0000    0.0000   -0.0000   -0.0039    0.0174   -0.0001    0.0150    0.0089
          48   -0.0007    0.0003   -0.0005   -0.0000    0.0000    0.0005   -0.0000   -0.0000


   Root No.      41        42

                41 A      42 A   

                3123.7    3166.3
  
           1    0.0011   -0.0000
           2    0.0016    0.0000
           3   -0.0000   -0.0000
           4   -0.0011    0.0001
           5    0.0017   -0.0000
           6    0.0000   -0.0000
           7    0.0024   -0.0000
           8   -0.0009    0.0000
           9   -0.0000    0.0000
          10   -0.0002   -0.0232
          11    0.0009   -0.0088
          12   -0.0000   -0.0000
          13   -0.0058   -0.0003
          14    0.0032   -0.0000
          15   -0.0000   -0.0000
          16    0.0042    0.0002
          17   -0.0716    0.0003
          18    0.0000    0.0000
          19   -0.0039    0.0000
          20   -0.0049    0.0000
          21   -0.0097    0.0000
          22   -0.0039    0.0000
          23   -0.0049    0.0000
          24    0.0097   -0.0000
          25    0.0041   -0.0005
          26   -0.0049    0.0004
          27    0.0097   -0.0010
          28    0.0041   -0.0005
          29   -0.0049    0.0004
          30   -0.0097    0.0010
          31   -0.0114    0.0001
          32    0.0022   -0.0000
          33    0.0167   -0.0001
          34   -0.0114    0.0001
          35    0.0022   -0.0000
          36   -0.0167    0.0002
          37    0.0045    0.1309
          38   -0.0030   -0.1195
          39   -0.0079   -0.2565
          40    0.0004    0.0163
          41   -0.0057    0.3428
          42    0.0000   -0.0009
          43    0.0045    0.1303
          44   -0.0030   -0.1181
          45    0.0081    0.2576
          46    0.0054   -0.0005
          47    0.8019   -0.0047
          48   -0.0000    0.0000


           MASS-WEIGHTED COORDINATE ANALYSIS (NORMAL COORDINATES)


   Root No.       1         2         3         4         5         6         7         8

                 1 A       2 A       3 A       4 A       5 A       6 A       7 A       8 A   

                 109.1     129.3     223.5     340.3     456.3     613.5     713.0     757.1
  
           1    0.0001    0.0004    0.0000   -0.1865   -0.0001   -0.3626   -0.1485    0.0000
           2   -0.0001   -0.0001   -0.0000    0.0507   -0.0000   -0.1554   -0.3966   -0.0001
           3    0.4242   -0.0531   -0.0313    0.0001   -0.0425    0.0000   -0.0000   -0.1919
           4    0.0001    0.0002   -0.0000   -0.1317   -0.0001   -0.2860   -0.2895    0.0000
           5    0.0002    0.0005    0.0001   -0.2993    0.0000    0.2380    0.0597   -0.0001
           6   -0.3605    0.2166    0.1254    0.0002   -0.0481   -0.0000   -0.0000   -0.1125
           7   -0.0000   -0.0001   -0.0000    0.1035    0.0000   -0.1364    0.5432    0.0001
           8   -0.0000   -0.0002   -0.0000    0.1299   -0.0000   -0.2221   -0.1739    0.0000
           9   -0.2120   -0.0354   -0.3501   -0.0002    0.0005   -0.0001    0.0001   -0.2140
          10   -0.0000    0.0002    0.0001   -0.0947    0.0002    0.5284   -0.1711   -0.0001
          11   -0.0002   -0.0009   -0.0001    0.4790    0.0001    0.1508    0.0111   -0.0000
          12    0.1968   -0.0738   -0.3393   -0.0001   -0.0486    0.0002   -0.0000    0.0480
          13   -0.0001   -0.0002   -0.0001    0.1325    0.0000    0.2954   -0.1058   -0.0001
          14    0.0001    0.0006    0.0001   -0.3506   -0.0000    0.1906    0.1182   -0.0000
          15   -0.0526    0.0297    0.2832   -0.0000    0.6739   -0.0002   -0.0000    0.1285
          16   -0.0001   -0.0004   -0.0001    0.2476   -0.0000   -0.0169    0.1930    0.0000
          17    0.0001    0.0003    0.0001   -0.1967   -0.0001   -0.1936    0.4140    0.0001
          18   -0.0147   -0.0721    0.4934    0.0001   -0.2593   -0.0001    0.0000   -0.0288
          19   -0.1421    0.0480    0.0211   -0.0892    0.0004   -0.0938   -0.0808   -0.1931
          20   -0.1637    0.0201   -0.0572    0.0413    0.0059   -0.0679   -0.1097   -0.2996
          21    0.2877   -0.0496    0.0165    0.0000   -0.0163    0.0061    0.0100    0.2270
          22    0.1423   -0.0477   -0.0211   -0.0892   -0.0004   -0.0938   -0.0808    0.1931
          23    0.1636   -0.0202    0.0572    0.0415   -0.0059   -0.0679   -0.1099    0.2996
          24    0.2877   -0.0496    0.0165    0.0001   -0.0163   -0.0061   -0.0101    0.2270
          25    0.1346   -0.0457   -0.0262   -0.0807    0.0334   -0.1114   -0.0573   -0.1641
          26   -0.1064    0.0516   -0.0142   -0.1190   -0.2580    0.0594    0.0488    0.1390
          27   -0.2312    0.1150    0.0405   -0.0000   -0.1869    0.0049    0.0047    0.1350
          28   -0.1345    0.0460    0.0262   -0.0806   -0.0335   -0.1115   -0.0573    0.1641
          29    0.1066   -0.0512    0.0142   -0.1191    0.2579    0.0591    0.0488   -0.1390
          30   -0.2312    0.1150    0.0405    0.0002   -0.1868   -0.0048   -0.0047    0.1349
          31   -0.1038    0.0103   -0.2213    0.0481    0.0952   -0.0330    0.1820    0.3077
          32    0.0830   -0.0006    0.0002    0.0815    0.0101   -0.0388   -0.0491   -0.1168
          33   -0.1584   -0.0028   -0.2578    0.0001    0.0655   -0.0017    0.0124    0.1987
          34    0.1038   -0.0104    0.2212    0.0483   -0.0952   -0.0331    0.1822   -0.3077
          35   -0.0830    0.0003   -0.0003    0.0815   -0.0101   -0.0388   -0.0492    0.1168
          36   -0.1584   -0.0027   -0.2577   -0.0003    0.0655    0.0017   -0.0125    0.1987
          37    0.0061   -0.1580   -0.1190    0.0603   -0.1874    0.1630   -0.0654   -0.1049
          38    0.1386    0.4426   -0.0652    0.2642   -0.0550    0.0406   -0.0070   -0.0317
          39   -0.0011   -0.3117   -0.1402   -0.0021   -0.1026    0.0057   -0.0034   -0.0358
          40    0.0001   -0.0001   -0.0003   -0.2682   -0.0005    0.1902   -0.0382   -0.0003
          41    0.0004    0.0011   -0.0002    0.1674   -0.0002    0.0408    0.0026   -0.0001
          42    0.2286    0.5028   -0.1959    0.0009   -0.1125    0.0001   -0.0000   -0.0440
          43   -0.0062    0.1578    0.1194    0.0597    0.1881    0.1633   -0.0654    0.1051
          44   -0.1393   -0.4448    0.0654    0.2623    0.0554    0.0405   -0.0069    0.0319
          45   -0.0002   -0.3083   -0.1402    0.0010   -0.1024   -0.0058    0.0034   -0.0356
          46   -0.0000   -0.0002   -0.0000    0.1470    0.0000   -0.1151    0.0077    0.0000
          47    0.0000    0.0001    0.0000   -0.0560   -0.0000   -0.0555    0.1199    0.0000
          48    0.0413   -0.0492    0.2519    0.0001   -0.3596    0.0002   -0.0001    0.2737


   Root No.       9        10        11        12        13        14        15        16

                 9 A      10 A      11 A      12 A      13 A      14 A      15 A      16 A   

                 830.9     895.7     951.8     987.4     990.4    1014.9    1022.7    1045.3
  
           1    0.0000    0.0001   -0.0233    0.0012    0.2108   -0.0001    0.1168    0.2399
           2   -0.0001   -0.0000    0.0265    0.0011    0.1904    0.0004    0.4533    0.0585
           3    0.1585    0.1203   -0.0002   -0.1201    0.0005   -0.1723    0.0003    0.0001
           4   -0.0000    0.0001    0.0837   -0.0008   -0.1302   -0.0000   -0.1514   -0.3058
           5   -0.0000   -0.0004   -0.4010   -0.0016   -0.2943    0.0010    0.2573    0.1238
           6    0.2180   -0.3027    0.0004    0.0750   -0.0001    0.2445   -0.0004   -0.0001
           7    0.0001    0.0000    0.0686    0.0002    0.0343    0.0004    0.3034   -0.1690
           8    0.0000    0.0002    0.0054   -0.0006   -0.1008   -0.0003   -0.3196   -0.0399
           9   -0.2119    0.1687   -0.0000    0.2465   -0.0011    0.2063   -0.0003   -0.0001
          10   -0.0001   -0.0000    0.0312    0.0014    0.2417   -0.0007   -0.2132   -0.0502
          11   -0.0000    0.0002    0.3630   -0.0006   -0.1303   -0.0002   -0.0115    0.1253
          12    0.0140    0.2205    0.0001   -0.1957    0.0015    0.2347   -0.0003    0.0001
          13   -0.0001   -0.0002   -0.0211   -0.0005   -0.0954    0.0003    0.1400    0.0406
          14   -0.0000    0.0000    0.1339    0.0004    0.0680   -0.0002   -0.0227   -0.0888
          15   -0.0506    0.0994   -0.0004    0.1548   -0.0014   -0.2864    0.0005   -0.0001
          16    0.0001   -0.0001   -0.0881   -0.0006   -0.1197    0.0002    0.0112    0.1861
          17    0.0001    0.0000    0.0517    0.0019    0.3549   -0.0009   -0.3447    0.0817
          18   -0.2003   -0.2629    0.0002   -0.3275    0.0016   -0.1689    0.0002    0.0001
          19    0.2225   -0.0796   -0.0956   -0.1945    0.0131   -0.0252    0.0040    0.2123
          20    0.0764    0.2171    0.0703    0.0097    0.0906   -0.1592    0.1811   -0.0984
          21   -0.1087   -0.0655    0.0015    0.0527   -0.0028    0.0635   -0.0165    0.0012
          22   -0.2225    0.0795   -0.0957    0.1947    0.0110    0.0254    0.0040    0.2122
          23   -0.0764   -0.2170    0.0708   -0.0087    0.0911    0.1592    0.1806   -0.0985
          24   -0.1087   -0.0655   -0.0014    0.0527    0.0024    0.0635    0.0163   -0.0012
          25    0.2023   -0.0723   -0.0592   -0.2978   -0.1624    0.0700   -0.1661   -0.1997
          26   -0.1599    0.2612   -0.2208   -0.2474   -0.2264   -0.1650    0.0198   -0.0429
          27   -0.1356    0.1074   -0.0199    0.0197   -0.0195   -0.0647    0.0210    0.0078
          28   -0.2023    0.0723   -0.0594    0.2958   -0.1656   -0.0698   -0.1661   -0.1997
          29    0.1598   -0.2615   -0.2202    0.2448   -0.2286    0.1659    0.0191   -0.0430
          30   -0.1355    0.1073    0.0195    0.0200    0.0191   -0.0647   -0.0208   -0.0078
          31    0.2248   -0.1148    0.0198   -0.1662   -0.0819   -0.2555    0.1154   -0.1698
          32    0.0757    0.2053    0.0073    0.0808   -0.2201   -0.3362   -0.0943   -0.2640
          33    0.0789   -0.0978    0.0000   -0.0734   -0.0062   -0.0227    0.0198   -0.0127
          34   -0.2247    0.1149    0.0199    0.1653   -0.0831    0.2560    0.1148   -0.1699
          35   -0.0757   -0.2051    0.0079   -0.0834   -0.2185    0.3366   -0.0950   -0.2638
          36    0.0789   -0.0978    0.0001   -0.0733    0.0069   -0.0227   -0.0197    0.0127
          37   -0.0421   -0.3247   -0.1951    0.2482    0.2330   -0.2929   -0.1440   -0.0930
          38   -0.0131   -0.0930   -0.1946    0.0699    0.1513   -0.0804   -0.0692   -0.0620
          39   -0.0164   -0.0916    0.0087    0.0615    0.0107   -0.0741   -0.0152   -0.0021
          40   -0.0001   -0.0005    0.6029   -0.0002   -0.2004   -0.0010   -0.0490    0.1645
          41   -0.0001   -0.0003    0.0367    0.0003   -0.0022   -0.0004   -0.0101    0.0165
          42   -0.0235   -0.1103    0.0001    0.0734   -0.0004   -0.0905   -0.0000   -0.0000
          43    0.0421    0.3253   -0.1925   -0.2464    0.2353    0.2930   -0.1443   -0.0921
          44    0.0131    0.0934   -0.1939   -0.0688    0.1518    0.0807   -0.0691   -0.0616
          45   -0.0163   -0.0911   -0.0086    0.0610   -0.0117   -0.0736    0.0154    0.0021
          46    0.0000   -0.0000   -0.1210   -0.0016   -0.2874    0.0001   -0.2825    0.5368
          47    0.0000    0.0000    0.0169    0.0006    0.1080   -0.0003   -0.1046    0.0175
          48    0.6369    0.2551   -0.0003    0.3821   -0.0020    0.0863   -0.0001   -0.0001


   Root No.      17        18        19        20        21        22        23        24

                17 A      18 A      19 A      20 A      21 A      22 A      23 A      24 A   

                1070.1    1103.8    1116.5    1119.5    1224.8    1232.5    1292.5    1348.1
  
           1    0.0001    0.0002    0.0013    0.2636    0.1483   -0.2477    0.4663   -0.0531
           2   -0.0001   -0.0002   -0.0008   -0.1522   -0.0214   -0.0410   -0.4092   -0.0396
           3   -0.0327   -0.0315    0.4442   -0.0022   -0.0000    0.0000   -0.0000   -0.0000
           4   -0.0001   -0.0002   -0.0012   -0.2488    0.0574    0.4338   -0.1134    0.2246
           5    0.0003    0.0001    0.0001    0.0245    0.0672    0.1811    0.0555    0.1903
           6    0.0297    0.2621   -0.2005    0.0008   -0.0000   -0.0001    0.0000    0.0001
           7    0.0001   -0.0000   -0.0001   -0.0325    0.0717   -0.1219   -0.0318    0.2152
           8    0.0000    0.0001    0.0011    0.2113   -0.2131   -0.0654    0.2699    0.4517
           9    0.0375   -0.2232   -0.2297    0.0013    0.0000   -0.0000    0.0001   -0.0000
          10   -0.0002   -0.0000    0.0001    0.0138    0.0631   -0.0952    0.0233   -0.1679
          11   -0.0001   -0.0000    0.0001    0.0123   -0.0585   -0.0986   -0.0050   -0.0148
          12    0.1532    0.0630    0.0152   -0.0003   -0.0001    0.0001    0.0001   -0.0004
          13    0.0000    0.0000   -0.0000    0.0082   -0.1802    0.2423    0.1345   -0.1038
          14   -0.0000    0.0000    0.0001    0.0143    0.1803    0.2233    0.0720   -0.0957
          15   -0.3243   -0.1749   -0.0445    0.0005    0.0000    0.0001   -0.0001    0.0000
          16   -0.0001   -0.0001   -0.0004   -0.0782   -0.3748    0.1539    0.0277   -0.1680
          17   -0.0002   -0.0001   -0.0006   -0.1025   -0.1044    0.0765   -0.1062   -0.1999
          18    0.2241    0.1461   -0.0019   -0.0002   -0.0001   -0.0000    0.0000   -0.0000
          19    0.1305   -0.4957    0.1255    0.3312   -0.1197   -0.0410   -0.3333   -0.0915
          20   -0.1253    0.3488    0.2084   -0.2226    0.1391   -0.1228    0.1945   -0.1835
          21    0.0076    0.0047   -0.0523   -0.0065   -0.0123    0.0455    0.0202    0.1219
          22   -0.1301    0.4962   -0.1224    0.3318   -0.1198   -0.0410   -0.3333   -0.0915
          23    0.1251   -0.3491   -0.2105   -0.2202    0.1391   -0.1228    0.1945   -0.1835
          24    0.0077    0.0047   -0.0523    0.0070    0.0123   -0.0455   -0.0201   -0.1220
          25   -0.3211    0.0543   -0.3659   -0.2009   -0.1538   -0.2330   -0.1388   -0.1662
          26   -0.2726   -0.1285   -0.1165   -0.1149   -0.1189   -0.3385    0.0585   -0.0282
          27   -0.0015   -0.0234    0.0487   -0.0062   -0.0017   -0.0529    0.0657    0.0518
          28    0.3209   -0.0546    0.3640   -0.2048   -0.1539   -0.2329   -0.1389   -0.1662
          29    0.2726    0.1283    0.1154   -0.1165   -0.1190   -0.3386    0.0586   -0.0282
          30   -0.0014   -0.0233    0.0487    0.0058    0.0017    0.0528   -0.0657   -0.0518
          31    0.1153    0.1228    0.0124    0.1387    0.2172   -0.0591   -0.1752    0.0546
          32    0.3697    0.0173   -0.3716    0.3391    0.1964    0.0247    0.0126   -0.2847
          33   -0.0157    0.0133    0.0519    0.0179    0.0531   -0.0247   -0.0843    0.0994
          34   -0.1149   -0.1226   -0.0110    0.1391    0.2172   -0.0591   -0.1751    0.0545
          35   -0.3691   -0.0167    0.3750    0.3360    0.1965    0.0247    0.0126   -0.2847
          36   -0.0158    0.0132    0.0518   -0.0183   -0.0530    0.0247    0.0843   -0.0994
          37   -0.1830   -0.0721   -0.0194    0.0020    0.1338   -0.1567   -0.1124    0.2192
          38   -0.0490   -0.0189   -0.0050   -0.0018    0.0648   -0.0474   -0.0415    0.0341
          39   -0.0454   -0.0172   -0.0057    0.0012    0.0251   -0.0529   -0.0414    0.1154
          40   -0.0005   -0.0002    0.0001    0.0116    0.0133   -0.2985   -0.1417    0.2119
          41   -0.0002   -0.0001   -0.0000    0.0024   -0.0096   -0.0097    0.0068   -0.0221
          42   -0.0569   -0.0226   -0.0068    0.0001    0.0002   -0.0004   -0.0003    0.0012
          43    0.1835    0.0724    0.0195    0.0014    0.1333   -0.1571   -0.1126    0.2200
          44    0.0493    0.0190    0.0050   -0.0019    0.0645   -0.0472   -0.0413    0.0343
          45   -0.0451   -0.0171   -0.0056   -0.0010   -0.0251    0.0529    0.0414   -0.1151
          46   -0.0000   -0.0001   -0.0015   -0.2948    0.5728    0.0175   -0.0875   -0.0617
          47   -0.0001   -0.0000   -0.0001   -0.0261   -0.0354    0.0254   -0.0304   -0.0612
          48   -0.1358   -0.0760   -0.0189    0.0002    0.0001    0.0000    0.0000    0.0000


   Root No.      25        26        27        28        29        30        31        32

                25 A      26 A      27 A      28 A      29 A      30 A      31 A      32 A   

                1362.0    1390.8    1391.0    1396.2    1411.1    1424.4    1485.0    1880.3
  
           1    0.0346   -0.0151    0.0279   -0.0487   -0.2050   -0.2010   -0.0043   -0.0157
           2   -0.0327   -0.0557    0.1009   -0.1182    0.0324   -0.3002    0.0111   -0.0217
           3    0.0000   -0.0001   -0.0001   -0.0000    0.0000    0.0000    0.0000   -0.0000
           4    0.1763   -0.0823    0.1460   -0.0804    0.1118    0.1694   -0.1250   -0.0287
           5    0.1477    0.0755   -0.1385    0.2228   -0.1843    0.0139   -0.3640    0.0212
           6    0.0000    0.0015    0.0008   -0.0000    0.0000    0.0000   -0.0000    0.0000
           7   -0.1015    0.0600   -0.1097    0.1716    0.4528   -0.1293   -0.1006    0.0365
           8   -0.2962    0.0352   -0.0629    0.0800    0.0569    0.1293    0.0343    0.0002
           9   -0.0000   -0.0006   -0.0003    0.0001   -0.0000    0.0000   -0.0000   -0.0000
          10   -0.2962   -0.0588    0.1077   -0.0813    0.1037    0.0219   -0.4376   -0.1465
          11    0.0089    0.0714   -0.1274   -0.2056    0.0055    0.0105   -0.1820   -0.0194
          12   -0.0009   -0.2256   -0.1258   -0.0009   -0.0002   -0.0000    0.0001    0.0000
          13   -0.0576    0.0234   -0.0403   -0.0233   -0.0523   -0.0091    0.3667    0.6622
          14   -0.2329    0.0359   -0.0621   -0.0074    0.1323   -0.0523    0.5698   -0.3484
          15    0.0000   -0.0055   -0.0031    0.0000   -0.0000   -0.0000    0.0001    0.0000
          16    0.2552   -0.0144    0.0255   -0.0219   -0.2420    0.0413    0.1198   -0.5417
          17    0.1753   -0.0436    0.0782   -0.0991   -0.1195    0.0412   -0.1338    0.3118
          18   -0.0000   -0.0010   -0.0005    0.0000   -0.0000   -0.0000    0.0000   -0.0000
          19   -0.0449    0.0333   -0.0608    0.0607    0.1794    0.2367    0.0398   -0.0014
          20    0.0755    0.0599   -0.1076    0.1089   -0.0199    0.3496   -0.0016   -0.0016
          21   -0.0232   -0.0547    0.0989   -0.1041   -0.0780   -0.3443   -0.0151   -0.0057
          22   -0.0450    0.0340   -0.0603    0.0607    0.1794    0.2366    0.0397   -0.0014
          23    0.0755    0.0595   -0.1079    0.1089   -0.0199    0.3496   -0.0016   -0.0016
          24    0.0232    0.0547   -0.0989    0.1040    0.0780    0.3443    0.0152    0.0057
          25   -0.1675    0.0992   -0.1796    0.1379   -0.1334   -0.1557    0.0323    0.0198
          26    0.0490   -0.1123    0.1970   -0.2146    0.1408    0.0564    0.0786    0.0260
          27    0.0936   -0.1191    0.2121   -0.2090    0.1654    0.1109    0.0634    0.0026
          28   -0.1675    0.1015   -0.1784    0.1380   -0.1334   -0.1557    0.0324    0.0199
          29    0.0490   -0.1078    0.1998   -0.2148    0.1409    0.0565    0.0786    0.0260
          30   -0.0936    0.1175   -0.2131    0.2090   -0.1654   -0.1109   -0.0634   -0.0025
          31   -0.1641   -0.0471    0.0879   -0.1388   -0.3122    0.1450    0.0193    0.0161
          32    0.2207   -0.0056    0.0105   -0.0044    0.0636   -0.1331   -0.0324    0.0176
          33   -0.1585   -0.0353    0.0652   -0.1073   -0.2789    0.1527    0.0411    0.0037
          34   -0.1641   -0.0481    0.0873   -0.1388   -0.3122    0.1451    0.0193    0.0161
          35    0.2207   -0.0066    0.0099   -0.0044    0.0635   -0.1330   -0.0324    0.0177
          36    0.1585    0.0353   -0.0652    0.1073    0.2789   -0.1527   -0.0411   -0.0037
          37    0.2612   -0.0020   -0.2446   -0.0770   -0.0267   -0.0137    0.1410   -0.0205
          38    0.0377   -0.5135    0.0595    0.3715   -0.0387   -0.0097    0.1157   -0.0013
          39    0.1551    0.2130   -0.1934   -0.2137   -0.0097   -0.0046    0.0621    0.0038
          40    0.3185   -0.0903    0.1546    0.3362   -0.1138   -0.0075    0.0946    0.0424
          41   -0.0257    0.0157   -0.0233   -0.0551    0.0095    0.0029   -0.0558   -0.0141
          42    0.0025    0.6409    0.3588    0.0038    0.0005    0.0001   -0.0001    0.0000
          43    0.2628    0.2089   -0.1280   -0.0769   -0.0267   -0.0136    0.1408   -0.0203
          44    0.0391    0.2143    0.4688    0.3768   -0.0380   -0.0095    0.1147   -0.0013
          45   -0.1545   -0.0552    0.2798    0.2126    0.0101    0.0046   -0.0625   -0.0039
          46   -0.1272    0.0115   -0.0198   -0.0117    0.1164   -0.0488    0.0661    0.0461
          47    0.0522   -0.0136    0.0244   -0.0324   -0.0370    0.0146   -0.0407    0.1267
          48   -0.0000    0.0013    0.0007    0.0000    0.0000   -0.0000   -0.0000    0.0000


   Root No.      33        34        35        36        37        38        39        40

                33 A      34 A      35 A      36 A      37 A      38 A      39 A      40 A   

                2969.7    2975.0    2994.2    3053.5    3054.4    3067.5    3071.6    3078.3
  
           1   -0.0000   -0.0000    0.0000   -0.0129    0.0186   -0.0000   -0.1286    0.0007
           2   -0.0000   -0.0000    0.0000   -0.0105    0.0281    0.0000   -0.1714    0.0012
           3    0.1488    0.0029   -0.2672   -0.0000    0.0000   -0.0000   -0.0000    0.0000
           4    0.0000    0.0000    0.0000   -0.1283    0.0438   -0.0000    0.0117    0.0019
[...]
 EFF. MASS   3.8222

 VIBRATION   21   21A         ATOM PAIR      ENERGY CONTRIBUTION    RADIAL
 FREQ.      1224.76         C  6 -- H 16         +32.9% ( 70.8%)      0.6%
 T-DIPOLE    0.0256         C  3 -- C  6         +11.8% ( 42.4%)     50.0%
 TRAVEL      0.1232         C  5 -- C  6          +8.9% ( 36.9%)      0.2%
 RED. MASS   0.4955         C  3 -- H 12          +7.3% ( 33.3%)      1.6%
 EFF. MASS   3.6247

 VIBRATION   22   22A         ATOM PAIR      ENERGY CONTRIBUTION    RADIAL
 FREQ.      1232.55         C  2 -- H 10         +18.5% ( 58.6%)      0.4%
 T-DIPOLE    0.0213         C  2 -- H  9         +18.5% ( 58.6%)      0.4%
 TRAVEL      0.0967         C  1 -- C  2         +14.7% ( 52.2%)     90.4%
 RED. MASS   0.8651         C  2 -- C  5         +10.4% ( 43.8%)      0.2%
 EFF. MASS   5.8562

 VIBRATION   23   23A         ATOM PAIR      ENERGY CONTRIBUTION    RADIAL
 FREQ.      1292.51         C  1 -- H  8         +22.5% ( 64.8%)      0.0%
 T-DIPOLE    0.0234         C  1 -- H  7         +22.5% ( 64.8%)      0.0%
 TRAVEL      0.0918         C  1 -- C  3         +18.9% ( 59.5%)     88.3%
 RED. MASS   1.9064         C  1 -- C  2         +14.7% ( 52.5%)     60.9%
 EFF. MASS   6.1868

 VIBRATION   24   24A         ATOM PAIR      ENERGY CONTRIBUTION    RADIAL
 FREQ.      1348.08         C  3 -- C  6         +16.9% ( 53.1%)     77.6%
 T-DIPOLE    0.0077         C  3 -- H 12         +15.1% ( 50.2%)      0.0%
 TRAVEL      0.0943         C  3 -- H 11         +15.1% ( 50.2%)      0.0%
 RED. MASS   0.9496         C  1 -- C  3          +9.7% ( 40.3%)     50.2%
 EFF. MASS   5.6305

 VIBRATION   25   25A         ATOM PAIR      ENERGY CONTRIBUTION    RADIAL
 FREQ.      1361.99         C  3 -- C  6         +12.1% ( 42.6%)     86.5%
 T-DIPOLE    0.0504         C  4 -- H 14         +10.6% ( 39.8%)      0.2%
 TRAVEL      0.1001         C  3 -- H 12          +9.2% ( 37.2%)      0.3%
 RED. MASS   0.4442         C  3 -- H 11          +9.2% ( 37.2%)      0.3%
 EFF. MASS   4.9428

 VIBRATION   26   26A         ATOM PAIR      ENERGY CONTRIBUTION    RADIAL
 FREQ.      1390.83         C  4 -- H 14         +39.9% ( 56.3%)      0.5%
 T-DIPOLE    0.0602         C  4 -- H 13         +29.4% ( 48.4%)      2.5%
 TRAVEL      0.1662         C  4 -- H 15          +9.3% ( 27.3%)     37.5%
 RED. MASS   0.3296         C  4 -- C  5          +4.6% ( 19.1%)      8.5%
 EFF. MASS   1.7543

 VIBRATION   27   27A         ATOM PAIR      ENERGY CONTRIBUTION    RADIAL
 FREQ.      1390.99         C  4 -- H 15         +26.4% ( 48.8%)      0.0%
 T-DIPOLE    0.0553         C  4 -- H 14         +13.4% ( 34.8%)      4.6%
 TRAVEL      0.1495         C  2 -- H 10         +12.3% ( 33.2%)      4.5%
 RED. MASS   0.2105         C  2 -- H  9         +12.2% ( 33.1%)      4.7%
 EFF. MASS   2.1695

 VIBRATION   28   28A         ATOM PAIR      ENERGY CONTRIBUTION    RADIAL
 FREQ.      1396.15         C  4 -- H 15         +15.9% ( 40.3%)      0.3%
 T-DIPOLE    0.0307         C  4 -- H 13         +15.6% ( 40.0%)      0.3%
 TRAVEL      0.1351         C  2 -- H 10         +11.3% ( 34.0%)      5.1%
 RED. MASS   0.2010         C  2 -- H  9         +11.3% ( 34.0%)      5.1%
 EFF. MASS   2.6453

 VIBRATION   29   29A         ATOM PAIR      ENERGY CONTRIBUTION    RADIAL
 FREQ.      1411.06         C  3 -- H 12         +17.3% ( 52.0%)      6.2%
 T-DIPOLE    0.0164         C  3 -- H 11         +17.3% ( 52.0%)      6.2%
 TRAVEL      0.0957         C  3 -- C  6         +17.0% ( 51.5%)     91.4%
 RED. MASS   0.7157         C  1 -- C  3         +11.6% ( 42.5%)      5.9%
 EFF. MASS   5.2156

 VIBRATION   30   30A         ATOM PAIR      ENERGY CONTRIBUTION    RADIAL
 FREQ.      1424.40         C  1 -- H  7         +26.7% ( 54.1%)      5.4%
 T-DIPOLE    0.0339         C  1 -- H  8         +26.7% ( 54.1%)      5.4%
 TRAVEL      0.1261         C  1 -- C  3         +10.8% ( 34.4%)     81.2%
 RED. MASS   0.4168         C  1 -- C  2         +10.6% ( 34.1%)     58.2%
 EFF. MASS   2.9756

 VIBRATION   31   31A         ATOM PAIR      ENERGY CONTRIBUTION    RADIAL
 FREQ.      1485.05         C  4 -- C  5         +26.0% ( 77.3%)     79.5%
 T-DIPOLE    0.0713         C  2 -- C  5         +22.5% ( 71.9%)     95.1%
 TRAVEL      0.0654         C  5 -- C  6         +15.0% ( 58.8%)      8.9%
 RED. MASS   3.4186         C  4 -- H 13          +7.4% ( 41.3%)      3.2%
 EFF. MASS  10.6052

 VIBRATION   32   32A         ATOM PAIR      ENERGY CONTRIBUTION    RADIAL
 FREQ.      1880.31         C  5 -- C  6         +43.6% ( 97.6%)     98.1%
 T-DIPOLE    0.1352         C  4 -- C  5         +18.0% ( 62.8%)     61.6%
 TRAVEL      0.0550         C  2 -- C  5         +16.3% ( 59.6%)      5.2%
 RED. MASS   5.6028         C  3 -- C  6         +10.7% ( 48.3%)     25.5%
 EFF. MASS  11.8671         C  6 -- H 16         +10.1% ( 47.1%)      8.8%

 VIBRATION   33   33A         ATOM PAIR      ENERGY CONTRIBUTION    RADIAL
 FREQ.      2969.75         C  3 -- H 11         +19.3% ( 45.8%)     96.5%
 T-DIPOLE    0.0128         C  3 -- H 12         +19.3% ( 45.7%)     96.5%
 TRAVEL      0.1208         C  2 -- H 10         +18.0% ( 44.2%)     96.5%
 RED. MASS   0.1809         C  2 -- H  9         +18.0% ( 44.2%)     96.5%
 EFF. MASS   1.5569         C  1 -- H  8         +11.5% ( 35.4%)     96.1%
                            C  1 -- H  7         +11.5% ( 35.4%)     96.1%

 VIBRATION   34   34A         ATOM PAIR      ENERGY CONTRIBUTION    RADIAL
 FREQ.      2975.02         C  2 -- H 10         +25.0% ( 51.9%)     96.6%
 T-DIPOLE    0.0033         C  2 -- H  9         +25.0% ( 51.9%)     96.6%
 TRAVEL      0.1214         C  3 -- H 11         +23.9% ( 50.7%)     96.6%
 RED. MASS   0.2591         C  3 -- H 12         +23.9% ( 50.7%)     96.6%
 EFF. MASS   1.5390

 VIBRATION   35   35A         ATOM PAIR      ENERGY CONTRIBUTION    RADIAL
 FREQ.      2994.25         C  1 -- H  8         +37.6% ( 63.4%)     96.6%
 T-DIPOLE    0.0350         C  1 -- H  7         +37.6% ( 63.4%)     96.6%
 TRAVEL      0.1214         C  2 -- H 10          +5.7% ( 24.8%)     97.0%
 RED. MASS   0.3184         C  2 -- H  9          +5.7% ( 24.8%)     97.0%
 EFF. MASS   1.5276

 VIBRATION   36   36A         ATOM PAIR      ENERGY CONTRIBUTION    RADIAL
 FREQ.      3053.50         C  2 -- H  9         +44.0% ( 65.4%)     97.6%
 T-DIPOLE    0.0742         C  2 -- H 10         +44.0% ( 65.4%)     97.6%
 TRAVEL      0.1315         C  3 -- H 11          +5.1% ( 22.2%)     97.8%
 RED. MASS   0.3907         C  3 -- H 12          +5.1% ( 22.2%)     97.8%
 EFF. MASS   1.2774

 VIBRATION   37   37A         ATOM PAIR      ENERGY CONTRIBUTION    RADIAL
 FREQ.      3054.38         C  3 -- H 12         +43.5% ( 65.1%)     97.6%
 T-DIPOLE    0.0488         C  3 -- H 11         +43.5% ( 65.1%)     97.6%
 TRAVEL      0.1309         C  2 -- H  9          +4.7% ( 21.3%)     97.4%
 RED. MASS   0.3822         C  2 -- H 10          +4.7% ( 21.3%)     97.4%
 EFF. MASS   1.2888

 VIBRATION   38   38A         ATOM PAIR      ENERGY CONTRIBUTION    RADIAL
 FREQ.      3067.50         C  4 -- H 15         +49.1% ( 72.3%)     97.0%
 T-DIPOLE    0.0186         C  4 -- H 13         +49.0% ( 72.2%)     97.0%
 TRAVEL      0.1209         C  4 -- C  5          +1.0% ( 10.2%)      0.0%
 RED. MASS   0.5098         C  4 -- H 14          +0.9% (  9.9%)      0.0%
 EFF. MASS   1.5034

 VIBRATION   39   39A         ATOM PAIR      ENERGY CONTRIBUTION    RADIAL
 FREQ.      3071.56         C  1 -- H  7         +48.1% ( 68.3%)     97.7%
 T-DIPOLE    0.0549         C  1 -- H  8         +48.0% ( 68.3%)     97.7%
 TRAVEL      0.1310         C  1 -- C  3          +0.7% (  8.0%)     46.4%
 RED. MASS   0.4595         C  1 -- C  2          +0.7% (  8.0%)     46.0%
 EFF. MASS   1.2801

 VIBRATION   40   40A         ATOM PAIR      ENERGY CONTRIBUTION    RADIAL
 FREQ.      3078.26         C  4 -- H 14         +60.9% ( 80.5%)     98.7%
 T-DIPOLE    0.0329         C  4 -- H 13         +19.1% ( 45.0%)     85.9%
 TRAVEL      0.1203         C  4 -- H 15         +19.0% ( 45.0%)     85.8%
 RED. MASS   0.4745         C  4 -- C  5          +1.0% ( 10.5%)      0.0%
 EFF. MASS   1.5133

 VIBRATION   41   41A         ATOM PAIR      ENERGY CONTRIBUTION    RADIAL
 FREQ.      3123.68         C  6 -- H 16         +96.3% ( 99.8%)    100.0%
 T-DIPOLE    0.3607         C  5 -- C  6          +1.8% ( 13.6%)     48.9%
 TRAVEL      0.1178         C  3 -- C  6          +1.6% ( 13.0%)     24.7%
 RED. MASS   0.9251
 EFF. MASS   1.5552

 VIBRATION   42   42A         ATOM PAIR      ENERGY CONTRIBUTION    RADIAL
 FREQ.      3166.35         C  4 -- H 14         +38.0% ( 59.4%)     97.7%
 T-DIPOLE    0.0453         C  4 -- H 15         +30.8% ( 53.5%)     96.7%
 TRAVEL      0.1367         C  4 -- H 13         +30.8% ( 53.5%)     96.7%
 RED. MASS   0.3298         C  4 -- C  5          +0.3% (  5.5%)     99.3%
 EFF. MASS   1.1396

      SYMMETRY NUMBER FOR POINT-GROUP C1  =  1


          SYSTEM IS A GROUND STATE



 InChI=1S/C6H10/c1-6-4-2-3-5-6/h4H,2-3,5H2,1H3


          MOLECULE IS NOT LINEAR

          THERE ARE 42 GENUINE VIBRATIONS IN THIS SYSTEM
          THIS THERMODYNAMICS CALCULATION IS LIMITED TO
          MOLECULES WHICH HAVE NO INTERNAL ROTATIONS




                    CALCULATED THERMODYNAMIC PROPERTIES
                                          *
   TEMP. (K)   PARTITION FUNCTION   H.O.F.    ENTHALPY  HEAT CAPACITY ENTROPY
                                   KCAL/MOL   CAL/MOLE    CAL/K/MOL  CAL/K/MOL


 298.00  VIB.     0.1396D+02                  2163.5236    17.0049    12.4983
         ROT.     0.1247D+06                   888.2813     2.9808    26.2975
         INT.     0.1740D+07                  3051.8049    19.9857    38.7959
         TRA.     0.7198D+27                  1480.4688     4.9680    39.1295
         TOT.                       -7.110    4532.2737    24.9537    77.9253

 200.00  VIB.     0.4468D+01                   879.0507     9.5873     7.3698
         ROT.     0.6855D+05                   596.1620     2.9808    25.1088
         INT.     0.3062D+06                  1475.2126    12.5681    32.4786
         TRA.     0.3957D+27                   993.6033     4.9680    37.1484
         TOT.                       -9.173    2468.8159    17.5362    69.6270

 210.00  VIB.     0.4993D+01                   978.0935    10.2266     7.8529
         ROT.     0.7375D+05                   625.9700     2.9808    25.2543
         INT.     0.3682D+06                  1604.0635    13.2074    33.1072
         TRA.     0.4258D+27                  1043.2834     4.9680    37.3907
         TOT.                       -8.995    2647.3470    18.1754    70.4979

 220.00  VIB.     0.5585D+01                  1083.6895    10.8978     8.3440
         ROT.     0.7908D+05                   655.7781     2.9808    25.3929
         INT.     0.4417D+06                  1739.4676    13.8786    33.7370
         TRA.     0.4566D+27                  1092.9636     4.9680    37.6219
         TOT.                       -8.810    2832.4312    18.8466    71.3588

 230.00  VIB.     0.6255D+01                  1196.1523    11.5997     8.8438
         ROT.     0.8453D+05                   685.5862     2.9808    25.5254
         INT.     0.5287D+06                  1881.7386    14.5805    34.3693
         TRA.     0.4880D+27                  1142.6437     4.9680    37.8427
         TOT.                       -8.618    3024.3823    19.5486    72.2120

 240.00  VIB.     0.7012D+01                  1315.7804    12.3305     9.3528
         ROT.     0.9010D+05                   715.3943     2.9808    25.6523
         INT.     0.6318D+06                  2031.1748    15.3113    35.0051
         TRA.     0.5202D+27                  1192.3239     4.9680    38.0541
         TOT.                       -8.419    3223.4987    20.2794    73.0593

 250.00  VIB.     0.7871D+01                  1442.8515    13.0879     9.8715
         ROT.     0.9579D+05                   745.2024     2.9808    25.7740
         INT.     0.7540D+06                  2188.0539    16.0687    35.6455
         TRA.     0.5531D+27                  1242.0041     4.9680    38.2569
         TOT.                       -8.212    3430.0580    21.0367    73.9024

 260.00  VIB.     0.8847D+01                  1577.6183    13.8692    10.3999
         ROT.     0.1016D+06                   775.0105     2.9808    25.8909
         INT.     0.8988D+06                  2352.6288    16.8500    36.2908
         TRA.     0.5866D+27                  1291.6842     4.9680    38.4518
         TOT.                       -7.998    3644.3130    21.8180    74.7426

 270.00  VIB.     0.9955D+01                  1720.3061    14.6716    10.9383
         ROT.     0.1075D+06                   804.8186     2.9808    26.0034
         INT.     0.1070D+07                  2525.1247    17.6524    36.9417
         TRA.     0.6208D+27                  1341.3644     4.9680    38.6393
         TOT.                       -7.776    3866.4891    22.6204    75.5810

 280.00  VIB.     0.1122D+02                  1871.1107    15.4921    11.4867
         ROT.     0.1135D+06                   834.6267     2.9808    26.1118
         INT.     0.1274D+07                  2705.7375    18.4729    37.5985
         TRA.     0.6556D+27                  1391.0445     4.9680    38.8200
         TOT.                       -7.545    4096.7820    23.4409    76.4185

 290.00  VIB.     0.1266D+02                  2030.1980    16.3276    12.0449
         ROT.     0.1197D+06                   864.4348     2.9808    26.2164
         INT.     0.1515D+07                  2894.6329    19.3084    38.2613
         TRA.     0.6910D+27                  1440.7247     4.9680    38.9943
         TOT.                       -7.307    4335.3576    24.2765    77.2556

 300.00  VIB.     0.1430D+02                  2197.7037    17.1753    12.6127
         ROT.     0.1259D+06                   894.2429     2.9808    26.3175
         INT.     0.1801D+07                  3091.9466    20.1561    38.9301
         TRA.     0.7270D+27                  1490.4049     4.9680    39.1627
         TOT.                       -7.060    4582.3515    25.1241    78.0928

 310.00  VIB.     0.1619D+02                  2373.7340    18.0321    13.1898
         ROT.     0.1323D+06                   924.0510     2.9808    26.4152
         INT.     0.2141D+07                  3297.7851    21.0129    39.6050
         TRA.     0.7637D+27                  1540.0850     4.9680    39.3256
         TOT.                       -6.804    4837.8701    25.9809    78.9306

 320.00  VIB.     0.1834D+02                  2558.3672    18.8954    13.7759
         ROT.     0.1387D+06                   953.8591     2.9808    26.5098
         INT.     0.2544D+07                  3512.2263    21.8762    40.2857
         TRA.     0.8009D+27                  1589.7652     4.9680    39.4834
         TOT.                       -6.540    5101.9915    26.8442    79.7691

 330.00  VIB.     0.2081D+02                  2751.6548    19.7626    14.3706
         ROT.     0.1453D+06                   983.6672     2.9808    26.6016
         INT.     0.3024D+07                  3735.3220    22.7434    40.9722
         TRA.     0.8388D+27                  1639.4454     4.9680    39.6362
         TOT.                       -6.268    5374.7674    27.7114    80.6084

 340.00  VIB.     0.2365D+02                  2953.6233    20.6312    14.9735
         ROT.     0.1519D+06                  1013.4753     2.9808    26.6905
         INT.     0.3593D+07                  3967.0986    23.6120    41.6640
         TRA.     0.8772D+27                  1689.1255     4.9680    39.7845
         TOT.                       -5.986    5656.2242    28.5800    81.4486

 350.00  VIB.     0.2692D+02                  3164.2767    21.4992    15.5840
         ROT.     0.1587D+06                  1043.2834     2.9808    26.7770
         INT.     0.4271D+07                  4207.5601    24.4800    42.3610
         TRA.     0.9162D+27                  1738.8057     4.9680    39.9285
         TOT.                       -5.696    5946.3658    29.4480    82.2895

 360.00  VIB.     0.3067D+02                  3383.5979    22.3645    16.2018
         ROT.     0.1655D+06                  1073.0915     2.9808    26.8609
         INT.     0.5077D+07                  4456.6894    25.3453    43.0628
         TRA.     0.9557D+27                  1788.4859     4.9680    40.0685
         TOT.                       -5.397    6245.1752    30.3133    83.1313

 370.00  VIB.     0.3500D+02                  3611.5512    23.2253    16.8263
         ROT.     0.1725D+06                  1102.8996     2.9808    26.9426
         INT.     0.6037D+07                  4714.4508    26.2061    43.7689
         TRA.     0.9958D+27                  1838.1660     4.9680    40.2046
         TOT.                       -5.090    6552.6168    31.1741    83.9736

 380.00  VIB.     0.4000D+02                  3848.0842    24.0802    17.4571
         ROT.     0.1795D+06                  1132.7077     2.9808    27.0221
         INT.     0.7181D+07                  4980.7919    27.0610    44.4792
         TRA.     0.1036D+28                  1887.8462     4.9680    40.3371
         TOT.                       -4.774    6868.6381    32.0290    84.8163

 390.00  VIB.     0.4577D+02                  4093.1301    24.9277    18.0936
         ROT.     0.1866D+06                  1162.5158     2.9808    27.0995
         INT.     0.8543D+07                  5255.6459    27.9085    45.1931
         TRA.     0.1078D+28                  1937.5263     4.9680    40.4662
         TOT.                       -4.449    7193.1722    32.8765    85.6592

 400.00  VIB.     0.5244D+02                  4346.6090    25.7666    18.7353
         ROT.     0.1939D+06                  1192.3239     2.9808    27.1750
         INT.     0.1017D+08                  5538.9329    28.7474    45.9103
         TRA.     0.1119D+28                  1987.2065     4.9680    40.5919
         TOT.                       -4.116    7526.1394    33.7154    86.5022

   *: NOTE: HEATS OF FORMATION ARE RELATIVE TO THE
            ELEMENTS IN THEIR STANDARD STATE AT 298K
              (=  Standard Enthalpy of Formation).

            Hvib:  Zero-point energy is not included.
                   frequencies of less than zero cm-1 are not included.
            Hrot = (3/2)RT
            Htra = (3/2)RT + pV = (5/2)RT

            Heat capacity is Cp, not Cv

          For more information, see: HTTP://OpenMOPAC.net/Manual/thermochemistry.html


           FORCE CONSTANT IN CARTESIAN COORDINATES (Millidynes/A)

    ATOM   CHEMICAL       X               Y               Z
   NUMBER   SYMBOL  FORCE CONSTANT  FORCE CONSTANT  FORCE CONSTANT

      1       C        7.811527        8.399902        8.354233
      2       C        7.953553        9.160444        8.069914
      3       C        9.649349        7.569949        8.054469
      4       C        9.165881        8.550777        7.956754
      5       C       15.069478       10.708001        2.732430
      6       C       12.086290       13.058687        2.321134
      7       H        1.249518        1.664541        3.586597
      8       H        1.249484        1.664470        3.586643
      9       H        1.287852        1.548315        3.552559
     10       H        1.287947        1.547651        3.553416
     11       H        1.918560        0.915966        3.552351
     12       H        1.918412        0.916101        3.552516
     13       H        1.607537        1.288028        3.746160
     14       H        0.744630        5.340212        0.653191
     15       H        1.600440        1.272394        3.770216
     16       H        0.713897        5.354625        0.346988

 **********************
 *                    *
 * JOB ENDED NORMALLY *
 *                    *
 **********************



 TOTAL JOB TIME:             1.44 SECONDS

 == MOPAC DONE ==
