 *******************************************************************************
 ** Site#: 14399        For non-commercial use only    Version 18.184L 64BITS **
 *******************************************************************************
 ** Cite this program as: MOPAC2016, Version: 18.184L, James J. P. Stewart,   **
 ** Stewart Computational Chemistry, web: HTTP://OpenMOPAC.net. Days left:  18**
 *******************************************************************************
 **                                                                           **
 **                                MOPAC2016                                  **
 **                                                                           **
 *******************************************************************************

                              PM3 CALCULATION RESULTS

 *******************************************************************************
 *  CALCULATION DONE:                                Sat Jun 15 15:19:57 2019  *
 *  PM3        - The PM3 Hamiltonian to be used
 *  PRECISE    - CRITERIA TO BE INCREASED BY 100 TIMES
 *  NOSYM      - POINT-GROUP SYMMETRY SET TO C1
 *  THREADS=1  - MULTI-THREADING NOT USED
 *  T=         - A TIME OF 172800.0 SECONDS REQUESTED
 *  DUMP=N     - RESTART FILE WRITTEN EVERY  7200.000 SECONDS
 *******************************************************************************
pm3  precise nosym THREADS=1
 InChI=1S/C7H10/c1-2-7-5-3-4-6-7/h1,5H,2-4,6H2/lp1

   ATOM   CHEMICAL          X               Y               Z
  NUMBER   SYMBOL      (ANGSTROMS)     (ANGSTROMS)     (ANGSTROMS)
 
     1       C         -1.74390000  *   0.26610000  *  -0.77430000  *
     2       C         -0.29370000  *   0.71080000  *  -0.99000000  *
     3       C         -1.75170000  *  -0.57640000  *   0.50580000  *
     4       C          1.92920000  *   0.27400000  *   0.35840000  *
     5       C          0.45310000  *   0.10060000  *   0.14320000  *
     6       C         -0.33570000  *  -0.58990000  *   0.95380000  *
     7       C          2.64180000  *  -1.06090000  *   0.22180000  *
     8       H         -2.09520000  *  -0.33990000  *  -1.63810000  *
     9       H         -2.40820000  *   1.15070000  *  -0.66070000  *
    10       H          0.10030000  *   0.32960000  *  -1.95680000  *
    11       H         -0.20750000  *   1.81820000  *  -0.95210000  *
    12       H         -2.39130000  *  -0.11090000  *   1.28610000  *
    13       H         -2.09450000  *  -1.61310000  *   0.29990000  *
    14       H          2.34030000  *   0.97860000  *  -0.39570000  *
    15       H          2.11220000  *   0.69390000  *   1.37050000  *
    16       H          0.01260000  *  -1.10260000  *   1.84520000  *
    17       H          3.73230000  *  -0.92880000  *   0.38320000  *
 


          CARTESIAN COORDINATES 

    NO.       ATOM           X           Y           Z

     1         C         -1.7439      0.2661     -0.7743
     2         C         -0.2937      0.7108     -0.9900
     3         C         -1.7517     -0.5764      0.5058
     4         C          1.9292      0.2740      0.3584
     5         C          0.4531      0.1006      0.1432
     6         C         -0.3357     -0.5899      0.9538
     7         C          2.6418     -1.0609      0.2218
     8         H         -2.0952     -0.3399     -1.6381
     9         H         -2.4082      1.1507     -0.6607
    10         H          0.1003      0.3296     -1.9568
    11         H         -0.2075      1.8182     -0.9521
    12         H         -2.3913     -0.1109      1.2861
    13         H         -2.0945     -1.6131      0.2999
    14         H          2.3403      0.9786     -0.3957
    15         H          2.1122      0.6939      1.3705
    16         H          0.0126     -1.1026      1.8452
    17         H          3.7323     -0.9288      0.3832

  H: (PM3): J. J. P. STEWART, J. COMP. CHEM. 10, 209 (1989).
  C: (PM3): J. J. P. STEWART, J. COMP. CHEM. 10, 209 (1989).

           Empirical Formula: C7 H10  =    17 atoms



      MOLECULAR POINT GROUP   :   C1  


      RHF CALCULATION, NO. OF DOUBLY OCCUPIED LEVELS = 19


          Geometry optimization using EF

          DIAGONAL MATRIX USED AS START HESSIAN

 CYCLE:     1 TIME:   0.004 TIME LEFT:  2.00D  GRAD.:    86.729 HEAT:  101.1166
 CYCLE:     2 TIME:   0.008 TIME LEFT:  2.00D  GRAD.:    48.440 HEAT:  99.08786
 CYCLE:     3 TIME:   0.008 TIME LEFT:  2.00D  GRAD.:    43.280 HEAT:  98.67927
 CYCLE:     4 TIME:   0.000 TIME LEFT:  2.00D  GRAD.:    22.713 HEAT:  98.20732
 CYCLE:     5 TIME:   0.008 TIME LEFT:  2.00D  GRAD.:    22.795 HEAT:  98.02478
 CYCLE:     6 TIME:   0.004 TIME LEFT:  2.00D  GRAD.:    21.447 HEAT:  97.85535
 CYCLE:     7 TIME:   0.004 TIME LEFT:  2.00D  GRAD.:    20.899 HEAT:  97.76056
 CYCLE:     8 TIME:   0.004 TIME LEFT:  2.00D  GRAD.:     9.373 HEAT:  97.65955
 CYCLE:     9 TIME:   0.008 TIME LEFT:  2.00D  GRAD.:     8.992 HEAT:  97.63647
 CYCLE:    10 TIME:   0.000 TIME LEFT:  2.00D  GRAD.:     5.687 HEAT:  97.60129
 CYCLE:    11 TIME:   0.004 TIME LEFT:  2.00D  GRAD.:     7.858 HEAT:  97.56441
 CYCLE:    12 TIME:   0.004 TIME LEFT:  2.00D  GRAD.:     8.531 HEAT:  97.52736
 CYCLE:    13 TIME:   0.004 TIME LEFT:  2.00D  GRAD.:     9.562 HEAT:  97.50143
 CYCLE:    14 TIME:   0.004 TIME LEFT:  2.00D  GRAD.:     9.566 HEAT:  97.48097
 CYCLE:    15 TIME:   0.004 TIME LEFT:  2.00D  GRAD.:     7.142 HEAT:  97.45300
 CYCLE:    16 TIME:   0.004 TIME LEFT:  2.00D  GRAD.:     7.778 HEAT:  97.43106
 CYCLE:    17 TIME:   0.004 TIME LEFT:  2.00D  GRAD.:     5.458 HEAT:  97.39383
 CYCLE:    18 TIME:   0.000 TIME LEFT:  2.00D  GRAD.:     7.508 HEAT:  97.36118
 CYCLE:    19 TIME:   0.004 TIME LEFT:  2.00D  GRAD.:     6.233 HEAT:  97.32288
 CYCLE:    20 TIME:   0.004 TIME LEFT:  2.00D  GRAD.:     5.441 HEAT:  97.30189
 CYCLE:    21 TIME:   0.004 TIME LEFT:  2.00D  GRAD.:     5.072 HEAT:  97.28093
 CYCLE:    22 TIME:   0.000 TIME LEFT:  2.00D  GRAD.:     5.924 HEAT:  97.25402
 CYCLE:    23 TIME:   0.004 TIME LEFT:  2.00D  GRAD.:     5.532 HEAT:  97.22234
 CYCLE:    24 TIME:   0.004 TIME LEFT:  2.00D  GRAD.:     4.770 HEAT:  97.18711
 CYCLE:    25 TIME:   0.004 TIME LEFT:  2.00D  GRAD.:     5.912 HEAT:  97.15862
 CYCLE:    26 TIME:   0.000 TIME LEFT:  2.00D  GRAD.:     6.983 HEAT:  97.10808
 CYCLE:    27 TIME:   0.004 TIME LEFT:  2.00D  GRAD.:     5.529 HEAT:  97.08438
 CYCLE:    28 TIME:   0.008 TIME LEFT:  2.00D  GRAD.:     4.971 HEAT:  97.06212
 CYCLE:    29 TIME:   0.004 TIME LEFT:  2.00D  GRAD.:     3.358 HEAT:  97.04719
 CYCLE:    30 TIME:   0.000 TIME LEFT:  2.00D  GRAD.:     2.017 HEAT:  97.03416
 CYCLE:    31 TIME:   0.004 TIME LEFT:  2.00D  GRAD.:     2.173 HEAT:  97.02436
 CYCLE:    32 TIME:   0.004 TIME LEFT:  2.00D  GRAD.:     1.605 HEAT:  97.01706
 CYCLE:    33 TIME:   0.004 TIME LEFT:  2.00D  GRAD.:     1.079 HEAT:  97.01312
 CYCLE:    34 TIME:   0.000 TIME LEFT:  2.00D  GRAD.:     1.022 HEAT:  97.01002
 CYCLE:    35 TIME:   0.004 TIME LEFT:  2.00D  GRAD.:     1.088 HEAT:  97.00720
 CYCLE:    36 TIME:   0.004 TIME LEFT:  2.00D  GRAD.:     0.938 HEAT:  97.00460
 CYCLE:    37 TIME:   0.004 TIME LEFT:  2.00D  GRAD.:     0.779 HEAT:  97.00276
 CYCLE:    38 TIME:   0.004 TIME LEFT:  2.00D  GRAD.:     0.807 HEAT:  97.00132
 CYCLE:    39 TIME:   0.000 TIME LEFT:  2.00D  GRAD.:     0.909 HEAT:  96.99961
 CYCLE:    40 TIME:   0.004 TIME LEFT:  2.00D  GRAD.:     1.012 HEAT:  96.99762
 CYCLE:    41 TIME:   0.004 TIME LEFT:  2.00D  GRAD.:     1.123 HEAT:  96.99493
 CYCLE:    42 TIME:   0.004 TIME LEFT:  2.00D  GRAD.:     1.366 HEAT:  96.99122
 CYCLE:    43 TIME:   0.004 TIME LEFT:  2.00D  GRAD.:     1.921 HEAT:  96.98544
 CYCLE:    44 TIME:   0.000 TIME LEFT:  2.00D  GRAD.:     2.334 HEAT:  96.97801
 CYCLE:    45 TIME:   0.004 TIME LEFT:  2.00D  GRAD.:     2.659 HEAT:  96.96635
 CYCLE:    46 TIME:   0.004 TIME LEFT:  2.00D  GRAD.:     2.337 HEAT:  96.95660
 CYCLE:    47 TIME:   0.004 TIME LEFT:  2.00D  GRAD.:     3.281 HEAT:  96.93526
 CYCLE:    48 TIME:   0.000 TIME LEFT:  2.00D  GRAD.:     5.205 HEAT:  96.90577
 CYCLE:    49 TIME:   0.008 TIME LEFT:  2.00D  GRAD.:     5.045 HEAT:  96.88785
 CYCLE:    50 TIME:   0.000 TIME LEFT:  2.00D  GRAD.:     5.202 HEAT:  96.86175
 CYCLE:    51 TIME:   0.004 TIME LEFT:  2.00D  GRAD.:     9.120 HEAT:  96.85967
 CYCLE:    52 TIME:   0.004 TIME LEFT:  2.00D  GRAD.:     4.251 HEAT:  96.82886
 CYCLE:    53 TIME:   0.004 TIME LEFT:  2.00D  GRAD.:     2.601 HEAT:  96.80969
 CYCLE:    54 TIME:   0.004 TIME LEFT:  2.00D  GRAD.:     2.976 HEAT:  96.78944
 CYCLE:    55 TIME:   0.004 TIME LEFT:  2.00D  GRAD.:     6.135 HEAT:  96.75055
 CYCLE:    56 TIME:   0.000 TIME LEFT:  2.00D  GRAD.:     5.858 HEAT:  96.71877
 CYCLE:    57 TIME:   0.004 TIME LEFT:  2.00D  GRAD.:     3.837 HEAT:  96.69257
 CYCLE:    58 TIME:   0.004 TIME LEFT:  2.00D  GRAD.:     3.900 HEAT:  96.66951
 CYCLE:    59 TIME:   0.004 TIME LEFT:  2.00D  GRAD.:     6.503 HEAT:  96.64976
 CYCLE:    60 TIME:   0.000 TIME LEFT:  2.00D  GRAD.:     3.928 HEAT:  96.63921
 CYCLE:    61 TIME:   0.004 TIME LEFT:  2.00D  GRAD.:     2.962 HEAT:  96.61561
 CYCLE:    62 TIME:   0.004 TIME LEFT:  2.00D  GRAD.:     4.125 HEAT:  96.59561
 CYCLE:    63 TIME:   0.004 TIME LEFT:  2.00D  GRAD.:     5.367 HEAT:  96.57133
 CYCLE:    64 TIME:   0.004 TIME LEFT:  2.00D  GRAD.:     3.961 HEAT:  96.54503
 CYCLE:    65 TIME:   0.000 TIME LEFT:  2.00D  GRAD.:     6.686 HEAT:  96.52108
 CYCLE:    66 TIME:   0.004 TIME LEFT:  2.00D  GRAD.:     3.576 HEAT:  96.48063
 CYCLE:    67 TIME:   0.004 TIME LEFT:  2.00D  GRAD.:     3.808 HEAT:  96.44834
 CYCLE:    68 TIME:   0.004 TIME LEFT:  2.00D  GRAD.:     3.137 HEAT:  96.42792
 CYCLE:    69 TIME:   0.004 TIME LEFT:  2.00D  GRAD.:     4.355 HEAT:  96.42016
 CYCLE:    70 TIME:   0.004 TIME LEFT:  2.00D  GRAD.:     2.073 HEAT:  96.40706
 CYCLE:    71 TIME:   0.004 TIME LEFT:  2.00D  GRAD.:     1.224 HEAT:  96.39758
 CYCLE:    72 TIME:   0.000 TIME LEFT:  2.00D  GRAD.:     1.017 HEAT:  96.39223
 CYCLE:    73 TIME:   0.004 TIME LEFT:  2.00D  GRAD.:     1.505 HEAT:  96.39085
 CYCLE:    74 TIME:   0.004 TIME LEFT:  2.00D  GRAD.:     0.953 HEAT:  96.38982
 CYCLE:    75 TIME:   0.004 TIME LEFT:  2.00D  GRAD.:     0.588 HEAT:  96.38869
 CYCLE:    76 TIME:   0.004 TIME LEFT:  2.00D  GRAD.:     0.597 HEAT:  96.38807
 CYCLE:    77 TIME:   0.000 TIME LEFT:  2.00D  GRAD.:     0.560 HEAT:  96.38744
 CYCLE:    78 TIME:   0.004 TIME LEFT:  2.00D  GRAD.:     0.537 HEAT:  96.38694
 CYCLE:    79 TIME:   0.004 TIME LEFT:  2.00D  GRAD.:     0.744 HEAT:  96.38612
 CYCLE:    80 TIME:   0.004 TIME LEFT:  2.00D  GRAD.:     0.663 HEAT:  96.38548
 CYCLE:    81 TIME:   0.004 TIME LEFT:  2.00D  GRAD.:     0.747 HEAT:  96.38350
 CYCLE:    82 TIME:   0.000 TIME LEFT:  2.00D  GRAD.:     0.646 HEAT:  96.38218
 CYCLE:    83 TIME:   0.004 TIME LEFT:  2.00D  GRAD.:     0.516 HEAT:  96.38144
 CYCLE:    84 TIME:   0.004 TIME LEFT:  2.00D  GRAD.:     0.477 HEAT:  96.38102
 CYCLE:    85 TIME:   0.004 TIME LEFT:  2.00D  GRAD.:     0.415 HEAT:  96.38072
 CYCLE:    86 TIME:   0.000 TIME LEFT:  2.00D  GRAD.:     0.381 HEAT:  96.38050
 CYCLE:    87 TIME:   0.004 TIME LEFT:  2.00D  GRAD.:     0.401 HEAT:  96.38035
 CYCLE:    88 TIME:   0.004 TIME LEFT:  2.00D  GRAD.:     0.310 HEAT:  96.38021
 CYCLE:    89 TIME:   0.004 TIME LEFT:  2.00D  GRAD.:     0.236 HEAT:  96.38008
 CYCLE:    90 TIME:   0.000 TIME LEFT:  2.00D  GRAD.:     0.217 HEAT:  96.38001
 CYCLE:    91 TIME:   0.004 TIME LEFT:  2.00D  GRAD.:     0.271 HEAT:  96.37991
 CYCLE:    92 TIME:   0.004 TIME LEFT:  2.00D  GRAD.:     0.175 HEAT:  96.37986
 CYCLE:    93 TIME:   0.004 TIME LEFT:  2.00D  GRAD.:     0.132 HEAT:  96.37981
 CYCLE:    94 TIME:   0.004 TIME LEFT:  2.00D  GRAD.:     0.090 HEAT:  96.37979
 CYCLE:    95 TIME:   0.000 TIME LEFT:  2.00D  GRAD.:     0.060 HEAT:  96.37977
 CYCLE:    96 TIME:   0.004 TIME LEFT:  2.00D  GRAD.:     0.052 HEAT:  96.37976
 CYCLE:    97 TIME:   0.004 TIME LEFT:  2.00D  GRAD.:     0.059 HEAT:  96.37975
 CYCLE:    98 TIME:   0.004 TIME LEFT:  2.00D  GRAD.:     0.051 HEAT:  96.37975
 CYCLE:    99 TIME:   0.000 TIME LEFT:  2.00D  GRAD.:     0.034 HEAT:  96.37975

     GRADIENT =  0.03444  IS LESS THAN CUTOFF =  0.05000



 -------------------------------------------------------------------------------
 pm3  precise nosym THREADS=1
 InChI=1S/C7H10/c1-2-7-5-3-4-6-7/h1,5H,2-4,6H2/lp1



     GEOMETRY OPTIMISED USING EIGENVECTOR FOLLOWING (EF).     
     SCF FIELD WAS ACHIEVED                                   


                              PM3 CALCULATION
                                                       MOPAC2016 (Version: 18.184L)
                                                       Sat Jun 15 15:19:57 2019
                                                       No. of days remaining =  18




          FINAL HEAT OF FORMATION =         96.37975 KCAL/MOL =     403.25286 KJ/MOL


          TOTAL ENERGY            =       -979.63027 EV
          ELECTRONIC ENERGY       =      -4505.08862 EV  POINT GROUP:     C1  
          CORE-CORE REPULSION     =       3525.45835 EV
          COSMO AREA              =        147.69 SQUARE ANGSTROMS
          COSMO VOLUME            =        140.20 CUBIC ANGSTROMS

          GRADIENT NORM           =          0.03444 = 0.00835 PER ATOM
          IONIZATION POTENTIAL    =          8.770563 EV
          HOMO LUMO ENERGIES (EV) =         -8.771 -0.681
          NO. OF FILLED LEVELS    =         19
          MOLECULAR WEIGHT        =         94.1560

          MOLECULAR DIMENSIONS (Angstroms)

            Atom       Atom       Distance
            H    17    H     9     6.54713
            H    11    H    13     4.10113
            H    10    H    12     3.07804


          SCF CALCULATIONS        =        111
 
          WALL-CLOCK TIME         =          0.336 SECONDS
          COMPUTATION TIME        =          0.301 SECONDS




   ATOM   CHEMICAL          X               Y               Z
  NUMBER   SYMBOL      (ANGSTROMS)     (ANGSTROMS)     (ANGSTROMS)
 
     1       C         -1.78925814  *   0.41109840  *  -0.65191204  *
     2       C         -0.33680378  *   0.83261410  *  -0.92100554  *
     3       C         -1.73089626  *  -0.64934123  *   0.45880906  *
     4       C          1.95924914  *   0.12871000  *   0.04928385  *
     5       C          0.48275109  *   0.00392791  *   0.02367808  *
     6       C         -0.27930184  *  -0.80370189  *   0.77516363  *
     7       C          2.61675460  *  -0.78043548  *   0.96250156  *
     8       H         -2.26395520  *   0.00913301  *  -1.56466109  *
     9       H         -2.40692675  *   1.27524509  *  -0.34916003  *
    10       H         -0.03679252  *   0.64964905  *  -1.96948617  *
    11       H         -0.17583546  *   1.91142681  *  -0.73973284  *
    12       H         -2.29603503  *  -0.34219979  *   1.35799440  *
    13       H         -2.16596982  *  -1.61355279  *   0.13766268  *
    14       H          2.34546362  *   0.09846684  *  -0.99286089  *
    15       H          2.23495571  *   1.13624217  *   0.44500597  *
    16       H          0.08872732  *  -1.49676159  *   1.53409433  *
    17       H          3.69660736  *  -0.81606019  *   0.76359165  *

                             CARTESIAN COORDINATES

   1    C       -1.789258141     0.411098401    -0.651912043
   2    C       -0.336803778     0.832614104    -0.921005540
   3    C       -1.730896258    -0.649341233     0.458809055
   4    C        1.959249144     0.128709996     0.049283847
   5    C        0.482751088     0.003927912     0.023678080
   6    C       -0.279301843    -0.803701889     0.775163625
   7    C        2.616754597    -0.780435483     0.962501560
   8    H       -2.263955197     0.009133012    -1.564661090
   9    H       -2.406926745     1.275245093    -0.349160033
  10    H       -0.036792520     0.649649053    -1.969486174
  11    H       -0.175835458     1.911426808    -0.739732836
  12    H       -2.296035027    -0.342199790     1.357994402
  13    H       -2.165969825    -1.613552788     0.137662679
  14    H        2.345463620     0.098466843    -0.992860895
  15    H        2.234955713     1.136242171     0.445005967
  16    H        0.088727322    -1.496761585     1.534094327
  17    H        3.696607365    -0.816060186     0.763591652


           Empirical Formula: C7 H10  =    17 atoms



      MOLECULAR POINT GROUP   :   C1  


                  EIGENVALUES  
 -40.37724 -33.34574 -28.13110 -26.17005 -20.80965 -20.14890 -17.74145 -16.52762
 -16.40398 -15.06036 -14.46976 -13.59629 -13.45829 -12.78086 -12.71918 -12.49924
 -11.86182  -9.30620  -8.77056  -0.68064   1.09745   3.11067   3.30409   3.62622
   3.67902   3.74598   3.77928   3.93801   4.05280   4.17707   4.32921   4.47406
   4.53854   4.79039   5.04558   5.22160   5.79378   6.11746


              NET ATOMIC CHARGES AND DIPOLE CONTRIBUTIONS

  ATOM NO.   TYPE          CHARGE      No. of ELECS.   s-Pop       p-Pop       
    1          C          -0.096942        4.0969     1.16553     2.93141
    2          C          -0.053294        4.0533     1.15288     2.90042
    3          C          -0.067403        4.0674     1.15399     2.91341
    4          C          -0.148874        4.1489     1.15461     2.99427
    5          C          -0.156706        4.1567     1.20240     2.95431
    6          C          -0.115092        4.1151     1.20178     2.91331
    7          C           0.058286        3.9417     1.64341     2.29831
    8          H           0.049162        0.9508     0.95084
    9          H           0.049142        0.9509     0.95086
   10          H           0.051270        0.9487     0.94873
   11          H           0.050220        0.9498     0.94978
   12          H           0.056609        0.9434     0.94339
   13          H           0.056402        0.9436     0.94360
   14          H           0.078088        0.9219     0.92191
   15          H           0.106551        0.8934     0.89345
   16          H           0.133275        0.8667     0.86673
   17          H          -0.050693        1.0507     1.05069
 DIPOLE           X         Y         Z       TOTAL
 POINT-CHG.    -0.583     0.190     0.121     0.625
 HYBRID         0.936     1.227    -1.521     2.167
 SUM            0.354     1.416    -1.399     2.022


          ATOMIC ORBITAL ELECTRON POPULATIONS

     Atom    s        px        py        pz   
    1  C   1.16553   0.95920   0.98634   0.98587
    2  C   1.15288   0.94194   0.98115   0.97733
    3  C   1.15399   0.95360   0.98230   0.97751
    4  C   1.15461   0.97244   1.01680   1.00503
    5  C   1.20240   0.93927   1.00939   1.00565
    6  C   1.20178   0.94419   0.98401   0.98512
    7  C   1.64341   0.97516   0.51334   0.80980
    8  H   0.95084
    9  H   0.95086
   10  H   0.94873
   11  H   0.94978
   12  H   0.94339
   13  H   0.94360
   14  H   0.92191
   15  H   0.89345
   16  H   0.86673
   17  H   1.05069
 *******************************************************************************
 ** Site#: 14399        For non-commercial use only    Version 18.184L 64BITS **
 *******************************************************************************
 ** Cite this program as: MOPAC2016, Version: 18.184L, James J. P. Stewart,   **
 ** Stewart Computational Chemistry, web: HTTP://OpenMOPAC.net. Days left:  18**
 *******************************************************************************
 **                                                                           **
 **                                MOPAC2016                                  **
 **                                                                           **
 *******************************************************************************

                              PM3 CALCULATION RESULTS

 *******************************************************************************
 *  CALCULATION DONE:                                Sat Jun 15 15:19:57 2019  *
 *  PM3        - The PM3 Hamiltonian to be used
 *  OLDGEO     - PREVIOUS GEOMETRY TO BE USED
 *  PRECISE    - CRITERIA TO BE INCREASED BY 100 TIMES
 *  NOSYM      - POINT-GROUP SYMMETRY SET TO C1
 *  THREADS=1  - MULTI-THREADING NOT USED
 *  T=         - A TIME OF 172800.0 SECONDS REQUESTED
 *  DUMP=N     - RESTART FILE WRITTEN EVERY  7200.000 SECONDS
 *  THERMO     - THERMODYNAMIC QUANTITIES TO BE CALCULATED
 *******************************************************************************
oldgeo thermo nosym precise THREADS=1  pm3
 InChI=1S/C7H10/c1-2-7-5-3-4-6-7/h1,5H,2-4,6H2/lp1

   ATOM   CHEMICAL          X               Y               Z
  NUMBER   SYMBOL      (ANGSTROMS)     (ANGSTROMS)     (ANGSTROMS)
 
     1       C         -1.78925814  *   0.41109840  *  -0.65191204  *
     2       C         -0.33680378  *   0.83261410  *  -0.92100554  *
     3       C         -1.73089626  *  -0.64934123  *   0.45880906  *
     4       C          1.95924914  *   0.12871000  *   0.04928385  *
     5       C          0.48275109  *   0.00392791  *   0.02367808  *
     6       C         -0.27930184  *  -0.80370189  *   0.77516363  *
     7       C          2.61675460  *  -0.78043548  *   0.96250156  *
     8       H         -2.26395520  *   0.00913301  *  -1.56466109  *
     9       H         -2.40692675  *   1.27524509  *  -0.34916003  *
    10       H         -0.03679252  *   0.64964905  *  -1.96948617  *
    11       H         -0.17583546  *   1.91142681  *  -0.73973284  *
    12       H         -2.29603503  *  -0.34219979  *   1.35799440  *
    13       H         -2.16596982  *  -1.61355279  *   0.13766268  *
    14       H          2.34546362  *   0.09846684  *  -0.99286089  *
    15       H          2.23495571  *   1.13624217  *   0.44500597  *
    16       H          0.08872732  *  -1.49676159  *   1.53409433  *
    17       H          3.69660736  *  -0.81606019  *   0.76359165  *
 


          CARTESIAN COORDINATES 

    NO.       ATOM           X           Y           Z

     1         C         -1.7893      0.4111     -0.6519
     2         C         -0.3368      0.8326     -0.9210
     3         C         -1.7309     -0.6493      0.4588
     4         C          1.9592      0.1287      0.0493
     5         C          0.4828      0.0039      0.0237
     6         C         -0.2793     -0.8037      0.7752
     7         C          2.6168     -0.7804      0.9625
     8         H         -2.2640      0.0091     -1.5647
     9         H         -2.4069      1.2752     -0.3492
    10         H         -0.0368      0.6496     -1.9695
    11         H         -0.1758      1.9114     -0.7397
    12         H         -2.2960     -0.3422      1.3580
    13         H         -2.1660     -1.6136      0.1377
    14         H          2.3455      0.0985     -0.9929
    15         H          2.2350      1.1362      0.4450
    16         H          0.0887     -1.4968      1.5341
    17         H          3.6966     -0.8161      0.7636

  H: (PM3): J. J. P. STEWART, J. COMP. CHEM. 10, 209 (1989).
  C: (PM3): J. J. P. STEWART, J. COMP. CHEM. 10, 209 (1989).

           Empirical Formula: C7 H10  =    17 atoms



      MOLECULAR POINT GROUP   :   C1  


      RHF CALCULATION, NO. OF DOUBLY OCCUPIED LEVELS = 19



          HEAT OF FORMATION =      96.379747 KCALS/MOLE


          CARTESIAN COORDINATE DERIVATIVES

   NUMBER  ATOM         X            Y            Z

     1       C      0.004129    -0.000291     0.002274
     2       C      0.001896    -0.001307     0.000638
     3       C      0.005847     0.002245     0.000542
     4       C     -0.001461     0.017861     0.015250
     5       C      0.005832    -0.001450    -0.006375
     6       C      0.000690     0.001270    -0.002811
     7       C     -0.005444    -0.017026    -0.008946
     8       H      0.003651     0.005825     0.005887
     9       H     -0.006588     0.002023     0.006787
    10       H     -0.000007    -0.004012    -0.009926
    11       H     -0.005121    -0.003783    -0.003152
    12       H     -0.001536    -0.005982    -0.006637
    13       H      0.001554    -0.001653    -0.003001
    14       H     -0.005163    -0.001776     0.000852
    15       H      0.000719     0.003842    -0.000443
    16       H     -0.004398     0.002402     0.006067
    17       H      0.005399     0.001813     0.002993
 


          GRADIENT NORM =   0.04116


          TIME FOR SCF CALCULATION =    0.00

          TIME FOR DERIVATIVES     =    0.00

          MOLECULAR WEIGHT =   94.16



          ROTATIONAL CONSTANTS IN CM(-1)

          A =    0.20676743   B =    0.06282308   C =    0.05000847



           PRINCIPAL MOMENTS OF INERTIA IN UNITS OF 10**(-40)*GRAM-CM**2

          A =      135.3829   B =      445.5810   C =      559.7607


          ORIENTATION OF MOLECULE IN FORCE CALCULATION

    NO.       ATOM         X         Y         Z

     1          C      -1.5255   -1.4345   -0.0195
     2          C       0.0106   -1.4345   -0.0195
     3          C      -1.9559    0.0407   -0.0195
     4          C       1.8185    0.4202    0.0017
     5          C       0.3926    0.0163   -0.0101
     6          C      -0.6812    0.8192   -0.0099
     7          C       2.0307    1.8492    0.0777
     8          H      -1.9248   -1.9680    0.8614
     9          H      -1.9255   -1.9689   -0.8996
    10          H       0.4277   -1.9588    0.8602
    11          H       0.4271   -1.9456   -0.9072
    12          H      -2.5635    0.2974   -0.9068
    13          H      -2.5756    0.2940    0.8602
    14          H       2.3579   -0.1700    0.7742
    15          H       2.2863    0.1413   -0.9735
    16          H      -0.6563    1.9106   -0.0061
    17          H       3.0768    2.0729    0.3277


    FIRST DERIVATIVES WILL BE USED IN THE CALCULATION OF SECOND DERIVATIVES

          ESTIMATED TIME TO COMPLETE CALCULATION =        0.80 SECONDS

    FOR POINT-GROUP C1   THERE ARE   1 UNIQUE SYMMETRY FUNCTIONS.

 STEP:   1 TIME =     0.01 SECS, INTEGRAL =      0.01 TIME LEFT: 172799.98
 STEP:   2 TIME =     0.01 SECS, INTEGRAL =      0.02 TIME LEFT: 172799.97
 STEP:   3 TIME =     0.01 SECS, INTEGRAL =      0.04 TIME LEFT: 172799.96
 STEP:   4 TIME =     0.01 SECS, INTEGRAL =      0.05 TIME LEFT: 172799.95
 STEP:   5 TIME =     0.01 SECS, INTEGRAL =      0.06 TIME LEFT: 172799.94
 STEP:   6 TIME =     0.01 SECS, INTEGRAL =      0.07 TIME LEFT: 172799.93
 STEP:   7 TIME =     0.01 SECS, INTEGRAL =      0.08 TIME LEFT: 172799.91
 STEP:   8 TIME =     0.01 SECS, INTEGRAL =      0.09 TIME LEFT: 172799.90
 STEP:   9 TIME =     0.01 SECS, INTEGRAL =      0.10 TIME LEFT: 172799.89
 STEP:  10 TIME =     0.01 SECS, INTEGRAL =      0.11 TIME LEFT: 172799.89
 STEP:  11 TIME =     0.01 SECS, INTEGRAL =      0.12 TIME LEFT: 172799.88
 STEP:  12 TIME =     0.01 SECS, INTEGRAL =      0.13 TIME LEFT: 172799.86
 STEP:  13 TIME =     0.01 SECS, INTEGRAL =      0.14 TIME LEFT: 172799.85
 STEP:  14 TIME =     0.01 SECS, INTEGRAL =      0.16 TIME LEFT: 172799.84
 STEP:  15 TIME =     0.02 SECS, INTEGRAL =      0.17 TIME LEFT: 172799.82
 STEP:  16 TIME =     0.01 SECS, INTEGRAL =      0.18 TIME LEFT: 172799.81
 STEP:  17 TIME =     0.01 SECS, INTEGRAL =      0.20 TIME LEFT: 172799.80
 STEP:  18 TIME =     0.01 SECS, INTEGRAL =      0.21 TIME LEFT: 172799.79
 STEP:  19 TIME =     0.01 SECS, INTEGRAL =      0.22 TIME LEFT: 172799.78
 STEP:  20 TIME =     0.01 SECS, INTEGRAL =      0.23 TIME LEFT: 172799.77
 STEP:  21 TIME =     0.01 SECS, INTEGRAL =      0.24 TIME LEFT: 172799.75
 STEP:  22 TIME =     0.01 SECS, INTEGRAL =      0.25 TIME LEFT: 172799.74
 STEP:  23 TIME =     0.01 SECS, INTEGRAL =      0.27 TIME LEFT: 172799.73
 STEP:  24 TIME =     0.01 SECS, INTEGRAL =      0.28 TIME LEFT: 172799.72
 STEP:  25 TIME =     0.02 SECS, INTEGRAL =      0.29 TIME LEFT: 172799.70
 STEP:  26 TIME =     0.01 SECS, INTEGRAL =      0.30 TIME LEFT: 172799.69
 STEP:  27 TIME =     0.01 SECS, INTEGRAL =      0.32 TIME LEFT: 172799.68
 STEP:  28 TIME =     0.01 SECS, INTEGRAL =      0.33 TIME LEFT: 172799.67
 STEP:  29 TIME =     0.01 SECS, INTEGRAL =      0.34 TIME LEFT: 172799.66
 STEP:  30 TIME =     0.01 SECS, INTEGRAL =      0.35 TIME LEFT: 172799.64
 STEP:  31 TIME =     0.01 SECS, INTEGRAL =      0.36 TIME LEFT: 172799.63
 STEP:  32 TIME =     0.01 SECS, INTEGRAL =      0.38 TIME LEFT: 172799.62
 STEP:  33 TIME =     0.01 SECS, INTEGRAL =      0.39 TIME LEFT: 172799.61
 STEP:  34 TIME =     0.01 SECS, INTEGRAL =      0.40 TIME LEFT: 172799.60
 STEP:  35 TIME =     0.01 SECS, INTEGRAL =      0.41 TIME LEFT: 172799.59
 STEP:  36 TIME =     0.01 SECS, INTEGRAL =      0.42 TIME LEFT: 172799.57
 STEP:  37 TIME =     0.01 SECS, INTEGRAL =      0.43 TIME LEFT: 172799.56
 STEP:  38 TIME =     0.02 SECS, INTEGRAL =      0.45 TIME LEFT: 172799.55
 STEP:  39 TIME =     0.01 SECS, INTEGRAL =      0.46 TIME LEFT: 172799.54
 STEP:  40 TIME =     0.01 SECS, INTEGRAL =      0.47 TIME LEFT: 172799.52
 STEP:  41 TIME =     0.01 SECS, INTEGRAL =      0.48 TIME LEFT: 172799.51
 STEP:  42 TIME =     0.02 SECS, INTEGRAL =      0.50 TIME LEFT: 172799.50
 STEP:  43 TIME =     0.01 SECS, INTEGRAL =      0.51 TIME LEFT: 172799.48
 STEP:  44 TIME =     0.01 SECS, INTEGRAL =      0.52 TIME LEFT: 172799.47
 STEP:  45 TIME =     0.02 SECS, INTEGRAL =      0.54 TIME LEFT: 172799.46
 STEP:  46 TIME =     0.01 SECS, INTEGRAL =      0.55 TIME LEFT: 172799.45
 STEP:  47 TIME =     0.01 SECS, INTEGRAL =      0.56 TIME LEFT: 172799.43
 STEP:  48 TIME =     0.01 SECS, INTEGRAL =      0.57 TIME LEFT: 172799.42
 STEP:  49 TIME =     0.01 SECS, INTEGRAL =      0.59 TIME LEFT: 172799.41
 STEP:  50 TIME =     0.01 SECS, INTEGRAL =      0.60 TIME LEFT: 172799.40
 STEP:  51 TIME =     0.01 SECS, INTEGRAL =      0.61 TIME LEFT: 172799.39

(To convert to Hartree/Bohr^2, multiply by (10^(-21) x N x a0^2)/(4.184 x 627.51) =  0.0642)


           FORCE MATRIX IN MILLIDYNES/ANGSTROM


                  C  1       C  2       C  3       C  4       C  5       C  6
 ------------------------------------------------------------------------------
     C    1  14.260775
     C    2   3.764672  14.598615
     C    3   3.745984   0.737018  14.684119
     C    4   0.047537   0.519852   0.125859  14.639570
     C    5   0.875554   4.512445   1.179180   5.028759  18.848250
     C    6   0.887462   1.130191   4.764830   0.719572  10.310115  18.332364
     C    7   0.008475   0.040638   0.012439   5.809902   0.802215   0.074521
     H    8   4.573172   0.441042   0.440223   0.004614   0.026586   0.028155
     H    9   4.574274   0.440815   0.440032   0.004659   0.027158   0.028765
     H   10   0.436862   4.508765   0.027202   0.014399   0.440322   0.035451
     H   11   0.437009   4.510328   0.026929   0.010665   0.440013   0.035593
     H   12   0.437057   0.027875   4.519564   0.017412   0.037107   0.425643
     H   13   0.436968   0.028567   4.521310   0.018061   0.037761   0.425858
     H   14   0.002432   0.023737   0.016091   4.271087   0.421523   0.034276
     H   15   0.002443   0.013587   0.017400   4.149184   0.420402   0.026678
     H   16   0.040464   0.104760   0.402040   0.056660   0.464998   4.975108
     H   17   0.001804   0.009434   0.002857   0.527883   0.075184   0.010325


                  C  7       H  8       H  9       H 10       H 11       H 12
 ------------------------------------------------------------------------------
     C    7   9.219366
     H    8   0.000754   5.179341
     H    9   0.000991   0.586270   5.180886
     H   10   0.002516   0.028586   0.027640   5.117299
     H   11   0.003176   0.028176   0.028578   0.574219   5.117281
     H   12   0.001979   0.027882   0.028874   0.004317   0.001299   5.124908
     H   13   0.001608   0.028950   0.027537   0.001274   0.004288   0.574810
     H   14   0.402302   0.000315   0.000335   0.012121   0.001465   0.001931
     H   15   0.221593   0.000436   0.000378   0.001395   0.005476   0.003317
     H   16   0.033895   0.002723   0.002828   0.014751   0.014891   0.013378
     H   17   4.724350   0.000272   0.000372   0.000903   0.000924   0.000705


                  H 13       H 14       H 15       H 16       H 17
 ------------------------------------------------------------------
     H   13   5.126685
     H   14   0.003252   4.893812
     H   15   0.002420   0.550755   4.728736
     H   16   0.013475   0.006450   0.007348   5.361053
     H   17   0.000749   0.071743   0.081775   0.012922   4.847840


          HEAT OF FORMATION =      96.379747 KCALS/MOLE

          ZERO POINT ENERGY      90.202 KCAL/MOL


           NORMAL COORDINATE ANALYSIS (Total motion = 1 Angstrom)


   Root No.       1         2         3         4         5         6         7         8

                 1 A       2 A       3 A       4 A       5 A       6 A       7 A       8 A   

                  55.3     102.1     201.7     208.4     239.1     422.0     446.7     612.8
  
           1    0.0006    0.0001    0.0115   -0.0005    0.0083   -0.0181   -0.0365    0.0273
           2   -0.0001   -0.0001   -0.0159    0.0003   -0.0095   -0.0039   -0.0098    0.0125
           3    0.0407   -0.0422   -0.0013   -0.0043    0.0018   -0.0037    0.0029    0.0011
           4    0.0006    0.0002    0.0090   -0.0004    0.0064   -0.0137   -0.0276    0.0230
           5    0.0006   -0.0000    0.0241   -0.0009    0.0173   -0.0160   -0.0262   -0.0234
           6    0.0076    0.0470    0.0062    0.0127   -0.0097   -0.0086    0.0035   -0.0072
           7   -0.0001   -0.0003   -0.0223    0.0006   -0.0143   -0.0021   -0.0071    0.0118
           8   -0.0003   -0.0002   -0.0260    0.0006   -0.0163   -0.0010   -0.0060    0.0186
           9   -0.0097    0.0197   -0.0123   -0.0420    0.0149    0.0020   -0.0002    0.0001
          10   -0.0002   -0.0002   -0.0130   -0.0004   -0.0071   -0.0013    0.0041   -0.0504
          11    0.0021    0.0008    0.0042    0.0005   -0.0028    0.0252    0.0479    0.0048
          12   -0.0426   -0.0242   -0.0156   -0.0183    0.0334    0.0204   -0.0006    0.0516
          13    0.0000   -0.0002   -0.0216    0.0001   -0.0135    0.0059    0.0133   -0.0221
          14    0.0010    0.0003    0.0335   -0.0013    0.0234   -0.0158   -0.0231   -0.0180
          15   -0.0265    0.0042    0.0074    0.0392   -0.0062    0.0574   -0.0506   -0.0340
          16   -0.0004   -0.0004   -0.0398    0.0005   -0.0257    0.0061    0.0078    0.0032
          17    0.0005    0.0001    0.0084   -0.0006    0.0072   -0.0160   -0.0314    0.0122
          18   -0.0365   -0.0057    0.0074    0.0577   -0.0139   -0.0320    0.0209   -0.0009
          19    0.0002    0.0013    0.0726    0.0025    0.0526    0.0254    0.0524   -0.0023
          20   -0.0048   -0.0016   -0.0101   -0.0024   -0.0148    0.0222    0.0476   -0.0142
          21    0.0711    0.0035    0.0271   -0.0278   -0.0476   -0.0053    0.0015   -0.0096
          22    0.0209   -0.0559    0.0210   -0.0084    0.0235   -0.0208   -0.0462    0.0344
          23    0.0369   -0.0588   -0.0201    0.0244   -0.0232   -0.0023   -0.0030    0.0281
          24    0.0724   -0.1036    0.0006    0.0069    0.0004   -0.0039    0.0029    0.0135
          25   -0.0192    0.0562    0.0287    0.0065    0.0111   -0.0267   -0.0460    0.0107
          26   -0.0374    0.0584   -0.0323   -0.0230   -0.0096    0.0017   -0.0056    0.0120
          27    0.0725   -0.1037    0.0008    0.0069    0.0005   -0.0033    0.0044    0.0101
          28    0.0199   -0.0525    0.0183   -0.0100    0.0224   -0.0099   -0.0528    0.0195
          29    0.0154    0.0468    0.0360   -0.0134    0.0169   -0.0980    0.0268    0.0333
          30    0.0073    0.1003    0.0091    0.0097   -0.0174   -0.0615    0.0479    0.0306
          31   -0.0186    0.0534    0.0274    0.0087    0.0086   -0.0346   -0.0365    0.0362
          32   -0.0142   -0.0473    0.0336    0.0113    0.0319    0.0544   -0.1047   -0.0802
          33    0.0072    0.0997    0.0091    0.0100   -0.0173   -0.0603    0.0468    0.0327
          34    0.0005   -0.0405   -0.0101    0.0913   -0.0469   -0.0406    0.0258    0.0011
          35   -0.0309    0.0263   -0.0436    0.0010   -0.0258    0.0031    0.0126    0.0144
          36   -0.0190    0.0553   -0.0260   -0.1050    0.0348    0.0303   -0.0183    0.0069
          37   -0.0008    0.0394   -0.0477   -0.0888    0.0089    0.0426   -0.0282    0.0209
          38    0.0295   -0.0270   -0.0402    0.0015   -0.0282    0.0119    0.0067    0.0133
          39   -0.0189    0.0557   -0.0264   -0.1063    0.0351    0.0307   -0.0191    0.0081
          40    0.0353    0.0268   -0.0293    0.0610   -0.0322    0.0715   -0.0304   -0.0191
          41   -0.0781   -0.0289    0.0085   -0.0525   -0.0711   -0.0082    0.0646   -0.0794
          42   -0.1295   -0.0665    0.0024   -0.1046   -0.0042   -0.0597    0.0374   -0.0409
          43   -0.0400   -0.0318   -0.0394   -0.0691    0.0043   -0.0688    0.0689   -0.0676
          44    0.1132    0.0442   -0.0732    0.0916    0.0870    0.1092    0.0520    0.1830
          45   -0.0942   -0.0524   -0.0052   -0.0802    0.0091   -0.0402    0.0295   -0.0158
          46   -0.0010   -0.0007   -0.0726    0.0003   -0.0511    0.0145    0.0139    0.0416
          47    0.0006    0.0002    0.0082   -0.0007    0.0072   -0.0157   -0.0315    0.0115
          48   -0.0562   -0.0277    0.0178    0.0959   -0.0333   -0.1140    0.0915    0.0742
          49   -0.0053   -0.0009    0.1471   -0.0204   -0.0295    0.0463    0.0549    0.0343
          50   -0.0221   -0.0055   -0.0928    0.0043   -0.0387    0.0076   -0.0059   -0.0470
          51    0.1085    0.0161   -0.2067    0.0602    0.3167   -0.0776    0.0466   -0.1319


   Root No.       9        10        11        12        13        14        15        16

                 9 A      10 A      11 A      12 A      13 A      14 A      15 A      16 A   

                 646.5     712.4     760.1     837.4     911.7     953.2     986.9    1000.7
  
           1   -0.0245   -0.0263    0.0003    0.0000    0.0002    0.0163    0.0033   -0.0152
           2   -0.0119   -0.0662    0.0005    0.0001   -0.0005   -0.0002    0.0027   -0.0483
           3    0.0000    0.0004    0.0214    0.0158   -0.0121   -0.0009   -0.0050   -0.0055
           4   -0.0222   -0.0490    0.0004    0.0001   -0.0006   -0.0004   -0.0018    0.0123
           5    0.0372    0.0107    0.0010   -0.0003    0.0020   -0.0619   -0.0065    0.0044
           6   -0.0062   -0.0000    0.0096    0.0263    0.0276    0.0026   -0.0014    0.0066
           7   -0.0131    0.0899   -0.0011    0.0002   -0.0001    0.0009    0.0010   -0.0301
           8   -0.0206   -0.0297    0.0001    0.0002   -0.0001    0.0056   -0.0013    0.0308
           9   -0.0012    0.0009    0.0223   -0.0286   -0.0112   -0.0017    0.0165    0.0081
          10    0.0555   -0.0274    0.0000   -0.0001   -0.0031    0.0259    0.0012   -0.0004
          11   -0.0187    0.0047   -0.0006    0.0001    0.0014   -0.0062    0.0014   -0.0006
          12    0.0395    0.0017    0.0061   -0.0021   -0.0099   -0.0023   -0.0189   -0.0022
          13    0.0237   -0.0148    0.0001    0.0002   -0.0005   -0.0292   -0.0030   -0.0132
          14    0.0244    0.0204    0.0001   -0.0001   -0.0005    0.0091    0.0007   -0.0090
          15   -0.0220   -0.0011   -0.0171   -0.0060   -0.0145   -0.0039    0.0232   -0.0031
          16   -0.0049    0.0327   -0.0005    0.0002   -0.0000   -0.0206   -0.0027    0.0075
          17   -0.0068    0.0664   -0.0002   -0.0003    0.0008    0.0510    0.0083    0.0106
          18   -0.0024    0.0002   -0.0017   -0.0155    0.0253    0.0038   -0.0282   -0.0091
          19   -0.0127   -0.0034   -0.0011    0.0002   -0.0030    0.0225   -0.0035    0.0126
          20   -0.0166    0.0024   -0.0040    0.0012   -0.0102    0.0028   -0.0099   -0.0020
          21   -0.0039   -0.0011   -0.0003   -0.0009   -0.0000    0.0057   -0.0007    0.0025
          22   -0.0043   -0.0496   -0.0683   -0.0872   -0.0229   -0.0202    0.0568    0.0311
          23   -0.0148   -0.0670   -0.1106   -0.0153    0.0682    0.0279   -0.0173   -0.0687
          24    0.0087   -0.0084   -0.0819   -0.0355    0.0208    0.0004    0.0081    0.0032
          25   -0.0255   -0.0464    0.0703    0.0869    0.0257   -0.0080   -0.0589    0.0015
          26   -0.0322   -0.0601    0.1107    0.0158   -0.0713    0.0131    0.0289   -0.0878
          27    0.0124    0.0033   -0.0822   -0.0356    0.0209    0.0015    0.0079    0.0122
          28   -0.0307   -0.0333    0.0606    0.0790    0.0247   -0.0159   -0.0996    0.0545
          29    0.0833    0.0281   -0.0377   -0.0660   -0.0751   -0.1089   -0.0647    0.0223
          30    0.0259    0.0021   -0.0449   -0.0542   -0.0329   -0.0163    0.0116   -0.0025
          31   -0.0167   -0.0366   -0.0595   -0.0794   -0.0230   -0.0374    0.0844    0.0986
          32   -0.0021    0.0279    0.0407    0.0663    0.0836   -0.1024    0.0369    0.0899
          33    0.0211   -0.0035   -0.0443   -0.0532   -0.0323    0.0060    0.0151   -0.0029
          34   -0.0266    0.1075    0.1054   -0.1013   -0.0187   -0.0257    0.0225   -0.0016
          35   -0.0186   -0.0291   -0.0456   -0.0214    0.0737   -0.0313   -0.0707    0.0604
          36    0.0088   -0.0086   -0.0685    0.0376    0.0249    0.0055   -0.0202   -0.0022
          37   -0.0012    0.1021   -0.1070    0.1009    0.0177   -0.0224   -0.0310   -0.0490
          38   -0.0196   -0.0261    0.0454    0.0220   -0.0751   -0.0562    0.0457    0.0427
          39    0.0077    0.0057   -0.0699    0.0390    0.0249    0.0005   -0.0211   -0.0102
          40    0.1065   -0.0407   -0.0112    0.0038   -0.0685    0.0252   -0.0452   -0.0085
          41   -0.0803   -0.0066   -0.0173    0.0041   -0.0158   -0.0212    0.0165   -0.0056
          42   -0.0490    0.0013    0.0003   -0.0017    0.0224   -0.0137    0.0256   -0.0008
          43    0.0428   -0.0381    0.0289   -0.0097    0.1406    0.0203    0.1578   -0.0063
          44    0.1308    0.0010    0.0456   -0.0132    0.1102   -0.0275    0.1020   -0.0124
          45   -0.0150   -0.0023    0.0055   -0.0029    0.0263    0.0024    0.0262   -0.0009
          46   -0.0511    0.0074    0.0003   -0.0022    0.0037   -0.0672   -0.0250    0.2122
          47   -0.0064    0.0670    0.0001   -0.0011    0.0013    0.0539    0.0084    0.0077
          48    0.0586   -0.0003   -0.0681    0.2277   -0.1046   -0.0163    0.1312    0.0370
          49   -0.0139    0.0053    0.0030   -0.0014    0.0062   -0.0313    0.0051   -0.0158
          50    0.1142   -0.0384    0.0056   -0.0030   -0.0156    0.2482   -0.0323    0.1196
          51   -0.1255    0.0008   -0.0269    0.0098   -0.0324   -0.0092   -0.0120    0.0003


   Root No.      17        18        19        20        21        22        23        24

                17 A      18 A      19 A      20 A      21 A      22 A      23 A      24 A   

                1006.2    1031.5    1049.9    1069.9    1101.6    1107.9    1115.6    1117.3
  
           1    0.0001    0.0295    0.0095    0.0031    0.0016   -0.0021    0.0287    0.0160
           2    0.0109    0.0135    0.0199    0.0085    0.0057    0.0118   -0.0156   -0.0065
           3   -0.0197   -0.0022    0.0022    0.0041   -0.0015   -0.0127   -0.0290    0.0387
           4   -0.0003   -0.0351   -0.0133   -0.0044   -0.0030   -0.0008   -0.0283   -0.0170
           5    0.0022    0.0106    0.0205    0.0109    0.0058    0.0079    0.0042    0.0035
           6    0.0264    0.0027   -0.0018   -0.0032   -0.0245    0.0193    0.0147   -0.0159
           7    0.0089   -0.0159    0.0121    0.0083    0.0061    0.0105   -0.0045   -0.0004
           8   -0.0072   -0.0096   -0.0150   -0.0066   -0.0043   -0.0104    0.0228    0.0111
           9    0.0260    0.0029   -0.0040   -0.0033    0.0266   -0.0045    0.0137   -0.0211
          10   -0.0015    0.0028   -0.0196   -0.0141   -0.0101   -0.0154   -0.0005   -0.0030
          11   -0.0008   -0.0002    0.0018    0.0026    0.0031    0.0053   -0.0007    0.0008
          12    0.0126    0.0029   -0.0041   -0.0128   -0.0059   -0.0012   -0.0007    0.0005
          13    0.0055    0.0015    0.0043   -0.0012   -0.0049   -0.0089   -0.0001   -0.0024
          14    0.0024   -0.0096   -0.0057   -0.0043   -0.0058   -0.0102   -0.0022   -0.0041
          15   -0.0221   -0.0021   -0.0049    0.0274    0.0111   -0.0171    0.0014   -0.0079
          16   -0.0008    0.0154    0.0050   -0.0002   -0.0021   -0.0031   -0.0054   -0.0038
          17   -0.0104    0.0178   -0.0240   -0.0130   -0.0045   -0.0040   -0.0097   -0.0055
          18   -0.0252   -0.0041    0.0133   -0.0209   -0.0130    0.0107    0.0010    0.0020
          19    0.0007   -0.0026    0.0140    0.0088    0.0067    0.0109    0.0013    0.0030
          20    0.0078    0.0057   -0.0013   -0.0122   -0.0205   -0.0373    0.0002   -0.0086
          21   -0.0005   -0.0010    0.0027    0.0022    0.0024    0.0044    0.0004    0.0012
          22    0.0219    0.0737    0.0147    0.0405   -0.1809    0.0677    0.1610    0.0356
          23    0.0686   -0.0147    0.0144   -0.0268    0.1491   -0.0046   -0.0415   -0.1075
          24    0.0273    0.0026    0.0010   -0.0008    0.0024    0.0085    0.0142   -0.0132
          25   -0.0385    0.0715    0.0252   -0.0292    0.1823   -0.1075    0.0864    0.0975
          26   -0.0296   -0.0275    0.0210    0.0476   -0.1300    0.0647   -0.1217    0.0270
          27    0.0248    0.0022   -0.0056   -0.0048   -0.0010    0.0034    0.0094   -0.0175
          28   -0.0343   -0.0671   -0.0970    0.0859   -0.0194    0.0437    0.0125   -0.1511
          29   -0.0981   -0.0214   -0.0234    0.0973    0.0525    0.0066   -0.0098   -0.0541
          30   -0.0194   -0.0009    0.0110    0.0056    0.0096   -0.0043   -0.0122    0.0143
          31    0.0140   -0.0908    0.0318   -0.1016    0.0253   -0.0035   -0.1514    0.0842
          32    0.0915   -0.0227    0.0583   -0.0660   -0.0194    0.0659   -0.0549    0.0353
          33   -0.0197   -0.0052   -0.0012   -0.0031    0.0030   -0.0145   -0.0108    0.0134
          34    0.1068   -0.0540   -0.0210    0.0537    0.0546   -0.0108    0.0454    0.0192
          35    0.0867   -0.0967   -0.1029    0.1190   -0.0180   -0.0653    0.0297    0.1649
          36   -0.0151    0.0039   -0.0060    0.0024   -0.0094   -0.0062   -0.0172    0.0119
          37   -0.0755   -0.0843    0.0557   -0.0175   -0.0296    0.0322    0.0439    0.0340
          38   -0.0820   -0.1435    0.0634   -0.1125    0.0184    0.0223    0.1960   -0.0479
          39   -0.0130   -0.0069    0.0035    0.0085   -0.0047    0.0005   -0.0046    0.0197
          40    0.0105    0.0407   -0.1381   -0.0724    0.0449    0.1380    0.0049    0.0475
          41   -0.0303    0.0289   -0.1005   -0.0070    0.1041    0.2220    0.0080    0.0659
          42   -0.0194   -0.0014   -0.0016    0.0200    0.0316    0.0545    0.0020    0.0137
          43   -0.1038   -0.0076   -0.0393    0.0393    0.0050   -0.0414    0.0043   -0.0143
          44   -0.0678   -0.0003   -0.0288    0.0313    0.0390    0.0527    0.0040    0.0134
          45   -0.0170   -0.0023   -0.0030    0.0060   -0.0073   -0.0241    0.0006   -0.0078
          46   -0.0496    0.1605    0.0480    0.0137   -0.0025    0.0078   -0.1003   -0.0585
          47   -0.0105    0.0147   -0.0265   -0.0144   -0.0050   -0.0046   -0.0077   -0.0044
          48    0.0754    0.0099   -0.0242    0.0490    0.0247   -0.0226    0.0014   -0.0113
          49   -0.0028    0.0093   -0.0234   -0.0160   -0.0124   -0.0199   -0.0005   -0.0043
          50    0.0144   -0.0536    0.1705    0.0991    0.0541    0.0781    0.0092    0.0188
          51    0.0059    0.0087   -0.0154   -0.0059    0.0084    0.0193    0.0002    0.0057


   Root No.      25        26        27        28        29        30        31        32

                25 A      26 A      27 A      28 A      29 A      30 A      31 A      32 A   

                1207.1    1215.0    1283.6    1306.4    1353.5    1375.0    1400.7    1409.0
  
           1    0.0149    0.0207    0.0557   -0.0211   -0.0103   -0.0014   -0.0067   -0.0257
           2    0.0093    0.0016   -0.0390    0.0279    0.0023   -0.0046   -0.0212    0.0030
           3   -0.0002    0.0001   -0.0000   -0.0000   -0.0001    0.0000   -0.0000   -0.0000
           4   -0.0394   -0.0059   -0.0306   -0.0128    0.0081   -0.0466   -0.0044    0.0154
           5   -0.0100    0.0019   -0.0091   -0.0212    0.0029   -0.0249    0.0510   -0.0163
           6   -0.0001    0.0003   -0.0003   -0.0002    0.0000   -0.0002    0.0004   -0.0001
           7    0.0108    0.0124   -0.0022   -0.0018    0.0334    0.0086    0.0214    0.0603
           8    0.0106   -0.0212    0.0244   -0.0249    0.0766    0.0091    0.0124    0.0079
           9    0.0002   -0.0000    0.0001   -0.0001    0.0003    0.0001    0.0001    0.0004
          10    0.0015    0.0100    0.0254    0.0353    0.0146   -0.0049   -0.0057    0.0100
          11   -0.0140   -0.0051   -0.0045   -0.0154   -0.0003    0.0536   -0.0375   -0.0001
          12    0.0019    0.0035   -0.0028   -0.0031    0.0001    0.0040   -0.0025    0.0002
          13   -0.0236   -0.0262    0.0076   -0.0097   -0.0087    0.0266   -0.0125   -0.0103
          14   -0.0400    0.0113    0.0098    0.0033    0.0098    0.0433   -0.0170    0.0106
          15   -0.0002   -0.0014    0.0008    0.0007   -0.0000    0.0003   -0.0003   -0.0000
          16    0.0017   -0.0448   -0.0081   -0.0115   -0.0444   -0.0053   -0.0058   -0.0297
          17   -0.0009   -0.0128   -0.0124    0.0088   -0.0378   -0.0167   -0.0091   -0.0156
          18    0.0001   -0.0000   -0.0003   -0.0002   -0.0004   -0.0001   -0.0000   -0.0002
          19    0.0062   -0.0009   -0.0043   -0.0034   -0.0022   -0.0083    0.0061   -0.0014
          20    0.0297    0.0124   -0.0005    0.0119   -0.0006   -0.0457    0.0294   -0.0002
          21   -0.0000   -0.0011    0.0000    0.0001   -0.0003   -0.0018    0.0013   -0.0002
          22    0.0293   -0.0324   -0.1074    0.0830   -0.0152    0.0549    0.0186    0.0754
          23    0.0242    0.0586    0.0898   -0.0158   -0.0998    0.0411    0.0632   -0.0081
          24    0.0129    0.0091    0.0035    0.0180   -0.0563    0.0465    0.0537    0.0336
          25    0.0298   -0.0325   -0.1069    0.0832   -0.0149    0.0554    0.0184    0.0755
          26    0.0231    0.0588    0.0892   -0.0159   -0.1004    0.0408    0.0630   -0.0083
          27   -0.0129   -0.0090   -0.0035   -0.0182    0.0565   -0.0467   -0.0537   -0.0336
          28    0.1116   -0.0316   -0.0098    0.0753   -0.0105    0.1307    0.0654   -0.0573
          29    0.1453   -0.0117    0.0534    0.0121   -0.0136   -0.0436   -0.1365    0.0513
          30    0.0191    0.0034    0.0240   -0.0191   -0.0014   -0.0833   -0.1257    0.0642
          31    0.1065   -0.0280   -0.0109    0.0727   -0.0102    0.1300    0.0663   -0.0574
          32    0.1415   -0.0076    0.0517    0.0097   -0.0134   -0.0456   -0.1376    0.0523
          33   -0.0171   -0.0038   -0.0228    0.0194    0.0012    0.0826    0.1235   -0.0634
          34   -0.0059    0.0883   -0.0411    0.0581    0.0833   -0.0207   -0.0474   -0.1465
          35   -0.0393    0.0723    0.0127    0.0172   -0.1808   -0.0132   -0.0094    0.0297
          36   -0.0023   -0.0214    0.0206   -0.0253   -0.0942    0.0118    0.0360    0.1287
          37   -0.0059    0.0883   -0.0410    0.0579    0.0821   -0.0208   -0.0468   -0.1447
          38   -0.0384    0.0727    0.0133    0.0170   -0.1816   -0.0131   -0.0094    0.0300
          39    0.0021    0.0229   -0.0211    0.0262    0.0947   -0.0122   -0.0366   -0.1306
          40    0.0685    0.0925   -0.1054   -0.0994   -0.0098    0.0095    0.0119   -0.0014
          41   -0.0478   -0.0222    0.0335    0.0339    0.0046   -0.0343    0.0259    0.0020
          42   -0.0624   -0.0586    0.1012    0.1104    0.0181   -0.0624    0.0289    0.0084
          43    0.0805    0.0791   -0.0988   -0.0930   -0.0115    0.0152    0.0034   -0.0029
          44   -0.0359   -0.0317    0.0665    0.0777    0.0117   -0.0660    0.0385    0.0057
          45    0.0400    0.0375   -0.0702   -0.0769   -0.0136    0.0385   -0.0155   -0.0066
          46   -0.0959    0.1808    0.0016    0.0510    0.0181    0.0393   -0.0121    0.0383
          47   -0.0003   -0.0173   -0.0129    0.0081   -0.0407   -0.0179   -0.0105   -0.0178
          48   -0.0009    0.0005    0.0005    0.0011    0.0000   -0.0001   -0.0000    0.0003
          49    0.0133    0.0090    0.0020    0.0086    0.0013   -0.0205    0.0125    0.0009
          50    0.0085   -0.0299   -0.0247   -0.0318   -0.0153   -0.0154    0.0159   -0.0100
          51    0.0017    0.0030   -0.0031   -0.0027   -0.0007   -0.0020    0.0019   -0.0004


   Root No.      33        34        35        36        37        38        39        40

                33 A      34 A      35 A      36 A      37 A      38 A      39 A      40 A   

                1423.9    1509.1    1878.0    2880.4    2957.7    2968.9    2974.6    2975.0
  
           1   -0.0251    0.0036   -0.0056   -0.0000   -0.0000   -0.0000   -0.0000    0.0000
           2   -0.0363   -0.0013   -0.0079   -0.0000    0.0000   -0.0000   -0.0000   -0.0000
           3   -0.0000   -0.0000   -0.0000    0.0000   -0.0002    0.0163    0.0047    0.0014
           4    0.0202    0.0153   -0.0099   -0.0001    0.0001   -0.0000    0.0001   -0.0002
           5   -0.0024    0.0599    0.0088   -0.0000   -0.0001    0.0002   -0.0002   -0.0000
           6   -0.0000    0.0003   -0.0001   -0.0004    0.0008   -0.0280    0.0159    0.0087
           7   -0.0160    0.0135    0.0136   -0.0000    0.0000    0.0001    0.0001    0.0000
           8    0.0156   -0.0076    0.0006   -0.0000   -0.0000    0.0000    0.0001    0.0000
           9   -0.0001   -0.0000    0.0001   -0.0000    0.0001   -0.0155   -0.0251   -0.0113
          10    0.0019    0.0903   -0.0485    0.0058    0.0156   -0.0005    0.0054   -0.0139
          11    0.0056    0.1098   -0.0090    0.0037   -0.0130    0.0005   -0.0053    0.0138
          12    0.0003    0.0058   -0.0013   -0.0597    0.0045   -0.0000    0.0016   -0.0044
          13    0.0006   -0.0671    0.2371    0.0005    0.0006   -0.0000    0.0001   -0.0003
          14   -0.0033   -0.1083   -0.1303   -0.0001    0.0002    0.0000   -0.0001    0.0002
          15    0.0000    0.0002    0.0006   -0.0002    0.0000   -0.0001   -0.0001   -0.0000
          16    0.0052   -0.0173   -0.1981   -0.0002   -0.0003    0.0000   -0.0001    0.0003
          17    0.0046    0.0263    0.1147    0.0001   -0.0000   -0.0000    0.0001   -0.0001
          18    0.0000   -0.0001   -0.0002   -0.0002    0.0000   -0.0001    0.0000   -0.0000
          19   -0.0008   -0.0130    0.0044    0.0004   -0.0367   -0.0011    0.0067   -0.0165
          20   -0.0039   -0.0601    0.0012   -0.0009   -0.0107   -0.0003    0.0017   -0.0041
          21   -0.0002   -0.0039    0.0007   -0.0013   -0.0088   -0.0003    0.0016   -0.0039
          22    0.1034   -0.0233   -0.0015    0.0000   -0.0006    0.0441    0.0149    0.0046
          23    0.1478    0.0021   -0.0021    0.0001   -0.0009    0.0602    0.0159    0.0043
          24    0.1467   -0.0097    0.0071   -0.0001    0.0015   -0.0985   -0.0284   -0.0081
          25    0.1033   -0.0236   -0.0016   -0.0001    0.0005   -0.0440   -0.0148   -0.0046
          26    0.1477    0.0022   -0.0023   -0.0001    0.0007   -0.0599   -0.0159   -0.0043
          27   -0.1470    0.0097   -0.0071   -0.0002    0.0012   -0.0977   -0.0282   -0.0081
          28   -0.0683   -0.0136    0.0250    0.0006   -0.0025    0.0812   -0.0472   -0.0255
          29    0.0311   -0.0355    0.0332   -0.0017    0.0038   -0.1040    0.0593    0.0314
          30    0.0538   -0.0359    0.0036    0.0021   -0.0059    0.1684   -0.0960   -0.0511
          31   -0.0681   -0.0140    0.0245   -0.0006    0.0022   -0.0809    0.0468    0.0261
          32    0.0320   -0.0370    0.0324    0.0015   -0.0025    0.1010   -0.0569   -0.0321
          33   -0.0532    0.0355   -0.0030    0.0019   -0.0041    0.1693   -0.0955   -0.0539
          34    0.0613   -0.0049    0.0196   -0.0002   -0.0005    0.0666    0.1079    0.0485
          35   -0.0559    0.0190    0.0214    0.0001    0.0001   -0.0270   -0.0453   -0.0204
          36   -0.0639    0.0185   -0.0044   -0.0002   -0.0006    0.0944    0.1523    0.0684
          37    0.0605   -0.0044    0.0198    0.0003    0.0001   -0.0675   -0.1092   -0.0492
          38   -0.0562    0.0194    0.0215   -0.0001   -0.0001    0.0265    0.0444    0.0200
          39    0.0646   -0.0186    0.0049   -0.0003   -0.0002    0.0929    0.1499    0.0675
          40   -0.0044   -0.0957   -0.0339    0.1697   -0.1307    0.0036   -0.0449    0.1161
          41   -0.0049   -0.0831   -0.0097   -0.1868    0.1444   -0.0036    0.0510   -0.1328
          42   -0.0029   -0.0121   -0.0034    0.2207   -0.2100    0.0055   -0.0726    0.1885
          43   -0.0023   -0.0554   -0.0240   -0.2421   -0.0617    0.0021   -0.0204    0.0517
          44   -0.0055   -0.0746   -0.0133    0.1557    0.0324   -0.0015    0.0122   -0.0304
          45    0.0011   -0.0115    0.0031    0.5147    0.1558   -0.0057    0.0540   -0.1367
          46   -0.0168   -0.0481    0.0563    0.0002    0.0006    0.0000   -0.0001    0.0002
          47    0.0060    0.0287    0.1570    0.0000    0.0009    0.0000   -0.0003    0.0008
          48   -0.0001    0.0001    0.0009    0.0006   -0.0001   -0.0006   -0.0004   -0.0001
          49   -0.0015   -0.0190   -0.0006   -0.0035    0.4388    0.0131   -0.0788    0.1952
          50   -0.0023   -0.0656    0.0237   -0.0019    0.1019    0.0031   -0.0191    0.0473
          51   -0.0003   -0.0034    0.0013   -0.0030    0.1052    0.0032   -0.0190    0.0469


   Root No.      41        42        43        44        45

                41 A      42 A      43 A      44 A      45 A   

                2994.2    3051.6    3055.0    3071.6    3109.7
  
           1    0.0000    0.0027    0.0025   -0.0209    0.0014
           2    0.0000    0.0026    0.0042   -0.0280    0.0020
           3   -0.0349   -0.0000    0.0000   -0.0001    0.0000
           4   -0.0000    0.0229    0.0017    0.0017   -0.0012
           5    0.0001   -0.0286   -0.0019   -0.0028    0.0019
           6   -0.0122   -0.0003   -0.0000   -0.0000    0.0000
           7    0.0001    0.0022   -0.0333   -0.0037    0.0027
           8    0.0000   -0.0008    0.0137    0.0010   -0.0008
           9   -0.0141   -0.0000   -0.0000   -0.0000    0.0000
          10    0.0001   -0.0002   -0.0001   -0.0000    0.0005
          11   -0.0001    0.0001   -0.0000    0.0000   -0.0004
          12    0.0000   -0.0001    0.0000   -0.0000    0.0000
          13    0.0000    0.0001    0.0007    0.0005   -0.0057
          14    0.0000   -0.0007   -0.0001    0.0002    0.0033
          15   -0.0001   -0.0000    0.0000    0.0000    0.0000
          16   -0.0000   -0.0002   -0.0006    0.0000    0.0032
          17   -0.0000   -0.0004   -0.0019   -0.0013   -0.0717
          18   -0.0001   -0.0000   -0.0000   -0.0000   -0.0003
          19    0.0001   -0.0001   -0.0000   -0.0000    0.0004
          20    0.0000   -0.0000   -0.0000   -0.0000    0.0002
          21    0.0000   -0.0000   -0.0000   -0.0000    0.0000
          22   -0.0985   -0.0113   -0.0167    0.1255   -0.0057
          23   -0.1318   -0.0170   -0.0207    0.1677   -0.0073
          24    0.2094    0.0313    0.0410   -0.3198    0.0142
          25    0.0981   -0.0112   -0.0169    0.1265   -0.0058
          26    0.1313   -0.0169   -0.0210    0.1691   -0.0073
          27    0.2079   -0.0311   -0.0412    0.3213   -0.0143
          28    0.0382   -0.1376   -0.0079   -0.0141    0.0050
          29   -0.0453    0.1738    0.0104    0.0163   -0.0061
          30    0.0730   -0.3347   -0.0198   -0.0322    0.0118
          31   -0.0380   -0.1382   -0.0079   -0.0141    0.0050
          32    0.0438    0.1695    0.0101    0.0159   -0.0059
          33    0.0731    0.3386    0.0200    0.0326   -0.0119
          34    0.0613   -0.0148    0.1957    0.0223   -0.0129
          35   -0.0279    0.0065   -0.0831   -0.0105    0.0030
          36    0.0852   -0.0248    0.3292    0.0378   -0.0195
          37   -0.0620   -0.0152    0.2016    0.0229   -0.0132
          38    0.0273    0.0065   -0.0824   -0.0104    0.0029
          39    0.0837    0.0248   -0.3288   -0.0377    0.0194
          40   -0.0008    0.0010    0.0000    0.0000    0.0000
          41    0.0012   -0.0022   -0.0001   -0.0002    0.0004
          42   -0.0015    0.0023    0.0001    0.0001   -0.0005
          43   -0.0003    0.0004    0.0001   -0.0000    0.0000
          44    0.0000   -0.0007   -0.0001   -0.0000    0.0002
          45    0.0006   -0.0016   -0.0001   -0.0000    0.0005
          46    0.0000    0.0000   -0.0011    0.0004    0.0138
          47    0.0000    0.0116    0.0213    0.0205    0.8002
          48   -0.0005    0.0000    0.0001    0.0001    0.0030
          49   -0.0006    0.0006    0.0003    0.0002   -0.0017
          50   -0.0001    0.0001    0.0001    0.0000   -0.0007
          51   -0.0001    0.0001    0.0001    0.0001   -0.0003


           MASS-WEIGHTED COORDINATE ANALYSIS (NORMAL COORDINATES)


   Root No.       1         2         3         4         5         6         7         8

                 1 A       2 A       3 A       4 A       5 A       6 A       7 A       8 A   

                  55.3     102.1     201.7     208.4     239.1     422.0     446.7     612.8
  
           1    0.0045    0.0013    0.0801   -0.0041    0.0583   -0.1507   -0.2592    0.2056
           2   -0.0008   -0.0009   -0.1108    0.0026   -0.0665   -0.0327   -0.0698    0.0939
           3    0.3075   -0.3786   -0.0092   -0.0344    0.0125   -0.0308    0.0204    0.0081
           4    0.0044    0.0014    0.0623   -0.0030    0.0451   -0.1140   -0.1964    0.1728
           5    0.0045   -0.0003    0.1672   -0.0072    0.1213   -0.1331   -0.1864   -0.1758
           6    0.0578    0.4216    0.0428    0.1020   -0.0678   -0.0713    0.0248   -0.0543
           7   -0.0004   -0.0027   -0.1551    0.0048   -0.1005   -0.0172   -0.0501    0.0891
           8   -0.0023   -0.0020   -0.1807    0.0051   -0.1147   -0.0085   -0.0423    0.1401
           9   -0.0734    0.1766   -0.0855   -0.3365    0.1046    0.0162   -0.0015    0.0005
          10   -0.0015   -0.0019   -0.0904   -0.0030   -0.0495   -0.0112    0.0293   -0.3791
          11    0.0156    0.0070    0.0291    0.0039   -0.0194    0.2098    0.3405    0.0358
          12   -0.3219   -0.2174   -0.1083   -0.1468    0.2344    0.1695   -0.0042    0.3880
          13    0.0000   -0.0020   -0.1500    0.0010   -0.0945    0.0491    0.0943   -0.1660
          14    0.0072    0.0026    0.2330   -0.0102    0.1640   -0.1318   -0.1642   -0.1351
          15   -0.1998    0.0373    0.0516    0.3142   -0.0435    0.4781   -0.3592   -0.2556
          16   -0.0031   -0.0034   -0.2767    0.0037   -0.1805    0.0511    0.0553    0.0243
          17    0.0040    0.0012    0.0581   -0.0046    0.0505   -0.1330   -0.2230    0.0919
          18   -0.2758   -0.0511    0.0513    0.4630   -0.0975   -0.2663    0.1484   -0.0066
          19    0.0013    0.0121    0.5045    0.0200    0.3692    0.2115    0.3726   -0.0175
          20   -0.0365   -0.0141   -0.0701   -0.0195   -0.1038    0.1846    0.3381   -0.1069
          21    0.5373    0.0318    0.1882   -0.2226   -0.3337   -0.0443    0.0105   -0.0722
          22    0.0457   -0.1451    0.0422   -0.0196    0.0478   -0.0502   -0.0951    0.0749
          23    0.0807   -0.1527   -0.0404    0.0567   -0.0472   -0.0055   -0.0063    0.0613
          24    0.1585   -0.2692    0.0012    0.0160    0.0008   -0.0094    0.0060    0.0294
          25   -0.0421    0.1461    0.0578    0.0152    0.0226   -0.0645   -0.0946    0.0234
          26   -0.0819    0.1516   -0.0651   -0.0534   -0.0196    0.0041   -0.0115    0.0262
          27    0.1586   -0.2693    0.0016    0.0159    0.0010   -0.0081    0.0090    0.0221
          28    0.0436   -0.1363    0.0368   -0.0231    0.0456   -0.0240   -0.1087    0.0425
          29    0.0338    0.1216    0.0724   -0.0312    0.0343   -0.2363    0.0552    0.0725
          30    0.0161    0.2606    0.0183    0.0226   -0.0353   -0.1483    0.0985    0.0668
          31   -0.0406    0.1387    0.0551    0.0202    0.0175   -0.0834   -0.0752    0.0790
          32   -0.0311   -0.1229    0.0677    0.0263    0.0648    0.1311   -0.2155   -0.1749
          33    0.0158    0.2589    0.0182    0.0232   -0.0351   -0.1454    0.0964    0.0713
          34    0.0011   -0.1053   -0.0204    0.2120   -0.0954   -0.0979    0.0531    0.0024
          35   -0.0676    0.0684   -0.0878    0.0022   -0.0524    0.0074    0.0259    0.0313
          36   -0.0417    0.1437   -0.0523   -0.2440    0.0708    0.0731   -0.0376    0.0149
          37   -0.0018    0.1022   -0.0961   -0.2063    0.0181    0.1027   -0.0581    0.0456
          38    0.0646   -0.0701   -0.0809    0.0036   -0.0573    0.0288    0.0137    0.0289
          39   -0.0414    0.1448   -0.0531   -0.2468    0.0713    0.0741   -0.0393    0.0176
          40    0.0773    0.0696   -0.0591    0.1416   -0.0654    0.1725   -0.0625   -0.0415
          41   -0.1709   -0.0750    0.0171   -0.1219   -0.1446   -0.0198    0.1330   -0.1730
          42   -0.2833   -0.1726    0.0048   -0.2429   -0.0086   -0.1440    0.0769   -0.0892
          43   -0.0875   -0.0825   -0.0793   -0.1605    0.0088   -0.1660    0.1418   -0.1473
          44    0.2478    0.1149   -0.1473    0.2128    0.1769    0.2635    0.1070    0.3987
          45   -0.2062   -0.1362   -0.0104   -0.1862    0.0184   -0.0970    0.0608   -0.0344
          46   -0.0021   -0.0017   -0.1461    0.0007   -0.1039    0.0350    0.0285    0.0906
          47    0.0013    0.0005    0.0165   -0.0016    0.0146   -0.0378   -0.0649    0.0250
          48   -0.1230   -0.0719    0.0358    0.2228   -0.0677   -0.2748    0.1882    0.1617
          49   -0.0115   -0.0024    0.2962   -0.0473   -0.0599    0.1117    0.1130    0.0748
          50   -0.0485   -0.0144   -0.1868    0.0099   -0.0787    0.0184   -0.0122   -0.1024
          51    0.2374    0.0418   -0.4161    0.1399    0.6437   -0.1871    0.0958   -0.2873


   Root No.       9        10        11        12        13        14        15        16

                 9 A      10 A      11 A      12 A      13 A      14 A      15 A      16 A   

                 646.5     712.4     760.1     837.4     911.7     953.2     986.9    1000.7
  
           1   -0.1842   -0.1581    0.0034    0.0004    0.0016    0.1212    0.0317   -0.1277
           2   -0.0891   -0.3982    0.0049    0.0012   -0.0055   -0.0012    0.0268   -0.4060
           3    0.0001    0.0024    0.2101    0.1427   -0.1222   -0.0064   -0.0486   -0.0464
           4   -0.1666   -0.2945    0.0040    0.0008   -0.0060   -0.0026   -0.0177    0.1036
           5    0.2791    0.0642    0.0095   -0.0026    0.0205   -0.4597   -0.0632    0.0368
           6   -0.0464   -0.0002    0.0943    0.2377    0.2791    0.0190   -0.0139    0.0554
           7   -0.0981    0.5410   -0.0111    0.0019   -0.0012    0.0067    0.0098   -0.2527
           8   -0.1545   -0.1789    0.0010    0.0018   -0.0005    0.0419   -0.0124    0.2592
           9   -0.0088    0.0052    0.2195   -0.2584   -0.1131   -0.0125    0.1606    0.0685
          10    0.4165   -0.1646    0.0004   -0.0006   -0.0312    0.1922    0.0116   -0.0037
          11   -0.1403    0.0284   -0.0058    0.0012    0.0145   -0.0459    0.0137   -0.0050
          12    0.2968    0.0100    0.0599   -0.0190   -0.1004   -0.0171   -0.1841   -0.0187
          13    0.1777   -0.0892    0.0013    0.0022   -0.0049   -0.2173   -0.0297   -0.1112
          14    0.1835    0.1230    0.0013   -0.0007   -0.0055    0.0677    0.0070   -0.0760
          15   -0.1649   -0.0068   -0.1676   -0.0542   -0.1464   -0.0289    0.2262   -0.0262
          16   -0.0367    0.1970   -0.0052    0.0019   -0.0002   -0.1534   -0.0267    0.0627
          17   -0.0513    0.3994   -0.0019   -0.0024    0.0083    0.3793    0.0806    0.0893
          18   -0.0183    0.0010   -0.0170   -0.1399    0.2558    0.0280   -0.2749   -0.0767
          19   -0.0956   -0.0202   -0.0112    0.0015   -0.0309    0.1671   -0.0337    0.1058
          20   -0.1247    0.0144   -0.0394    0.0104   -0.1034    0.0206   -0.0961   -0.0168
          21   -0.0292   -0.0066   -0.0029   -0.0083   -0.0001    0.0425   -0.0065    0.0208
          22   -0.0094   -0.0865   -0.1944   -0.2280   -0.0671   -0.0435    0.1605    0.0756
          23   -0.0321   -0.1167   -0.3145   -0.0401    0.2002    0.0601   -0.0488   -0.1673
          24    0.0189   -0.0147   -0.2331   -0.0929    0.0610    0.0009    0.0229    0.0077
          25   -0.0556   -0.0809    0.2000    0.2272    0.0755   -0.0173   -0.1665    0.0035
          26   -0.0700   -0.1047    0.3148    0.0414   -0.2092    0.0282    0.0818   -0.2136
          27    0.0270    0.0058   -0.2337   -0.0931    0.0613    0.0031    0.0224    0.0296
          28   -0.0667   -0.0579    0.1723    0.2067    0.0725   -0.0341   -0.2815    0.1326
          29    0.1812    0.0489   -0.1074   -0.1727   -0.2203   -0.2343   -0.1829    0.0544
          30    0.0562    0.0036   -0.1276   -0.1417   -0.0966   -0.0351    0.0329   -0.0061
          31   -0.0363   -0.0638   -0.1694   -0.2076   -0.0675   -0.0804    0.2386    0.2400
          32   -0.0046    0.0487    0.1159    0.1734    0.2453   -0.2204    0.1044    0.2187
          33    0.0458   -0.0061   -0.1260   -0.1391   -0.0949    0.0129    0.0426   -0.0069
          34   -0.0578    0.1873    0.2998   -0.2649   -0.0550   -0.0553    0.0636   -0.0039
          35   -0.0404   -0.0507   -0.1297   -0.0561    0.2164   -0.0675   -0.1999    0.1470
          36    0.0191   -0.0150   -0.1949    0.0984    0.0732    0.0118   -0.0571   -0.0053
          37   -0.0026    0.1779   -0.3043    0.2638    0.0519   -0.0483   -0.0875   -0.1192
          38   -0.0426   -0.0455    0.1291    0.0576   -0.2205   -0.1209    0.1291    0.1040
          39    0.0167    0.0100   -0.1989    0.1020    0.0732    0.0011   -0.0596   -0.0249
          40    0.2316   -0.0709   -0.0319    0.0098   -0.2009    0.0542   -0.1277   -0.0207
          41   -0.1746   -0.0116   -0.0493    0.0108   -0.0464   -0.0457    0.0466   -0.0137
          42   -0.1065    0.0023    0.0008   -0.0044    0.0658   -0.0296    0.0723   -0.0019
          43    0.0930   -0.0664    0.0823   -0.0253    0.4127    0.0437    0.4458   -0.0154
          44    0.2843    0.0018    0.1298   -0.0344    0.3235   -0.0593    0.2882   -0.0302
          45   -0.0326   -0.0039    0.0156   -0.0076    0.0773    0.0053    0.0741   -0.0023
          46   -0.1111    0.0128    0.0009   -0.0059    0.0107   -0.1447   -0.0708    0.5165
          47   -0.0139    0.1168    0.0001   -0.0030    0.0038    0.1161    0.0238    0.0189
          48    0.1275   -0.0005   -0.1937    0.5955   -0.3070   -0.0352    0.3707    0.0900
          49   -0.0303    0.0093    0.0086   -0.0038    0.0183   -0.0674    0.0144   -0.0386
          50    0.2482   -0.0670    0.0159   -0.0078   -0.0457    0.5343   -0.0913    0.2912
          51   -0.2729    0.0013   -0.0764    0.0258   -0.0951   -0.0197   -0.0339    0.0008


   Root No.      17        18        19        20        21        22        23        24

                17 A      18 A      19 A      20 A      21 A      22 A      23 A      24 A   

                1006.2    1031.5    1049.9    1069.9    1101.6    1107.9    1115.6    1117.3
  
           1    0.0013    0.2737    0.0897    0.0317    0.0135   -0.0184    0.2365    0.1482
           2    0.1051    0.1253    0.1877    0.0859    0.0484    0.1031   -0.1285   -0.0601
           3   -0.1903   -0.0205    0.0210    0.0413   -0.0128   -0.1109   -0.2383    0.3596
           4   -0.0024   -0.3253   -0.1252   -0.0448   -0.0253   -0.0073   -0.2332   -0.1578
           5    0.0213    0.0980    0.1933    0.1104    0.0500    0.0692    0.0349    0.0328
           6    0.2546    0.0248   -0.0174   -0.0325   -0.2098    0.1677    0.1207   -0.1475
           7    0.0863   -0.1477    0.1142    0.0843    0.0519    0.0917   -0.0373   -0.0033
           8   -0.0699   -0.0887   -0.1412   -0.0668   -0.0371   -0.0905    0.1874    0.1027
           9    0.2511    0.0272   -0.0375   -0.0332    0.2277   -0.0393    0.1126   -0.1957
          10   -0.0149    0.0256   -0.1844   -0.1425   -0.0866   -0.1344   -0.0042   -0.0279
          11   -0.0081   -0.0015    0.0170    0.0263    0.0263    0.0460   -0.0055    0.0072
          12    0.1216    0.0265   -0.0383   -0.1292   -0.0509   -0.0104   -0.0058    0.0045
          13    0.0526    0.0140    0.0402   -0.0126   -0.0416   -0.0777   -0.0010   -0.0225
          14    0.0227   -0.0888   -0.0538   -0.0434   -0.0495   -0.0887   -0.0182   -0.0382
          15   -0.2136   -0.0191   -0.0460    0.2774    0.0954   -0.1488    0.0111   -0.0733
          16   -0.0073    0.1430    0.0472   -0.0020   -0.0178   -0.0267   -0.0447   -0.0349
          17   -0.1003    0.1655   -0.2264   -0.1317   -0.0384   -0.0346   -0.0799   -0.0510
          18   -0.2425   -0.0380    0.1250   -0.2113   -0.1113    0.0930    0.0081    0.0184
          19    0.0069   -0.0237    0.1318    0.0888    0.0575    0.0953    0.0105    0.0283
          20    0.0753    0.0524   -0.0126   -0.1232   -0.1760   -0.3244    0.0019   -0.0803
          21   -0.0050   -0.0091    0.0259    0.0220    0.0205    0.0381    0.0033    0.0115
          22    0.0612    0.1981    0.0400    0.1187   -0.4492    0.1708    0.3837    0.0959
          23    0.1916   -0.0395    0.0393   -0.0787    0.3703   -0.0117   -0.0989   -0.2890
          24    0.0762    0.0069    0.0026   -0.0023    0.0060    0.0213    0.0338   -0.0356
          25   -0.1075    0.1922    0.0687   -0.0857    0.4526   -0.2713    0.2061    0.2623
          26   -0.0826   -0.0738    0.0573    0.1397   -0.3226    0.1631   -0.2901    0.0725
          27    0.0691    0.0059   -0.0154   -0.0142   -0.0024    0.0087    0.0223   -0.0469
          28   -0.0957   -0.1802   -0.2647    0.2519   -0.0481    0.1103    0.0297   -0.4063
          29   -0.2739   -0.0574   -0.0638    0.2855    0.1304    0.0168   -0.0234   -0.1455
          30   -0.0541   -0.0023    0.0301    0.0164    0.0239   -0.0109   -0.0291    0.0384
          31    0.0392   -0.2439    0.0868   -0.2981    0.0629   -0.0089   -0.3610    0.2264
          32    0.2555   -0.0609    0.1590   -0.1937   -0.0482    0.1663   -0.1310    0.0951
          33   -0.0551   -0.0141   -0.0032   -0.0092    0.0076   -0.0366   -0.0258    0.0360
          34    0.2982   -0.1452   -0.0573    0.1576    0.1355   -0.0273    0.1082    0.0515
          35    0.2422   -0.2599   -0.2807    0.3491   -0.0447   -0.1647    0.0709    0.4435
          36   -0.0423    0.0104   -0.0164    0.0071   -0.0235   -0.0156   -0.0410    0.0319
          37   -0.2110   -0.2265    0.1520   -0.0513   -0.0735    0.0813    0.1047    0.0915
          38   -0.2291   -0.3854    0.1731   -0.3300    0.0458    0.0562    0.4672   -0.1289
          39   -0.0363   -0.0186    0.0096    0.0249   -0.0116    0.0013   -0.0109    0.0529
          40    0.0293    0.1093   -0.3769   -0.2123    0.1115    0.3481    0.0118    0.1278
          41   -0.0847    0.0777   -0.2742   -0.0205    0.2585    0.5600    0.0190    0.1772
          42   -0.0541   -0.0039   -0.0044    0.0587    0.0784    0.1374    0.0048    0.0369
          43   -0.2900   -0.0203   -0.1072    0.1154    0.0124   -0.1045    0.0103   -0.0385
          44   -0.1893   -0.0009   -0.0787    0.0919    0.0969    0.1330    0.0096    0.0361
          45   -0.0475   -0.0061   -0.0081    0.0177   -0.0182   -0.0609    0.0013   -0.0210
          46   -0.1384    0.4312    0.1310    0.0401   -0.0062    0.0196   -0.2391   -0.1574
          47   -0.0292    0.0395   -0.0724   -0.0423   -0.0124   -0.0117   -0.0183   -0.0117
          48    0.2106    0.0266   -0.0660    0.1436    0.0613   -0.0570    0.0033   -0.0304
          49   -0.0078    0.0251   -0.0639   -0.0470   -0.0308   -0.0502   -0.0012   -0.0116
          50    0.0403   -0.1441    0.4653    0.2905    0.1344    0.1969    0.0220    0.0505
          51    0.0166    0.0234   -0.0420   -0.0172    0.0208    0.0487    0.0004    0.0153


   Root No.      25        26        27        28        29        30        31        32

                25 A      26 A      27 A      28 A      29 A      30 A      31 A      32 A   

                1207.1    1215.0    1283.6    1306.4    1353.5    1375.0    1400.7    1409.0
  
           1    0.1261    0.1872    0.4533   -0.1973   -0.0698   -0.0104   -0.0539   -0.2044
           2    0.0789    0.0144   -0.3174    0.2617    0.0153   -0.0345   -0.1711    0.0240
           3   -0.0015    0.0009   -0.0003   -0.0001   -0.0004    0.0002   -0.0002   -0.0002
           4   -0.3330   -0.0537   -0.2489   -0.1202    0.0553   -0.3504   -0.0352    0.1219
           5   -0.0842    0.0168   -0.0739   -0.1983    0.0198   -0.1871    0.4127   -0.1291
           6   -0.0012    0.0023   -0.0023   -0.0016    0.0001   -0.0015    0.0029   -0.0007
           7    0.0916    0.1126   -0.0182   -0.0167    0.2267    0.0643    0.1735    0.4788
           8    0.0899   -0.1917    0.1984   -0.2328    0.5201    0.0683    0.1005    0.0631
           9    0.0016   -0.0000    0.0011   -0.0011    0.0022    0.0009    0.0012    0.0030
          10    0.0125    0.0906    0.2065    0.3307    0.0992   -0.0366   -0.0462    0.0790
          11   -0.1181   -0.0466   -0.0368   -0.1447   -0.0019    0.4027   -0.3035   -0.0010
          12    0.0158    0.0315   -0.0231   -0.0287    0.0006    0.0300   -0.0201    0.0014
          13   -0.1994   -0.2375    0.0621   -0.0910   -0.0588    0.1999   -0.1015   -0.0814
          14   -0.3380    0.1024    0.0799    0.0313    0.0664    0.3253   -0.1372    0.0840
          15   -0.0014   -0.0124    0.0068    0.0066   -0.0003    0.0021   -0.0024   -0.0003
          16    0.0141   -0.4056   -0.0657   -0.1075   -0.3018   -0.0396   -0.0469   -0.2360
          17   -0.0076   -0.1158   -0.1006    0.0828   -0.2569   -0.1258   -0.0736   -0.1242
          18    0.0009   -0.0000   -0.0023   -0.0019   -0.0025   -0.0008   -0.0003   -0.0018
          19    0.0528   -0.0081   -0.0353   -0.0317   -0.0149   -0.0624    0.0490   -0.0113
          20    0.2509    0.1125   -0.0041    0.1119   -0.0042   -0.3435    0.2381   -0.0013
          21   -0.0001   -0.0097    0.0002    0.0009   -0.0023   -0.0137    0.0106   -0.0018
          22    0.0717   -0.0851   -0.2533    0.2253   -0.0300    0.1195    0.0436    0.1735
          23    0.0593    0.1537    0.2117   -0.0430   -0.1964    0.0895    0.1480   -0.0186
          24    0.0316    0.0238    0.0082    0.0490   -0.1107    0.1012    0.1258    0.0772
          25    0.0730   -0.0852   -0.2521    0.2256   -0.0293    0.1205    0.0432    0.1736
          26    0.0566    0.1544    0.2104   -0.0433   -0.1975    0.0888    0.1475   -0.0192
          27   -0.0316   -0.0236   -0.0082   -0.0493    0.1112   -0.1016   -0.1258   -0.0772
          28    0.2731   -0.0828   -0.0230    0.2043   -0.0207    0.2845    0.1533   -0.1319
          29    0.3558   -0.0306    0.1259    0.0329   -0.0267   -0.0949   -0.3198    0.1180
          30    0.0467    0.0088    0.0565   -0.0517   -0.0027   -0.1813   -0.2945    0.1477
          31    0.2608   -0.0735   -0.0258    0.1973   -0.0201    0.2829    0.1554   -0.1319
          32    0.3465   -0.0199    0.1220    0.0262   -0.0263   -0.0992   -0.3224    0.1204
          33   -0.0418   -0.0101   -0.0538    0.0526    0.0023    0.1798    0.2893   -0.1458
          34   -0.0144    0.2316   -0.0970    0.1576    0.1640   -0.0451   -0.1111   -0.3369
          35   -0.0961    0.1897    0.0298    0.0465   -0.3557   -0.0287   -0.0220    0.0683
          36   -0.0057   -0.0561    0.0485   -0.0686   -0.1854    0.0256    0.0843    0.2960
[...]
 TRAVEL      0.1200         C  3 -- H 12         +12.7% ( 44.8%)     10.5%
 RED. MASS   0.4442         C  1 -- H  8         +12.6% ( 44.4%)     16.3%
 EFF. MASS   4.1889         C  2 -- H 10         +11.7% ( 42.8%)     15.0%
                            C  1 -- H  9         +10.8% ( 41.2%)     24.4%

 VIBRATION   25   25A         ATOM PAIR      ENERGY CONTRIBUTION    RADIAL
 FREQ.      1207.08         C  2 -- H 10         +18.3% ( 54.1%)      0.6%
 T-DIPOLE    0.0791         C  2 -- H 11         +17.4% ( 52.7%)      0.6%
 TRAVEL      0.1059         C  2 -- C  5         +11.4% ( 42.7%)     54.3%
 RED. MASS   0.6046         C  4 -- C  5          +9.6% ( 39.2%)     74.5%
 EFF. MASS   4.9822

 VIBRATION   26   26A         ATOM PAIR      ENERGY CONTRIBUTION    RADIAL
 FREQ.      1214.95         C  6 -- H 16         +26.8% ( 65.6%)      1.0%
 T-DIPOLE    0.0494         C  3 -- C  6         +14.0% ( 47.5%)     59.1%
 TRAVEL      0.1112         C  5 -- C  6          +9.8% ( 39.8%)      0.0%
 RED. MASS   0.5649         C  4 -- C  5          +7.9% ( 35.6%)     57.5%
 EFF. MASS   4.4913

 VIBRATION   27   27A         ATOM PAIR      ENERGY CONTRIBUTION    RADIAL
 FREQ.      1283.62         C  1 -- H  8         +18.2% ( 57.4%)      0.0%
 T-DIPOLE    0.2243         C  1 -- H  9         +18.1% ( 57.3%)      0.0%
 TRAVEL      0.0937         C  1 -- C  2         +15.9% ( 53.7%)     89.3%
 RED. MASS   1.2794         C  1 -- C  3         +14.1% ( 50.6%)     80.6%
 EFF. MASS   5.9822

 VIBRATION   28   28A         ATOM PAIR      ENERGY CONTRIBUTION    RADIAL
 FREQ.      1306.35         C  4 -- H 14         +13.6% ( 45.8%)      6.8%
 T-DIPOLE    0.3744         C  4 -- H 15         +12.3% ( 43.6%)      6.2%
 TRAVEL      0.1031         C  1 -- C  3          +8.6% ( 36.5%)     99.6%
 RED. MASS   0.4879         C  4 -- C  5          +7.9% ( 34.9%)     60.9%
 EFF. MASS   4.8583

 VIBRATION   29   29A         ATOM PAIR      ENERGY CONTRIBUTION    RADIAL
 FREQ.      1353.52         C  3 -- C  6         +25.7% ( 66.6%)     83.0%
 T-DIPOLE    0.0405         C  3 -- H 13         +21.2% ( 60.5%)      0.0%
 TRAVEL      0.0889         C  3 -- H 12         +21.2% ( 60.4%)      0.0%
 RED. MASS   1.6204         C  1 -- C  3         +11.1% ( 43.7%)     47.1%
 EFF. MASS   6.3016

 VIBRATION   30   30A         ATOM PAIR      ENERGY CONTRIBUTION    RADIAL
 FREQ.      1374.96         C  4 -- C  7         +16.6% ( 54.8%)     98.7%
 T-DIPOLE    0.6230         C  2 -- C  5         +14.7% ( 51.7%)     71.5%
 TRAVEL      0.0801         C  4 -- C  5         +10.8% ( 44.2%)     67.8%
 RED. MASS   1.0964         C  2 -- H 10         +10.6% ( 43.8%)      0.6%
 EFF. MASS   7.6484         C  2 -- H 11         +10.6% ( 43.8%)      0.6%

 VIBRATION   31   31A         ATOM PAIR      ENERGY CONTRIBUTION    RADIAL
 FREQ.      1400.70         C  2 -- H 10         +17.0% ( 51.8%)      5.0%
 T-DIPOLE    0.3525         C  2 -- H 11         +17.0% ( 51.8%)      5.0%
 TRAVEL      0.0926         C  2 -- C  5         +11.0% ( 41.6%)     98.1%
 RED. MASS   0.6408         C  4 -- C  7         +10.1% ( 40.0%)     99.9%
 EFF. MASS   5.6169

 VIBRATION   32   32A         ATOM PAIR      ENERGY CONTRIBUTION    RADIAL
 FREQ.      1408.99         C  3 -- H 12         +19.6% ( 55.3%)      6.1%
 T-DIPOLE    0.0336         C  3 -- H 13         +19.6% ( 55.3%)      6.1%
 TRAVEL      0.0959         C  3 -- C  6         +18.3% ( 53.4%)     91.7%
 RED. MASS   0.8445         C  1 -- C  3         +12.7% ( 44.6%)      5.1%
 EFF. MASS   5.2057

 VIBRATION   33   33A         ATOM PAIR      ENERGY CONTRIBUTION    RADIAL
 FREQ.      1423.87         C  1 -- H  8         +26.7% ( 53.7%)      5.3%
 T-DIPOLE    0.0418         C  1 -- H  9         +26.7% ( 53.7%)      5.3%
 TRAVEL      0.1276         C  1 -- C  3         +10.6% ( 33.8%)     80.4%
 RED. MASS   0.4026         C  1 -- C  2         +10.3% ( 33.4%)     64.2%
 EFF. MASS   2.9085

 VIBRATION   34   34A         ATOM PAIR      ENERGY CONTRIBUTION    RADIAL
 FREQ.      1509.13         C  4 -- C  5         +25.9% ( 78.9%)     61.5%
 T-DIPOLE    0.8111         C  4 -- C  7         +16.8% ( 63.6%)     84.9%
 TRAVEL      0.0634         C  2 -- C  5         +13.9% ( 57.8%)     96.1%
 RED. MASS   3.5501         C  4 -- H 14         +12.5% ( 54.8%)      0.2%
 EFF. MASS  11.1183         C  4 -- H 15         +11.7% ( 53.1%)      0.0%
                            C  5 -- C  6         +10.1% ( 49.3%)      8.0%

 VIBRATION   35   35A         ATOM PAIR      ENERGY CONTRIBUTION    RADIAL
 FREQ.      1878.00         C  5 -- C  6         +43.9% ( 97.9%)     98.3%
 T-DIPOLE    0.3710         C  4 -- C  5         +17.6% ( 62.0%)     60.7%
 TRAVEL      0.0550         C  2 -- C  5         +16.1% ( 59.4%)      6.4%
 RED. MASS   5.6332         C  3 -- C  6         +10.9% ( 48.8%)     25.4%
 EFF. MASS  11.8842         C  6 -- H 16         +10.3% ( 47.5%)      8.1%

 VIBRATION   36   36A         ATOM PAIR      ENERGY CONTRIBUTION    RADIAL
 FREQ.      2880.40         C  4 -- H 15         +72.5% ( 87.8%)     98.6%
 T-DIPOLE    0.3035         C  4 -- H 14         +25.7% ( 52.3%)     92.4%
 TRAVEL      0.1254         C  4 -- C  7          +0.9% (  9.8%)      0.1%
 RED. MASS   0.6192         C  4 -- C  5          +0.9% (  9.8%)      0.9%
 EFF. MASS   1.4884

 VIBRATION   37   37A         ATOM PAIR      ENERGY CONTRIBUTION    RADIAL
 FREQ.      2957.66         C  7 -- H 17         +66.7% ( 81.8%)     99.9%
 T-DIPOLE    0.4873         C  4 -- H 14         +24.2% ( 49.3%)     99.6%
 TRAVEL      0.1283         C  4 -- H 15          +8.1% ( 28.5%)     92.7%
 RED. MASS   0.4781         C  4 -- C  7          +0.7% (  8.5%)      1.3%
 EFF. MASS   1.3851

 VIBRATION   38   38A         ATOM PAIR      ENERGY CONTRIBUTION    RADIAL
 FREQ.      2968.88         C  2 -- H 10         +29.7% ( 56.8%)     96.5%
 T-DIPOLE    0.0237         C  2 -- H 11         +29.5% ( 56.6%)     96.5%
 TRAVEL      0.1209         C  1 -- H  8         +10.0% ( 33.0%)     96.1%
 RED. MASS   0.2315         C  1 -- H  9          +9.9% ( 32.8%)     96.1%
 EFF. MASS   1.5551

 VIBRATION   39   39A         ATOM PAIR      ENERGY CONTRIBUTION    RADIAL
 FREQ.      2974.56         C  3 -- H 12         +29.3% ( 55.8%)     96.6%
 T-DIPOLE    0.1789         C  3 -- H 13         +28.9% ( 55.4%)     96.5%
 TRAVEL      0.1225         C  2 -- H 10         +11.8% ( 35.5%)     96.7%
 RED. MASS   0.2163         C  2 -- H 11         +11.5% ( 35.0%)     96.6%
 EFF. MASS   1.5115

 VIBRATION   40   40A         ATOM PAIR      ENERGY CONTRIBUTION    RADIAL
 FREQ.      2975.01         C  4 -- H 14         +41.3% ( 64.3%)     99.5%
 T-DIPOLE    0.3760         C  7 -- H 17         +27.6% ( 52.5%)     99.9%
 TRAVEL      0.1280         C  4 -- H 15         +12.9% ( 36.0%)     90.9%
 RED. MASS   0.2686         C  3 -- H 12          +5.2% ( 22.8%)     96.6%
 EFF. MASS   1.3837

 VIBRATION   41   41A         ATOM PAIR      ENERGY CONTRIBUTION    RADIAL
 FREQ.      2994.18         C  1 -- H  8         +38.3% ( 64.0%)     96.6%
 T-DIPOLE    0.0329         C  1 -- H  9         +37.9% ( 63.6%)     96.6%
 TRAVEL      0.1214         C  3 -- H 12          +6.3% ( 25.9%)     97.0%
 RED. MASS   0.3252         C  3 -- H 13          +6.2% ( 25.7%)     96.9%
 EFF. MASS   1.5279

 VIBRATION   42   42A         ATOM PAIR      ENERGY CONTRIBUTION    RADIAL
 FREQ.      3051.55         C  2 -- H 11         +48.8% ( 68.9%)     97.6%
 T-DIPOLE    0.0421         C  2 -- H 10         +48.4% ( 68.6%)     97.6%
 TRAVEL      0.1313         C  2 -- C  5          +0.7% (  8.1%)     34.5%
 RED. MASS   0.4706         C  1 -- C  2          +0.7% (  8.1%)     29.6%
 EFF. MASS   1.2808

 VIBRATION   43   43A         ATOM PAIR      ENERGY CONTRIBUTION    RADIAL
 FREQ.      3055.04         C  3 -- H 13         +48.6% ( 68.8%)     97.6%
 T-DIPOLE    0.0793         C  3 -- H 12         +47.9% ( 68.3%)     97.5%
 TRAVEL      0.1311         C  1 -- H  9          +0.8% (  8.7%)     97.3%
 RED. MASS   0.4648         C  1 -- H  8          +0.8% (  8.6%)     97.2%
 EFF. MASS   1.2852

 VIBRATION   44   44A         ATOM PAIR      ENERGY CONTRIBUTION    RADIAL
 FREQ.      3071.58         C  1 -- H  9         +48.4% ( 68.5%)     97.7%
 T-DIPOLE    0.0641         C  1 -- H  8         +47.8% ( 68.1%)     97.6%
 TRAVEL      0.1310         C  1 -- C  3          +0.7% (  8.0%)     46.5%
 RED. MASS   0.4606         C  3 -- H 13          +0.7% (  8.0%)     97.9%
 EFF. MASS   1.2799

 VIBRATION   45   45A         ATOM PAIR      ENERGY CONTRIBUTION    RADIAL
 FREQ.      3109.69         C  6 -- H 16         +96.2% ( 99.8%)    100.0%
 T-DIPOLE    0.4604         C  5 -- C  6          +1.8% ( 13.6%)     47.4%
 TRAVEL      0.1180         C  3 -- C  6          +1.6% ( 13.0%)     26.5%
 RED. MASS   0.9237
 EFF. MASS   1.5579

      SYMMETRY NUMBER FOR POINT-GROUP C1  =  1


          SYSTEM IS A GROUND STATE



 InChI=1S/C7H10/c1-2-7-5-3-4-6-7/h1,5H,2-4,6H2/lp1


          MOLECULE IS NOT LINEAR

          THERE ARE 45 GENUINE VIBRATIONS IN THIS SYSTEM
          THIS THERMODYNAMICS CALCULATION IS LIMITED TO
          MOLECULES WHICH HAVE NO INTERNAL ROTATIONS




                    CALCULATED THERMODYNAMIC PROPERTIES
                                          *
   TEMP. (K)   PARTITION FUNCTION   H.O.F.    ENTHALPY  HEAT CAPACITY ENTROPY
                                   KCAL/MOL   CAL/MOLE    CAL/K/MOL  CAL/K/MOL


 298.00  VIB.     0.6950D+02                  2987.7799    21.6507    18.4545
         ROT.     0.2073D+06                   888.2813     2.9808    27.3080
         INT.     0.1441D+08                  3876.0612    24.6315    45.7624
         TRA.     0.8833D+27                  1480.4688     4.9680    39.5363
         TOT.                       96.380    5356.5300    29.5996    85.2987

 200.00  VIB.     0.1371D+02                  1295.7266    13.1950    11.6812
         ROT.     0.1140D+06                   596.1620     2.9808    26.1193
         INT.     0.1562D+07                  1891.8886    16.1758    37.8005
         TRA.     0.4856D+27                   993.6033     4.9680    37.5551
         TOT.                       93.909    2885.4918    21.1439    75.3557

 210.00  VIB.     0.1614D+02                  1431.4643    13.9573    12.3433
         ROT.     0.1226D+06                   625.9700     2.9808    26.2647
         INT.     0.1979D+07                  2057.4343    16.9381    38.6081
         TRA.     0.5225D+27                  1043.2834     4.9680    37.7975
         TOT.                       94.124    3100.7177    21.9061    76.4056

 220.00  VIB.     0.1901D+02                  1574.9676    14.7480    13.0108
         ROT.     0.1315D+06                   655.7781     2.9808    26.4034
         INT.     0.2499D+07                  2230.7458    17.7288    39.4142
         TRA.     0.5603D+27                  1092.9636     4.9680    38.0286
         TOT.                       94.347    3323.7093    22.6968    77.4428

 230.00  VIB.     0.2239D+02                  1726.5142    15.5657    13.6843
         ROT.     0.1406D+06                   685.5862     2.9808    26.5359
         INT.     0.3147D+07                  2412.1005    18.5465    40.2202
         TRA.     0.5989D+27                  1142.6437     4.9680    38.2495
         TOT.                       94.578    3554.7442    23.5145    78.4697

 240.00  VIB.     0.2640D+02                  1886.3648    16.4084    14.3645
         ROT.     0.1498D+06                   715.3943     2.9808    26.6628
         INT.     0.3955D+07                  2601.7591    19.3892    41.0273
         TRA.     0.6384D+27                  1192.3239     4.9680    38.4609
         TOT.                       94.817    3794.0830    24.3572    79.4882

 250.00  VIB.     0.3114D+02                  2054.7578    17.2737    15.0518
         ROT.     0.1593D+06                   745.2024     2.9808    26.7845
         INT.     0.4959D+07                  2799.9602    20.2545    41.8362
         TRA.     0.6787D+27                  1242.0041     4.9680    38.6637
         TOT.                       95.065    4041.9643    25.2226    80.5000

 260.00  VIB.     0.3675D+02                  2231.9056    18.1589    15.7464
         ROT.     0.1689D+06                   775.0105     2.9808    26.9014
         INT.     0.6208D+07                  3006.9162    21.1397    42.6478
         TRA.     0.7198D+27                  1291.6842     4.9680    38.8586
         TOT.                       95.322    4298.6004    26.1077    81.5064

 270.00  VIB.     0.4341D+02                  2417.9921    19.0610    16.4486
         ROT.     0.1788D+06                   804.8186     2.9808    27.0139
         INT.     0.7761D+07                  3222.8108    22.0418    43.4625
         TRA.     0.7618D+27                  1341.3644     4.9680    39.0461
         TOT.                       95.587    4564.1751    27.0098    82.5086

 280.00  VIB.     0.5132D+02                  2613.1710    19.9769    17.1584
         ROT.     0.1888D+06                   834.6267     2.9808    27.1223
         INT.     0.9688D+07                  3447.7977    22.9577    44.2806
         TRA.     0.8045D+27                  1391.0445     4.9680    39.2267
         TOT.                       95.862    4838.8422    27.9257    83.5074

 290.00  VIB.     0.6071D+02                  2817.5654    20.9036    17.8755
         ROT.     0.1990D+06                   864.4348     2.9808    27.2269
         INT.     0.1208D+08                  3682.0003    23.8844    45.1024
         TRA.     0.8479D+27                  1440.7247     4.9680    39.4011
         TOT.                       96.146    5122.7250    28.8524    84.5035

 300.00  VIB.     0.7189D+02                  3031.2687    21.8381    18.5999
         ROT.     0.2094D+06                   894.2429     2.9808    27.3279
         INT.     0.1505D+08                  3925.5116    24.8189    45.9278
         TRA.     0.8922D+27                  1490.4049     4.9680    39.5695
         TOT.                       96.439    5415.9165    29.7870    85.4973

 310.00  VIB.     0.8521D+02                  3254.3448    22.7777    19.3313
         ROT.     0.2199D+06                   924.0510     2.9808    27.4257
         INT.     0.1874D+08                  4178.3958    25.7585    46.7569
         TRA.     0.9372D+27                  1540.0850     4.9680    39.7324
         TOT.                       96.742    5718.4809    30.7265    86.4894

 320.00  VIB.     0.1011D+03                  3486.8302    23.7196    20.0693
         ROT.     0.2307D+06                   953.8591     2.9808    27.5203
         INT.     0.2332D+08                  4440.6893    26.7004    47.5896
         TRA.     0.9829D+27                  1589.7652     4.9680    39.8901
         TOT.                       97.054    6030.4545    31.6684    87.4797

 330.00  VIB.     0.1200D+03                  3728.7354    24.6613    20.8136
         ROT.     0.2416D+06                   983.6672     2.9808    27.6120
         INT.     0.2900D+08                  4712.4026    27.6421    48.4256
         TRA.     0.1029D+28                  1639.4454     4.9680    40.0430
         TOT.                       97.375    6351.8480    32.6101    88.4687

 340.00  VIB.     0.1427D+03                  3980.0471    25.6005    21.5638
         ROT.     0.2526D+06                  1013.4753     2.9808    27.7010
         INT.     0.3605D+08                  4993.5224    28.5813    49.2648
         TRA.     0.1076D+28                  1689.1255     4.9680    40.1913
         TOT.                       97.706    6682.6480    33.5493    89.4561

 350.00  VIB.     0.1698D+03                  4240.7304    26.5353    22.3194
         ROT.     0.2639D+06                  1043.2834     2.9808    27.7874
         INT.     0.4479D+08                  5284.0139    29.5161    50.1068
         TRA.     0.1124D+28                  1738.8057     4.9680    40.3353
         TOT.                       98.046    7022.8195    34.4841    90.4421

 360.00  VIB.     0.2022D+03                  4510.7310    27.4637    23.0799
         ROT.     0.2752D+06                  1073.0915     2.9808    27.8714
         INT.     0.5564D+08                  5583.8225    30.4445    50.9513
         TRA.     0.1173D+28                  1788.4859     4.9680    40.4753
         TOT.                       98.396    7372.3084    35.4125    91.4266

 370.00  VIB.     0.2410D+03                  4789.9773    28.3841    23.8450
         ROT.     0.2868D+06                  1102.8996     2.9808    27.9531
         INT.     0.6911D+08                  5892.8769    31.3649    51.7980
         TRA.     0.1222D+28                  1838.1660     4.9680    40.6114
         TOT.                       98.754    7731.0429    36.3330    92.4094

 380.00  VIB.     0.2875D+03                  5078.3825    29.2952    24.6141
         ROT.     0.2985D+06                  1132.7077     2.9808    28.0325
         INT.     0.8581D+08                  6211.0902    32.2761    52.6466
         TRA.     0.1272D+28                  1887.8462     4.9680    40.7439
         TOT.                       99.122    8098.9364    37.2441    93.3905

 390.00  VIB.     0.3433D+03                  5375.8470    30.1958    25.3867
         ROT.     0.3104D+06                  1162.5158     2.9808    28.1100
         INT.     0.1065D+09                  6538.3628    33.1766    53.4967
         TRA.     0.1322D+28                  1937.5263     4.9680    40.8729
         TOT.                       99.499    8475.8891    38.1446    94.3696

 400.00  VIB.     0.4103D+03                  5682.2600    31.0848    26.1624
         ROT.     0.3224D+06                  1192.3239     2.9808    28.1854
         INT.     0.1323D+09                  6874.5839    34.0656    54.3479
         TRA.     0.1374D+28                  1987.2065     4.9680    40.9987
         TOT.                       99.885    8861.7904    39.0336    95.3466

   *: NOTE: HEATS OF FORMATION ARE RELATIVE TO THE
            ELEMENTS IN THEIR STANDARD STATE AT 298K
              (=  Standard Enthalpy of Formation).

            Hvib:  Zero-point energy is not included.
                   frequencies of less than zero cm-1 are not included.
            Hrot = (3/2)RT
            Htra = (3/2)RT + pV = (5/2)RT

            Heat capacity is Cp, not Cv

          For more information, see: HTTP://OpenMOPAC.net/Manual/thermochemistry.html


           FORCE CONSTANT IN CARTESIAN COORDINATES (Millidynes/A)

    ATOM   CHEMICAL       X               Y               Z
   NUMBER   SYMBOL  FORCE CONSTANT  FORCE CONSTANT  FORCE CONSTANT

      1       C        7.798688        8.396226        8.361053
      2       C        7.934388        9.154232        8.067705
      3       C        9.664750        7.557476        8.061871
      4       C        8.800942        9.634996        6.501121
      5       C       14.882568       10.892007        2.668279
      6       C       12.095438       13.051471        2.349581
      7       C        5.534762        6.683260        0.372686
      8       H        1.246611        1.663058        3.587503
      9       H        1.248408        1.666256        3.583708
     10       H        1.286814        1.579752        3.522532
     11       H        1.282708        1.526700        3.572572
     12       H        1.889147        0.915950        3.574954
     13       H        1.942364        0.910571        3.529531
     14       H        1.566809        1.746405        2.713435
     15       H        1.223959        0.643909        3.770720
     16       H        0.678356        5.304161        0.365547
     17       H        4.338610        0.759015        0.322283

 **********************
 *                    *
 * JOB ENDED NORMALLY *
 *                    *
 **********************



 TOTAL JOB TIME:             1.33 SECONDS

 == MOPAC DONE ==
