 *******************************************************************************
 ** Site#: 14399        For non-commercial use only    Version 18.184L 64BITS **
 *******************************************************************************
 ** Cite this program as: MOPAC2016, Version: 18.184L, James J. P. Stewart,   **
 ** Stewart Computational Chemistry, web: HTTP://OpenMOPAC.net. Days left:  18**
 *******************************************************************************
 **                                                                           **
 **                                MOPAC2016                                  **
 **                                                                           **
 *******************************************************************************

                              PM3 CALCULATION RESULTS

 *******************************************************************************
 *  CALCULATION DONE:                                Sat Jun 15 10:17:12 2019  *
 *  PM3        - The PM3 Hamiltonian to be used
 *  PRECISE    - CRITERIA TO BE INCREASED BY 100 TIMES
 *  NOSYM      - POINT-GROUP SYMMETRY SET TO C1
 *  THREADS=1  - MULTI-THREADING NOT USED
 *  T=         - A TIME OF 172800.0 SECONDS REQUESTED
 *  DUMP=N     - RESTART FILE WRITTEN EVERY  7200.000 SECONDS
 *******************************************************************************
pm3  precise nosym THREADS=1
 InChI=1S/C10H12/c1-2-3-7-10-8-5-4-6-9-10/h2,4-8H,1,3,9H2

   ATOM   CHEMICAL          X               Y               Z
  NUMBER   SYMBOL      (ANGSTROMS)     (ANGSTROMS)     (ANGSTROMS)
 
     1       C         -1.26930000  *  -0.83230000  *  -0.52990000  *
     2       C          1.67770000  *  -0.59620000  *  -0.67950000  *
     3       C         -0.52220000  *   0.34140000  *   0.07980000  *
     4       C          0.81760000  *   0.43530000  *   0.00540000  *
     5       C         -2.76440000  *  -0.76180000  *  -0.34900000  *
     6       C          3.13540000  *  -0.23620000  *  -0.59940000  *
     7       C         -1.27720000  *   1.40890000  *   0.77300000  *
     8       C         -3.36960000  *   0.24180000  *   0.29170000  *
     9       C         -2.60550000  *   1.35720000  *   0.86880000  *
    10       C          3.80660000  *  -0.28270000  *   0.55530000  *
    11       H         -0.91330000  *  -1.77520000  *  -0.06350000  *
    12       H         -1.05890000  *  -0.87410000  *  -1.61950000  *
    13       H          1.38880000  *  -0.65420000  *  -1.75050000  *
    14       H          1.52220000  *  -1.59500000  *  -0.21750000  *
    15       H         -3.36880000  *  -1.56210000  *  -0.75760000  *
    16       H          1.30790000  *   1.29310000  *   0.45490000  *
    17       H          3.65850000  *   0.05570000  *  -1.50530000  *
    18       H         -3.13610000  *   2.15000000  *   1.38050000  *
    19       H         -4.44770000  *   0.23790000  *   0.39080000  *
    20       H         -0.75380000  *   2.24990000  *   1.21290000  *
    21       H          4.85990000  *  -0.02340000  *   0.58230000  *
    22       H          3.31240000  *  -0.57790000  *   1.47620000  *
 


          CARTESIAN COORDINATES 

    NO.       ATOM           X           Y           Z

     1         C         -1.2693     -0.8323     -0.5299
     2         C          1.6777     -0.5962     -0.6795
     3         C         -0.5222      0.3414      0.0798
     4         C          0.8176      0.4353      0.0054
     5         C         -2.7644     -0.7618     -0.3490
     6         C          3.1354     -0.2362     -0.5994
     7         C         -1.2772      1.4089      0.7730
     8         C         -3.3696      0.2418      0.2917
     9         C         -2.6055      1.3572      0.8688
    10         C          3.8066     -0.2827      0.5553
    11         H         -0.9133     -1.7752     -0.0635
    12         H         -1.0589     -0.8741     -1.6195
    13         H          1.3888     -0.6542     -1.7505
    14         H          1.5222     -1.5950     -0.2175
    15         H         -3.3688     -1.5621     -0.7576
    16         H          1.3079      1.2931      0.4549
    17         H          3.6585      0.0557     -1.5053
    18         H         -3.1361      2.1500      1.3805
    19         H         -4.4477      0.2379      0.3908
    20         H         -0.7538      2.2499      1.2129
    21         H          4.8599     -0.0234      0.5823
    22         H          3.3124     -0.5779      1.4762

  H: (PM3): J. J. P. STEWART, J. COMP. CHEM. 10, 209 (1989).
  C: (PM3): J. J. P. STEWART, J. COMP. CHEM. 10, 209 (1989).

           Empirical Formula: C10 H12  =    22 atoms



      MOLECULAR POINT GROUP   :   C1  


      RHF CALCULATION, NO. OF DOUBLY OCCUPIED LEVELS = 26


          Geometry optimization using EF

          DIAGONAL MATRIX USED AS START HESSIAN

 CYCLE:     1 TIME:   0.008 TIME LEFT:  2.00D  GRAD.:    82.304 HEAT:  53.38085
 CYCLE:     2 TIME:   0.012 TIME LEFT:  2.00D  GRAD.:    56.200 HEAT:  51.91535
 CYCLE:     3 TIME:   0.008 TIME LEFT:  2.00D  GRAD.:    38.237 HEAT:  51.47896
 CYCLE:     4 TIME:   0.004 TIME LEFT:  2.00D  GRAD.:    27.531 HEAT:  51.12646
 CYCLE:     5 TIME:   0.004 TIME LEFT:  2.00D  GRAD.:    41.487 HEAT:  51.02480
 CYCLE:     6 TIME:   0.008 TIME LEFT:  2.00D  GRAD.:    50.101 HEAT:  50.91918
 CYCLE:     7 TIME:   0.004 TIME LEFT:  2.00D  GRAD.:    43.221 HEAT:  50.85919
 CYCLE:     8 TIME:   0.004 TIME LEFT:  2.00D  GRAD.:    39.863 HEAT:  50.78843
 CYCLE:     9 TIME:   0.008 TIME LEFT:  2.00D  GRAD.:    17.036 HEAT:  50.45850
 CYCLE:    10 TIME:   0.012 TIME LEFT:  2.00D  GRAD.:    10.561 HEAT:  50.40235
 CYCLE:    11 TIME:   0.004 TIME LEFT:  2.00D  GRAD.:     7.876 HEAT:  50.37311
 CYCLE:    12 TIME:   0.004 TIME LEFT:  2.00D  GRAD.:    10.541 HEAT:  50.36161
 CYCLE:    13 TIME:   0.008 TIME LEFT:  2.00D  GRAD.:     7.508 HEAT:  50.34272
 CYCLE:    14 TIME:   0.004 TIME LEFT:  2.00D  GRAD.:     7.797 HEAT:  50.33759
 CYCLE:    15 TIME:   0.008 TIME LEFT:  2.00D  GRAD.:     5.746 HEAT:  50.32517
 CYCLE:    16 TIME:   0.008 TIME LEFT:  2.00D  GRAD.:     5.531 HEAT:  50.32176
 CYCLE:    17 TIME:   0.004 TIME LEFT:  2.00D  GRAD.:     4.830 HEAT:  50.31835
 CYCLE:    18 TIME:   0.004 TIME LEFT:  2.00D  GRAD.:     4.248 HEAT:  50.31403
 CYCLE:    19 TIME:   0.004 TIME LEFT:  2.00D  GRAD.:     4.800 HEAT:  50.31401
 CYCLE:    20 TIME:   0.004 TIME LEFT:  2.00D  GRAD.:     3.842 HEAT:  50.30899
 CYCLE:    21 TIME:   0.008 TIME LEFT:  2.00D  GRAD.:     4.581 HEAT:  50.30845
 CYCLE:    22 TIME:   0.004 TIME LEFT:  2.00D  GRAD.:     1.855 HEAT:  50.30385
 CYCLE:    23 TIME:   0.004 TIME LEFT:  2.00D  GRAD.:     2.876 HEAT:  50.30338
 CYCLE:    24 TIME:   0.004 TIME LEFT:  2.00D  GRAD.:     1.722 HEAT:  50.30050
 CYCLE:    25 TIME:   0.004 TIME LEFT:  2.00D  GRAD.:     3.348 HEAT:  50.29963
 CYCLE:    26 TIME:   0.004 TIME LEFT:  2.00D  GRAD.:     1.701 HEAT:  50.29624
 CYCLE:    27 TIME:   0.008 TIME LEFT:  2.00D  GRAD.:     1.622 HEAT:  50.29434
 CYCLE:    28 TIME:   0.004 TIME LEFT:  2.00D  GRAD.:     1.262 HEAT:  50.29250
 CYCLE:    29 TIME:   0.004 TIME LEFT:  2.00D  GRAD.:     1.623 HEAT:  50.29092
 CYCLE:    30 TIME:   0.004 TIME LEFT:  2.00D  GRAD.:     1.119 HEAT:  50.28912
 CYCLE:    31 TIME:   0.008 TIME LEFT:  2.00D  GRAD.:     1.290 HEAT:  50.28725
 CYCLE:    32 TIME:   0.004 TIME LEFT:  2.00D  GRAD.:     1.594 HEAT:  50.28534
 CYCLE:    33 TIME:   0.004 TIME LEFT:  2.00D  GRAD.:     1.081 HEAT:  50.28326
 CYCLE:    34 TIME:   0.004 TIME LEFT:  2.00D  GRAD.:     1.328 HEAT:  50.28006
 CYCLE:    35 TIME:   0.004 TIME LEFT:  2.00D  GRAD.:     1.506 HEAT:  50.27715
 CYCLE:    36 TIME:   0.004 TIME LEFT:  2.00D  GRAD.:     1.293 HEAT:  50.27375
 CYCLE:    37 TIME:   0.008 TIME LEFT:  2.00D  GRAD.:     1.168 HEAT:  50.27045
 CYCLE:    38 TIME:   0.004 TIME LEFT:  2.00D  GRAD.:     1.314 HEAT:  50.26708
 CYCLE:    39 TIME:   0.004 TIME LEFT:  2.00D  GRAD.:     1.457 HEAT:  50.26342
 CYCLE:    40 TIME:   0.008 TIME LEFT:  2.00D  GRAD.:     1.495 HEAT:  50.25977
 CYCLE:    41 TIME:   0.004 TIME LEFT:  2.00D  GRAD.:     1.479 HEAT:  50.25563
 CYCLE:    42 TIME:   0.004 TIME LEFT:  2.00D  GRAD.:     1.761 HEAT:  50.25025
 CYCLE:    43 TIME:   0.004 TIME LEFT:  2.00D  GRAD.:     2.387 HEAT:  50.24164
 CYCLE:    44 TIME:   0.004 TIME LEFT:  2.00D  GRAD.:     2.979 HEAT:  50.22836
 CYCLE:    45 TIME:   0.008 TIME LEFT:  2.00D  GRAD.:     3.362 HEAT:  50.20947
 CYCLE:    46 TIME:   0.004 TIME LEFT:  2.00D  GRAD.:     3.809 HEAT:  50.18753
 CYCLE:    47 TIME:   0.004 TIME LEFT:  2.00D  GRAD.:     4.677 HEAT:  50.17011
 CYCLE:    48 TIME:   0.008 TIME LEFT:  2.00D  GRAD.:     6.313 HEAT:  50.14920
 CYCLE:    49 TIME:   0.004 TIME LEFT:  2.00D  GRAD.:     3.629 HEAT:  50.12183
 CYCLE:    50 TIME:   0.004 TIME LEFT:  2.00D  GRAD.:     3.788 HEAT:  50.08113
 CYCLE:    51 TIME:   0.004 TIME LEFT:  2.00D  GRAD.:    11.395 HEAT:  50.04910
 CYCLE:    52 TIME:   0.004 TIME LEFT:  2.00D  GRAD.:     3.184 HEAT:  50.00603
 CYCLE:    53 TIME:   0.008 TIME LEFT:  2.00D  GRAD.:     3.278 HEAT:  49.97479
 CYCLE:    54 TIME:   0.004 TIME LEFT:  2.00D  GRAD.:    10.889 HEAT:  49.96377
 CYCLE:    55 TIME:   0.004 TIME LEFT:  2.00D  GRAD.:     3.231 HEAT:  49.92373
 CYCLE:    56 TIME:   0.004 TIME LEFT:  2.00D  GRAD.:     3.465 HEAT:  49.90320
 CYCLE:    57 TIME:   0.008 TIME LEFT:  2.00D  GRAD.:     5.927 HEAT:  49.85624
 CYCLE:    58 TIME:   0.004 TIME LEFT:  2.00D  GRAD.:     5.967 HEAT:  49.81697
 CYCLE:    59 TIME:   0.004 TIME LEFT:  2.00D  GRAD.:     4.291 HEAT:  49.76493
 CYCLE:    60 TIME:   0.008 TIME LEFT:  2.00D  GRAD.:     4.474 HEAT:  49.73228
 CYCLE:    61 TIME:   0.004 TIME LEFT:  2.00D  GRAD.:     4.834 HEAT:  49.71643
 CYCLE:    62 TIME:   0.008 TIME LEFT:  2.00D  GRAD.:     4.513 HEAT:  49.70264
 CYCLE:    63 TIME:   0.004 TIME LEFT:  2.00D  GRAD.:     3.410 HEAT:  49.68560
 CYCLE:    64 TIME:   0.004 TIME LEFT:  2.00D  GRAD.:     3.173 HEAT:  49.66256
 CYCLE:    65 TIME:   0.004 TIME LEFT:  2.00D  GRAD.:     2.612 HEAT:  49.64676
 CYCLE:    66 TIME:   0.008 TIME LEFT:  2.00D  GRAD.:     2.920 HEAT:  49.63918
 CYCLE:    67 TIME:   0.004 TIME LEFT:  2.00D  GRAD.:     2.364 HEAT:  49.63232
 CYCLE:    68 TIME:   0.004 TIME LEFT:  2.00D  GRAD.:     2.079 HEAT:  49.62285
 CYCLE:    69 TIME:   0.004 TIME LEFT:  2.00D  GRAD.:     1.973 HEAT:  49.60848
 CYCLE:    70 TIME:   0.004 TIME LEFT:  2.00D  GRAD.:     2.270 HEAT:  49.59909
 CYCLE:    71 TIME:   0.008 TIME LEFT:  2.00D  GRAD.:     3.070 HEAT:  49.58028
 CYCLE:    72 TIME:   0.004 TIME LEFT:  2.00D  GRAD.:     2.584 HEAT:  49.56847
 CYCLE:    73 TIME:   0.004 TIME LEFT:  2.00D  GRAD.:     8.119 HEAT:  49.55347
 CYCLE:    74 TIME:   0.008 TIME LEFT:  2.00D  GRAD.:     3.446 HEAT:  49.52552
 CYCLE:    75 TIME:   0.004 TIME LEFT:  2.00D  GRAD.:     2.188 HEAT:  49.50886
 CYCLE:    76 TIME:   0.004 TIME LEFT:  2.00D  GRAD.:     4.551 HEAT:  49.48325
 CYCLE:    77 TIME:   0.004 TIME LEFT:  2.00D  GRAD.:     3.091 HEAT:  49.46776
 CYCLE:    78 TIME:   0.004 TIME LEFT:  2.00D  GRAD.:     2.835 HEAT:  49.44071
 CYCLE:    79 TIME:   0.004 TIME LEFT:  2.00D  GRAD.:     2.599 HEAT:  49.42611
 CYCLE:    80 TIME:   0.008 TIME LEFT:  2.00D  GRAD.:     3.483 HEAT:  49.41616
 CYCLE:    81 TIME:   0.004 TIME LEFT:  2.00D  GRAD.:     2.262 HEAT:  49.40417
 CYCLE:    82 TIME:   0.004 TIME LEFT:  2.00D  GRAD.:     2.112 HEAT:  49.39431
 CYCLE:    83 TIME:   0.008 TIME LEFT:  2.00D  GRAD.:     1.715 HEAT:  49.38407
 CYCLE:    84 TIME:   0.004 TIME LEFT:  2.00D  GRAD.:     1.511 HEAT:  49.38039
 CYCLE:    85 TIME:   0.004 TIME LEFT:  2.00D  GRAD.:     2.298 HEAT:  49.37289
 CYCLE:    86 TIME:   0.004 TIME LEFT:  2.00D  GRAD.:     1.263 HEAT:  49.37040
 CYCLE:    87 TIME:   0.004 TIME LEFT:  2.00D  GRAD.:     0.820 HEAT:  49.36842
 CYCLE:    88 TIME:   0.004 TIME LEFT:  2.00D  GRAD.:     0.675 HEAT:  49.36669
 CYCLE:    89 TIME:   0.008 TIME LEFT:  2.00D  GRAD.:     0.566 HEAT:  49.36555
 CYCLE:    90 TIME:   0.004 TIME LEFT:  2.00D  GRAD.:     0.471 HEAT:  49.36498
 CYCLE:    91 TIME:   0.004 TIME LEFT:  2.00D  GRAD.:     0.560 HEAT:  49.36400
 CYCLE:    92 TIME:   0.004 TIME LEFT:  2.00D  GRAD.:     0.648 HEAT:  49.36323
 CYCLE:    93 TIME:   0.008 TIME LEFT:  2.00D  GRAD.:     0.762 HEAT:  49.36237
 CYCLE:    94 TIME:   0.004 TIME LEFT:  2.00D  GRAD.:     0.775 HEAT:  49.36136
 CYCLE:    95 TIME:   0.004 TIME LEFT:  2.00D  GRAD.:     0.776 HEAT:  49.36030
 CYCLE:    96 TIME:   0.004 TIME LEFT:  2.00D  GRAD.:     0.670 HEAT:  49.35926
 CYCLE:    97 TIME:   0.004 TIME LEFT:  2.00D  GRAD.:     0.628 HEAT:  49.35825
 CYCLE:    98 TIME:   0.004 TIME LEFT:  2.00D  GRAD.:     0.662 HEAT:  49.35725
 CYCLE:    99 TIME:   0.008 TIME LEFT:  2.00D  GRAD.:     0.600 HEAT:  49.35638
 CYCLE:   100 TIME:   0.004 TIME LEFT:  2.00D  GRAD.:     0.590 HEAT:  49.35554
 CYCLE:   101 TIME:   0.008 TIME LEFT:  2.00D  GRAD.:     0.677 HEAT:  49.35464
 CYCLE:   102 TIME:   0.004 TIME LEFT:  2.00D  GRAD.:     1.015 HEAT:  49.35314
 CYCLE:   103 TIME:   0.004 TIME LEFT:  2.00D  GRAD.:     1.415 HEAT:  49.35078
 CYCLE:   104 TIME:   0.004 TIME LEFT:  2.00D  GRAD.:     1.846 HEAT:  49.34647
 CYCLE:   105 TIME:   0.004 TIME LEFT:  2.00D  GRAD.:     1.501 HEAT:  49.34003
 CYCLE:   106 TIME:   0.008 TIME LEFT:  2.00D  GRAD.:     1.359 HEAT:  49.33598
 CYCLE:   107 TIME:   0.004 TIME LEFT:  2.00D  GRAD.:     2.504 HEAT:  49.33237
 CYCLE:   108 TIME:   0.004 TIME LEFT:  2.00D  GRAD.:     1.800 HEAT:  49.32819
 CYCLE:   109 TIME:   0.008 TIME LEFT:  2.00D  GRAD.:     1.184 HEAT:  49.32543
 CYCLE:   110 TIME:   0.004 TIME LEFT:  2.00D  GRAD.:     0.819 HEAT:  49.32323
 CYCLE:   111 TIME:   0.004 TIME LEFT:  2.00D  GRAD.:     0.571 HEAT:  49.32257
 CYCLE:   112 TIME:   0.004 TIME LEFT:  2.00D  GRAD.:     0.711 HEAT:  49.32155
 CYCLE:   113 TIME:   0.008 TIME LEFT:  2.00D  GRAD.:     0.612 HEAT:  49.32084
 CYCLE:   114 TIME:   0.004 TIME LEFT:  2.00D  GRAD.:     0.425 HEAT:  49.32035
 CYCLE:   115 TIME:   0.004 TIME LEFT:  2.00D  GRAD.:     0.364 HEAT:  49.32006
 CYCLE:   116 TIME:   0.004 TIME LEFT:  2.00D  GRAD.:     0.355 HEAT:  49.31971
 CYCLE:   117 TIME:   0.008 TIME LEFT:  2.00D  GRAD.:     0.284 HEAT:  49.31948
 CYCLE:   118 TIME:   0.004 TIME LEFT:  2.00D  GRAD.:     0.235 HEAT:  49.31930
 CYCLE:   119 TIME:   0.004 TIME LEFT:  2.00D  GRAD.:     0.187 HEAT:  49.31922
 CYCLE:   120 TIME:   0.004 TIME LEFT:  2.00D  GRAD.:     0.191 HEAT:  49.31913
 CYCLE:   121 TIME:   0.008 TIME LEFT:  2.00D  GRAD.:     0.192 HEAT:  49.31905
 CYCLE:   122 TIME:   0.004 TIME LEFT:  2.00D  GRAD.:     0.145 HEAT:  49.31897
 CYCLE:   123 TIME:   0.004 TIME LEFT:  2.00D  GRAD.:     0.084 HEAT:  49.31890
 CYCLE:   124 TIME:   0.004 TIME LEFT:  2.00D  GRAD.:     0.079 HEAT:  49.31887
 CYCLE:   125 TIME:   0.008 TIME LEFT:  2.00D  GRAD.:     0.081 HEAT:  49.31887
 CYCLE:   126 TIME:   0.004 TIME LEFT:  2.00D  GRAD.:     0.147 HEAT:  49.31887
 CYCLE:   127 TIME:   0.004 TIME LEFT:  2.00D  GRAD.:     0.101 HEAT:  49.31885
 CYCLE:   128 TIME:   0.004 TIME LEFT:  2.00D  GRAD.:     0.075 HEAT:  49.31885
 CYCLE:   129 TIME:   0.004 TIME LEFT:  2.00D  GRAD.:     0.077 HEAT:  49.31883
 CYCLE:   130 TIME:   0.008 TIME LEFT:  2.00D  GRAD.:     0.067 HEAT:  49.31882
 CYCLE:   131 TIME:   0.004 TIME LEFT:  2.00D  GRAD.:     0.071 HEAT:  49.31881
 CYCLE:   132 TIME:   0.004 TIME LEFT:  2.00D  GRAD.:     0.068 HEAT:  49.31879
 CYCLE:   133 TIME:   0.004 TIME LEFT:  2.00D  GRAD.:     0.081 HEAT:  49.31877
 CYCLE:   134 TIME:   0.008 TIME LEFT:  2.00D  GRAD.:     0.060 HEAT:  49.31876
 CYCLE:   135 TIME:   0.004 TIME LEFT:  2.00D  GRAD.:     0.052 HEAT:  49.31875
 CYCLE:   136 TIME:   0.004 TIME LEFT:  2.00D  GRAD.:     0.072 HEAT:  49.31874
 CYCLE:   137 TIME:   0.004 TIME LEFT:  2.00D  GRAD.:     0.061 HEAT:  49.31873
 CYCLE:   138 TIME:   0.004 TIME LEFT:  2.00D  GRAD.:     0.087 HEAT:  49.31871
 CYCLE:   139 TIME:   0.008 TIME LEFT:  2.00D  GRAD.:     0.072 HEAT:  49.31868
 CYCLE:   140 TIME:   0.004 TIME LEFT:  2.00D  GRAD.:     0.036 HEAT:  49.31866

     GRADIENT =  0.03631  IS LESS THAN CUTOFF =  0.05000



 -------------------------------------------------------------------------------
 pm3  precise nosym THREADS=1
 InChI=1S/C10H12/c1-2-3-7-10-8-5-4-6-9-10/h2,4-8H,1,3,9H2



     GEOMETRY OPTIMISED USING EIGENVECTOR FOLLOWING (EF).     
     SCF FIELD WAS ACHIEVED                                   


                              PM3 CALCULATION
                                                       MOPAC2016 (Version: 18.184L)
                                                       Sat Jun 15 10:17:13 2019
                                                       No. of days remaining =  18




          FINAL HEAT OF FORMATION =         49.31866 KCAL/MOL =     206.34929 KJ/MOL


          TOTAL ENERGY            =      -1368.25764 EV
          ELECTRONIC ENERGY       =      -7123.41807 EV  POINT GROUP:     C1  
          CORE-CORE REPULSION     =       5755.16043 EV
          COSMO AREA              =        190.93 SQUARE ANGSTROMS
          COSMO VOLUME            =        187.68 CUBIC ANGSTROMS

          GRADIENT NORM           =          0.03631 = 0.00774 PER ATOM
          IONIZATION POTENTIAL    =          8.461773 EV
          HOMO LUMO ENERGIES (EV) =         -8.462 -0.194
          NO. OF FILLED LEVELS    =         26
          MOLECULAR WEIGHT        =        132.2048

          MOLECULAR DIMENSIONS (Angstroms)

            Atom       Atom       Distance
            H    21    H    19     9.65122
            H    20    H    15     4.58506
            H    13    H    22     2.26890


          SCF CALCULATIONS        =        149
 
          WALL-CLOCK TIME         =          0.711 SECONDS
          COMPUTATION TIME        =          0.660 SECONDS




   ATOM   CHEMICAL          X               Y               Z
  NUMBER   SYMBOL      (ANGSTROMS)     (ANGSTROMS)     (ANGSTROMS)
 
     1       C         -1.23519550  *  -0.82042718  *  -0.38519600  *
     2       C          1.69511447  *  -0.45144574  *  -0.42870969  *
     3       C         -0.57763219  *   0.42373516  *   0.11525525  *
     4       C          0.76018503  *   0.57972248  *   0.08845762  *
     5       C         -2.71614695  *  -0.83413468  *  -0.29612375  *
     6       C          3.11459884  *  -0.00730447  *  -0.35062975  *
     7       C         -1.42043163  *   1.48843561  *   0.64314081  *
     8       C         -3.42338478  *   0.18929010  *   0.20148431  *
     9       C         -2.75920476  *   1.38024025  *   0.68450296  *
    10       C          4.08149224  *  -0.76128504  *   0.15862208  *
    11       H         -0.83794637  *  -1.69434472  *   0.17607279  *
    12       H         -0.94112972  *  -0.98810683  *  -1.44437423  *
    13       H          1.45325933  *  -0.67802183  *  -1.48986498  *
    14       H          1.54035520  *  -1.40457254  *   0.12178472  *
    15       H         -3.21224852  *  -1.73926467  *  -0.66361106  *
    16       H          1.20948340  *   1.50786904  *   0.46501836  *
    17       H          3.32706491  *   0.99163973  *  -0.75076001  *
    18       H         -3.38270627  *   2.18693489  *   1.08318547  *
    19       H         -4.51615479  *   0.15547013  *   0.25726413  *
    20       H         -0.91803730  *   2.39171179  *   1.00969876  *
    21       H          5.11670764  *  -0.43669901  *   0.19862377  *
    22       H          3.91116366  *  -1.75256917  *   0.57024859  *

                             CARTESIAN COORDINATES

   1    C       -1.235195500    -0.820427176    -0.385196001
   2    C        1.695114474    -0.451445740    -0.428709690
   3    C       -0.577632187     0.423735160     0.115255253
   4    C        0.760185029     0.579722475     0.088457620
   5    C       -2.716146945    -0.834134675    -0.296123750
   6    C        3.114598844    -0.007304467    -0.350629748
   7    C       -1.420431626     1.488435611     0.643140813
   8    C       -3.423384783     0.189290101     0.201484315
   9    C       -2.759204755     1.380240245     0.684502961
  10    C        4.081492240    -0.761285037     0.158622080
  11    H       -0.837946370    -1.694344718     0.176072792
  12    H       -0.941129717    -0.988106827    -1.444374232
  13    H        1.453259334    -0.678021832    -1.489864979
  14    H        1.540355204    -1.404572536     0.121784724
  15    H       -3.212248519    -1.739264674    -0.663611063
  16    H        1.209483396     1.507869036     0.465018358
  17    H        3.327064909     0.991639729    -0.750760007
  18    H       -3.382706271     2.186934886     1.083185465
  19    H       -4.516154793     0.155470125     0.257264133
  20    H       -0.918037299     2.391711794     1.009698761
  21    H        5.116707637    -0.436699014     0.198623775
  22    H        3.911163657    -1.752569169     0.570248592


           Empirical Formula: C10 H12  =    22 atoms



      MOLECULAR POINT GROUP   :   C1  


                  EIGENVALUES  
 -40.26224 -36.20964 -31.51179 -30.30147 -26.93672 -23.75384 -21.50210 -19.72375
 -19.45059 -17.58579 -16.69893 -16.19885 -15.69594 -15.14913 -14.98084 -14.57667
 -14.31785 -13.41361 -13.25339 -12.51462 -12.17681 -11.86421 -11.70322 -10.63714
 -10.18947  -8.46177  -0.19441   1.09336   1.24524   2.34005   3.13695   3.26155
   3.41978   3.45803   3.67048   3.70848   3.78069   3.93023   3.96882   4.19733
   4.24814   4.34271   4.45768   4.52841   4.84695   5.25506   5.30950   5.59227
   5.62970   5.82540   6.18699   6.28731


              NET ATOMIC CHARGES AND DIPOLE CONTRIBUTIONS

  ATOM NO.   TYPE          CHARGE      No. of ELECS.   s-Pop       p-Pop       
    1          C          -0.017081        4.0171     1.13112     2.88596
    2          C          -0.031366        4.0314     1.13507     2.89629
    3          C          -0.091341        4.0913     1.18171     2.90963
    4          C          -0.150511        4.1505     1.19681     2.95370
    5          C          -0.130572        4.1306     1.19531     2.93526
    6          C          -0.136716        4.1367     1.19564     2.94107
    7          C          -0.088884        4.0889     1.18074     2.90814
    8          C          -0.113832        4.1138     1.17775     2.93608
    9          C          -0.101023        4.1010     1.17957     2.92145
   10          C          -0.164422        4.1644     1.18263     2.98179
   11          H           0.065382        0.9346     0.93462
   12          H           0.064939        0.9351     0.93506
   13          H           0.063167        0.9368     0.93683
   14          H           0.061465        0.9385     0.93853
   15          H           0.098320        0.9017     0.90168
   16          H           0.107606        0.8924     0.89239
   17          H           0.098963        0.9010     0.90104
   18          H           0.101272        0.8987     0.89873
   19          H           0.102027        0.8980     0.89797
   20          H           0.101102        0.8989     0.89890
   21          H           0.079816        0.9202     0.92018
   22          H           0.081687        0.9183     0.91831
 DIPOLE           X         Y         Z       TOTAL
 POINT-CHG.     0.022    -0.334    -0.243     0.413
 HYBRID         0.030    -0.024    -0.007     0.039
 SUM            0.052    -0.358    -0.250     0.440


          ATOMIC ORBITAL ELECTRON POPULATIONS

     Atom    s        px        py        pz   
    1  C   1.13112   0.93270   0.95573   0.99753
    2  C   1.13507   0.92413   0.97113   1.00103
    3  C   1.18171   0.94399   0.95931   1.00634
    4  C   1.19681   0.94060   0.99600   1.01710
    5  C   1.19531   0.95881   0.98166   0.99479
    6  C   1.19564   0.95347   0.99245   0.99515
    7  C   1.18074   0.94814   0.96748   0.99252
    8  C   1.17775   0.98089   0.95138   1.00382
    9  C   1.17957   0.95372   0.97011   0.99762
   10  C   1.18263   0.98185   0.99553   1.00441
   11  H   0.93462
   12  H   0.93506
   13  H   0.93683
   14  H   0.93853
   15  H   0.90168
   16  H   0.89239
   17  H   0.90104
   18  H   0.89873
   19  H   0.89797
   20  H   0.89890
   21  H   0.92018
   22  H   0.91831
 *******************************************************************************
 ** Site#: 14399        For non-commercial use only    Version 18.184L 64BITS **
 *******************************************************************************
 ** Cite this program as: MOPAC2016, Version: 18.184L, James J. P. Stewart,   **
 ** Stewart Computational Chemistry, web: HTTP://OpenMOPAC.net. Days left:  18**
 *******************************************************************************
 **                                                                           **
 **                                MOPAC2016                                  **
 **                                                                           **
 *******************************************************************************

                              PM3 CALCULATION RESULTS

 *******************************************************************************
 *  CALCULATION DONE:                                Sat Jun 15 10:17:13 2019  *
 *  PM3        - The PM3 Hamiltonian to be used
 *  OLDGEO     - PREVIOUS GEOMETRY TO BE USED
 *  PRECISE    - CRITERIA TO BE INCREASED BY 100 TIMES
 *  NOSYM      - POINT-GROUP SYMMETRY SET TO C1
 *  THREADS=1  - MULTI-THREADING NOT USED
 *  T=         - A TIME OF 172800.0 SECONDS REQUESTED
 *  DUMP=N     - RESTART FILE WRITTEN EVERY  7200.000 SECONDS
 *  THERMO     - THERMODYNAMIC QUANTITIES TO BE CALCULATED
 *******************************************************************************
oldgeo thermo nosym precise THREADS=1  pm3
 InChI=1S/C10H12/c1-2-3-7-10-8-5-4-6-9-10/h2,4-8H,1,3,9H2

   ATOM   CHEMICAL          X               Y               Z
  NUMBER   SYMBOL      (ANGSTROMS)     (ANGSTROMS)     (ANGSTROMS)
 
     1       C         -1.23519550  *  -0.82042718  *  -0.38519600  *
     2       C          1.69511447  *  -0.45144574  *  -0.42870969  *
     3       C         -0.57763219  *   0.42373516  *   0.11525525  *
     4       C          0.76018503  *   0.57972248  *   0.08845762  *
     5       C         -2.71614695  *  -0.83413468  *  -0.29612375  *
     6       C          3.11459884  *  -0.00730447  *  -0.35062975  *
     7       C         -1.42043163  *   1.48843561  *   0.64314081  *
     8       C         -3.42338478  *   0.18929010  *   0.20148431  *
     9       C         -2.75920476  *   1.38024025  *   0.68450296  *
    10       C          4.08149224  *  -0.76128504  *   0.15862208  *
    11       H         -0.83794637  *  -1.69434472  *   0.17607279  *
    12       H         -0.94112972  *  -0.98810683  *  -1.44437423  *
    13       H          1.45325933  *  -0.67802183  *  -1.48986498  *
    14       H          1.54035520  *  -1.40457254  *   0.12178472  *
    15       H         -3.21224852  *  -1.73926467  *  -0.66361106  *
    16       H          1.20948340  *   1.50786904  *   0.46501836  *
    17       H          3.32706491  *   0.99163973  *  -0.75076001  *
    18       H         -3.38270627  *   2.18693489  *   1.08318547  *
    19       H         -4.51615479  *   0.15547013  *   0.25726413  *
    20       H         -0.91803730  *   2.39171179  *   1.00969876  *
    21       H          5.11670764  *  -0.43669901  *   0.19862377  *
    22       H          3.91116366  *  -1.75256917  *   0.57024859  *
 


          CARTESIAN COORDINATES 

    NO.       ATOM           X           Y           Z

     1         C         -1.2352     -0.8204     -0.3852
     2         C          1.6951     -0.4514     -0.4287
     3         C         -0.5776      0.4237      0.1153
     4         C          0.7602      0.5797      0.0885
     5         C         -2.7161     -0.8341     -0.2961
     6         C          3.1146     -0.0073     -0.3506
     7         C         -1.4204      1.4884      0.6431
     8         C         -3.4234      0.1893      0.2015
     9         C         -2.7592      1.3802      0.6845
    10         C          4.0815     -0.7613      0.1586
    11         H         -0.8379     -1.6943      0.1761
    12         H         -0.9411     -0.9881     -1.4444
    13         H          1.4533     -0.6780     -1.4899
    14         H          1.5404     -1.4046      0.1218
    15         H         -3.2122     -1.7393     -0.6636
    16         H          1.2095      1.5079      0.4650
    17         H          3.3271      0.9916     -0.7508
    18         H         -3.3827      2.1869      1.0832
    19         H         -4.5162      0.1555      0.2573
    20         H         -0.9180      2.3917      1.0097
    21         H          5.1167     -0.4367      0.1986
    22         H          3.9112     -1.7526      0.5702

  H: (PM3): J. J. P. STEWART, J. COMP. CHEM. 10, 209 (1989).
  C: (PM3): J. J. P. STEWART, J. COMP. CHEM. 10, 209 (1989).

           Empirical Formula: C10 H12  =    22 atoms



      MOLECULAR POINT GROUP   :   C1  


      RHF CALCULATION, NO. OF DOUBLY OCCUPIED LEVELS = 26



          HEAT OF FORMATION =      49.318665 KCALS/MOLE


          CARTESIAN COORDINATE DERIVATIVES

   NUMBER  ATOM         X            Y            Z

     1       C      0.003289     0.000593    -0.006337
     2       C      0.005172     0.007436     0.000105
     3       C     -0.005871     0.007265    -0.003657
     4       C      0.010030     0.004906     0.005832
     5       C      0.009639    -0.008456    -0.000230
     6       C      0.002576    -0.000825     0.000602
     7       C      0.004695    -0.007310     0.004126
     8       C     -0.000285     0.017843     0.003556
     9       C     -0.014265    -0.005981     0.001308
    10       C      0.006308    -0.002126    -0.006501
    11       H     -0.000773     0.000453     0.000748
    12       H     -0.004286    -0.005248     0.001387
    13       H     -0.006442    -0.001951    -0.004057
    14       H     -0.001183    -0.004260     0.004006
    15       H     -0.009503     0.000873    -0.003881
    16       H      0.009345    -0.000545    -0.001368
    17       H     -0.005096     0.002777     0.000601
    18       H     -0.001765     0.001584    -0.004969
    19       H      0.004883    -0.006120     0.001674
    20       H     -0.000062    -0.002459     0.000693
    21       H      0.000753    -0.000928    -0.004633
    22       H     -0.007159     0.002479     0.010995
 


          GRADIENT NORM =   0.04466


          TIME FOR SCF CALCULATION =    0.00

          TIME FOR DERIVATIVES     =    0.00

          MOLECULAR WEIGHT =  132.20



          ROTATIONAL CONSTANTS IN CM(-1)

          A =    0.14114313   B =    0.01986328   C =    0.01780889



           PRINCIPAL MOMENTS OF INERTIA IN UNITS OF 10**(-40)*GRAM-CM**2

          A =      198.3290   B =     1409.2723   C =     1571.8428


          ORIENTATION OF MOLECULE IN FORCE CALCULATION

    NO.       ATOM         X         Y         Z

     1          C      -1.1310   -0.8915   -0.0824
     2          C       1.8228   -0.8915   -0.0824
     3          C      -0.3306    0.3695   -0.0824
     4          C       1.0165    0.3554   -0.0837
     5          C      -2.6032   -0.7075   -0.0905
     6          C       3.2853   -0.6104   -0.0983
     7          C      -1.0415    1.6412   -0.0815
     8          C      -3.1843    0.4998   -0.0920
     9          C      -2.3837    1.7047   -0.0861
    10          C       4.1429   -1.1923    0.7316
    11          H      -0.8543   -1.4995    0.8067
    12          H      -0.8446   -1.5057   -0.9640
    13          H       1.5702   -1.5020   -0.9765
    14          H       1.5421   -1.5160    0.7932
    15          H      -3.2030   -1.6244   -0.0947
    16          H       1.5726    1.3019   -0.0834
    17          H       3.6268    0.1104   -0.8513
    18          H      -2.9074    2.6661   -0.0856
    19          H      -4.2734    0.6100   -0.0975
    20          H      -0.4356    2.5553   -0.0769
    21          H       5.2098   -0.9936    0.7042
    22          H       3.8440   -1.9061    1.4946


    FIRST DERIVATIVES WILL BE USED IN THE CALCULATION OF SECOND DERIVATIVES

          ESTIMATED TIME TO COMPLETE CALCULATION =        2.06 SECONDS

    FOR POINT-GROUP C1   THERE ARE   1 UNIQUE SYMMETRY FUNCTIONS.

 STEP:   1 TIME =     0.02 SECS, INTEGRAL =      0.02 TIME LEFT: 172799.97
 STEP:   2 TIME =     0.02 SECS, INTEGRAL =      0.04 TIME LEFT: 172799.95
 STEP:   3 TIME =     0.02 SECS, INTEGRAL =      0.06 TIME LEFT: 172799.93
 STEP:   4 TIME =     0.02 SECS, INTEGRAL =      0.09 TIME LEFT: 172799.91
 STEP:   5 TIME =     0.02 SECS, INTEGRAL =      0.11 TIME LEFT: 172799.89
 STEP:   6 TIME =     0.02 SECS, INTEGRAL =      0.12 TIME LEFT: 172799.87
 STEP:   7 TIME =     0.02 SECS, INTEGRAL =      0.14 TIME LEFT: 172799.85
 STEP:   8 TIME =     0.02 SECS, INTEGRAL =      0.16 TIME LEFT: 172799.83
 STEP:   9 TIME =     0.02 SECS, INTEGRAL =      0.19 TIME LEFT: 172799.80
 STEP:  10 TIME =     0.02 SECS, INTEGRAL =      0.21 TIME LEFT: 172799.79
 STEP:  11 TIME =     0.02 SECS, INTEGRAL =      0.23 TIME LEFT: 172799.76
 STEP:  12 TIME =     0.02 SECS, INTEGRAL =      0.25 TIME LEFT: 172799.74
 STEP:  13 TIME =     0.02 SECS, INTEGRAL =      0.27 TIME LEFT: 172799.72
 STEP:  14 TIME =     0.02 SECS, INTEGRAL =      0.29 TIME LEFT: 172799.70
 STEP:  15 TIME =     0.02 SECS, INTEGRAL =      0.31 TIME LEFT: 172799.68
 STEP:  16 TIME =     0.02 SECS, INTEGRAL =      0.33 TIME LEFT: 172799.66
 STEP:  17 TIME =     0.02 SECS, INTEGRAL =      0.36 TIME LEFT: 172799.64
 STEP:  18 TIME =     0.02 SECS, INTEGRAL =      0.38 TIME LEFT: 172799.62
 STEP:  19 TIME =     0.02 SECS, INTEGRAL =      0.39 TIME LEFT: 172799.60
 STEP:  20 TIME =     0.02 SECS, INTEGRAL =      0.42 TIME LEFT: 172799.57
 STEP:  21 TIME =     0.02 SECS, INTEGRAL =      0.44 TIME LEFT: 172799.55
 STEP:  22 TIME =     0.02 SECS, INTEGRAL =      0.46 TIME LEFT: 172799.53
 STEP:  23 TIME =     0.02 SECS, INTEGRAL =      0.48 TIME LEFT: 172799.51
 STEP:  24 TIME =     0.02 SECS, INTEGRAL =      0.50 TIME LEFT: 172799.49
 STEP:  25 TIME =     0.02 SECS, INTEGRAL =      0.53 TIME LEFT: 172799.46
 STEP:  26 TIME =     0.02 SECS, INTEGRAL =      0.55 TIME LEFT: 172799.45
 STEP:  27 TIME =     0.02 SECS, INTEGRAL =      0.57 TIME LEFT: 172799.42
 STEP:  28 TIME =     0.02 SECS, INTEGRAL =      0.59 TIME LEFT: 172799.40
 STEP:  29 TIME =     0.02 SECS, INTEGRAL =      0.61 TIME LEFT: 172799.38
 STEP:  30 TIME =     0.02 SECS, INTEGRAL =      0.63 TIME LEFT: 172799.36
 STEP:  31 TIME =     0.02 SECS, INTEGRAL =      0.65 TIME LEFT: 172799.34
 STEP:  32 TIME =     0.02 SECS, INTEGRAL =      0.67 TIME LEFT: 172799.32
 STEP:  33 TIME =     0.02 SECS, INTEGRAL =      0.69 TIME LEFT: 172799.30
 STEP:  34 TIME =     0.02 SECS, INTEGRAL =      0.71 TIME LEFT: 172799.28
 STEP:  35 TIME =     0.02 SECS, INTEGRAL =      0.73 TIME LEFT: 172799.26
 STEP:  36 TIME =     0.02 SECS, INTEGRAL =      0.75 TIME LEFT: 172799.24
 STEP:  37 TIME =     0.02 SECS, INTEGRAL =      0.77 TIME LEFT: 172799.22
 STEP:  38 TIME =     0.02 SECS, INTEGRAL =      0.79 TIME LEFT: 172799.20
 STEP:  39 TIME =     0.02 SECS, INTEGRAL =      0.82 TIME LEFT: 172799.18
 STEP:  40 TIME =     0.02 SECS, INTEGRAL =      0.84 TIME LEFT: 172799.16
 STEP:  41 TIME =     0.02 SECS, INTEGRAL =      0.86 TIME LEFT: 172799.13
 STEP:  42 TIME =     0.02 SECS, INTEGRAL =      0.88 TIME LEFT: 172799.11
 STEP:  43 TIME =     0.02 SECS, INTEGRAL =      0.90 TIME LEFT: 172799.09
 STEP:  44 TIME =     0.02 SECS, INTEGRAL =      0.92 TIME LEFT: 172799.07
 STEP:  45 TIME =     0.02 SECS, INTEGRAL =      0.94 TIME LEFT: 172799.05
 STEP:  46 TIME =     0.02 SECS, INTEGRAL =      0.96 TIME LEFT: 172799.03
 STEP:  47 TIME =     0.02 SECS, INTEGRAL =      0.98 TIME LEFT: 172799.01
 STEP:  48 TIME =     0.02 SECS, INTEGRAL =      1.01 TIME LEFT: 172798.98
 STEP:  49 TIME =     0.02 SECS, INTEGRAL =      1.03 TIME LEFT: 172798.96
 STEP:  50 TIME =     0.02 SECS, INTEGRAL =      1.05 TIME LEFT: 172798.95
 STEP:  51 TIME =     0.02 SECS, INTEGRAL =      1.07 TIME LEFT: 172798.93
 STEP:  52 TIME =     0.02 SECS, INTEGRAL =      1.09 TIME LEFT: 172798.91
 STEP:  53 TIME =     0.02 SECS, INTEGRAL =      1.11 TIME LEFT: 172798.88
 STEP:  54 TIME =     0.02 SECS, INTEGRAL =      1.13 TIME LEFT: 172798.86
 STEP:  55 TIME =     0.02 SECS, INTEGRAL =      1.15 TIME LEFT: 172798.84
 STEP:  56 TIME =     0.02 SECS, INTEGRAL =      1.17 TIME LEFT: 172798.82
 STEP:  57 TIME =     0.02 SECS, INTEGRAL =      1.19 TIME LEFT: 172798.80
 STEP:  58 TIME =     0.02 SECS, INTEGRAL =      1.21 TIME LEFT: 172798.78
 STEP:  59 TIME =     0.02 SECS, INTEGRAL =      1.23 TIME LEFT: 172798.76
 STEP:  60 TIME =     0.02 SECS, INTEGRAL =      1.25 TIME LEFT: 172798.74
 STEP:  61 TIME =     0.02 SECS, INTEGRAL =      1.27 TIME LEFT: 172798.72
 STEP:  62 TIME =     0.02 SECS, INTEGRAL =      1.29 TIME LEFT: 172798.70
 STEP:  63 TIME =     0.02 SECS, INTEGRAL =      1.31 TIME LEFT: 172798.68
 STEP:  64 TIME =     0.02 SECS, INTEGRAL =      1.34 TIME LEFT: 172798.66
 STEP:  65 TIME =     0.02 SECS, INTEGRAL =      1.36 TIME LEFT: 172798.64
 STEP:  66 TIME =     0.02 SECS, INTEGRAL =      1.38 TIME LEFT: 172798.62

(To convert to Hartree/Bohr^2, multiply by (10^(-21) x N x a0^2)/(4.184 x 627.51) =  0.0642)


           FORCE MATRIX IN MILLIDYNES/ANGSTROM


                  C  1       C  2       C  3       C  4       C  5       C  6
 ------------------------------------------------------------------------------
     C    1  15.000233
     C    2   0.122269  14.951331
     C    3   4.723938   0.813441  18.593314
     C    4   0.798330   4.962947   9.748254  17.942023
     C    5   5.036893   0.012738   0.692693   0.071427  18.038740
     C    6   0.005237   4.943328   0.052512   0.746125   0.001606  18.211099
     C    7   0.617245   0.135132   5.398120   1.158439   0.227147   0.008854
     C    8   0.871658   0.019989   0.187341   0.075202  10.202822   0.001407
     C    9   0.145781   0.031015   1.103338   0.165390   1.203264   0.002821
     C   10   0.001681   0.831810   0.009620   0.045316   0.001159  11.088468
     H   11   4.293557   0.034785   0.423546   0.042926   0.417751   0.000995
     H   12   4.295286   0.033734   0.423940   0.043069   0.418284   0.001703
     H   13   0.031892   4.304597   0.039902   0.434102   0.003427   0.409237
     H   14   0.032662   4.322354   0.041490   0.425135   0.003232   0.457070
     H   15   0.422148   0.002434   0.049082   0.008817   4.831456   0.000591
     H   16   0.104970   0.439795   0.450776   4.764768   0.007224   0.058327
     H   17   0.000568   0.433260   0.002767   0.028437   0.000839   4.792814
     H   18   0.004151   0.009114   0.118990   0.007405   0.048148   0.000758
     H   19   0.119824   0.000470   0.003048   0.001245   0.444597   0.000459
     H   20   0.041479   0.002197   0.445484   0.052603   0.011327   0.000966
     H   21   0.000514   0.136391   0.002810   0.018122   0.000428   0.461308
     H   22   0.000306   0.095701   0.002584   0.009395   0.000730   0.489667


                  C  7       C  8       C  9       C 10       H 11       H 12
 ------------------------------------------------------------------------------
     C    7  18.358981
     C    8   1.190146  18.391540
     C    9   9.925641   5.728628  18.281973
     C   10   0.002769   0.001117   0.002128  18.046013
     H   11   0.028278   0.042842   0.016707   0.000471   4.890492
     H   12   0.028149   0.042685   0.016498   0.000576   0.568806   4.892451
     H   13   0.016856   0.004543   0.005420   0.033328   0.004490   0.026807
     H   14   0.016140   0.004686   0.005274   0.047835   0.027276   0.004662
     H   15   0.010751   0.444044   0.123289   0.000466   0.029422   0.029702
     H   16   0.090732   0.006604   0.006576   0.003118   0.012199   0.011901
     H   17   0.000889   0.000660   0.000962   0.453338   0.000404   0.000388
     H   18   0.439529   0.434098   4.861923   0.000728   0.000948   0.000980
     H   19   0.048667   4.860685   0.434527   0.000531   0.015618   0.015564
     H   20   4.796594   0.123518   0.439406   0.000944   0.004240   0.004243
     H   21   0.000577   0.000230   0.000511   5.109290   0.000166   0.000247
     H   22   0.000690   0.000353   0.000340   5.071866   0.000350   0.000225


                  H 13       H 14       H 15       H 16       H 17       H 18
 ------------------------------------------------------------------------------
     H   13   4.898925
     H   14   0.563491   4.930222
     H   15   0.000510   0.000529   5.207312
     H   16   0.023452   0.022953   0.003424   5.148271
     H   17   0.017171   0.038570   0.000169   0.027137   5.166579
     H   18   0.001164   0.001086   0.007271   0.005082   0.000205   5.225190
     H   19   0.000206   0.000250   0.064686   0.000564   0.000198   0.031715
     H   20   0.000440   0.000501   0.009406   0.029577   0.000424   0.064029
     H   21   0.017761   0.003078   0.000096   0.000854   0.078915   0.000191
     H   22   0.011631   0.029077   0.000210   0.001150   0.114797   0.000202


                  H 19       H 20       H 21       H 22
 ------------------------------------------------------
     H   19   5.226896
     H   20   0.007020   5.170348
     H   21   0.000075   0.000154   5.497246
     H   22   0.000105   0.000182   0.423568   5.467150


          HEAT OF FORMATION =      49.318665 KCALS/MOLE

          ZERO POINT ENERGY     117.119 KCAL/MOL


           NORMAL COORDINATE ANALYSIS (Total motion = 1 Angstrom)


   Root No.       1         2         3         4         5         6         7         8

                 1 A       2 A       3 A       4 A       5 A       6 A       7 A       8 A   

                  50.3      81.1      94.0     166.5     188.7     297.7     325.1     373.4
  
           1   -0.0055    0.0039   -0.0181   -0.0295    0.0034   -0.0047   -0.0239    0.0063
           2    0.0007    0.0007   -0.0100   -0.0139   -0.0003    0.0009    0.0078    0.0326
           3    0.0135    0.0662   -0.0066    0.0060   -0.0133   -0.0182    0.0021    0.0001
           4   -0.0043    0.0015   -0.0008    0.0217   -0.0017    0.0071    0.0411   -0.0063
           5   -0.0017    0.0034   -0.0325   -0.0034   -0.0027    0.0063    0.0299   -0.0385
           6    0.0545   -0.0398   -0.0094   -0.0104   -0.0304    0.0090   -0.0089   -0.0171
           7   -0.0040    0.0018   -0.0010   -0.0096    0.0021   -0.0013   -0.0016    0.0046
           8   -0.0003    0.0021   -0.0212   -0.0269    0.0005   -0.0008   -0.0032    0.0319
           9    0.0237    0.0280    0.0053   -0.0015    0.0333    0.0037    0.0038   -0.0029
          10   -0.0040    0.0018   -0.0016   -0.0097    0.0019   -0.0003    0.0044    0.0064
          11   -0.0015    0.0036   -0.0330   -0.0246   -0.0004    0.0022    0.0109   -0.0159
          12    0.0435   -0.0144    0.0025   -0.0044    0.0562   -0.0419    0.0141   -0.0060
          13   -0.0051    0.0040   -0.0157   -0.0279    0.0032   -0.0057   -0.0287    0.0042
          14    0.0024   -0.0022    0.0121    0.0124   -0.0011    0.0016    0.0087    0.0034
          15   -0.0190   -0.0083   -0.0158    0.0078    0.0332    0.0362   -0.0097    0.0021
          16   -0.0048    0.0019   -0.0043    0.0152   -0.0024    0.0099    0.0570   -0.0034
          17   -0.0032    0.0024   -0.0115    0.0427    0.0005   -0.0039   -0.0255   -0.0327
          18   -0.0147   -0.0102   -0.0263    0.0330   -0.0144    0.0029   -0.0202    0.0285
          19   -0.0026   -0.0004    0.0170    0.0082    0.0022   -0.0041   -0.0209   -0.0230
          20    0.0005    0.0008   -0.0108   -0.0157    0.0003   -0.0018   -0.0105    0.0208
          21    0.0093    0.0313    0.0203   -0.0077    0.0014    0.0484   -0.0085    0.0005
          22   -0.0037    0.0020    0.0014   -0.0095    0.0030   -0.0061   -0.0353   -0.0185
          23    0.0030   -0.0032    0.0204    0.0215   -0.0012    0.0013    0.0055   -0.0082
          24   -0.0359   -0.0461   -0.0064    0.0010   -0.0019   -0.0278    0.0071   -0.0012
          25   -0.0025   -0.0004    0.0182    0.0098    0.0023   -0.0040   -0.0222   -0.0273
          26    0.0021   -0.0018    0.0091    0.0084   -0.0005   -0.0003   -0.0039   -0.0014
          27   -0.0203   -0.0085    0.0146   -0.0079   -0.0486   -0.0183    0.0026   -0.0004
          28    0.0343   -0.0151    0.0054    0.0275   -0.0127    0.0083    0.0280    0.0485
          29   -0.0018   -0.0055    0.0708   -0.0046    0.0045   -0.0048   -0.0175    0.0068
          30   -0.0542    0.0018    0.0210   -0.0129   -0.0013    0.0049    0.0192    0.0032
          31   -0.0237   -0.0329   -0.0319   -0.0372    0.0305    0.0366   -0.0396    0.0133
          32    0.0054    0.0544   -0.0182   -0.0135   -0.0524   -0.0535    0.0131    0.0372
          33    0.0223    0.1144   -0.0081    0.0084   -0.0578   -0.0692    0.0103    0.0014
          34    0.0114    0.0422   -0.0206   -0.0397   -0.0226   -0.0473   -0.0200    0.0114
          35   -0.0046   -0.0516   -0.0094   -0.0225    0.0518    0.0541   -0.0019    0.0342
          36    0.0225    0.1151   -0.0078    0.0090   -0.0585   -0.0700    0.0107    0.0005
          37   -0.0380    0.0135   -0.0085    0.0615   -0.0050    0.0079    0.0308    0.0192
          38   -0.0345    0.0321   -0.0342    0.0137    0.0665   -0.0393    0.0446    0.0017
          39    0.0862   -0.0629   -0.0056   -0.0330   -0.0769    0.0403   -0.0165   -0.0519
          40    0.0285   -0.0110    0.0140    0.0172   -0.0002    0.0056    0.0432   -0.0309
          41    0.0306   -0.0245   -0.0332   -0.0338   -0.0697    0.0509    0.0174   -0.0746
          42    0.0879   -0.0637   -0.0054   -0.0343   -0.0779    0.0409   -0.0171   -0.0528
          43   -0.0060    0.0059   -0.0292   -0.0434    0.0033   -0.0058   -0.0251    0.0249
          44    0.0030   -0.0033    0.0209    0.0225   -0.0014    0.0013    0.0062   -0.0102
          45   -0.0290   -0.0286   -0.0306    0.0149    0.0856    0.1031   -0.0260    0.0054
          46   -0.0035    0.0014    0.0024   -0.0237    0.0041   -0.0039   -0.0099    0.0302
          47   -0.0018    0.0038   -0.0349   -0.0153   -0.0018    0.0044    0.0189   -0.0301
          48    0.0520   -0.0363    0.0107   -0.0062    0.1103   -0.0868    0.0285   -0.0049
          49   -0.0396    0.0170   -0.0170    0.0028    0.0040    0.0147    0.0930   -0.0219
          50   -0.0055    0.0080   -0.0584    0.1176    0.0017   -0.0155   -0.0971   -0.0062
          51   -0.0327    0.0020   -0.0770    0.0986   -0.0102   -0.0059   -0.0714    0.0429
          52   -0.0013   -0.0023    0.0321    0.0268    0.0018   -0.0025   -0.0134   -0.0411
          53    0.0027   -0.0028    0.0167    0.0176   -0.0008    0.0006    0.0012   -0.0086
          54   -0.0328   -0.0128    0.0254   -0.0142   -0.1088   -0.0277   -0.0006    0.0011
          55   -0.0035    0.0021    0.0030   -0.0077    0.0029   -0.0059   -0.0349   -0.0201
          56    0.0042   -0.0051    0.0359    0.0391   -0.0019    0.0021    0.0092   -0.0245
          57   -0.0607   -0.1019   -0.0136    0.0022    0.0152   -0.0477    0.0142   -0.0025
          58   -0.0017   -0.0022    0.0300    0.0222    0.0019   -0.0052   -0.0275   -0.0411
          59   -0.0001    0.0018   -0.0194   -0.0247    0.0005   -0.0014   -0.0058    0.0323
          60    0.0220    0.0601    0.0361   -0.0133   -0.0008    0.1253   -0.0268    0.0035
          61    0.0331   -0.0141    0.0004    0.0220   -0.0130    0.0104    0.0407    0.0338
          62   -0.0024   -0.0073    0.0963    0.0292    0.0080   -0.0170   -0.0880    0.0880
          63   -0.1056    0.0240    0.0127    0.0100    0.0149   -0.0028    0.0016   -0.0254
          64    0.0702   -0.0311    0.0192    0.0445   -0.0221    0.0050   -0.0128    0.1240
          65   -0.0002   -0.0106    0.1187   -0.0799    0.0043    0.0065    0.0586   -0.0259
          66   -0.0387   -0.0092    0.0711   -0.0768   -0.0050    0.0143    0.0749    0.0006


   Root No.       9        10        11        12        13        14        15        16

                 9 A      10 A      11 A      12 A      13 A      14 A      15 A      16 A   

                 440.6     499.0     525.5     568.4     596.7     631.0     746.0     794.7
  
           1    0.0007   -0.0015    0.0005    0.0267   -0.0309   -0.0120   -0.0002    0.0005
           2    0.0008   -0.0312   -0.0005   -0.0362    0.0245   -0.0121   -0.0003    0.0003
           3   -0.0005   -0.0005    0.0107   -0.0003   -0.0006    0.0005   -0.0057   -0.0168
           4   -0.0006   -0.0249    0.0002    0.0163    0.0076    0.0000    0.0012   -0.0020
           5   -0.0020    0.0337   -0.0005   -0.0123   -0.0041    0.0164    0.0004   -0.0005
           6    0.0001   -0.0101   -0.0011    0.0004    0.0013   -0.0077    0.0102   -0.0221
           7   -0.0003   -0.0178   -0.0009   -0.0427   -0.0247   -0.0201   -0.0002    0.0000
           8    0.0012   -0.0167    0.0002   -0.0013    0.0297    0.0033    0.0001   -0.0001
           9    0.0554   -0.0008    0.0652   -0.0018   -0.0003    0.0009    0.0170    0.0208
          10   -0.0005   -0.0184   -0.0010   -0.0432   -0.0269   -0.0166   -0.0000   -0.0004
          11   -0.0015    0.0332   -0.0010   -0.0419   -0.0272    0.0150   -0.0000    0.0001
          12   -0.0293   -0.0056   -0.0082    0.0019   -0.0005    0.0036    0.0106   -0.0128
          13    0.0011    0.0021    0.0009    0.0450   -0.0339   -0.0113   -0.0002    0.0007
          14   -0.0000   -0.0068    0.0001    0.0109   -0.0529   -0.0211   -0.0004    0.0008
          15   -0.0448   -0.0009    0.0046    0.0002   -0.0004    0.0007   -0.0169   -0.0098
          16   -0.0008   -0.0174    0.0003    0.0214    0.0096    0.0177    0.0015   -0.0021
          17    0.0002   -0.0254   -0.0002    0.0106    0.0182   -0.0381   -0.0016    0.0019
          18    0.0024    0.0305   -0.0004   -0.0064    0.0055   -0.0253   -0.0046    0.0066
          19   -0.0006    0.0088   -0.0005   -0.0371    0.0325    0.0045   -0.0002    0.0003
          20    0.0013   -0.0047    0.0009    0.0228    0.0625    0.0218    0.0006   -0.0008
          21    0.0221    0.0014   -0.0372    0.0005    0.0006   -0.0009   -0.0179    0.0109
          22    0.0001    0.0235    0.0008    0.0368    0.0295    0.0225    0.0006   -0.0007
          23   -0.0004    0.0044    0.0001    0.0101   -0.0262   -0.0051   -0.0000    0.0001
          24    0.0510    0.0009   -0.0198    0.0002    0.0001   -0.0001   -0.0175   -0.0185
          25   -0.0005    0.0133   -0.0007   -0.0368    0.0307    0.0059   -0.0002    0.0004
          26    0.0005    0.0106    0.0009    0.0577   -0.0165    0.0090    0.0006   -0.0009
          27   -0.0397   -0.0008    0.0326   -0.0003    0.0001    0.0006   -0.0094    0.0166
          28    0.0011    0.0285    0.0002    0.0044    0.0024    0.0129   -0.0007    0.0006
          29    0.0000   -0.0009    0.0001   -0.0054   -0.0033   -0.0014    0.0006   -0.0013
          30    0.0004    0.0008   -0.0001    0.0034   -0.0007    0.0109   -0.0013    0.0030
          31   -0.0451   -0.0039    0.0268    0.0383   -0.0081   -0.0035   -0.0410   -0.0356
          32   -0.0238   -0.0330   -0.1183   -0.0328    0.0378   -0.0073    0.0096    0.0400
          33   -0.0031   -0.0009   -0.0814   -0.0005    0.0009    0.0009    0.0144    0.0234
          34    0.0470   -0.0008   -0.0246    0.0387   -0.0068   -0.0071    0.0401    0.0359
          35    0.0256   -0.0321    0.1165   -0.0383    0.0384   -0.0111   -0.0101   -0.0391
          36   -0.0028    0.0003   -0.0825    0.0041   -0.0018    0.0016    0.0149    0.0240
          37    0.0039   -0.0040   -0.0002    0.0436    0.0440   -0.0647   -0.0012   -0.0021
          38   -0.0310    0.0924    0.0032   -0.0295   -0.0006   -0.0188    0.0401   -0.0776
          39    0.0187   -0.0581   -0.0041    0.0046   -0.0116    0.0365   -0.0177    0.0328
          40   -0.0035   -0.0736    0.0014    0.0459    0.0165    0.0203    0.0027   -0.0014
          41    0.0258   -0.0076   -0.0046   -0.0217   -0.0268    0.0710   -0.0379    0.0743
          42    0.0190   -0.0570   -0.0042    0.0036   -0.0126    0.0390   -0.0181    0.0336
          43    0.0019   -0.0194    0.0008    0.0222   -0.0313   -0.0270   -0.0015    0.0006
          44   -0.0003    0.0072    0.0004    0.0254   -0.0538   -0.0108   -0.0004    0.0001
          45   -0.1041   -0.0008   -0.0416    0.0010    0.0007   -0.0014    0.1520    0.1540
          46   -0.0001   -0.0348   -0.0016   -0.0471   -0.0183   -0.0272   -0.0014    0.0012
          47   -0.0016    0.0423   -0.0005   -0.0397   -0.0314    0.0209    0.0009   -0.0010
          48   -0.1112   -0.0156   -0.1257    0.0081   -0.0047    0.0278   -0.1170    0.1101
          49   -0.0013   -0.0083    0.0015    0.0289    0.0171    0.0242   -0.0026    0.0095
          50    0.0044   -0.0650    0.0006   -0.0103   -0.0171    0.0164   -0.0031    0.0103
          51    0.0060   -0.0059    0.0007   -0.0216   -0.0242    0.0302   -0.0079    0.0199
          52   -0.0009    0.0154   -0.0016   -0.0623   -0.0150   -0.0135   -0.0016    0.0016
          53    0.0003    0.0113    0.0004    0.0435   -0.0409   -0.0014   -0.0002   -0.0002
          54   -0.1723   -0.0029    0.0653   -0.0002    0.0004   -0.0019    0.1575   -0.0295
          55   -0.0006    0.0239    0.0012    0.0310    0.0333    0.0233   -0.0003   -0.0010
          56   -0.0014    0.0106   -0.0007   -0.0439    0.0150    0.0059   -0.0003    0.0001
          57    0.1579    0.0040   -0.1166    0.0012    0.0010   -0.0044    0.1576    0.0481
          58   -0.0009    0.0265    0.0001   -0.0114    0.0256    0.0117   -0.0005    0.0008
          59    0.0016   -0.0161    0.0011    0.0054    0.0664    0.0171    0.0003   -0.0003
          60   -0.0100    0.0041   -0.1617    0.0032    0.0021   -0.0081    0.0796   -0.1405
          61    0.0001    0.0285   -0.0001    0.0154    0.0191   -0.0172   -0.0024    0.0027
          62    0.0060   -0.0096    0.0019   -0.0666   -0.1026    0.1877    0.0114   -0.0147
          63    0.0021   -0.1143    0.0015    0.0009   -0.0575    0.1736    0.0205   -0.0366
          64    0.0045    0.0957    0.0004   -0.0338   -0.0277    0.0400   -0.0086    0.0198
          65   -0.0054    0.0458   -0.0012    0.0289    0.0600   -0.1257   -0.0082    0.0121
          66   -0.0034    0.0687   -0.0012    0.0216    0.0473   -0.0946   -0.0124    0.0225


   Root No.      17        18        19        20        21        22        23        24

                17 A      18 A      19 A      20 A      21 A      22 A      23 A      24 A   

                 820.1     869.8     906.6     927.6     936.9     951.1     970.4     975.1
  
           1    0.0004   -0.0212   -0.0001    0.0004   -0.0050   -0.0113    0.0002    0.0002
           2    0.0004   -0.0181   -0.0005   -0.0010    0.0202    0.0583   -0.0007   -0.0005
           3    0.0213    0.0008    0.0346    0.0214    0.0064   -0.0016   -0.0122    0.0057
           4   -0.0020    0.0051   -0.0011    0.0010    0.0217   -0.0107    0.0110    0.0121
           5   -0.0004   -0.0233   -0.0002   -0.0002    0.0132    0.0055    0.0054    0.0062
           6   -0.0252    0.0013    0.0186   -0.0081   -0.0032    0.0014    0.0195    0.0218
           7   -0.0003    0.0381   -0.0000   -0.0013    0.0026   -0.0098    0.0005    0.0004
           8   -0.0001    0.0037    0.0001    0.0000   -0.0039   -0.0108   -0.0004   -0.0005
           9    0.0093    0.0008   -0.0176   -0.0235   -0.0081    0.0026    0.0056    0.0069
          10   -0.0007    0.0562    0.0000   -0.0012    0.0008   -0.0159    0.0006    0.0004
          11   -0.0001    0.0284    0.0010   -0.0001   -0.0138   -0.0068   -0.0025   -0.0024
          12   -0.0097   -0.0022   -0.0180    0.0185    0.0097   -0.0040   -0.0141   -0.0214
          13    0.0007   -0.0416   -0.0001    0.0011   -0.0019    0.0048   -0.0006   -0.0003
          14    0.0009   -0.0462    0.0001    0.0015   -0.0085   -0.0148    0.0001    0.0002
          15   -0.0005   -0.0004   -0.0125   -0.0083   -0.0025    0.0006    0.0204   -0.0169
          16   -0.0018   -0.0040   -0.0005    0.0041   -0.0092    0.0034   -0.0015   -0.0021
          17    0.0015    0.0042    0.0035   -0.0130    0.0115   -0.0072   -0.0086   -0.0097
          18    0.0061    0.0019    0.0033   -0.0139    0.0043   -0.0026   -0.0103   -0.0107
          19    0.0006   -0.0303    0.0000    0.0010   -0.0059   -0.0104    0.0002    0.0003
          20   -0.0004   -0.0048    0.0000    0.0020   -0.0149   -0.0523    0.0025    0.0026
          21   -0.0200   -0.0003    0.0117    0.0064    0.0013   -0.0001    0.0270   -0.0172
          22   -0.0010    0.0489   -0.0001   -0.0017    0.0133    0.0310   -0.0008   -0.0010
          23    0.0001   -0.0006    0.0001    0.0001   -0.0016   -0.0038    0.0000   -0.0000
          24    0.0026   -0.0001   -0.0215   -0.0157   -0.0049    0.0015   -0.0065    0.0157
          25    0.0007   -0.0311    0.0001    0.0008   -0.0046   -0.0015   -0.0003   -0.0004
          26   -0.0011    0.0547   -0.0002   -0.0018    0.0115    0.0181    0.0003    0.0002
          27   -0.0196   -0.0002    0.0083    0.0134    0.0052   -0.0019   -0.0281    0.0092
          28    0.0001   -0.0032    0.0054   -0.0039   -0.0370    0.0152   -0.0111   -0.0111
          29   -0.0016    0.0045    0.0040   -0.0067   -0.0107    0.0019   -0.0107   -0.0123
          30    0.0038   -0.0029   -0.0042    0.0013    0.0105   -0.0047   -0.0069   -0.0094
          31    0.0179   -0.0391    0.0415    0.0438    0.0205    0.0110    0.0062   -0.0347
          32   -0.0532   -0.0274   -0.0755   -0.0381    0.0210    0.0921    0.0316   -0.0314
          33   -0.0221   -0.0020   -0.0316   -0.0189   -0.0022    0.0134    0.0087   -0.0047
          34   -0.0167   -0.0380   -0.0411   -0.0434   -0.0091    0.0189   -0.0020    0.0394
          35    0.0535   -0.0223    0.0737    0.0343    0.0413    0.0885   -0.0321    0.0311
          36   -0.0227    0.0002   -0.0324   -0.0192   -0.0094   -0.0113    0.0097   -0.0036
          37   -0.0114   -0.0004    0.0414   -0.0727    0.0410   -0.0237    0.0567    0.0819
          38   -0.0803   -0.0217    0.0395    0.0025   -0.0036    0.0169    0.0394    0.0369
          39    0.0344    0.0020   -0.0216    0.0114    0.0034   -0.0033   -0.0172   -0.0195
          40    0.0062   -0.0127   -0.0369    0.0532    0.0720   -0.0306    0.0008   -0.0131
          41    0.0775   -0.0215   -0.0403    0.0037    0.0088    0.0084   -0.0361   -0.0340
          42    0.0354   -0.0034   -0.0228    0.0123    0.0100   -0.0027   -0.0145   -0.0165
          43    0.0020   -0.1055   -0.0006    0.0016    0.0112    0.0572   -0.0005   -0.0009
          44    0.0003   -0.0057    0.0003    0.0011   -0.0170   -0.0486    0.0006    0.0000
          45   -0.0640   -0.0002    0.0118    0.0052    0.0011    0.0000   -0.0958    0.0914
          46    0.0008    0.0973    0.0028   -0.0087   -0.0083   -0.0430   -0.0087   -0.0099
          47   -0.0011    0.0060   -0.0008    0.0044   -0.0083    0.0082    0.0031    0.0038
          48    0.1288    0.0072    0.0928   -0.0757   -0.0355    0.0152    0.0362    0.0861
          49    0.0130   -0.0269   -0.0213    0.0091    0.0643   -0.0207   -0.0137   -0.0210
          50    0.0158    0.0349   -0.0585    0.1357   -0.0912    0.0358    0.0491    0.0502
          51    0.0264    0.0206   -0.0654    0.1307   -0.0615    0.0280    0.0389    0.0374
          52    0.0014   -0.0688    0.0004    0.0002    0.0020    0.0468   -0.0042   -0.0035
          53   -0.0008    0.0361   -0.0000   -0.0021    0.0151    0.0431   -0.0018   -0.0014
          54    0.1245    0.0020   -0.0338   -0.0694   -0.0269    0.0101    0.1358   -0.0470
          55   -0.0012    0.0492   -0.0008   -0.0023    0.0130    0.0313   -0.0012   -0.0006
          56    0.0000    0.0081    0.0003   -0.0003   -0.0087   -0.0202   -0.0001    0.0001
          57    0.0490    0.0026    0.1324    0.0870    0.0264   -0.0066    0.0408   -0.0784
          58    0.0003   -0.0340    0.0003   -0.0003    0.0083    0.0434   -0.0018   -0.0024
          59   -0.0008   -0.0026    0.0002    0.0030   -0.0247   -0.0889    0.0046    0.0040
          60    0.1037   -0.0003   -0.0603   -0.0189   -0.0016   -0.0019   -0.1300    0.0779
          61    0.0019    0.0033    0.0074   -0.0062   -0.0624    0.0224   -0.0258   -0.0277
          62   -0.0138   -0.0368   -0.0046    0.0048    0.1170   -0.0313    0.0684    0.0783
          63   -0.0414   -0.0194    0.0506   -0.0373   -0.1332    0.0590   -0.0029    0.0071
          64    0.0246   -0.0254   -0.0366    0.0213    0.1468   -0.0515    0.0166    0.0110
          65    0.0131    0.0238   -0.0292    0.0804   -0.0854    0.0381    0.0490    0.0580
          66    0.0265    0.0068   -0.0505    0.0919    0.0073    0.0050    0.0584    0.0635


   Root No.      25        26        27        28        29        30        31        32

                25 A      26 A      27 A      28 A      29 A      30 A      31 A      32 A   

                1015.2    1036.0    1045.4    1069.3    1078.9    1086.6    1149.0    1154.3
  
           1    0.0007    0.0036    0.0338   -0.0042    0.0017    0.0042   -0.0047   -0.0028
           2   -0.0004   -0.0026   -0.0142    0.0030   -0.0014    0.0111   -0.0028    0.0034
           3   -0.0216    0.0084    0.0004    0.0058    0.0003   -0.0001   -0.0002   -0.0004
           4    0.0023   -0.0056    0.0002    0.0116   -0.0065   -0.0009    0.0043    0.0174
           5    0.0016   -0.0020   -0.0034    0.0050   -0.0027    0.0004   -0.0107   -0.0104
           6    0.0005   -0.0205    0.0011   -0.0082   -0.0033   -0.0001   -0.0023   -0.0108
           7    0.0003    0.0013   -0.0077   -0.0012    0.0001   -0.0015   -0.0022   -0.0024
           8    0.0001    0.0021    0.0097   -0.0030    0.0015    0.0051    0.0061   -0.0117
           9    0.0198   -0.0118   -0.0001   -0.0160   -0.0269   -0.0006    0.0000   -0.0004
          10    0.0001    0.0011   -0.0056   -0.0012    0.0004   -0.0086   -0.0040    0.0006
          11    0.0005    0.0014    0.0044    0.0057   -0.0016   -0.0058    0.0153    0.0250
          12   -0.0024    0.0240    0.0005    0.0294    0.0020   -0.0007   -0.0013   -0.0027
          13   -0.0011   -0.0042   -0.0344    0.0036   -0.0015    0.0074    0.0074   -0.0030
          14   -0.0005   -0.0025   -0.0226    0.0029   -0.0017    0.0153   -0.0061    0.0050
          15    0.0358   -0.0110   -0.0006    0.0017    0.0291    0.0010    0.0003    0.0009
          16   -0.0030   -0.0064    0.0003   -0.0069    0.0034    0.0004   -0.0013   -0.0127
          17    0.0006    0.0219   -0.0056   -0.0261    0.0105   -0.0004    0.0003   -0.0058
          18    0.0030    0.0240   -0.0044   -0.0112    0.0039   -0.0003    0.0019    0.0121
          19   -0.0000   -0.0010   -0.0043    0.0009    0.0000   -0.0186   -0.0089    0.0072
          20    0.0002   -0.0015   -0.0062    0.0010   -0.0002   -0.0252   -0.0013    0.0037
          21   -0.0277    0.0087    0.0001    0.0068    0.0084    0.0000   -0.0001    0.0000
          22   -0.0002   -0.0015   -0.0232    0.0025   -0.0022    0.0440    0.0043   -0.0024
          23    0.0003    0.0010    0.0073   -0.0005   -0.0003    0.0167   -0.0017    0.0016
          24   -0.0365    0.0080    0.0001    0.0008   -0.0083    0.0000   -0.0001   -0.0002
          25   -0.0002   -0.0002    0.0011    0.0008   -0.0002    0.0012    0.0031    0.0022
          26    0.0002    0.0008    0.0097   -0.0015    0.0017   -0.0455   -0.0016    0.0022
          27    0.0323   -0.0075   -0.0001   -0.0029    0.0002   -0.0001    0.0000    0.0001
          28    0.0009    0.0109   -0.0009   -0.0040    0.0021    0.0008    0.0002    0.0029
          29   -0.0086   -0.0318    0.0055    0.0171   -0.0056   -0.0002   -0.0025   -0.0042
          30   -0.0101   -0.0315    0.0049    0.0069   -0.0022    0.0008    0.0015    0.0019
          31   -0.0062    0.0400    0.1832   -0.0558   -0.2608    0.0087   -0.0673    0.0225
          32    0.0489   -0.0091    0.0355   -0.0345   -0.1263    0.0227   -0.0315    0.0196
          33    0.0154   -0.0075   -0.0102   -0.0041   -0.0044    0.0046   -0.0004    0.0018
          34    0.0142   -0.0083    0.1810    0.0283    0.2679    0.0264   -0.0634    0.0424
          35   -0.0470    0.0105    0.0357    0.0367    0.1225    0.0304   -0.0311    0.0257
          36    0.0165   -0.0049    0.0115   -0.0066   -0.0009   -0.0045    0.0002   -0.0010
          37    0.0671    0.0499    0.0348    0.2456   -0.0814   -0.0047    0.0173    0.0045
          38   -0.0210   -0.0750   -0.0163   -0.0995    0.0136    0.0007   -0.0355   -0.0465
          39   -0.0020    0.0146   -0.0003   -0.0011    0.0054    0.0004    0.0102    0.0157
          40   -0.0327   -0.0296    0.0187   -0.1164    0.0256    0.0112    0.0709    0.1781
          41    0.0152    0.0538   -0.0147    0.0819   -0.0076   -0.0052   -0.0470   -0.0709
          42   -0.0012    0.0127   -0.0005    0.0044    0.0031    0.0001   -0.0058   -0.0008
          43   -0.0013   -0.0105   -0.0399    0.0077    0.0023   -0.1454    0.0998   -0.0135
          44    0.0003    0.0015   -0.0181    0.0003   -0.0040    0.1203   -0.0682    0.0123
          45   -0.1245    0.0298    0.0008    0.0004   -0.0433   -0.0020    0.0000   -0.0011
          46   -0.0017    0.0151    0.0042   -0.0323    0.0172   -0.0424   -0.0541   -0.1098
          47    0.0016   -0.0066   -0.0015    0.0244   -0.0116    0.0125    0.0445    0.0908
          48    0.0092   -0.0655   -0.0012   -0.0672   -0.0000    0.0023    0.0021    0.0028
          49   -0.0143    0.0091   -0.0057   -0.0660    0.0373   -0.0006   -0.0365   -0.1531
          50   -0.0077   -0.0752    0.0130    0.0423   -0.0170   -0.0012   -0.0023   -0.0031
          51   -0.0104   -0.0619    0.0107    0.0261   -0.0066   -0.0013   -0.0162   -0.0486
          52    0.0011    0.0080    0.0962   -0.0110    0.0096   -0.0838    0.1693   -0.0914
          53    0.0010    0.0053    0.0624   -0.0080    0.0071   -0.0930    0.0889   -0.0487
          54   -0.1096    0.0221    0.0008    0.0062   -0.0033   -0.0007    0.0007   -0.0006
          55   -0.0008    0.0000   -0.0113    0.0013   -0.0022    0.0618    0.0128   -0.0079
          56    0.0029    0.0170    0.1476   -0.0153    0.0020    0.1832    0.0672   -0.0472
          57    0.1278   -0.0237   -0.0004   -0.0026    0.0113    0.0008    0.0002   -0.0003
          58   -0.0009   -0.0010    0.0189   -0.0034    0.0075   -0.1724   -0.1315    0.0525
          59    0.0002   -0.0013   -0.0207    0.0040   -0.0048    0.0716    0.0793   -0.0252
          60    0.0968   -0.0276   -0.0004   -0.0213   -0.0291   -0.0008   -0.0001   -0.0002
          61   -0.0077   -0.0132    0.0036    0.0042   -0.0002    0.0014    0.0005    0.0043
          62    0.0421    0.1195   -0.0222   -0.0417    0.0123   -0.0024   -0.0037   -0.0148
          63    0.0371    0.1308   -0.0165   -0.0401    0.0125    0.0022    0.0054    0.0212
          64   -0.0147   -0.0345    0.0022   -0.0244    0.0105    0.0018    0.0040   -0.0128
          65    0.0383    0.1169   -0.0182   -0.0347    0.0111   -0.0019   -0.0011    0.0022
          66    0.0275    0.0902   -0.0158   -0.0503    0.0168   -0.0002    0.0052    0.0045


   Root No.      33        34        35        36        37        38        39        40

                33 A      34 A      35 A      36 A      37 A      38 A      39 A      40 A   

                1157.0    1171.6    1209.4    1217.7    1246.9    1316.0    1338.1    1360.2
  
           1    0.0045   -0.0035   -0.0062   -0.0041   -0.0182    0.0183   -0.0002    0.0366
           2   -0.0005    0.0015   -0.0024   -0.0018   -0.0085    0.0089   -0.0356    0.0077
           3    0.0001   -0.0002    0.0000   -0.0002   -0.0001    0.0001    0.0002    0.0002
           4    0.0060   -0.0236   -0.0074    0.0044   -0.0124   -0.0280    0.0021   -0.0194
           5    0.0060   -0.0227   -0.0171    0.0309    0.0051    0.0147   -0.0050    0.0380
           6   -0.0018    0.0090    0.0065   -0.0042   -0.0012    0.0013    0.0002   -0.0007
           7    0.0063   -0.0164    0.0073    0.0074   -0.0109    0.0168   -0.0008    0.0081
           8   -0.0150    0.0060   -0.0199   -0.0055   -0.0056   -0.0004   -0.0260   -0.0030
           9   -0.0002    0.0009    0.0003    0.0001   -0.0002    0.0000   -0.0000   -0.0001
          10    0.0067   -0.0116    0.0070    0.0022   -0.0075    0.0026    0.0049   -0.0089
          11   -0.0113    0.0426    0.0047   -0.0171    0.0117   -0.0188    0.0066   -0.0144
          12    0.0007   -0.0017   -0.0000   -0.0019    0.0003    0.0001    0.0000    0.0001
          13   -0.0029    0.0077   -0.0119   -0.0049   -0.0076   -0.0063    0.0179   -0.0099
          14   -0.0029    0.0054    0.0022    0.0007    0.0096   -0.0085   -0.0011   -0.0134
          15   -0.0000   -0.0002   -0.0002    0.0003   -0.0000   -0.0001    0.0001   -0.0001
          16   -0.0019    0.0070    0.0043   -0.0441    0.0131   -0.0135   -0.0041    0.0121
          17   -0.0011    0.0064    0.0069   -0.0298    0.0071    0.0086    0.0012   -0.0019
          18    0.0028   -0.0105   -0.0038    0.0192   -0.0082   -0.0178   -0.0010   -0.0015
          19   -0.0009   -0.0029    0.0105    0.0031    0.0052    0.0055    0.0032    0.0128
          20    0.0074   -0.0067    0.0012   -0.0015   -0.0117   -0.0026    0.0176   -0.0109
          21    0.0001   -0.0002   -0.0000   -0.0000    0.0000    0.0000    0.0001    0.0000
          22   -0.0059    0.0040   -0.0021    0.0010    0.0079   -0.0077   -0.0121   -0.0152
          23    0.0041   -0.0006    0.0092    0.0045    0.0153   -0.0038   -0.0143   -0.0045
          24   -0.0000    0.0001    0.0000   -0.0000    0.0001   -0.0001   -0.0001   -0.0001
          25   -0.0045    0.0017    0.0073    0.0018    0.0105    0.0007   -0.0048    0.0092
          26    0.0100   -0.0102    0.0113    0.0050   -0.0018    0.0126    0.0079    0.0224
          27   -0.0000    0.0000    0.0001    0.0000    0.0000    0.0000    0.0000    0.0001
          28   -0.0003   -0.0001   -0.0016    0.0070    0.0002   -0.0051   -0.0022    0.0072
          29   -0.0002    0.0026    0.0027    0.0202   -0.0076    0.0038    0.0015   -0.0050
          30   -0.0003   -0.0021   -0.0046   -0.0200    0.0096   -0.0040   -0.0024    0.0086
          31   -0.0250   -0.0261    0.0633    0.0117    0.0597   -0.0285   -0.0556   -0.0622
          32   -0.0217   -0.0038    0.0260    0.0010    0.0201   -0.0300    0.2176    0.0045
          33   -0.0031    0.0024   -0.0009   -0.0030   -0.0035   -0.0106    0.1626    0.0243
          34   -0.0249   -0.0325    0.0598    0.0186    0.0602   -0.0296   -0.0534   -0.0618
          35   -0.0214   -0.0073    0.0251    0.0024    0.0204   -0.0301    0.2168    0.0044
          36    0.0028   -0.0025    0.0013    0.0036    0.0040    0.0104   -0.1649   -0.0251
          37   -0.0323    0.0969   -0.0155    0.0608    0.0218    0.0666    0.0051   -0.0136
          38    0.0281   -0.0940   -0.0233    0.0301   -0.0102    0.0120    0.0177   -0.1218
          39   -0.0057    0.0219    0.0103   -0.0156    0.0000   -0.0210   -0.0133    0.0913
          40   -0.0342    0.0606   -0.0772    0.1736    0.0185    0.0437    0.0021   -0.0072
          41    0.0354   -0.1119   -0.0221    0.0103   -0.0090    0.0106    0.0179   -0.1212
          42    0.0054   -0.0241   -0.0157    0.0335   -0.0026    0.0176    0.0134   -0.0945
          43    0.1966    0.0238    0.0503    0.0311    0.0853   -0.0305   -0.0182   -0.0419
          44   -0.1346   -0.0045   -0.0391   -0.0234   -0.0512    0.0062    0.0226    0.0056
          45    0.0008    0.0002    0.0004   -0.0002    0.0003   -0.0002    0.0000   -0.0002
          46   -0.0146    0.0669   -0.1312    0.0663    0.1594   -0.0520    0.0345    0.0078
          47    0.0009   -0.0018    0.0840   -0.0545   -0.0852    0.0120   -0.0103   -0.0256
          48   -0.0016    0.0050    0.0034    0.0035   -0.0032    0.0004   -0.0004   -0.0003
          49   -0.0316    0.1675    0.1331    0.1199   -0.0904    0.0033    0.0045   -0.0286
          50    0.0017   -0.0130   -0.0196   -0.0451    0.0295    0.0125   -0.0006    0.0115
          51   -0.0084    0.0456    0.0311    0.0834   -0.0368   -0.0080    0.0010   -0.0081
          52   -0.1650   -0.0376   -0.0570   -0.0190   -0.0422   -0.0244    0.0159   -0.0498
          53   -0.0748   -0.0328   -0.0225   -0.0056   -0.0309    0.0004    0.0209   -0.0076
          54   -0.0007   -0.0002   -0.0003   -0.0000   -0.0002   -0.0001    0.0001   -0.0002
          55    0.0170    0.0103   -0.0112   -0.0021    0.0002   -0.0083   -0.0063   -0.0175
          56    0.2413    0.0588   -0.0791   -0.0271   -0.0706    0.0013    0.0546   -0.0050
          57    0.0004    0.0002   -0.0000   -0.0002   -0.0001    0.0000    0.0001   -0.0001
          58    0.0385    0.0928   -0.1009   -0.0623   -0.0925   -0.0139   -0.0122   -0.0519
          59   -0.0189   -0.0702    0.0748    0.0408    0.0503    0.0108    0.0293    0.0318
          60   -0.0001    0.0006    0.0000   -0.0000   -0.0002   -0.0001    0.0001   -0.0001
          61   -0.0015    0.0037   -0.0016    0.0134    0.0026    0.0381    0.0044   -0.0054
          62    0.0034   -0.0075    0.0057   -0.0213   -0.0111   -0.1512   -0.0232    0.0451
          63   -0.0032    0.0072   -0.0064    0.0309    0.0123    0.1834    0.0269   -0.0492
          64   -0.0077    0.0231    0.0024   -0.0987    0.0516    0.2345    0.0330   -0.0564
          65    0.0019   -0.0021    0.0043    0.0261   -0.0144   -0.0290   -0.0019   -0.0011
          66   -0.0016    0.0025   -0.0030   -0.0560    0.0255    0.0712    0.0098   -0.0155


   Root No.      41        42        43        44        45        46        47        48

                41 A      42 A      43 A      44 A      45 A      46 A      47 A      48 A   

                1380.3    1408.6    1433.7    1514.4    1828.1    1847.9    1861.6    1877.4
  
           1    0.0377    0.0313    0.0226   -0.0813    0.0116   -0.0051    0.0075   -0.0277
           2    0.0024   -0.0290    0.0257   -0.0553   -0.0042    0.0127   -0.0013   -0.0039
           3    0.0002    0.0002    0.0001   -0.0003    0.0000   -0.0001    0.0000   -0.0001
           4   -0.0250    0.0326    0.0635    0.0049   -0.0019   -0.0178   -0.0316    0.0102
           5   -0.0314    0.0019   -0.0256    0.0042    0.0029    0.0105    0.0024   -0.0117
           6    0.0000    0.0000    0.0004   -0.0002    0.0000   -0.0008   -0.0048   -0.0008
           7   -0.0029   -0.0053   -0.0326    0.0055    0.0218   -0.0818   -0.0160    0.1428
           8    0.0127    0.0496   -0.0148    0.1281   -0.0180   -0.0104    0.0041   -0.0129
           9    0.0000   -0.0000   -0.0000    0.0001   -0.0000    0.0001    0.0000   -0.0001
          10   -0.0148   -0.0063   -0.0235    0.0020    0.0004    0.0892    0.0104   -0.1245
          11    0.0085   -0.0054    0.0320   -0.0160   -0.0058   -0.0183   -0.0028    0.0225
          12   -0.0003    0.0002    0.0003   -0.0000    0.0000   -0.0001    0.0001    0.0002
          13   -0.0179   -0.0396    0.0064    0.0572   -0.0623    0.0584   -0.0206    0.0436
          14   -0.0089    0.0074   -0.0124   -0.0075    0.0998   -0.0804    0.0289   -0.0626
          15   -0.0001   -0.0002    0.0000    0.0003   -0.0002    0.0002   -0.0001    0.0002
          16    0.0170   -0.0144   -0.0205   -0.0020   -0.0013    0.0184    0.1377    0.0278
          17    0.0057   -0.0053   -0.0063   -0.0019    0.0007   -0.0068   -0.0618   -0.0141
          18   -0.0026    0.0042    0.0083    0.0009   -0.0012    0.0127    0.0958    0.0190
          19    0.0085   -0.0140    0.0164    0.0305   -0.1663   -0.0723    0.0239   -0.0545
          20   -0.0190   -0.0168   -0.0150   -0.0764    0.0319    0.0142   -0.0071    0.0220
          21   -0.0000   -0.0001    0.0000   -0.0000   -0.0004   -0.0002    0.0000   -0.0001
          22   -0.0079    0.0207   -0.0196   -0.0395    0.0118   -0.0376    0.0123   -0.0246
          23    0.0060    0.0383   -0.0142   -0.0407   -0.1359    0.0869   -0.0313    0.0674
          24   -0.0000    0.0002   -0.0001   -0.0002   -0.0001   -0.0001    0.0000   -0.0000
          25    0.0146    0.0063    0.0189    0.0407    0.1739    0.0758   -0.0202    0.0349
          26    0.0130   -0.0258    0.0254    0.0552    0.0404   -0.0063    0.0025   -0.0050
          27    0.0001   -0.0000    0.0001    0.0002    0.0007    0.0002   -0.0001    0.0001
          28    0.0058   -0.0063   -0.0121   -0.0006    0.0013   -0.0131   -0.1009   -0.0204
          29   -0.0073    0.0064    0.0097    0.0009   -0.0008    0.0086    0.0657    0.0133
          30    0.0091   -0.0087   -0.0146   -0.0010    0.0012   -0.0122   -0.0943   -0.0190
          31   -0.0619   -0.0504   -0.0271    0.0394    0.0218   -0.0210    0.0006    0.0119
          32   -0.0031    0.0313   -0.0296    0.0154    0.0011    0.0005   -0.0017    0.0072
          33    0.0222    0.0563   -0.0189    0.0074   -0.0040    0.0014    0.0012   -0.0057
          34   -0.0620   -0.0501   -0.0278    0.0394    0.0221   -0.0211    0.0013    0.0121
          35   -0.0037    0.0306   -0.0296    0.0152    0.0011    0.0003   -0.0017    0.0076
          36   -0.0229   -0.0571    0.0188   -0.0070    0.0041   -0.0015   -0.0011    0.0056
          37    0.0691   -0.0453   -0.0684   -0.0037   -0.0019    0.0111   -0.0056   -0.0173
          38    0.1123   -0.0219    0.0094   -0.0035    0.0001   -0.0023   -0.0080    0.0001
          39   -0.1054    0.0327    0.0124    0.0065    0.0024   -0.0019    0.0003    0.0039
          40    0.0768   -0.0495   -0.0767   -0.0024   -0.0023    0.0181    0.0358   -0.0110
          41    0.1058   -0.0177    0.0151   -0.0032    0.0002   -0.0027   -0.0062    0.0014
          42    0.1118   -0.0352   -0.0147   -0.0068   -0.0027    0.0040    0.0119   -0.0020
          43   -0.0134    0.0698   -0.0508   -0.0097    0.0485   -0.0527    0.0185   -0.0403
          44   -0.0139   -0.0660    0.0243    0.0351    0.0485   -0.0252    0.0101   -0.0240
          45   -0.0001    0.0003   -0.0002    0.0000    0.0004   -0.0003    0.0001   -0.0003
          46   -0.0191   -0.0284    0.0917   -0.0803    0.0005    0.0006   -0.0094   -0.0012
          47    0.0097    0.0079   -0.0348    0.0341   -0.0086    0.0466    0.0089   -0.0725
          48    0.0006    0.0002   -0.0009    0.0006    0.0001    0.0001    0.0001   -0.0001
          49   -0.0033    0.0100    0.0168    0.0006    0.0006   -0.0115   -0.0790   -0.0144
          50    0.0062   -0.0107   -0.0170   -0.0029    0.0010   -0.0054   -0.0527   -0.0125
          51   -0.0117    0.0115    0.0169    0.0017   -0.0006    0.0050    0.0474    0.0111
          52   -0.0488    0.0003   -0.0455   -0.1094    0.0215   -0.0095    0.0036   -0.0080
          53   -0.0212   -0.0333   -0.0081   -0.0240   -0.0695   -0.0668    0.0189   -0.0334
          54   -0.0002   -0.0001   -0.0002   -0.0005   -0.0001   -0.0001    0.0001   -0.0001
          55   -0.0133    0.0092   -0.0190   -0.0320    0.0418   -0.0643    0.0217   -0.0447
          56   -0.0336   -0.0916    0.0142    0.0720   -0.0123   -0.0342    0.0104   -0.0200
          57   -0.0001   -0.0001   -0.0001   -0.0000    0.0001   -0.0003    0.0001   -0.0003
          58   -0.0366    0.0374   -0.0709   -0.0503   -0.0209   -0.0157   -0.0032    0.0269
          59    0.0098   -0.0530    0.0413   -0.0250   -0.0930   -0.0400    0.0148   -0.0362
          60   -0.0001   -0.0000   -0.0001   -0.0002   -0.0005   -0.0001    0.0001   -0.0001
          61   -0.0082    0.0029   -0.0000    0.0000    0.0013   -0.0126   -0.0989   -0.0203
          62    0.0486   -0.0324   -0.0443   -0.0020    0.0007   -0.0062   -0.0479   -0.0095
          63   -0.0585    0.0371    0.0464    0.0031   -0.0004    0.0046    0.0355    0.0070
          64   -0.0586    0.0346    0.0460    0.0011   -0.0010    0.0113    0.0850    0.0167
[...]
 TRAVEL      0.1345         C  3 -- C  7          +6.4% ( 25.6%)     67.9%
 RED. MASS   0.3943         C  1 -- C  5          +6.4% ( 25.6%)     12.4%
 EFF. MASS   2.7843

 VIBRATION   40   40A         ATOM PAIR      ENERGY CONTRIBUTION    RADIAL
 FREQ.      1360.19         C  2 -- H 14         +13.8% ( 48.8%)      3.9%
 T-DIPOLE    0.0935         C  2 -- H 13         +13.7% ( 48.6%)      3.5%
 TRAVEL      0.0919         C  2 -- C  4          +8.7% ( 38.9%)     86.6%
 RED. MASS   0.6082         C  1 -- C  5          +7.6% ( 36.3%)     72.5%
 EFF. MASS   5.8690

 VIBRATION   41   41A         ATOM PAIR      ENERGY CONTRIBUTION    RADIAL
 FREQ.      1380.32         C  2 -- H 14         +14.2% ( 48.1%)      6.4%
 T-DIPOLE    0.0949         C  2 -- H 13         +13.7% ( 47.4%)      6.1%
 TRAVEL      0.0937         C  1 -- C  5          +8.8% ( 37.9%)     89.9%
 RED. MASS   0.5146         C  2 -- C  6          +8.4% ( 37.0%)     74.1%
 EFF. MASS   5.5682

 VIBRATION   42   42A         ATOM PAIR      ENERGY CONTRIBUTION    RADIAL
 FREQ.      1408.61         C  1 -- C  3         +11.1% ( 48.5%)     29.1%
 T-DIPOLE    0.1904         C  1 -- C  5         +11.0% ( 48.2%)     88.2%
 TRAVEL      0.0734         C  8 -- C  9          +9.1% ( 43.8%)     87.2%
 RED. MASS   0.9994         C  3 -- C  7          +8.6% ( 42.5%)     64.3%
 EFF. MASS   8.8911

 VIBRATION   43   43A         ATOM PAIR      ENERGY CONTRIBUTION    RADIAL
 FREQ.      1433.69         C  2 -- C  4         +15.8% ( 60.6%)     83.9%
 T-DIPOLE    0.0964         C  2 -- C  6         +11.5% ( 51.6%)     83.3%
 TRAVEL      0.0718         C  2 -- H 14         +10.5% ( 49.5%)      0.0%
 RED. MASS   1.4464         C  2 -- H 13         +10.0% ( 48.3%)      0.0%
 EFF. MASS   9.1327

 VIBRATION   44   44A         ATOM PAIR      ENERGY CONTRIBUTION    RADIAL
 FREQ.      1514.36         C  1 -- C  3         +19.5% ( 67.0%)     98.5%
 T-DIPOLE    0.0797         C  3 -- C  7         +19.3% ( 66.6%)     85.7%
 TRAVEL      0.0626         C  3 -- C  4         +10.0% ( 48.0%)      0.0%
 RED. MASS   2.4296         C  1 -- C  5          +9.6% ( 47.0%)     80.6%
 EFF. MASS  11.3696

 VIBRATION   45   45A         ATOM PAIR      ENERGY CONTRIBUTION    RADIAL
 FREQ.      1828.09         C  7 -- C  9         +28.3% ( 79.7%)     99.5%
 T-DIPOLE    0.2791         C  8 -- C  9         +16.3% ( 60.5%)     97.6%
 TRAVEL      0.0555         C  5 -- C  8         +15.0% ( 58.1%)     97.9%
 RED. MASS   3.1074         C  3 -- C  7          +9.2% ( 45.6%)     48.4%
 EFF. MASS  11.9542

 VIBRATION   46   46A         ATOM PAIR      ENERGY CONTRIBUTION    RADIAL
 FREQ.      1847.92         C  5 -- C  8         +18.4% ( 63.0%)     99.5%
 T-DIPOLE    0.4303         C  3 -- C  4         +14.5% ( 55.9%)     99.9%
 TRAVEL      0.0556         C  7 -- C  9         +10.9% ( 48.5%)     99.2%
 RED. MASS   1.8337         C  8 -- C  9          +8.6% ( 43.0%)      1.0%
 EFF. MASS  11.8120

 VIBRATION   47   47A         ATOM PAIR      ENERGY CONTRIBUTION    RADIAL
 FREQ.      1861.60         C  6 -- C 10         +42.3% ( 96.0%)     98.9%
 T-DIPOLE    0.2667         C  2 -- C  6         +15.8% ( 58.6%)     54.6%
 TRAVEL      0.0554         C  6 -- H 17         +14.4% ( 56.1%)      3.9%
 RED. MASS   4.6407         C 10 -- H 22         +10.2% ( 47.2%)     10.9%
 EFF. MASS  11.7879         C 10 -- H 21         +10.0% ( 46.7%)     12.9%

 VIBRATION   48   48A         ATOM PAIR      ENERGY CONTRIBUTION    RADIAL
 FREQ.      1877.39         C  3 -- C  4         +28.9% ( 79.4%)     98.5%
 T-DIPOLE    0.2120         C  3 -- C  7         +13.1% ( 53.5%)     40.0%
 TRAVEL      0.0550         C  1 -- C  3         +10.9% ( 48.8%)     24.1%
 RED. MASS   2.8090         C  5 -- C  8          +8.7% ( 43.6%)     99.9%
 EFF. MASS  11.8570

 VIBRATION   49   49A         ATOM PAIR      ENERGY CONTRIBUTION    RADIAL
 FREQ.      2899.63         C  1 -- H 11         +36.8% ( 63.1%)     96.5%
 T-DIPOLE    0.0698         C  1 -- H 12         +36.5% ( 62.8%)     96.5%
 TRAVEL      0.1232         C  2 -- H 13         +12.9% ( 37.4%)     96.7%
 RED. MASS   0.3233         C  2 -- H 14         +11.6% ( 35.4%)     96.2%
 EFF. MASS   1.5328

 VIBRATION   50   50A         ATOM PAIR      ENERGY CONTRIBUTION    RADIAL
 FREQ.      2911.69         C  2 -- H 13         +39.2% ( 64.9%)     96.8%
 T-DIPOLE    0.0225         C  2 -- H 14         +34.2% ( 60.6%)     96.1%
 TRAVEL      0.1228         C  1 -- H 11         +12.3% ( 36.4%)     96.6%
 RED. MASS   0.3242         C  1 -- H 12         +12.0% ( 36.0%)     96.4%
 EFF. MASS   1.5355

 VIBRATION   51   51A         ATOM PAIR      ENERGY CONTRIBUTION    RADIAL
 FREQ.      2983.47         C  1 -- H 12         +36.2% ( 59.4%)     98.0%
 T-DIPOLE    0.1314         C  1 -- H 11         +35.5% ( 58.7%)     97.9%
 TRAVEL      0.1331         C  2 -- H 14         +14.3% ( 37.2%)     98.3%
 RED. MASS   0.2915         C  2 -- H 13         +12.3% ( 34.6%)     97.5%
 EFF. MASS   1.2761

 VIBRATION   52   52A         ATOM PAIR      ENERGY CONTRIBUTION    RADIAL
 FREQ.      2992.86         C  2 -- H 14         +38.2% ( 60.8%)     98.2%
 T-DIPOLE    0.0194         C  2 -- H 13         +33.4% ( 56.8%)     97.4%
 TRAVEL      0.1327         C  1 -- H 11         +13.3% ( 35.8%)     97.8%
 RED. MASS   0.2907         C  1 -- H 12         +13.2% ( 35.7%)     97.8%
 EFF. MASS   1.2792

 VIBRATION   53   53A         ATOM PAIR      ENERGY CONTRIBUTION    RADIAL
 FREQ.      3036.02         C  4 -- H 16         +94.7% ( 98.6%)    100.0%
 T-DIPOLE    0.4099         C  7 -- H 20          +1.9% ( 13.9%)    100.0%
 TRAVEL      0.1214         C  3 -- C  4          +1.4% ( 12.0%)     35.1%
 RED. MASS   0.8815         C  2 -- C  4          +1.3% ( 11.5%)     15.7%
 EFF. MASS   1.5058

 VIBRATION   54   54A         ATOM PAIR      ENERGY CONTRIBUTION    RADIAL
 FREQ.      3042.55         C  7 -- H 20         +79.8% ( 90.7%)    100.0%
 T-DIPOLE    0.2275         C  9 -- H 18         +14.9% ( 39.2%)     99.9%
 TRAVEL      0.1221         C  4 -- H 16          +2.0% ( 14.5%)    100.0%
 RED. MASS   0.6490         C  7 -- C  9          +1.2% ( 11.3%)      8.3%
 EFF. MASS   1.4863

 VIBRATION   55   55A         ATOM PAIR      ENERGY CONTRIBUTION    RADIAL
 FREQ.      3043.61         C  6 -- H 17         +96.1% ( 99.4%)    100.0%
 T-DIPOLE    0.2486         C  6 -- C 10          +1.4% ( 12.0%)     30.6%
 TRAVEL      0.1215         C  2 -- C  6          +1.3% ( 11.7%)     14.5%
 RED. MASS   0.9087         C 10 -- H 21          +0.9% (  9.8%)     95.6%
 EFF. MASS   1.5009

 VIBRATION   56   56A         ATOM PAIR      ENERGY CONTRIBUTION    RADIAL
 FREQ.      3051.53         C  5 -- H 15         +61.7% ( 79.7%)    100.0%
 T-DIPOLE    0.2445         C  8 -- H 19         +33.5% ( 58.8%)    100.0%
 TRAVEL      0.1227         C  7 -- H 20          +1.2% ( 11.2%)    100.0%
 RED. MASS   0.4826         C  5 -- C  8          +1.1% ( 10.7%)      1.4%
 EFF. MASS   1.4677

 VIBRATION   57   57A         ATOM PAIR      ENERGY CONTRIBUTION    RADIAL
 FREQ.      3065.26         C  9 -- H 18         +50.0% ( 71.8%)     99.9%
 T-DIPOLE    0.3448         C  5 -- H 15         +19.0% ( 44.3%)     99.9%
 TRAVEL      0.1186         C  8 -- H 19         +17.7% ( 42.7%)     99.8%
 RED. MASS   0.3257         C  7 -- H 20          +9.8% ( 31.8%)     99.8%
 EFF. MASS   1.5639

 VIBRATION   58   58A         ATOM PAIR      ENERGY CONTRIBUTION    RADIAL
 FREQ.      3076.42         C  8 -- H 19         +45.4% ( 68.3%)    100.0%
 T-DIPOLE    0.4199         C  9 -- H 18         +30.9% ( 56.4%)    100.0%
 TRAVEL      0.1171         C  5 -- H 15         +15.8% ( 40.3%)     99.8%
 RED. MASS   0.3288         C  7 -- H 20          +4.2% ( 20.8%)     99.7%
 EFF. MASS   1.5993

 VIBRATION   59   59A         ATOM PAIR      ENERGY CONTRIBUTION    RADIAL
 FREQ.      3135.22         C 10 -- H 22         +91.6% ( 97.4%)     99.9%
 T-DIPOLE    0.1931         C 10 -- H 21          +7.1% ( 27.1%)     72.2%
 TRAVEL      0.1182         C  6 -- C 10          +1.3% ( 11.7%)     21.7%
 RED. MASS   0.8499
 EFF. MASS   1.5397

 VIBRATION   60   60A         ATOM PAIR      ENERGY CONTRIBUTION    RADIAL
 FREQ.      3147.81         C 10 -- H 21         +91.5% ( 96.3%)     99.7%
 T-DIPOLE    0.2757         C 10 -- H 22          +6.0% ( 24.8%)     43.1%
 TRAVEL      0.1209         C  6 -- C 10          +1.6% ( 12.7%)     73.9%
 RED. MASS   0.8141         C  6 -- H 17          +0.8% (  9.0%)     94.8%
 EFF. MASS   1.4651

      SYMMETRY NUMBER FOR POINT-GROUP C1  =  1


          SYSTEM IS A GROUND STATE



 InChI=1S/C10H12/c1-2-3-7-10-8-5-4-6-9-10/h2,4-8H,1,3,9H2


          MOLECULE IS NOT LINEAR

          THERE ARE 60 GENUINE VIBRATIONS IN THIS SYSTEM
          THIS THERMODYNAMICS CALCULATION IS LIMITED TO
          MOLECULES WHICH HAVE NO INTERNAL ROTATIONS




                    CALCULATED THERMODYNAMIC PROPERTIES
                                          *
   TEMP. (K)   PARTITION FUNCTION   H.O.F.    ENTHALPY  HEAT CAPACITY ENTROPY
                                   KCAL/MOL   CAL/MOLE    CAL/K/MOL  CAL/K/MOL


 298.00  VIB.     0.4710D+03                  4279.9766    30.8873    26.5935
         ROT.     0.7477D+06                   888.2813     2.9808    29.8573
         INT.     0.3522D+09                  5168.2579    33.8682    56.4508
         TRA.     0.1470D+28                  1480.4688     4.9680    40.5480
         TOT.                       49.319    6648.7268    38.8362    96.9988

 200.00  VIB.     0.4615D+02                  1848.1244    19.0136    16.8553
         ROT.     0.4111D+06                   596.1620     2.9808    28.6687
         INT.     0.1897D+08                  2444.2863    21.9944    45.5239
         TRA.     0.8080D+27                   993.6033     4.9680    38.5668
         TOT.                       46.108    3437.8896    26.9624    84.0907

 210.00  VIB.     0.5825D+02                  2043.8320    20.1328    17.8099
         ROT.     0.4423D+06                   625.9700     2.9808    28.8141
         INT.     0.2576D+08                  2669.8020    23.1136    46.6240
         TRA.     0.8694D+27                  1043.2834     4.9680    38.8092
         TOT.                       46.383    3713.0854    28.0816    85.4332

 220.00  VIB.     0.7357D+02                  2250.8755    21.2805    18.7729
         ROT.     0.4743D+06                   655.7781     2.9808    28.9528
         INT.     0.3490D+08                  2906.6537    24.2613    47.7256
         TRA.     0.9322D+27                  1092.9636     4.9680    39.0403
         TOT.                       46.670    3999.6172    29.2293    86.7659

 230.00  VIB.     0.9302D+02                  2469.5282    22.4542    19.7446
         ROT.     0.5070D+06                   685.5862     2.9808    29.0853
         INT.     0.4716D+08                  3155.1144    25.4350    48.8299
         TRA.     0.9965D+27                  1142.6437     4.9680    39.2612
         TOT.                       46.968    4297.7582    30.4031    88.0910

 240.00  VIB.     0.1177D+03                  2700.0381    23.6514    20.7255
         ROT.     0.5404D+06                   715.3943     2.9808    29.2121
         INT.     0.6361D+08                  3415.4324    26.6322    49.9376
         TRA.     0.1062D+28                  1192.3239     4.9680    39.4726
         TOT.                       47.278    4607.7563    31.6002    89.4102

 250.00  VIB.     0.1491D+03                  2942.6239    24.8689    21.7156
         ROT.     0.5745D+06                   745.2024     2.9808    29.3338
         INT.     0.8566D+08                  3687.8263    27.8497    51.0494
         TRA.     0.1129D+28                  1242.0041     4.9680    39.6754
         TOT.                       47.600    4929.8304    32.8177    90.7248

 260.00  VIB.     0.1891D+03                  3197.4718    26.1033    22.7150
         ROT.     0.6094D+06                   775.0105     2.9808    29.4507
         INT.     0.1152D+09                  3972.4823    29.0841    52.1657
         TRA.     0.1198D+28                  1291.6842     4.9680    39.8703
         TOT.                       47.934    5264.1666    34.0521    92.0359

 270.00  VIB.     0.2400D+03                  3464.7339    27.3511    23.7235
         ROT.     0.6448D+06                   804.8186     2.9808    29.5632
         INT.     0.1548D+09                  4269.5526    30.3319    53.2867
         TRA.     0.1267D+28                  1341.3644     4.9680    40.0578
         TOT.                       48.281    5610.9169    35.2999    93.3444

 280.00  VIB.     0.3050D+03                  3744.5274    28.6089    24.7409
         ROT.     0.6810D+06                   834.6267     2.9808    29.6716
         INT.     0.2077D+09                  4579.1541    31.5898    54.4125
         TRA.     0.1338D+28                  1391.0445     4.9680    40.2384
         TOT.                       48.640    5970.1987    36.5578    94.6509

 290.00  VIB.     0.3881D+03                  4036.9347    29.8733    25.7668
         ROT.     0.7178D+06                   864.4348     2.9808    29.7762
         INT.     0.2786D+09                  4901.3696    32.8541    55.5431
         TRA.     0.1411D+28                  1440.7247     4.9680    40.4128
         TOT.                       49.012    6342.0943    37.8222    95.9558

 300.00  VIB.     0.4945D+03                  4342.0049    31.1410    26.8010
         ROT.     0.7553D+06                   894.2429     2.9808    29.8773
         INT.     0.3734D+09                  5236.2479    34.1218    56.6782
         TRA.     0.1484D+28                  1490.4049     4.9680    40.5812
         TOT.                       49.397    6726.6527    39.0898    97.2594

 310.00  VIB.     0.6307D+03                  4659.7550    32.4088    27.8427
         ROT.     0.7933D+06                   924.0510     2.9808    29.9750
         INT.     0.5004D+09                  5583.8060    35.3896    57.8177
         TRA.     0.1559D+28                  1540.0850     4.9680    40.7441
         TOT.                       49.794    7123.8910    40.3576    98.5618

 320.00  VIB.     0.8055D+03                  4990.1718    33.6739    28.8917
         ROT.     0.8320D+06                   953.8591     2.9808    30.0696
         INT.     0.6702D+09                  5944.0309    36.6547    58.9613
         TRA.     0.1635D+28                  1589.7652     4.9680    40.9018
         TOT.                       50.204    7533.7961    41.6227    99.8631

 330.00  VIB.     0.1030D+04                  5333.2147    34.9336    29.9472
         ROT.     0.8713D+06                   983.6672     2.9808    30.1614
         INT.     0.8975D+09                  6316.8820    37.9144    60.1085
         TRA.     0.1713D+28                  1639.4454     4.9680    41.0547
         TOT.                       50.626    7956.3273    42.8824   101.1632

 340.00  VIB.     0.1319D+04                  5688.8179    36.1855    31.0086
         ROT.     0.9112D+06                  1013.4753     2.9808    30.2504
         INT.     0.1202D+10                  6702.2932    39.1664    61.2590
         TRA.     0.1791D+28                  1689.1255     4.9680    41.2030
         TOT.                       51.061    8391.4187    44.1344   102.4620

 350.00  VIB.     0.1690D+04                  6056.8926    37.4276    32.0755
         ROT.     0.9517D+06                  1043.2834     2.9808    30.3368
         INT.     0.1609D+10                  7100.1760    40.4084    62.4123
         TRA.     0.1871D+28                  1738.8057     4.9680    41.3470
         TOT.                       51.509    8838.9817    45.3764   103.7593

 360.00  VIB.     0.2169D+04                  6437.3304    38.6578    33.1472
         ROT.     0.9928D+06                  1073.0915     2.9808    30.4207
         INT.     0.2153D+10                  7510.4219    41.6387    63.5679
         TRA.     0.1951D+28                  1788.4859     4.9680    41.4870
         TOT.                       51.969    9298.9077    46.6067   105.0549

 370.00  VIB.     0.2786D+04                  6830.0048    39.8747    34.2230
         ROT.     0.1034D+07                  1102.8996     2.9808    30.5024
         INT.     0.2882D+10                  7932.9044    42.8555    64.7254
         TRA.     0.2033D+28                  1838.1660     4.9680    41.6231
         TOT.                       52.441    9771.0704    47.8235   106.3485

 380.00  VIB.     0.3583D+04                  7234.7745    41.0767    35.3024
         ROT.     0.1077D+07                  1132.7077     2.9808    30.5819
         INT.     0.3858D+10                  8367.4822    44.0575    65.8843
         TRA.     0.2116D+28                  1887.8462     4.9680    41.7556
         TOT.                       52.925   10255.3284    49.0255   107.6398

 390.00  VIB.     0.4613D+04                  7651.4851    42.2627    36.3847
         ROT.     0.1119D+07                  1162.5158     2.9808    30.6593
         INT.     0.5165D+10                  8814.0009    45.2435    67.0440
         TRA.     0.2200D+28                  1937.5263     4.9680    41.8846
         TOT.                       53.421   10751.5272    50.2115   108.9287

 400.00  VIB.     0.5945D+04                  8079.9714    43.4317    37.4695
         ROT.     0.1163D+07                  1192.3239     2.9808    30.7348
         INT.     0.6913D+10                  9272.2953    46.4125    68.2043
         TRA.     0.2285D+28                  1987.2065     4.9680    42.0104
         TOT.                       53.929   11259.5018    51.3805   110.2147

   *: NOTE: HEATS OF FORMATION ARE RELATIVE TO THE
            ELEMENTS IN THEIR STANDARD STATE AT 298K
              (=  Standard Enthalpy of Formation).

            Hvib:  Zero-point energy is not included.
                   frequencies of less than zero cm-1 are not included.
            Hrot = (3/2)RT
            Htra = (3/2)RT + pV = (5/2)RT

            Heat capacity is Cp, not Cv

          For more information, see: HTTP://OpenMOPAC.net/Manual/thermochemistry.html


           FORCE CONSTANT IN CARTESIAN COORDINATES (Millidynes/A)

    ATOM   CHEMICAL       X               Y               Z
   NUMBER   SYMBOL  FORCE CONSTANT  FORCE CONSTANT  FORCE CONSTANT

      1       C        9.623945        8.713916        7.510013
      2       C        9.497843        8.563145        7.733065
      3       C       15.232493       10.314552        2.642978
      4       C       15.025142        9.513595        2.348219
      5       C       10.394579       14.287384        2.383041
      6       C       11.805740        6.730727        8.662671
      7       C       15.153895       10.123566        2.210321
      8       C       11.502480       13.955609        2.208220
      9       C       14.710529       10.617992        2.202689
     10       C       11.795884        6.253966        8.478271
     11       H        0.907466        1.789068        3.408411
     12       H        0.927771        1.816217        3.365432
     13       H        0.852280        1.805703        3.448376
     14       H        1.005617        1.866241        3.353079
     15       H        2.101511        3.806632        0.348433
     16       H        1.912356        4.000257        0.330737
     17       H        1.205591        2.408141        2.625084
     18       H        1.759134        4.160780        0.344473
     19       H        5.116936        0.802832        0.348803
     20       H        2.081163        3.812342        0.344158
     21       H        5.267077        0.663195        0.548969
     22       H        1.070380        2.534347        2.866764

 **********************
 *                    *
 * JOB ENDED NORMALLY *
 *                    *
 **********************



 TOTAL JOB TIME:             2.85 SECONDS

 == MOPAC DONE ==
