 *******************************************************************************
 ** Site#: 14399        For non-commercial use only    Version 18.184L 64BITS **
 *******************************************************************************
 ** Cite this program as: MOPAC2016, Version: 18.184L, James J. P. Stewart,   **
 ** Stewart Computational Chemistry, web: HTTP://OpenMOPAC.net. Days left:  18**
 *******************************************************************************
 **                                                                           **
 **                                MOPAC2016                                  **
 **                                                                           **
 *******************************************************************************

                              PM3 CALCULATION RESULTS

 *******************************************************************************
 *  CALCULATION DONE:                                Sat Jun 15 15:11:27 2019  *
 *  PM3        - The PM3 Hamiltonian to be used
 *  PRECISE    - CRITERIA TO BE INCREASED BY 100 TIMES
 *  NOSYM      - POINT-GROUP SYMMETRY SET TO C1
 *  THREADS=1  - MULTI-THREADING NOT USED
 *  T=         - A TIME OF 172800.0 SECONDS REQUESTED
 *  DUMP=N     - RESTART FILE WRITTEN EVERY  7200.000 SECONDS
 *******************************************************************************
pm3  precise nosym THREADS=1
 InChI=1S/C5H6/c1-2-5-3-4-5/h2-3H,1,4H2

   ATOM   CHEMICAL          X               Y               Z
  NUMBER   SYMBOL      (ANGSTROMS)     (ANGSTROMS)     (ANGSTROMS)
 
     1       C          1.27520000  *   0.73420000  *   0.62390000  *
     2       C          0.39260000  *  -0.25360000  *   0.18400000  *
     3       C          1.79060000  *  -0.54580000  *   0.41470000  *
     4       C         -0.94640000  *  -0.68280000  *  -0.21490000  *
     5       C         -1.96280000  *   0.17230000  *  -0.22130000  *
     6       H          1.15450000  *   1.00990000  *   1.69160000  *
     7       H          1.55590000  *   1.47330000  *  -0.15430000  *
     8       H          2.61850000  *  -1.24130000  *   0.42010000  *
     9       H         -1.10560000  *  -1.71230000  *  -0.50800000  *
    10       H         -1.82430000  *   1.20690000  *   0.06850000  *
    11       H         -2.94830000  *  -0.16090000  *  -0.51930000  *
 


          CARTESIAN COORDINATES 

    NO.       ATOM           X           Y           Z

     1         C          1.2752      0.7342      0.6239
     2         C          0.3926     -0.2536      0.1840
     3         C          1.7906     -0.5458      0.4147
     4         C         -0.9464     -0.6828     -0.2149
     5         C         -1.9628      0.1723     -0.2213
     6         H          1.1545      1.0099      1.6916
     7         H          1.5559      1.4733     -0.1543
     8         H          2.6185     -1.2413      0.4201
     9         H         -1.1056     -1.7123     -0.5080
    10         H         -1.8243      1.2069      0.0685
    11         H         -2.9483     -0.1609     -0.5193

  H: (PM3): J. J. P. STEWART, J. COMP. CHEM. 10, 209 (1989).
  C: (PM3): J. J. P. STEWART, J. COMP. CHEM. 10, 209 (1989).

           Empirical Formula: C5 H6  =    11 atoms



      MOLECULAR POINT GROUP   :   C1  


      RHF CALCULATION, NO. OF DOUBLY OCCUPIED LEVELS = 13


          Geometry optimization using EF

          DIAGONAL MATRIX USED AS START HESSIAN

 CYCLE:     1 TIME:   0.004 TIME LEFT:  2.00D  GRAD.:   261.315 HEAT:  108.8483
 CYCLE:     2 TIME:   0.000 TIME LEFT:  2.00D  GRAD.:   178.860 HEAT:  95.29920
 CYCLE:     3 TIME:   0.004 TIME LEFT:  2.00D  GRAD.:   204.231 HEAT:  91.18749
 CYCLE:     4 TIME:   0.000 TIME LEFT:  2.00D  GRAD.:   100.833 HEAT:  87.26570
 CYCLE:     5 TIME:   0.004 TIME LEFT:  2.00D  GRAD.:    50.743 HEAT:  84.66276
 CYCLE:     6 TIME:   0.000 TIME LEFT:  2.00D  GRAD.:    61.015 HEAT:  84.27297
 CYCLE:     7 TIME:   0.004 TIME LEFT:  2.00D  GRAD.:    57.553 HEAT:  83.90803
 CYCLE:     8 TIME:   0.000 TIME LEFT:  2.00D  GRAD.:    60.282 HEAT:  83.73922
 CYCLE:     9 TIME:   0.004 TIME LEFT:  2.00D  GRAD.:    32.458 HEAT:  83.30890
 CYCLE:    10 TIME:   0.000 TIME LEFT:  2.00D  GRAD.:    15.989 HEAT:  83.01650
 CYCLE:    11 TIME:   0.004 TIME LEFT:  2.00D  GRAD.:    15.452 HEAT:  82.96745
 CYCLE:    12 TIME:   0.004 TIME LEFT:  2.00D  GRAD.:    10.338 HEAT:  82.88027
 CYCLE:    13 TIME:   0.000 TIME LEFT:  2.00D  GRAD.:     9.545 HEAT:  82.80773
 CYCLE:    14 TIME:   0.000 TIME LEFT:  2.00D  GRAD.:     7.898 HEAT:  82.73647
 CYCLE:    15 TIME:   0.004 TIME LEFT:  2.00D  GRAD.:     7.064 HEAT:  82.69062
 CYCLE:    16 TIME:   0.000 TIME LEFT:  2.00D  GRAD.:     6.023 HEAT:  82.68114
 CYCLE:    17 TIME:   0.004 TIME LEFT:  2.00D  GRAD.:     2.167 HEAT:  82.66876
 CYCLE:    18 TIME:   0.000 TIME LEFT:  2.00D  GRAD.:     1.606 HEAT:  82.66448
 CYCLE:    19 TIME:   0.000 TIME LEFT:  2.00D  GRAD.:     1.349 HEAT:  82.65974
 CYCLE:    20 TIME:   0.004 TIME LEFT:  2.00D  GRAD.:     0.871 HEAT:  82.65721
 CYCLE:    21 TIME:   0.000 TIME LEFT:  2.00D  GRAD.:     0.765 HEAT:  82.65605
 CYCLE:    22 TIME:   0.004 TIME LEFT:  2.00D  GRAD.:     0.687 HEAT:  82.65455
 CYCLE:    23 TIME:   0.000 TIME LEFT:  2.00D  GRAD.:     0.556 HEAT:  82.65377
 CYCLE:    24 TIME:   0.000 TIME LEFT:  2.00D  GRAD.:     0.503 HEAT:  82.65302
 CYCLE:    25 TIME:   0.004 TIME LEFT:  2.00D  GRAD.:     0.675 HEAT:  82.65209
 CYCLE:    26 TIME:   0.000 TIME LEFT:  2.00D  GRAD.:     0.792 HEAT:  82.65088
 CYCLE:    27 TIME:   0.004 TIME LEFT:  2.00D  GRAD.:     0.718 HEAT:  82.64958
 CYCLE:    28 TIME:   0.000 TIME LEFT:  2.00D  GRAD.:     0.497 HEAT:  82.64897
 CYCLE:    29 TIME:   0.000 TIME LEFT:  2.00D  GRAD.:     0.345 HEAT:  82.64832
 CYCLE:    30 TIME:   0.004 TIME LEFT:  2.00D  GRAD.:     0.343 HEAT:  82.64816
 CYCLE:    31 TIME:   0.000 TIME LEFT:  2.00D  GRAD.:     0.252 HEAT:  82.64798
 CYCLE:    32 TIME:   0.004 TIME LEFT:  2.00D  GRAD.:     0.267 HEAT:  82.64786
 CYCLE:    33 TIME:   0.000 TIME LEFT:  2.00D  GRAD.:     0.289 HEAT:  82.64769
 CYCLE:    34 TIME:   0.000 TIME LEFT:  2.00D  GRAD.:     0.230 HEAT:  82.64757
 CYCLE:    35 TIME:   0.004 TIME LEFT:  2.00D  GRAD.:     0.154 HEAT:  82.64751
 CYCLE:    36 TIME:   0.000 TIME LEFT:  2.00D  GRAD.:     0.138 HEAT:  82.64748
 CYCLE:    37 TIME:   0.004 TIME LEFT:  2.00D  GRAD.:     0.181 HEAT:  82.64739
 CYCLE:    38 TIME:   0.000 TIME LEFT:  2.00D  GRAD.:     0.112 HEAT:  82.64737
 CYCLE:    39 TIME:   0.004 TIME LEFT:  2.00D  GRAD.:     0.096 HEAT:  82.64734
 CYCLE:    40 TIME:   0.000 TIME LEFT:  2.00D  GRAD.:     0.069 HEAT:  82.64732
 CYCLE:    41 TIME:   0.000 TIME LEFT:  2.00D  GRAD.:     0.039 HEAT:  82.64732

     GRADIENT =  0.03888  IS LESS THAN CUTOFF =  0.05000



 -------------------------------------------------------------------------------
 pm3  precise nosym THREADS=1
 InChI=1S/C5H6/c1-2-5-3-4-5/h2-3H,1,4H2



     GEOMETRY OPTIMISED USING EIGENVECTOR FOLLOWING (EF).     
     SCF FIELD WAS ACHIEVED                                   


                              PM3 CALCULATION
                                                       MOPAC2016 (Version: 18.184L)
                                                       Sat Jun 15 15:11:27 2019
                                                       No. of days remaining =  18




          FINAL HEAT OF FORMATION =         82.64732 KCAL/MOL =     345.79637 KJ/MOL


          TOTAL ENERGY            =       -681.61422 EV
          ELECTRONIC ENERGY       =      -2427.53696 EV  POINT GROUP:     C1  
          CORE-CORE REPULSION     =       1745.92274 EV
          COSMO AREA              =        118.38 SQUARE ANGSTROMS
          COSMO VOLUME            =        103.01 CUBIC ANGSTROMS

          GRADIENT NORM           =          0.03888 = 0.01172 PER ATOM
          IONIZATION POTENTIAL    =          9.156711 EV
          HOMO LUMO ENERGIES (EV) =         -9.157 -0.019
          NO. OF FILLED LEVELS    =         13
          MOLECULAR WEIGHT        =         66.1024

          MOLECULAR DIMENSIONS (Angstroms)

            Atom       Atom       Distance
            H    11    H     8     5.62131
            H     9    H     7     3.83842
            H     9    H     6     1.74218


          SCF CALCULATIONS        =         46
 
          WALL-CLOCK TIME         =          0.078 SECONDS
          COMPUTATION TIME        =          0.064 SECONDS




   ATOM   CHEMICAL          X               Y               Z
  NUMBER   SYMBOL      (ANGSTROMS)     (ANGSTROMS)     (ANGSTROMS)
 
     1       C          1.27670903  *   0.79987554  *   0.64538986  *
     2       C          0.41054763  *  -0.31019175  *   0.17546195  *
     3       C          1.68081318  *  -0.60197623  *   0.37093425  *
     4       C         -0.90569853  *  -0.69722600  *  -0.20457764  *
     5       C         -1.92463598  *   0.16163402  *  -0.22095951  *
     6       H          1.20543731  *   1.17755709  *   1.67344480  *
     7       H          1.56829292  *   1.61553978  *  -0.02860354  *
     8       H          2.50098382  *  -1.29380950  *   0.36706875  *
     9       H         -1.03201142  *  -1.75004019  *  -0.48482236  *
    10       H         -1.82381389  *   1.20826398  *   0.05177237  *
    11       H         -2.92861177  *  -0.13272477  *  -0.51069683  *

                             CARTESIAN COORDINATES

   1    C        1.276709034     0.799875535     0.645389862
   2    C        0.410547625    -0.310191747     0.175461952
   3    C        1.680813183    -0.601976230     0.370934250
   4    C       -0.905698535    -0.697225999    -0.204577644
   5    C       -1.924635981     0.161634024    -0.220959511
   6    H        1.205437306     1.177557085     1.673444796
   7    H        1.568292920     1.615539785    -0.028603541
   8    H        2.500983825    -1.293809500     0.367068748
   9    H       -1.032011421    -1.750040187    -0.484822365
  10    H       -1.823813895     1.208263976     0.051772373
  11    H       -2.928611767    -0.132724769    -0.510696826


           Empirical Formula: C5 H6  =    11 atoms



      MOLECULAR POINT GROUP   :   C1  


                  EIGENVALUES  
 -38.28496 -32.09061 -23.13765 -21.22628 -18.70149 -17.19767 -15.87434 -15.13121
 -13.00964 -12.81790 -11.49714 -11.47270  -9.15671  -0.01858   2.08973   2.63118
   2.98123   3.32379   3.59202   3.96719   4.15146   4.63301   4.77145   5.11941
   5.72521   5.97301


              NET ATOMIC CHARGES AND DIPOLE CONTRIBUTIONS

  ATOM NO.   TYPE          CHARGE      No. of ELECS.   s-Pop       p-Pop       
    1          C          -0.066192        4.0662     1.14389     2.92230
    2          C          -0.136551        4.1366     1.19258     2.94397
    3          C          -0.163072        4.1631     1.21406     2.94901
    4          C          -0.040926        4.0409     1.15315     2.88777
    5          C          -0.132666        4.1327     1.18279     2.94988
    6          H           0.055774        0.9442     0.94423
    7          H           0.055725        0.9443     0.94427
    8          H           0.162440        0.8376     0.83756
    9          H           0.101263        0.8987     0.89874
   10          H           0.084893        0.9151     0.91511
   11          H           0.079312        0.9207     0.92069
 DIPOLE           X         Y         Z       TOTAL
 POINT-CHG.    -0.254    -0.216    -0.112     0.352
 HYBRID         0.068    -0.069    -0.004     0.097
 SUM           -0.187    -0.285    -0.116     0.360


          ATOMIC ORBITAL ELECTRON POPULATIONS

     Atom    s        px        py        pz   
    1  C   1.14389   1.02729   0.89400   1.00101
    2  C   1.19258   0.94099   1.01305   0.98992
    3  C   1.21406   0.97330   0.98643   0.98928
    4  C   1.15315   0.90550   0.98207   1.00020
    5  C   1.18279   0.97283   0.99086   0.98619
    6  H   0.94423
    7  H   0.94427
    8  H   0.83756
    9  H   0.89874
   10  H   0.91511
   11  H   0.92069
 *******************************************************************************
 ** Site#: 14399        For non-commercial use only    Version 18.184L 64BITS **
 *******************************************************************************
 ** Cite this program as: MOPAC2016, Version: 18.184L, James J. P. Stewart,   **
 ** Stewart Computational Chemistry, web: HTTP://OpenMOPAC.net. Days left:  18**
 *******************************************************************************
 **                                                                           **
 **                                MOPAC2016                                  **
 **                                                                           **
 *******************************************************************************

                              PM3 CALCULATION RESULTS

 *******************************************************************************
 *  CALCULATION DONE:                                Sat Jun 15 15:11:27 2019  *
 *  PM3        - The PM3 Hamiltonian to be used
 *  OLDGEO     - PREVIOUS GEOMETRY TO BE USED
 *  PRECISE    - CRITERIA TO BE INCREASED BY 100 TIMES
 *  NOSYM      - POINT-GROUP SYMMETRY SET TO C1
 *  THREADS=1  - MULTI-THREADING NOT USED
 *  T=         - A TIME OF 172800.0 SECONDS REQUESTED
 *  DUMP=N     - RESTART FILE WRITTEN EVERY  7200.000 SECONDS
 *  THERMO     - THERMODYNAMIC QUANTITIES TO BE CALCULATED
 *******************************************************************************
oldgeo thermo nosym precise THREADS=1  pm3
 InChI=1S/C5H6/c1-2-5-3-4-5/h2-3H,1,4H2

   ATOM   CHEMICAL          X               Y               Z
  NUMBER   SYMBOL      (ANGSTROMS)     (ANGSTROMS)     (ANGSTROMS)
 
     1       C          1.27670903  *   0.79987554  *   0.64538986  *
     2       C          0.41054763  *  -0.31019175  *   0.17546195  *
     3       C          1.68081318  *  -0.60197623  *   0.37093425  *
     4       C         -0.90569853  *  -0.69722600  *  -0.20457764  *
     5       C         -1.92463598  *   0.16163402  *  -0.22095951  *
     6       H          1.20543731  *   1.17755709  *   1.67344480  *
     7       H          1.56829292  *   1.61553978  *  -0.02860354  *
     8       H          2.50098382  *  -1.29380950  *   0.36706875  *
     9       H         -1.03201142  *  -1.75004019  *  -0.48482236  *
    10       H         -1.82381389  *   1.20826398  *   0.05177237  *
    11       H         -2.92861177  *  -0.13272477  *  -0.51069683  *
 


          CARTESIAN COORDINATES 

    NO.       ATOM           X           Y           Z

     1         C          1.2767      0.7999      0.6454
     2         C          0.4105     -0.3102      0.1755
     3         C          1.6808     -0.6020      0.3709
     4         C         -0.9057     -0.6972     -0.2046
     5         C         -1.9246      0.1616     -0.2210
     6         H          1.2054      1.1776      1.6734
     7         H          1.5683      1.6155     -0.0286
     8         H          2.5010     -1.2938      0.3671
     9         H         -1.0320     -1.7500     -0.4848
    10         H         -1.8238      1.2083      0.0518
    11         H         -2.9286     -0.1327     -0.5107

  H: (PM3): J. J. P. STEWART, J. COMP. CHEM. 10, 209 (1989).
  C: (PM3): J. J. P. STEWART, J. COMP. CHEM. 10, 209 (1989).

           Empirical Formula: C5 H6  =    11 atoms



      MOLECULAR POINT GROUP   :   C1  


      RHF CALCULATION, NO. OF DOUBLY OCCUPIED LEVELS = 13



          HEAT OF FORMATION =      82.647316 KCALS/MOLE


          CARTESIAN COORDINATE DERIVATIVES

   NUMBER  ATOM         X            Y            Z

     1       C     -0.001632    -0.005971     0.007174
     2       C      0.004166    -0.008004     0.000080
     3       C     -0.001782    -0.006858    -0.000512
     4       C      0.000546     0.001177     0.001887
     5       C      0.001243     0.003942    -0.003402
     6       H      0.001143     0.010007     0.006549
     7       H     -0.010995     0.006130     0.002916
     8       H     -0.003576    -0.000374    -0.014969
     9       H      0.009471    -0.005413     0.014642
    10       H     -0.008948     0.001215    -0.018119
    11       H      0.010364     0.004147     0.003755
 


          GRADIENT NORM =   0.04106

          MOLECULAR WEIGHT =   66.10



          ROTATIONAL CONSTANTS IN CM(-1)

          A =    0.52843605   B =    0.11932930   C =    0.09920861



           PRINCIPAL MOMENTS OF INERTIA IN UNITS OF 10**(-40)*GRAM-CM**2

          A =       52.9729   B =      234.5843   C =      282.1607


          ORIENTATION OF MOLECULE IN FORCE CALCULATION

    NO.       ATOM         X         Y         Z

     1          C      -1.5244    0.3790    0.0042
     2          C      -0.0401    0.3790    0.0042
     3          C      -0.6250    1.5600    0.0042
     4          C       1.1378   -0.4207    0.0040
     5          C       1.0952   -1.7526   -0.0152
     6          H      -2.0907    0.0987    0.9016
     7          H      -2.0912    0.0988   -0.8930
     8          H      -0.5850    2.6322    0.0036
     9          H       2.0875    0.1275    0.0205
    10          H       0.1673   -2.3172   -0.0322
    11          H       1.9929   -2.3631   -0.0155


    FIRST DERIVATIVES WILL BE USED IN THE CALCULATION OF SECOND DERIVATIVES

    FOR POINT-GROUP C1   THERE ARE   1 UNIQUE SYMMETRY FUNCTIONS.

 STEP:   1 TIME =     0.00 SECS, INTEGRAL =      0.00 TIME LEFT: 172800.00
 STEP:   2 TIME =     0.01 SECS, INTEGRAL =      0.01 TIME LEFT: 172799.99
 STEP:   3 TIME =     0.00 SECS, INTEGRAL =      0.02 TIME LEFT: 172799.98
 STEP:   4 TIME =     0.01 SECS, INTEGRAL =      0.02 TIME LEFT: 172799.98
 STEP:   5 TIME =     0.00 SECS, INTEGRAL =      0.03 TIME LEFT: 172799.97
 STEP:   6 TIME =     0.01 SECS, INTEGRAL =      0.04 TIME LEFT: 172799.96
 STEP:   7 TIME =     0.01 SECS, INTEGRAL =      0.04 TIME LEFT: 172799.96
 STEP:   8 TIME =     0.00 SECS, INTEGRAL =      0.05 TIME LEFT: 172799.95
 STEP:   9 TIME =     0.01 SECS, INTEGRAL =      0.05 TIME LEFT: 172799.95
 STEP:  10 TIME =     0.00 SECS, INTEGRAL =      0.06 TIME LEFT: 172799.94
 STEP:  11 TIME =     0.01 SECS, INTEGRAL =      0.07 TIME LEFT: 172799.93
 STEP:  12 TIME =     0.01 SECS, INTEGRAL =      0.07 TIME LEFT: 172799.93
 STEP:  13 TIME =     0.00 SECS, INTEGRAL =      0.08 TIME LEFT: 172799.92
 STEP:  14 TIME =     0.01 SECS, INTEGRAL =      0.09 TIME LEFT: 172799.91
 STEP:  15 TIME =     0.00 SECS, INTEGRAL =      0.09 TIME LEFT: 172799.91
 STEP:  16 TIME =     0.01 SECS, INTEGRAL =      0.10 TIME LEFT: 172799.90
 STEP:  17 TIME =     0.00 SECS, INTEGRAL =      0.10 TIME LEFT: 172799.90
 STEP:  18 TIME =     0.01 SECS, INTEGRAL =      0.11 TIME LEFT: 172799.89
 STEP:  19 TIME =     0.01 SECS, INTEGRAL =      0.12 TIME LEFT: 172799.88
 STEP:  20 TIME =     0.00 SECS, INTEGRAL =      0.12 TIME LEFT: 172799.88
 STEP:  21 TIME =     0.01 SECS, INTEGRAL =      0.13 TIME LEFT: 172799.87
 STEP:  22 TIME =     0.00 SECS, INTEGRAL =      0.13 TIME LEFT: 172799.87
 STEP:  23 TIME =     0.01 SECS, INTEGRAL =      0.14 TIME LEFT: 172799.86
 STEP:  24 TIME =     0.00 SECS, INTEGRAL =      0.14 TIME LEFT: 172799.86
 STEP:  25 TIME =     0.01 SECS, INTEGRAL =      0.15 TIME LEFT: 172799.85
 STEP:  26 TIME =     0.00 SECS, INTEGRAL =      0.16 TIME LEFT: 172799.84
 STEP:  27 TIME =     0.01 SECS, INTEGRAL =      0.16 TIME LEFT: 172799.84
 STEP:  28 TIME =     0.00 SECS, INTEGRAL =      0.17 TIME LEFT: 172799.83
 STEP:  29 TIME =     0.01 SECS, INTEGRAL =      0.18 TIME LEFT: 172799.82
 STEP:  30 TIME =     0.00 SECS, INTEGRAL =      0.18 TIME LEFT: 172799.82
 STEP:  31 TIME =     0.01 SECS, INTEGRAL =      0.19 TIME LEFT: 172799.81
 STEP:  32 TIME =     0.01 SECS, INTEGRAL =      0.20 TIME LEFT: 172799.80
 STEP:  33 TIME =     0.00 SECS, INTEGRAL =      0.20 TIME LEFT: 172799.80

(To convert to Hartree/Bohr^2, multiply by (10^(-21) x N x a0^2)/(4.184 x 627.51) =  0.0642)


           FORCE MATRIX IN MILLIDYNES/ANGSTROM


                  C  1       C  2       C  3       C  4       C  5       H  6
 ------------------------------------------------------------------------------
     C    1  15.206919
     C    2   5.503496  21.821600
     C    3   5.536408  11.837361  20.263838
     C    4   0.336325   6.488923   0.707417  18.663264
     C    5   0.032330   1.193777   0.108162  10.702179  17.876864
     H    6   4.695465   0.448457   0.448939   0.025465   0.002684   5.327774
     H    7   4.695700   0.448178   0.448823   0.025336   0.002647   0.494614
     H    8   0.287300   0.394276   5.559177   0.035609   0.005440   0.018392
     H    9   0.026090   0.440078   0.012155   4.785710   0.455449   0.004010
     H   10   0.009847   0.110001   0.011970   0.490266   5.099578   0.001690
     H   11   0.006876   0.150967   0.013273   0.452895   5.112508   0.001455


                  H  7       H  8       H  9       H 10       H 11
 ------------------------------------------------------------------
     H    7   5.328176
     H    8   0.018371   5.900769
     H    9   0.004073   0.004350   5.134195
     H   10   0.001723   0.002785   0.119206   5.479114
     H   11   0.001543   0.001215   0.079553   0.415568   5.490199


          HEAT OF FORMATION =      82.647316 KCALS/MOLE

          ZERO POINT ENERGY      56.634 KCAL/MOL


           NORMAL COORDINATE ANALYSIS (Total motion = 1 Angstrom)


   Root No.       1         2         3         4         5         6         7         8

                 1 A       2 A       3 A       4 A       5 A       6 A       7 A       8 A   

                  88.1     214.4     326.5     531.9     656.1     776.8     810.8     911.5
  
           1   -0.0004   -0.0468   -0.0008    0.0310   -0.0005   -0.0370    0.0000   -0.0000
           2    0.0006    0.0583    0.0007   -0.0018    0.0001    0.0410   -0.0000   -0.0001
           3    0.0375    0.0005   -0.0218   -0.0001    0.0019    0.0000   -0.0029    0.0038
           4   -0.0004   -0.0454   -0.0008    0.0223   -0.0002    0.0226   -0.0001   -0.0001
           5   -0.0005   -0.0397   -0.0013    0.0718   -0.0006    0.0114    0.0000    0.0000
           6    0.0223   -0.0016    0.0978    0.0020    0.0529   -0.0000    0.0096   -0.0286
           7    0.0004    0.0292    0.0008   -0.0398    0.0001   -0.0488    0.0000    0.0000
           8   -0.0001   -0.0013   -0.0005    0.0506   -0.0005   -0.0079    0.0000    0.0000
           9   -0.0628    0.0010   -0.0187    0.0002    0.0129   -0.0001   -0.0338    0.0370
          10   -0.0007   -0.0285    0.0003   -0.0529    0.0009    0.0628   -0.0000    0.0002
          11   -0.0009   -0.0159    0.0002   -0.0468    0.0010   -0.0202    0.0000    0.0003
          12    0.0635   -0.0012   -0.0060   -0.0011   -0.0665    0.0003   -0.0033   -0.0272
          13    0.0010    0.0771    0.0004    0.0272   -0.0001    0.0275   -0.0000    0.0002
          14    0.0007   -0.0177    0.0004   -0.0538    0.0000   -0.0284   -0.0000    0.0000
          15   -0.0566    0.0007   -0.0151   -0.0005    0.0046   -0.0001   -0.0022   -0.0029
          16    0.0107   -0.0661   -0.0844    0.0517   -0.0706   -0.0665   -0.0612   -0.0976
          17    0.0693    0.0976    0.0566   -0.0447    0.0322    0.0926    0.2182    0.1465
          18    0.0660    0.0007   -0.0581   -0.0007   -0.0341   -0.0021    0.0289   -0.0131
          19   -0.0120   -0.0687    0.0818    0.0556    0.0689   -0.0667    0.0612    0.0977
          20   -0.0673    0.1004   -0.0534   -0.0468   -0.0306    0.0927   -0.2183   -0.1472
          21    0.0660    0.0011   -0.0581   -0.0014   -0.0341    0.0023    0.0289   -0.0132
          22    0.0012    0.1036    0.0025   -0.1385    0.0011   -0.1855    0.0002    0.0011
          23   -0.0001   -0.0041   -0.0007    0.0555   -0.0006   -0.0013    0.0002   -0.0001
          24   -0.1506    0.0031   -0.1193   -0.0029   -0.1319    0.0008    0.3629   -0.1100
          25   -0.0020   -0.0583    0.0016   -0.0299    0.0004    0.0881    0.0005   -0.0029
          26   -0.0024    0.0388    0.0024   -0.0817   -0.0000   -0.0630    0.0002   -0.0024
          27    0.1938   -0.0011   -0.1542   -0.0016    0.0008    0.0006   -0.0441    0.2420
          28    0.0026    0.1291   -0.0013    0.1035    0.0018   -0.0387    0.0006   -0.0020
          29    0.0020   -0.1014   -0.0017   -0.1751    0.0033    0.0759    0.0000   -0.0010
          30   -0.1897    0.0002    0.1474   -0.0011   -0.2157    0.0013   -0.0364    0.1514
          31    0.0012    0.1324    0.0018    0.1045   -0.0034   -0.0536   -0.0002   -0.0002
          32    0.0010    0.0625    0.0025    0.0540   -0.0048   -0.1478   -0.0003   -0.0005
          33   -0.0318    0.0030   -0.1887    0.0015    0.3450   -0.0029    0.0479   -0.0432


   Root No.       9        10        11        12        13        14        15        16

                 9 A      10 A      11 A      12 A      13 A      14 A      15 A      16 A   

                 942.3     962.8     999.3    1012.7    1029.9    1123.5    1181.0    1273.4
  
           1   -0.0002    0.0022   -0.0334    0.0000   -0.0002    0.0389   -0.0023    0.0197
           2   -0.0000    0.0050    0.0004    0.0001    0.0000   -0.0544    0.0457    0.0475
           3   -0.0015   -0.0001   -0.0001   -0.0723    0.0129   -0.0000   -0.0000    0.0000
           4    0.0002    0.0207    0.0181   -0.0001    0.0001    0.0211    0.0353    0.0331
           5   -0.0001   -0.0149    0.0276   -0.0000    0.0002    0.0202   -0.0001   -0.0119
           6    0.0420   -0.0008   -0.0004    0.0210   -0.0202    0.0001    0.0002    0.0000
           7   -0.0000    0.0099   -0.0468    0.0000   -0.0003   -0.0279   -0.0367   -0.0354
           8   -0.0004   -0.0291   -0.0032    0.0001    0.0001   -0.0083   -0.0252   -0.0540
           9   -0.0392    0.0007    0.0003    0.0356    0.0036   -0.0000   -0.0000   -0.0000
          10    0.0005    0.0147    0.0327   -0.0001   -0.0002   -0.0221    0.0351   -0.0490
          11    0.0006    0.0103    0.0008   -0.0001   -0.0007   -0.0031   -0.0106   -0.0133
          12   -0.0380    0.0005    0.0004    0.0036    0.0512   -0.0001    0.0002   -0.0006
          13   -0.0004   -0.0464   -0.0142    0.0003    0.0006    0.0060   -0.0313    0.0151
          14    0.0004    0.0178   -0.0021    0.0001    0.0011   -0.0033   -0.0248    0.0131
          15   -0.0150   -0.0000    0.0004   -0.0135   -0.0766   -0.0001   -0.0006    0.0003
          16    0.0683   -0.0382   -0.0242    0.2536   -0.0521   -0.1030    0.0547    0.0993
          17   -0.1117    0.0939   -0.0397    0.1350   -0.0079    0.2473   -0.0527    0.0089
          18    0.0077    0.0017   -0.0056    0.1455   -0.0251    0.0042    0.0050    0.0351
          19   -0.0694   -0.0367   -0.0246   -0.2531    0.0521   -0.1032    0.0546    0.0993
          20    0.1130    0.0900   -0.0414   -0.1355    0.0070    0.2472   -0.0527    0.0088
          21    0.0078   -0.0015    0.0061    0.1455   -0.0251   -0.0039   -0.0050   -0.0351
          22    0.0006   -0.1623    0.3607   -0.0002    0.0020    0.1217    0.0518    0.0273
          23   -0.0003   -0.0245   -0.0167    0.0001   -0.0000   -0.0150   -0.0289   -0.0613
          24    0.1326   -0.0021   -0.0010   -0.0811   -0.0226    0.0001    0.0003    0.0001
          25   -0.0009    0.0635    0.1254   -0.0000    0.0022   -0.0802   -0.1935   -0.0074
          26   -0.0050   -0.0717   -0.1557    0.0003    0.0009    0.0956    0.3889   -0.0923
          27    0.2358   -0.0017   -0.0018   -0.0167   -0.1377    0.0003    0.0034   -0.0014
          28   -0.0004    0.0723    0.0448   -0.0006   -0.0022   -0.0166    0.0200   -0.1061
          29   -0.0050   -0.1683   -0.0947   -0.0003   -0.0045    0.0322   -0.1124    0.2251
          30    0.1697   -0.0024   -0.0032    0.0465    0.2629    0.0005   -0.0014    0.0023
          31    0.0008    0.0883    0.0377   -0.0008   -0.0025   -0.0096    0.0112    0.0859
          32    0.0021    0.2113    0.0687   -0.0015   -0.0037   -0.0242    0.0362    0.1327
          33    0.0620    0.0026   -0.0012    0.0658    0.2956   -0.0004    0.0005    0.0027


   Root No.      17        18        19        20        21        22        23        24

                17 A      18 A      19 A      20 A      21 A      22 A      23 A      24 A   

                1313.7    1354.5    1423.9    1826.6    2091.0    3037.7    3054.5    3100.5
  
           1    0.0546   -0.0432    0.0811    0.0159    0.0638    0.0000    0.0000   -0.0390
           2    0.0257    0.0101    0.0454    0.0102    0.0259   -0.0003    0.0000   -0.0192
           3    0.0000   -0.0000    0.0000    0.0000   -0.0000    0.0000   -0.0610   -0.0001
           4   -0.0367    0.0727    0.0010   -0.0184   -0.1791    0.0012   -0.0000    0.0012
           5   -0.0404    0.0391   -0.0294    0.0294    0.1897   -0.0013    0.0000   -0.0019
           6   -0.0001    0.0001   -0.0000   -0.0001    0.0001   -0.0000   -0.0008   -0.0000
           7   -0.0460    0.0321   -0.0287    0.0184    0.0499   -0.0003    0.0000   -0.0008
           8   -0.0022   -0.0667   -0.0049   -0.0489   -0.1510    0.0003   -0.0000    0.0011
           9   -0.0000   -0.0000   -0.0000    0.0000    0.0000   -0.0000   -0.0008   -0.0000
          10    0.0001   -0.0650   -0.0140   -0.0240    0.0601   -0.0614   -0.0000    0.0000
          11    0.0232    0.0261    0.0042    0.2009   -0.0706   -0.0393   -0.0000    0.0003
          12    0.0002   -0.0001   -0.0001    0.0026   -0.0004   -0.0011   -0.0001    0.0000
          13    0.0000    0.0155    0.0019   -0.0015    0.0003    0.0051    0.0000    0.0000
          14    0.0149    0.0382    0.0114   -0.1843    0.0218    0.0018   -0.0000   -0.0001
          15    0.0002    0.0006    0.0002   -0.0026    0.0003    0.0001    0.0000   -0.0000
          16    0.1337   -0.0273   -0.2477   -0.0010    0.0194    0.0006   -0.2517    0.2300
          17    0.0649   -0.0347   -0.1252   -0.0004    0.0082    0.0003   -0.1245    0.1137
          18    0.0584   -0.0056   -0.2411   -0.0154   -0.0462   -0.0011    0.3748   -0.3933
          19    0.1338   -0.0274   -0.2475   -0.0008    0.0192    0.0005    0.2513    0.2308
          20    0.0650   -0.0349   -0.1252   -0.0005    0.0083    0.0002    0.1241    0.1139
          21   -0.0585    0.0056    0.2412    0.0153    0.0462    0.0009    0.3737    0.3942
          22    0.0246   -0.0164    0.0065   -0.0060   -0.0057   -0.0001   -0.0000    0.0014
          23   -0.0060   -0.0725   -0.0064   -0.0662   -0.2364    0.0018    0.0000    0.0086
          24   -0.0000    0.0002   -0.0000   -0.0000   -0.0000    0.0000   -0.0014   -0.0000
          25    0.0493   -0.0336    0.0025    0.1260    0.0123    0.7205    0.0001   -0.0011
          26   -0.0619   -0.0337   -0.0276    0.0037    0.0166    0.4166    0.0001   -0.0009
          27    0.0000   -0.0010   -0.0002    0.0014    0.0000    0.0125   -0.0002   -0.0000
          28    0.0994    0.1220    0.0148   -0.1430    0.0228    0.0039    0.0000    0.0006
          29   -0.1595   -0.1507   -0.0108   -0.0005    0.0007    0.0050    0.0000    0.0004
          30   -0.0014   -0.0008   -0.0000   -0.0013    0.0002    0.0001   -0.0001    0.0000
          31   -0.1077   -0.1609   -0.0217    0.1392   -0.0077   -0.0658   -0.0000   -0.0011
          32   -0.1552   -0.2322   -0.0234   -0.0232    0.0134    0.0387    0.0000    0.0008
          33   -0.0031   -0.0048   -0.0005    0.0009    0.0001   -0.0001   -0.0000   -0.0000


   Root No.      25        26        27

                25 A      26 A      27 A   

                3140.6    3145.5    3286.7
  
           1    0.0001   -0.0001    0.0049
           2   -0.0001   -0.0001    0.0028
           3    0.0000   -0.0000    0.0000
           4    0.0001    0.0005   -0.0091
           5   -0.0004   -0.0010    0.0115
           6   -0.0000   -0.0000    0.0000
           7    0.0001   -0.0002    0.0008
           8   -0.0001    0.0002   -0.0877
           9    0.0000    0.0000    0.0000
          10   -0.0005   -0.0052    0.0009
          11    0.0056   -0.0088   -0.0001
          12    0.0001   -0.0002    0.0000
          13   -0.0640   -0.0513    0.0001
          14   -0.0405    0.0445   -0.0003
          15   -0.0012    0.0001   -0.0000
          16   -0.0004    0.0007   -0.0009
          17   -0.0001    0.0003    0.0002
          18    0.0005   -0.0010    0.0035
          19   -0.0004    0.0007   -0.0009
          20   -0.0002    0.0003    0.0002
          21   -0.0005    0.0010   -0.0035
          22   -0.0002    0.0001    0.0319
          23    0.0009    0.0012    0.8810
          24   -0.0000   -0.0000   -0.0004
          25    0.0024    0.0557   -0.0003
          26    0.0059    0.0363   -0.0005
          27    0.0001    0.0010   -0.0000
          28    0.7474   -0.0510   -0.0008
          29    0.4498   -0.0105   -0.0006
          30    0.0135   -0.0007   -0.0000
          31    0.0162    0.6641   -0.0003
          32   -0.0331   -0.4427    0.0003
          33   -0.0003   -0.0000   -0.0000


           MASS-WEIGHTED COORDINATE ANALYSIS (NORMAL COORDINATES)


   Root No.       1         2         3         4         5         6         7         8

                 1 A       2 A       3 A       4 A       5 A       6 A       7 A       8 A   

                  88.1     214.4     326.5     531.9     656.1     776.8     810.8     911.5
  
           1   -0.0029   -0.2948   -0.0057    0.1871   -0.0034   -0.2567    0.0001   -0.0003
           2    0.0038    0.3676    0.0049   -0.0111    0.0007    0.2844   -0.0003   -0.0006
           3    0.2483    0.0031   -0.1510   -0.0006    0.0124    0.0000   -0.0197    0.0302
           4   -0.0028   -0.2861   -0.0053    0.1346   -0.0011    0.1569   -0.0004   -0.0007
           5   -0.0031   -0.2500   -0.0090    0.4342   -0.0037    0.0788    0.0001    0.0003
           6    0.1479   -0.0104    0.6766    0.0121    0.3420   -0.0003    0.0652   -0.2249
           7    0.0027    0.1838    0.0054   -0.2408    0.0008   -0.3385    0.0001    0.0002
           8   -0.0005   -0.0082   -0.0037    0.3061   -0.0034   -0.0547    0.0003    0.0004
           9   -0.4162    0.0064   -0.1296    0.0011    0.0835   -0.0007   -0.2301    0.2905
          10   -0.0044   -0.1795    0.0019   -0.3200    0.0058    0.4353   -0.0003    0.0015
          11   -0.0063   -0.1002    0.0017   -0.2829    0.0065   -0.1401    0.0000    0.0027
          12    0.4207   -0.0073   -0.0416   -0.0065   -0.4296    0.0021   -0.0222   -0.2138
          13    0.0066    0.4857    0.0026    0.1645   -0.0010    0.1910   -0.0002    0.0019
          14    0.0048   -0.1116    0.0027   -0.3251    0.0002   -0.1969   -0.0001    0.0003
          15   -0.3750    0.0046   -0.1042   -0.0029    0.0297   -0.0010   -0.0152   -0.0230
          16    0.0205   -0.1206   -0.1692    0.0905   -0.1322   -0.1336   -0.1207   -0.2220
          17    0.1329    0.1782    0.1134   -0.0783    0.0602    0.1860    0.4307    0.3334
          18    0.1267    0.0013   -0.1164   -0.0012   -0.0639   -0.0042    0.0571   -0.0299
          19   -0.0230   -0.1254    0.1640    0.0973    0.1289   -0.1341    0.1208    0.2223
          20   -0.1292    0.1832   -0.1069   -0.0819   -0.0573    0.1862   -0.4310   -0.3349
          21    0.1267    0.0020   -0.1165   -0.0025   -0.0639    0.0045    0.0570   -0.0300
          22    0.0023    0.1891    0.0051   -0.2425    0.0020   -0.3726    0.0003    0.0025
          23   -0.0003   -0.0075   -0.0013    0.0971   -0.0012   -0.0027    0.0004   -0.0001
          24   -0.2890    0.0056   -0.2391   -0.0051   -0.2468    0.0016    0.7163   -0.2501
          25   -0.0039   -0.1065    0.0032   -0.0524    0.0007    0.1770    0.0011   -0.0066
          26   -0.0047    0.0708    0.0049   -0.1431   -0.0001   -0.1266    0.0004   -0.0055
          27    0.3719   -0.0020   -0.3091   -0.0029    0.0015    0.0012   -0.0871    0.5506
          28    0.0050    0.2356   -0.0027    0.1812    0.0034   -0.0777    0.0012   -0.0045
          29    0.0039   -0.1850   -0.0033   -0.3066    0.0063    0.1526    0.0000   -0.0022
          30   -0.3640    0.0004    0.2954   -0.0019   -0.4038    0.0025   -0.0718    0.3444
          31    0.0023    0.2417    0.0036    0.1829   -0.0064   -0.1077   -0.0003   -0.0004
          32    0.0019    0.1140    0.0051    0.0945   -0.0091   -0.2969   -0.0005   -0.0011
          33   -0.0611    0.0055   -0.3781    0.0026    0.6457   -0.0058    0.0946   -0.0983


   Root No.       9        10        11        12        13        14        15        16

                 9 A      10 A      11 A      12 A      13 A      14 A      15 A      16 A   

                 942.3     962.8     999.3    1012.7    1029.9    1123.5    1181.0    1273.4
  
           1   -0.0016    0.0172   -0.2263    0.0002   -0.0010    0.2654   -0.0138    0.1347
           2   -0.0001    0.0388    0.0028    0.0003    0.0003   -0.3712    0.2803    0.3255
           3   -0.0119   -0.0007   -0.0010   -0.4515    0.0825   -0.0003   -0.0001    0.0001
           4    0.0018    0.1620    0.1226   -0.0006    0.0007    0.1439    0.2164    0.2266
           5   -0.0005   -0.1163    0.1867   -0.0003    0.0012    0.1374   -0.0007   -0.0818
           6    0.3245   -0.0062   -0.0025    0.1309   -0.1296    0.0009    0.0014    0.0002
           7   -0.0002    0.0772   -0.3169    0.0001   -0.0021   -0.1904   -0.2254   -0.2428
           8   -0.0028   -0.2280   -0.0219    0.0007    0.0004   -0.0564   -0.1545   -0.3699
           9   -0.3026    0.0052    0.0022    0.2221    0.0230   -0.0002   -0.0002   -0.0003
          10    0.0042    0.1150    0.2215   -0.0007   -0.0010   -0.1509    0.2152   -0.3357
          11    0.0048    0.0805    0.0052   -0.0005   -0.0044   -0.0209   -0.0649   -0.0914
          12   -0.2932    0.0043    0.0025    0.0226    0.3274   -0.0005    0.0014   -0.0041
          13   -0.0034   -0.3629   -0.0964    0.0017    0.0037    0.0412   -0.1918    0.1032
          14    0.0030    0.1393   -0.0140    0.0007    0.0068   -0.0226   -0.1521    0.0901
          15   -0.1155   -0.0003    0.0026   -0.0842   -0.4901   -0.0004   -0.0039    0.0020
          16    0.1526   -0.0865   -0.0475    0.4588   -0.0965   -0.2034    0.0972    0.1971
          17   -0.2497    0.2129   -0.0780    0.2442   -0.0146    0.4884   -0.0936    0.0176
          18    0.0172    0.0038   -0.0110    0.2631   -0.0465    0.0082    0.0090    0.0697
          19   -0.1552   -0.0833   -0.0482   -0.4579    0.0966   -0.2039    0.0970    0.1972
          20    0.2528    0.2041   -0.0812   -0.2451    0.0129    0.4884   -0.0936    0.0175
          21    0.0174   -0.0034    0.0120    0.2633   -0.0465   -0.0077   -0.0090   -0.0697
          22    0.0013   -0.3680    0.7078   -0.0004    0.0037    0.2404    0.0921    0.0543
          23   -0.0007   -0.0557   -0.0328    0.0001   -0.0000   -0.0296   -0.0514   -0.1217
          24    0.2966   -0.0047   -0.0019   -0.1467   -0.0419    0.0002    0.0005    0.0002
          25   -0.0021    0.1441    0.2460   -0.0000    0.0041   -0.1585   -0.3439   -0.0147
          26   -0.0111   -0.1627   -0.3055    0.0006    0.0017    0.1889    0.6911   -0.1832
          27    0.5273   -0.0038   -0.0035   -0.0302   -0.2553    0.0005    0.0061   -0.0028
          28   -0.0010    0.1640    0.0879   -0.0011   -0.0041   -0.0328    0.0355   -0.2107
          29   -0.0112   -0.3816   -0.1858   -0.0005   -0.0083    0.0635   -0.1998    0.4469
          30    0.3793   -0.0055   -0.0062    0.0841    0.4874    0.0010   -0.0025    0.0045
          31    0.0018    0.2002    0.0739   -0.0015   -0.0047   -0.0189    0.0200    0.1706
          32    0.0047    0.4793    0.1349   -0.0027   -0.0068   -0.0478    0.0643    0.2634
          33    0.1386    0.0058   -0.0024    0.1190    0.5480   -0.0007    0.0008    0.0054


   Root No.      17        18        19        20        21        22        23        24

                17 A      18 A      19 A      20 A      21 A      22 A      23 A      24 A   

                1313.7    1354.5    1423.9    1826.6    2091.0    3037.7    3054.5    3100.5
  
           1    0.3828   -0.2425    0.4428    0.0549    0.1902    0.0002    0.0002   -0.1976
           2    0.1804    0.0567    0.2480    0.0351    0.0774   -0.0012    0.0001   -0.0974
           3    0.0002   -0.0000    0.0000    0.0000   -0.0001    0.0001   -0.3034   -0.0003
           4   -0.2572    0.4082    0.0054   -0.0634   -0.5342    0.0046   -0.0000    0.0059
           5   -0.2835    0.2196   -0.1607    0.1013    0.5659   -0.0050    0.0000   -0.0096
           6   -0.0006    0.0003   -0.0001   -0.0003    0.0002   -0.0000   -0.0038   -0.0000
           7   -0.3229    0.1803   -0.1566    0.0634    0.1488   -0.0011    0.0000   -0.0042
           8   -0.0158   -0.3745   -0.0267   -0.1685   -0.4504    0.0011   -0.0000    0.0057
           9   -0.0000   -0.0002   -0.0001    0.0001    0.0001   -0.0000   -0.0039   -0.0000
          10    0.0009   -0.3652   -0.0764   -0.0827    0.1794   -0.2427   -0.0000    0.0002
          11    0.1629    0.1467    0.0231    0.6918   -0.2106   -0.1555   -0.0001    0.0014
          12    0.0015   -0.0006   -0.0005    0.0088   -0.0012   -0.0044   -0.0005    0.0000
          13    0.0003    0.0870    0.0106   -0.0052    0.0008    0.0201    0.0000    0.0001
          14    0.1047    0.2147    0.0622   -0.6345    0.0650    0.0071   -0.0000   -0.0006
          15    0.0016    0.0035    0.0010   -0.0090    0.0010    0.0003    0.0001   -0.0000
          16    0.2717   -0.0445   -0.3916   -0.0010    0.0167    0.0007   -0.3626    0.3373
          17    0.1319   -0.0565   -0.1980   -0.0004    0.0071    0.0004   -0.1793    0.1667
          18    0.1186   -0.0090   -0.3811   -0.0153   -0.0399   -0.0013    0.5399   -0.5769
          19    0.2719   -0.0445   -0.3913   -0.0008    0.0166    0.0006    0.3620    0.3385
          20    0.1321   -0.0568   -0.1980   -0.0005    0.0072    0.0003    0.1787    0.1671
          21   -0.1188    0.0092    0.3813    0.0153    0.0399    0.0010    0.5383    0.5781
          22    0.0500   -0.0267    0.0103   -0.0060   -0.0049   -0.0001   -0.0000    0.0020
          23   -0.0122   -0.1180   -0.0101   -0.0661   -0.2043    0.0021    0.0000    0.0126
          24   -0.0001    0.0003   -0.0000   -0.0000   -0.0000    0.0000   -0.0020   -0.0000
          25    0.1001   -0.0547    0.0039    0.1256    0.0106    0.8252    0.0002   -0.0016
          26   -0.1257   -0.0548   -0.0436    0.0037    0.0143    0.4771    0.0001   -0.0013
          27    0.0000   -0.0017   -0.0003    0.0014    0.0000    0.0143   -0.0003   -0.0000
          28    0.2019    0.1984    0.0234   -0.1427    0.0197    0.0045    0.0001    0.0008
          29   -0.3240   -0.2451   -0.0170   -0.0005    0.0006    0.0057    0.0000    0.0006
          30   -0.0029   -0.0013   -0.0000   -0.0013    0.0002    0.0002   -0.0001    0.0000
          31   -0.2189   -0.2617   -0.0344    0.1389   -0.0067   -0.0753   -0.0001   -0.0016
          32   -0.3152   -0.3777   -0.0370   -0.0232    0.0115    0.0443    0.0000    0.0011
          33   -0.0063   -0.0078   -0.0008    0.0009    0.0001   -0.0001   -0.0000   -0.0000


   Root No.      25        26        27

                25 A      26 A      27 A   

                3140.6    3145.5    3286.7
  
           1    0.0003   -0.0006    0.0180
           2   -0.0003   -0.0004    0.0103
           3    0.0000   -0.0000    0.0000
           4    0.0004    0.0022   -0.0336
           5   -0.0015   -0.0041    0.0424
           6   -0.0000   -0.0000    0.0000
           7    0.0004   -0.0007    0.0028
           8   -0.0005    0.0009   -0.3243
           9    0.0000    0.0000    0.0001
          10   -0.0020   -0.0214    0.0035
          11    0.0213   -0.0364   -0.0006
          12    0.0003   -0.0007    0.0000
          13   -0.2422   -0.2115    0.0004
          14   -0.1535    0.1836   -0.0011
          15   -0.0045    0.0006   -0.0000
          16   -0.0004    0.0008   -0.0009
          17   -0.0001    0.0003    0.0002
          18    0.0005   -0.0012    0.0037
          19   -0.0004    0.0008   -0.0010
          20   -0.0002    0.0003    0.0002
          21   -0.0006    0.0012   -0.0037
          22   -0.0002    0.0001    0.0341
          23    0.0010    0.0014    0.9435
          24   -0.0000   -0.0000   -0.0005
          25    0.0026    0.0665   -0.0003
          26    0.0065    0.0434   -0.0005
          27    0.0001    0.0012   -0.0000
          28    0.8197   -0.0609   -0.0009
          29    0.4934   -0.0126   -0.0007
          30    0.0148   -0.0008   -0.0000
          31    0.0178    0.7936   -0.0003
          32   -0.0363   -0.5290    0.0003
          33   -0.0003   -0.0000   -0.0000


          DESCRIPTION OF VIBRATIONS


 VIBRATION    1    1A         ATOM PAIR      ENERGY CONTRIBUTION    RADIAL
 FREQ.        88.06         C  4 -- C  5         +20.9% (424.4%)      0.0%
 T-DIPOLE    0.0639         C  1 -- C  3         +18.6% (400.7%)      0.0%
 TRAVEL      0.0618         C  1 -- C  2         +10.0% (293.5%)      0.0%
 RED. MASS   1.0723         C  2 -- C  3          +9.5% (285.8%)      0.0%
 EFF. MASS 200.3778

 VIBRATION    2    2A         ATOM PAIR      ENERGY CONTRIBUTION    RADIAL
 FREQ.       214.36         C  4 -- C  5         +21.8% (294.9%)      0.0%
 T-DIPOLE    0.0496         C  5 -- H 10         +14.6% (241.0%)     93.3%
 TRAVEL      0.0664         C  5 -- H 11         +11.7% (215.6%)     97.8%
 RED. MASS   1.6382         C  1 -- C  2          +9.4% (193.8%)      0.0%
 EFF. MASS  71.2505

 VIBRATION    3    3A         ATOM PAIR      ENERGY CONTRIBUTION    RADIAL
 FREQ.       326.54         C  1 -- C  2         +20.9% (124.8%)      0.0%
 T-DIPOLE    0.3451         C  2 -- C  3         +19.0% (118.8%)      0.0%
 TRAVEL      0.1185         C  2 -- C  4         +16.9% (112.2%)      0.0%
 RED. MASS   2.5753         C  5 -- H 10          +9.1% ( 82.2%)      0.0%
 EFF. MASS  14.7149

 VIBRATION    4    4A         ATOM PAIR      ENERGY CONTRIBUTION    RADIAL
 FREQ.       531.93         C  2 -- C  4         +20.4% (146.3%)      0.1%
 T-DIPOLE    0.0205         C  1 -- C  3         +12.5% (114.5%)      0.0%
 TRAVEL      0.0852         C  5 -- H 10         +11.1% (108.1%)     91.7%
 RED. MASS   1.4399         C  4 -- C  5         +10.4% (104.6%)      0.3%
 EFF. MASS  17.4734

 VIBRATION    5    5A         ATOM PAIR      ENERGY CONTRIBUTION    RADIAL
 FREQ.       656.12         C  5 -- H 11         +30.2% ( 71.8%)      0.0%
 T-DIPOLE    0.1137         C  2 -- C  4         +18.3% ( 55.9%)      0.0%
 TRAVEL      0.1532         C  5 -- H 10         +13.7% ( 48.4%)      0.0%
 RED. MASS   0.7817         C  4 -- C  5          +8.3% ( 37.7%)      0.0%
 EFF. MASS   4.3761

 VIBRATION    6    6A         ATOM PAIR      ENERGY CONTRIBUTION    RADIAL
 FREQ.       776.81         C  4 -- C  5         +17.0% ( 76.9%)      6.6%
 T-DIPOLE    0.0594         C  2 -- C  4         +13.4% ( 68.3%)     99.5%
 TRAVEL      0.0939         C  4 -- H  9         +13.1% ( 67.6%)     70.3%
 RED. MASS   1.0675         C  1 -- C  3          +9.4% ( 57.1%)     83.8%
 EFF. MASS   9.8475

 VIBRATION    7    7A         ATOM PAIR      ENERGY CONTRIBUTION    RADIAL
 FREQ.       810.77         C  3 -- H  8         +49.2% ( 75.7%)      0.0%
 T-DIPOLE    0.4001         C  1 -- H  7         +22.4% ( 51.2%)      0.1%
 TRAVEL      0.2381         C  1 -- H  6         +22.4% ( 51.2%)      0.1%
 RED. MASS   0.3828         C  2 -- C  3          +2.3% ( 16.4%)      0.0%
 EFF. MASS   1.4674

 VIBRATION    8    8A         ATOM PAIR      ENERGY CONTRIBUTION    RADIAL
 FREQ.       911.50         C  4 -- H  9         +32.5% ( 56.7%)      0.0%
 T-DIPOLE    0.1291         C  1 -- H  7         +16.5% ( 40.4%)      0.2%
 TRAVEL      0.1816         C  1 -- H  6         +16.4% ( 40.3%)      0.2%
 RED. MASS   0.3052         C  3 -- H  8         +11.6% ( 33.8%)      0.0%
 EFF. MASS   2.2432

 VIBRATION    9    9A         ATOM PAIR      ENERGY CONTRIBUTION    RADIAL
 FREQ.       942.33         C  4 -- H  9         +31.3% ( 57.0%)      0.0%
 T-DIPOLE    0.6398         C  3 -- H  8         +13.0% ( 36.8%)      0.0%
 TRAVEL      0.1461         C  5 -- H 10         +12.3% ( 35.7%)      0.0%
 RED. MASS   0.4473         C  2 -- C  4          +9.2% ( 30.9%)      0.0%
 EFF. MASS   3.3507

 VIBRATION   10   10A         ATOM PAIR      ENERGY CONTRIBUTION    RADIAL
 FREQ.       962.78         C  5 -- H 11         +22.3% ( 70.7%)     17.4%
 T-DIPOLE    0.0998         C  5 -- H 10         +22.0% ( 70.2%)      5.9%
 TRAVEL      0.1224         C  3 -- H  8         +11.7% ( 51.4%)     10.6%
 RED. MASS   0.4686         C  4 -- C  5         +10.9% ( 49.5%)      0.8%
 EFF. MASS   4.6719

 VIBRATION   11   11A         ATOM PAIR      ENERGY CONTRIBUTION    RADIAL
 FREQ.       999.26         C  3 -- H  8         +37.9% ( 79.4%)      0.1%
 T-DIPOLE    0.1857         C  4 -- H  9         +12.4% ( 45.4%)     18.5%
 TRAVEL      0.1334         C  1 -- C  2          +9.6% ( 40.0%)     78.3%
 RED. MASS   0.4942         C  1 -- C  3          +6.7% ( 33.3%)     62.9%
 EFF. MASS   3.7928

 VIBRATION   12   12A         ATOM PAIR      ENERGY CONTRIBUTION    RADIAL
 FREQ.      1012.69         C  1 -- H  7         +35.4% ( 82.0%)     10.4%
 T-DIPOLE    0.3520         C  1 -- H  6         +35.4% ( 82.0%)     10.4%
 TRAVEL      0.1307         C  1 -- C  3         +12.7% ( 49.1%)      0.0%
 RED. MASS   0.7650         C  1 -- C  2         +12.0% ( 47.8%)      0.0%
 EFF. MASS   3.8962

 VIBRATION   13   13A         ATOM PAIR      ENERGY CONTRIBUTION    RADIAL
 FREQ.      1029.92         C  5 -- H 11         +34.5% ( 60.9%)      0.0%
 T-DIPOLE    0.4220         C  5 -- H 10         +30.8% ( 57.6%)      0.0%
 TRAVEL      0.1302         C  4 -- C  5         +12.8% ( 37.2%)      0.0%
 RED. MASS   0.9879         C  4 -- H  9         +11.0% ( 34.3%)      0.0%
 EFF. MASS   3.8627

 VIBRATION   14   14A         ATOM PAIR      ENERGY CONTRIBUTION    RADIAL
 FREQ.      1123.54         C  1 -- H  7         +30.4% ( 63.6%)      0.1%
 T-DIPOLE    0.1501         C  1 -- H  6         +30.4% ( 63.5%)      0.1%
 TRAVEL      0.1311         C  1 -- C  3          +8.5% ( 33.6%)      0.2%
 RED. MASS   0.7301         C  1 -- C  2          +7.2% ( 31.0%)      5.4%
 EFF. MASS   3.4907

 VIBRATION   15   15A         ATOM PAIR      ENERGY CONTRIBUTION    RADIAL
 FREQ.      1181.04         C  4 -- H  9         +40.2% ( 78.7%)      1.3%
 T-DIPOLE    0.1163         C  1 -- C  3         +10.5% ( 40.2%)     96.1%
 TRAVEL      0.1160         C  4 -- C  5          +7.7% ( 34.6%)      5.8%
 RED. MASS   0.6020         C  2 -- C  3          +7.7% ( 34.4%)      1.5%
 EFF. MASS   4.2462

 VIBRATION   16   16A         ATOM PAIR      ENERGY CONTRIBUTION    RADIAL
 FREQ.      1273.36         C  1 -- C  3         +22.9% ( 68.4%)     97.7%
 T-DIPOLE    0.0140         C  2 -- C  4         +13.2% ( 51.8%)     66.8%
 TRAVEL      0.0836         C  2 -- C  3         +11.6% ( 48.6%)      0.8%
 RED. MASS   0.9413         C  5 -- H 10          +9.1% ( 43.0%)      3.0%
 EFF. MASS   7.5757

 VIBRATION   17   17A         ATOM PAIR      ENERGY CONTRIBUTION    RADIAL
 FREQ.      1313.69         C  1 -- C  2         +20.1% ( 58.1%)     65.6%
 T-DIPOLE    0.0690         C  1 -- C  3         +17.6% ( 54.4%)     63.5%
 TRAVEL      0.0903         C  1 -- H  7         +12.6% ( 46.0%)     96.7%
 RED. MASS   0.8505         C  1 -- H  6         +12.6% ( 46.0%)     96.6%
 EFF. MASS   6.3007

 VIBRATION   18   18A         ATOM PAIR      ENERGY CONTRIBUTION    RADIAL
 FREQ.      1354.46         C  2 -- C  3         +17.2% ( 60.3%)     45.9%
 T-DIPOLE    0.1654         C  2 -- C  4         +16.5% ( 59.1%)     59.4%
 TRAVEL      0.0760         C  1 -- C  3         +12.5% ( 51.5%)      2.1%
 RED. MASS   1.3369         C  1 -- C  2         +11.4% ( 49.2%)     94.1%
 EFF. MASS   8.6277         C  5 -- H 11         +10.7% ( 47.6%)      0.4%

 VIBRATION   19   19A         ATOM PAIR      ENERGY CONTRIBUTION    RADIAL
 FREQ.      1423.88         C  1 -- H  6         +30.1% ( 68.6%)      5.2%
 T-DIPOLE    0.1789         C  1 -- H  7         +30.1% ( 68.6%)      5.2%
 TRAVEL      0.1028         C  1 -- C  3         +17.3% ( 52.1%)     77.8%
 RED. MASS   1.0433         C  1 -- C  2         +15.4% ( 49.2%)     53.4%
 EFF. MASS   4.4800

 VIBRATION   20   20A         ATOM PAIR      ENERGY CONTRIBUTION    RADIAL
 FREQ.      1826.62         C  4 -- C  5         +43.7% ( 98.4%)     99.2%
 T-DIPOLE    0.1735         C  4 -- H  9         +14.2% ( 56.1%)      5.2%
 TRAVEL      0.0558         C  2 -- C  4         +13.7% ( 55.1%)     34.6%
 RED. MASS   4.7954         C  5 -- H 10         +11.3% ( 50.1%)     10.7%
 EFF. MASS  11.8352         C  5 -- H 11         +11.1% ( 49.6%)     12.8%

 VIBRATION   21   21A         ATOM PAIR      ENERGY CONTRIBUTION    RADIAL
 FREQ.      2091.03         C  2 -- C  3         +36.9% ( 90.4%)     98.3%
 T-DIPOLE    0.6363         C  2 -- C  4         +23.6% ( 72.3%)     94.8%
 TRAVEL      0.0522         C  1 -- C  2         +21.0% ( 68.2%)     68.7%
 RED. MASS   5.1072         C  1 -- C  3          +7.9% ( 41.7%)     70.6%
 EFF. MASS  11.8474

 VIBRATION   22   22A         ATOM PAIR      ENERGY CONTRIBUTION    RADIAL
 FREQ.      3037.71         C  4 -- H  9         +96.3% ( 99.6%)    100.0%
 T-DIPOLE    0.2653         C  4 -- C  5          +1.5% ( 12.3%)     30.6%
 TRAVEL      0.1211         C  2 -- C  4          +1.4% ( 12.1%)     17.2%
 RED. MASS   0.9153         C  5 -- H 11          +0.8% (  9.1%)     95.0%
 EFF. MASS   1.5136

 VIBRATION   23   23A         ATOM PAIR      ENERGY CONTRIBUTION    RADIAL
 FREQ.      3054.47         C  1 -- H  6         +49.1% ( 72.3%)     97.3%
 T-DIPOLE    0.0279         C  1 -- H  7         +48.9% ( 72.2%)     97.2%
 TRAVEL      0.1202         C  1 -- C  3          +1.0% ( 10.3%)      0.0%
 RED. MASS   0.5172         C  1 -- C  2          +1.0% ( 10.3%)      0.0%
 EFF. MASS   1.5276

 VIBRATION   24   24A         ATOM PAIR      ENERGY CONTRIBUTION    RADIAL
 FREQ.      3100.51         C  1 -- H  7         +49.2% ( 69.7%)     96.5%
 T-DIPOLE    0.0208         C  1 -- H  6         +48.9% ( 69.6%)     96.5%
 TRAVEL      0.1291         C  1 -- C  2          +0.9% (  9.6%)     84.3%
 RED. MASS   0.4842         C  1 -- C  3          +0.9% (  9.5%)     82.6%
 EFF. MASS   1.3049

 VIBRATION   25   25A         ATOM PAIR      ENERGY CONTRIBUTION    RADIAL
 FREQ.      3140.61         C  5 -- H 10         +97.1% ( 99.9%)    100.0%
 T-DIPOLE    0.2516         C  5 -- H 11          +1.5% ( 12.5%)     27.3%
 TRAVEL      0.1196         C  4 -- C  5          +1.4% ( 11.8%)     37.7%
 RED. MASS   0.9262
 EFF. MASS   1.5011

 VIBRATION   26   26A         ATOM PAIR      ENERGY CONTRIBUTION    RADIAL
 FREQ.      3145.47         C  5 -- H 11         +96.4% ( 99.3%)    100.0%
 T-DIPOLE    0.2911         C  4 -- C  5          +1.5% ( 12.4%)     54.1%
 TRAVEL      0.1196         C  5 -- H 10          +1.3% ( 11.6%)      1.2%
 RED. MASS   0.9079         C  4 -- H  9          +0.7% (  8.4%)     95.5%
 EFF. MASS   1.4976

 VIBRATION   27   27A         ATOM PAIR      ENERGY CONTRIBUTION    RADIAL
 FREQ.      3286.67         C  3 -- H  8         +94.2% ( 99.7%)    100.0%
 T-DIPOLE    0.7523         C  2 -- C  3          +3.0% ( 17.9%)     87.5%
 TRAVEL      0.1084         C  1 -- C  3          +2.6% ( 16.5%)     67.6%
 RED. MASS   0.9339
 EFF. MASS   1.7450

      SYMMETRY NUMBER FOR POINT-GROUP C1  =  1


          SYSTEM IS A GROUND STATE



 InChI=1S/C5H6/c1-2-5-3-4-5/h2-3H,1,4H2


          MOLECULE IS NOT LINEAR

          THERE ARE 27 GENUINE VIBRATIONS IN THIS SYSTEM
          THIS THERMODYNAMICS CALCULATION IS LIMITED TO
          MOLECULES WHICH HAVE NO INTERNAL ROTATIONS




                    CALCULATED THERMODYNAMIC PROPERTIES
                                          *
   TEMP. (K)   PARTITION FUNCTION   H.O.F.    ENTHALPY  HEAT CAPACITY ENTROPY
                                   KCAL/MOL   CAL/MOLE    CAL/K/MOL  CAL/K/MOL


 298.00  VIB.     0.7149D+01                  1569.6890    12.2786     9.1762
         ROT.     0.6680D+05                   888.2813     2.9808    25.0575
         INT.     0.4775D+06                  2457.9703    15.2594    34.2337
         TRA.     0.5196D+27                  1480.4688     4.9680    38.4818
         TOT.                       82.647    3938.4391    20.2275    72.7156

 200.00  VIB.     0.3132D+01                   634.1334     6.9910     5.4394
         ROT.     0.3673D+05                   596.1620     2.9808    23.8689
         INT.     0.1150D+06                  1230.2953     9.9718    29.3083
         TRA.     0.2857D+27                   993.6033     4.9680    36.5007
         TOT.                       80.933    2223.8986    14.9398    65.8090

 210.00  VIB.     0.3394D+01                   706.4231     7.4702     5.7920
         ROT.     0.3952D+05                   625.9700     2.9808    24.0143
         INT.     0.1341D+06                  1332.3931    10.4510    29.8063
         TRA.     0.3074D+27                  1043.2834     4.9680    36.7431
         TOT.                       81.085    2375.6766    15.4191    66.5494

 220.00  VIB.     0.3680D+01                   783.6006     7.9683     6.1510
         ROT.     0.4237D+05                   655.7781     2.9808    24.1530
         INT.     0.1559D+06                  1439.3788    10.9491    30.3039
         TRA.     0.3296D+27                  1092.9636     4.9680    36.9742
         TOT.                       81.241    2532.3424    15.9171    67.2781

 230.00  VIB.     0.3994D+01                   865.8458     8.4834     6.5165
         ROT.     0.4529D+05                   685.5862     2.9808    24.2855
         INT.     0.1809D+06                  1551.4320    11.4642    30.8019
         TRA.     0.3523D+27                  1142.6437     4.9680    37.1950
         TOT.                       81.403    2694.0757    16.4323    67.9970

 240.00  VIB.     0.4339D+01                   953.3199     9.0137     6.8887
         ROT.     0.4828D+05                   715.3943     2.9808    24.4123
         INT.     0.2095D+06                  1668.7142    11.9946    31.3010
         TRA.     0.3755D+27                  1192.3239     4.9680    37.4065
         TOT.                       81.570    2861.0381    16.9626    68.7075

 250.00  VIB.     0.4718D+01                  1046.1641     9.5571     7.2676
         ROT.     0.5133D+05                   745.2024     2.9808    24.5340
         INT.     0.2422D+06                  1791.3665    12.5379    31.8016
         TRA.     0.3992D+27                  1242.0041     4.9680    37.6093
         TOT.                       81.742    3033.3706    17.5059    69.4109

 260.00  VIB.     0.5135D+01                  1144.4978    10.1113     7.6532
         ROT.     0.5444D+05                   775.0105     2.9808    24.6509
         INT.     0.2795D+06                  1919.5083    13.0921    32.3041
         TRA.     0.4234D+27                  1291.6842     4.9680    37.8041
         TOT.                       81.920    3211.1926    18.0601    70.1083

 270.00  VIB.     0.5595D+01                  1248.4187    10.6742     8.0454
         ROT.     0.5761D+05                   804.8186     2.9808    24.7634
         INT.     0.3223D+06                  2053.2373    13.6550    32.8088
         TRA.     0.4481D+27                  1341.3644     4.9680    37.9916
         TOT.                       82.103    3394.6017    18.6230    70.8004

 280.00  VIB.     0.6101D+01                  1358.0027    11.2436     8.4438
         ROT.     0.6084D+05                   834.6267     2.9808    24.8718
         INT.     0.3712D+06                  2192.6295    14.2244    33.3156
         TRA.     0.4732D+27                  1391.0445     4.9680    38.1723
         TOT.                       82.293    3583.6740    19.1924    71.4879

 290.00  VIB.     0.6660D+01                  1473.3052    11.8175     8.8484
         ROT.     0.6413D+05                   864.4348     2.9808    24.9764
         INT.     0.4271D+06                  2337.7400    14.7983    33.8248
         TRA.     0.4988D+27                  1440.7247     4.9680    38.3466
         TOT.                       82.487    3778.4648    19.7663    72.1714

 300.00  VIB.     0.7277D+01                  1594.3616    12.3941     9.2587
         ROT.     0.6747D+05                   894.2429     2.9808    25.0775
         INT.     0.4910D+06                  2488.6046    15.3749    34.3362
         TRA.     0.5248D+27                  1490.4049     4.9680    38.5150
         TOT.                       82.688    3979.0094    20.3429    72.8512

 310.00  VIB.     0.7960D+01                  1721.1893    12.9715     9.6745
         ROT.     0.7087D+05                   924.0510     2.9808    25.1752
         INT.     0.5641D+06                  2645.2403    15.9523    34.8498
         TRA.     0.5513D+27                  1540.0850     4.9680    38.6779
         TOT.                       82.894    4185.3253    20.9203    73.5277

 320.00  VIB.     0.8715D+01                  1853.7886    13.5481    10.0955
         ROT.     0.7433D+05                   953.8591     2.9808    25.2699
         INT.     0.6478D+06                  2807.6477    16.5290    35.3653
         TRA.     0.5782D+27                  1589.7652     4.9680    38.8357
         TOT.                       83.106    4397.4129    21.4970    74.2010

 330.00  VIB.     0.9551D+01                  1992.1449    14.1226    10.5212
         ROT.     0.7784D+05                   983.6672     2.9808    25.3616
         INT.     0.7434D+06                  2975.8121    17.1035    35.8828
         TRA.     0.6055D+27                  1639.4454     4.9680    38.9885
         TOT.                       83.324    4615.2575    22.0715    74.8713

 340.00  VIB.     0.1048D+02                  2136.2299    14.6937    10.9513
         ROT.     0.8141D+05                  1013.4753     2.9808    25.4506
         INT.     0.8529D+06                  3149.7052    17.6745    36.4018
         TRA.     0.6332D+27                  1689.1255     4.9680    39.1369
         TOT.                       83.548    4838.8308    22.6425    75.5387

 350.00  VIB.     0.1150D+02                  2286.0035    15.2602    11.3854
         ROT.     0.8502D+05                  1043.2834     2.9808    25.5370
         INT.     0.9780D+06                  3329.2869    18.2410    36.9224
         TRA.     0.6613D+27                  1738.8057     4.9680    39.2809
         TOT.                       83.777    5068.0926    23.2090    76.2032

 360.00  VIB.     0.1264D+02                  2441.4149    15.8211    11.8232
         ROT.     0.8869D+05                  1073.0915     2.9808    25.6209
         INT.     0.1121D+07                  3514.5064    18.8019    37.4441
         TRA.     0.6899D+27                  1788.4859     4.9680    39.4208
         TOT.                       84.012    5302.9923    23.7699    76.8649

 370.00  VIB.     0.1390D+02                  2602.4046    16.3757    12.2642
         ROT.     0.9242D+05                  1102.8996     2.9808    25.7026
         INT.     0.1285D+07                  3705.3042    19.3565    37.9668
         TRA.     0.7188D+27                  1838.1660     4.9680    39.5569
         TOT.                       84.252    5543.4702    24.3245    77.5238

 380.00  VIB.     0.1531D+02                  2768.9054    16.9232    12.7082
         ROT.     0.9619D+05                  1132.7077     2.9808    25.7821
         INT.     0.1472D+07                  3901.6131    19.9040    38.4903
         TRA.     0.7482D+27                  1887.8462     4.9680    39.6894
         TOT.                       84.498    5789.4593    24.8721    78.1798

 390.00  VIB.     0.1686D+02                  2940.8437    17.4631    13.1548
         ROT.     0.1000D+06                  1162.5158     2.9808    25.8595
         INT.     0.1687D+07                  4103.3595    20.4439    39.0143
         TRA.     0.7779D+27                  1937.5263     4.9680    39.8185
         TOT.                       84.750    6040.8858    25.4119    78.8328

 400.00  VIB.     0.1859D+02                  3118.1408    17.9949    13.6036
         ROT.     0.1039D+06                  1192.3239     2.9808    25.9350
         INT.     0.1932D+07                  4310.4647    20.9757    39.5387
         TRA.     0.8080D+27                  1987.2065     4.9680    39.9443
         TOT.                       85.007    6297.6712    25.9437    79.4829

   *: NOTE: HEATS OF FORMATION ARE RELATIVE TO THE
            ELEMENTS IN THEIR STANDARD STATE AT 298K
              (=  Standard Enthalpy of Formation).

            Hvib:  Zero-point energy is not included.
                   frequencies of less than zero cm-1 are not included.
            Hrot = (3/2)RT
            Htra = (3/2)RT + pV = (5/2)RT

            Heat capacity is Cp, not Cv

          For more information, see: HTTP://OpenMOPAC.net/Manual/thermochemistry.html


           FORCE CONSTANT IN CARTESIAN COORDINATES (Millidynes/A)

    ATOM   CHEMICAL       X               Y               Z
   NUMBER   SYMBOL  FORCE CONSTANT  FORCE CONSTANT  FORCE CONSTANT

      1       C       10.820648        5.811806        7.656652
      2       C       13.670463       13.282297        1.932314
      3       C        5.695447       19.198803        1.727151
      4       C       10.263601       15.413984        2.200690
      5       C        9.071432       15.275364        1.969149
      6       H        1.913424        0.832973        3.761302
      7       H        1.915444        0.832630        3.760031
      8       H        0.496513        5.865374        0.311460
      9       H        3.978573        1.815106        0.348476
     10       H        4.157509        1.954471        0.339555
     11       H        3.961679        2.165590        0.331959

 **********************
 *                    *
 * JOB ENDED NORMALLY *
 *                    *
 **********************



 TOTAL JOB TIME:             0.37 SECONDS

 == MOPAC DONE ==
