 *******************************************************************************
 ** Site#: 14399        For non-commercial use only    Version 18.184L 64BITS **
 *******************************************************************************
 ** Cite this program as: MOPAC2016, Version: 18.184L, James J. P. Stewart,   **
 ** Stewart Computational Chemistry, web: HTTP://OpenMOPAC.net. Days left:  18**
 *******************************************************************************
 **                                                                           **
 **                                MOPAC2016                                  **
 **                                                                           **
 *******************************************************************************

                              PM3 CALCULATION RESULTS

 *******************************************************************************
 *  CALCULATION DONE:                                Sat Jun 15 10:14:49 2019  *
 *  PM3        - The PM3 Hamiltonian to be used
 *  PRECISE    - CRITERIA TO BE INCREASED BY 100 TIMES
 *  NOSYM      - POINT-GROUP SYMMETRY SET TO C1
 *  THREADS=1  - MULTI-THREADING NOT USED
 *  T=         - A TIME OF 172800.0 SECONDS REQUESTED
 *  DUMP=N     - RESTART FILE WRITTEN EVERY  7200.000 SECONDS
 *******************************************************************************
pm3  precise nosym THREADS=1
 InChI=1S/C10H12/c1-8-6-7-9-4-2-3-5-10(8)9/h2-4,6,10H,5,7H2,1H3

   ATOM   CHEMICAL          X               Y               Z
  NUMBER   SYMBOL      (ANGSTROMS)     (ANGSTROMS)     (ANGSTROMS)
 
     1       C         -0.03850000  *  -0.37620000  *  -0.46900000  *
     2       C          0.57230000  *  -1.38590000  *   0.52120000  *
     3       C         -0.28060000  *   2.07310000  *  -0.22620000  *
     4       C         -2.60280000  *  -0.92500000  *  -0.08430000  *
     5       C          0.67050000  *   0.93630000  *  -0.36530000  *
     6       C         -1.44710000  *   0.02620000  *  -0.16590000  *
     7       C         -1.57990000  *   1.35200000  *  -0.06440000  *
     8       C          2.08140000  *  -1.37510000  *   0.40140000  *
     9       C          1.98770000  *   1.00860000  *  -0.14540000  *
    10       C          2.73750000  *  -0.23910000  *   0.11210000  *
    11       H          0.03420000  *  -0.76570000  *  -1.50820000  *
    12       H          0.18920000  *  -2.40600000  *   0.30650000  *
    13       H          0.29730000  *  -1.11640000  *   1.56440000  *
    14       H         -0.28420000  *   2.70710000  *  -1.13740000  *
    15       H         -0.06150000  *   2.67000000  *   0.68480000  *
    16       H         -2.26080000  *  -1.96700000  *  -0.25450000  *
    17       H         -3.35670000  *  -0.66720000  *  -0.85760000  *
    18       H         -3.07020000  *  -0.85950000  *   0.92040000  *
    19       H         -2.52830000  *   1.85040000  *   0.11090000  *
    20       H          2.63860000  *  -2.28180000  *   0.59990000  *
    21       H          2.48230000  *   1.96660000  *  -0.04870000  *
    22       H          3.81960000  *  -0.22550000  *   0.10510000  *
 


          CARTESIAN COORDINATES 

    NO.       ATOM           X           Y           Z

     1         C         -0.0385     -0.3762     -0.4690
     2         C          0.5723     -1.3859      0.5212
     3         C         -0.2806      2.0731     -0.2262
     4         C         -2.6028     -0.9250     -0.0843
     5         C          0.6705      0.9363     -0.3653
     6         C         -1.4471      0.0262     -0.1659
     7         C         -1.5799      1.3520     -0.0644
     8         C          2.0814     -1.3751      0.4014
     9         C          1.9877      1.0086     -0.1454
    10         C          2.7375     -0.2391      0.1121
    11         H          0.0342     -0.7657     -1.5082
    12         H          0.1892     -2.4060      0.3065
    13         H          0.2973     -1.1164      1.5644
    14         H         -0.2842      2.7071     -1.1374
    15         H         -0.0615      2.6700      0.6848
    16         H         -2.2608     -1.9670     -0.2545
    17         H         -3.3567     -0.6672     -0.8576
    18         H         -3.0702     -0.8595      0.9204
    19         H         -2.5283      1.8504      0.1109
    20         H          2.6386     -2.2818      0.5999
    21         H          2.4823      1.9666     -0.0487
    22         H          3.8196     -0.2255      0.1051

  H: (PM3): J. J. P. STEWART, J. COMP. CHEM. 10, 209 (1989).
  C: (PM3): J. J. P. STEWART, J. COMP. CHEM. 10, 209 (1989).

           Empirical Formula: C10 H12  =    22 atoms



      MOLECULAR POINT GROUP   :   C1  


      RHF CALCULATION, NO. OF DOUBLY OCCUPIED LEVELS = 26


          Geometry optimization using EF

          DIAGONAL MATRIX USED AS START HESSIAN

 CYCLE:     1 TIME:   0.008 TIME LEFT:  2.00D  GRAD.:    81.252 HEAT:  34.90623
 CYCLE:     2 TIME:   0.012 TIME LEFT:  2.00D  GRAD.:    49.427 HEAT:  33.24045
 CYCLE:     3 TIME:   0.008 TIME LEFT:  2.00D  GRAD.:    39.970 HEAT:  32.64472
 CYCLE:     4 TIME:   0.008 TIME LEFT:  2.00D  GRAD.:    40.117 HEAT:  32.32907
 CYCLE:     5 TIME:   0.004 TIME LEFT:  2.00D  GRAD.:    34.080 HEAT:  32.00679
 CYCLE:     6 TIME:   0.008 TIME LEFT:  2.00D  GRAD.:    31.030 HEAT:  31.82433
 CYCLE:     7 TIME:   0.008 TIME LEFT:  2.00D  GRAD.:    31.780 HEAT:  31.68967
 CYCLE:     8 TIME:   0.004 TIME LEFT:  2.00D  GRAD.:    36.298 HEAT:  31.61320
 CYCLE:     9 TIME:   0.004 TIME LEFT:  2.00D  GRAD.:    23.070 HEAT:  31.40282
 CYCLE:    10 TIME:   0.008 TIME LEFT:  2.00D  GRAD.:    26.870 HEAT:  31.34697
 CYCLE:    11 TIME:   0.008 TIME LEFT:  2.00D  GRAD.:    23.108 HEAT:  31.26502
 CYCLE:    12 TIME:   0.004 TIME LEFT:  2.00D  GRAD.:    21.057 HEAT:  31.21563
 CYCLE:    13 TIME:   0.004 TIME LEFT:  2.00D  GRAD.:    17.641 HEAT:  31.14483
 CYCLE:    14 TIME:   0.004 TIME LEFT:  2.00D  GRAD.:    17.052 HEAT:  31.09856
 CYCLE:    15 TIME:   0.008 TIME LEFT:  2.00D  GRAD.:    15.068 HEAT:  31.04481
 CYCLE:    16 TIME:   0.004 TIME LEFT:  2.00D  GRAD.:    15.842 HEAT:  31.01292
 CYCLE:    17 TIME:   0.004 TIME LEFT:  2.00D  GRAD.:    12.887 HEAT:  30.94921
 CYCLE:    18 TIME:   0.004 TIME LEFT:  2.00D  GRAD.:    12.611 HEAT:  30.90625
 CYCLE:    19 TIME:   0.004 TIME LEFT:  2.00D  GRAD.:    14.639 HEAT:  30.87862
 CYCLE:    20 TIME:   0.012 TIME LEFT:  2.00D  GRAD.:    12.174 HEAT:  30.84461
 CYCLE:    21 TIME:   0.004 TIME LEFT:  2.00D  GRAD.:    14.270 HEAT:  30.83861
 CYCLE:    22 TIME:   0.004 TIME LEFT:  2.00D  GRAD.:     7.700 HEAT:  30.78419
 CYCLE:    23 TIME:   0.004 TIME LEFT:  2.00D  GRAD.:     8.590 HEAT:  30.76369
 CYCLE:    24 TIME:   0.004 TIME LEFT:  2.00D  GRAD.:     4.558 HEAT:  30.72880
 CYCLE:    25 TIME:   0.008 TIME LEFT:  2.00D  GRAD.:     6.905 HEAT:  30.71183
 CYCLE:    26 TIME:   0.004 TIME LEFT:  2.00D  GRAD.:     4.787 HEAT:  30.68795
 CYCLE:    27 TIME:   0.004 TIME LEFT:  2.00D  GRAD.:     3.208 HEAT:  30.67248
 CYCLE:    28 TIME:   0.004 TIME LEFT:  2.00D  GRAD.:     2.233 HEAT:  30.66240
 CYCLE:    29 TIME:   0.004 TIME LEFT:  2.00D  GRAD.:     3.106 HEAT:  30.64793
 CYCLE:    30 TIME:   0.004 TIME LEFT:  2.00D  GRAD.:     4.019 HEAT:  30.63932
 CYCLE:    31 TIME:   0.008 TIME LEFT:  2.00D  GRAD.:     2.757 HEAT:  30.62768
 CYCLE:    32 TIME:   0.004 TIME LEFT:  2.00D  GRAD.:     2.550 HEAT:  30.61631
 CYCLE:    33 TIME:   0.004 TIME LEFT:  2.00D  GRAD.:     3.190 HEAT:  30.60776
 CYCLE:    34 TIME:   0.008 TIME LEFT:  2.00D  GRAD.:     2.610 HEAT:  30.59906
 CYCLE:    35 TIME:   0.004 TIME LEFT:  2.00D  GRAD.:     2.077 HEAT:  30.59107
 CYCLE:    36 TIME:   0.004 TIME LEFT:  2.00D  GRAD.:     2.185 HEAT:  30.58642
 CYCLE:    37 TIME:   0.004 TIME LEFT:  2.00D  GRAD.:     1.409 HEAT:  30.58336
 CYCLE:    38 TIME:   0.004 TIME LEFT:  2.00D  GRAD.:     0.983 HEAT:  30.58055
 CYCLE:    39 TIME:   0.004 TIME LEFT:  2.00D  GRAD.:     1.011 HEAT:  30.57847
 CYCLE:    40 TIME:   0.008 TIME LEFT:  2.00D  GRAD.:     0.983 HEAT:  30.57643
 CYCLE:    41 TIME:   0.004 TIME LEFT:  2.00D  GRAD.:     0.891 HEAT:  30.57497
 CYCLE:    42 TIME:   0.004 TIME LEFT:  2.00D  GRAD.:     0.828 HEAT:  30.57342
 CYCLE:    43 TIME:   0.004 TIME LEFT:  2.00D  GRAD.:     1.016 HEAT:  30.57135
 CYCLE:    44 TIME:   0.008 TIME LEFT:  2.00D  GRAD.:     1.298 HEAT:  30.56883
 CYCLE:    45 TIME:   0.004 TIME LEFT:  2.00D  GRAD.:     1.370 HEAT:  30.56614
 CYCLE:    46 TIME:   0.004 TIME LEFT:  2.00D  GRAD.:     0.970 HEAT:  30.56344
 CYCLE:    47 TIME:   0.004 TIME LEFT:  2.00D  GRAD.:     0.665 HEAT:  30.56166
 CYCLE:    48 TIME:   0.004 TIME LEFT:  2.00D  GRAD.:     0.477 HEAT:  30.56119
 CYCLE:    49 TIME:   0.008 TIME LEFT:  2.00D  GRAD.:     0.429 HEAT:  30.56076
 CYCLE:    50 TIME:   0.004 TIME LEFT:  2.00D  GRAD.:     0.406 HEAT:  30.56037
 CYCLE:    51 TIME:   0.004 TIME LEFT:  2.00D  GRAD.:     0.360 HEAT:  30.56009
 CYCLE:    52 TIME:   0.004 TIME LEFT:  2.00D  GRAD.:     0.315 HEAT:  30.55981
 CYCLE:    53 TIME:   0.004 TIME LEFT:  2.00D  GRAD.:     0.318 HEAT:  30.55958
 CYCLE:    54 TIME:   0.008 TIME LEFT:  2.00D  GRAD.:     0.332 HEAT:  30.55934
 CYCLE:    55 TIME:   0.004 TIME LEFT:  2.00D  GRAD.:     0.296 HEAT:  30.55911
 CYCLE:    56 TIME:   0.004 TIME LEFT:  2.00D  GRAD.:     0.230 HEAT:  30.55894
 CYCLE:    57 TIME:   0.004 TIME LEFT:  2.00D  GRAD.:     0.210 HEAT:  30.55883
 CYCLE:    58 TIME:   0.008 TIME LEFT:  2.00D  GRAD.:     0.229 HEAT:  30.55873
 CYCLE:    59 TIME:   0.004 TIME LEFT:  2.00D  GRAD.:     0.266 HEAT:  30.55858
 CYCLE:    60 TIME:   0.004 TIME LEFT:  2.00D  GRAD.:     0.283 HEAT:  30.55840
 CYCLE:    61 TIME:   0.004 TIME LEFT:  2.00D  GRAD.:     0.327 HEAT:  30.55809
 CYCLE:    62 TIME:   0.004 TIME LEFT:  2.00D  GRAD.:     0.339 HEAT:  30.55784
 CYCLE:    63 TIME:   0.004 TIME LEFT:  2.00D  GRAD.:     0.791 HEAT:  30.55676
 CYCLE:    64 TIME:   0.008 TIME LEFT:  2.00D  GRAD.:     0.719 HEAT:  30.55604
 CYCLE:    65 TIME:   0.004 TIME LEFT:  2.00D  GRAD.:     2.812 HEAT:  30.55475
 CYCLE:    66 TIME:   0.004 TIME LEFT:  2.00D  GRAD.:     1.166 HEAT:  30.55182
 CYCLE:    67 TIME:   0.004 TIME LEFT:  2.00D  GRAD.:     0.769 HEAT:  30.54954
 CYCLE:    68 TIME:   0.008 TIME LEFT:  2.00D  GRAD.:     3.657 HEAT:  30.54921
 CYCLE:    69 TIME:   0.004 TIME LEFT:  2.00D  GRAD.:     0.917 HEAT:  30.54509
 CYCLE:    70 TIME:   0.004 TIME LEFT:  2.00D  GRAD.:     1.040 HEAT:  30.54170
 CYCLE:    71 TIME:   0.004 TIME LEFT:  2.00D  GRAD.:     6.345 HEAT:  30.53356
 CYCLE:    72 TIME:   0.008 TIME LEFT:  2.00D  GRAD.:     1.081 HEAT:  30.52248
 CYCLE:    73 TIME:   0.004 TIME LEFT:  2.00D  GRAD.:     1.618 HEAT:  30.51068
 CYCLE:    74 TIME:   0.008 TIME LEFT:  2.00D  GRAD.:     4.979 HEAT:  30.49060
 CYCLE:    75 TIME:   0.004 TIME LEFT:  2.00D  GRAD.:     4.532 HEAT:  30.46944
 CYCLE:    76 TIME:   0.012 TIME LEFT:  2.00D  GRAD.:     2.595 HEAT:  30.45512
 CYCLE:    77 TIME:   0.008 TIME LEFT:  2.00D  GRAD.:     1.118 HEAT:  30.44565
 CYCLE:    78 TIME:   0.004 TIME LEFT:  2.00D  GRAD.:     5.046 HEAT:  30.42423
 CYCLE:    79 TIME:   0.004 TIME LEFT:  2.00D  GRAD.:     3.246 HEAT:  30.41456
 CYCLE:    80 TIME:   0.004 TIME LEFT:  2.00D  GRAD.:     2.376 HEAT:  30.39150
 CYCLE:    81 TIME:   0.008 TIME LEFT:  2.00D  GRAD.:     3.442 HEAT:  30.38129
 CYCLE:    82 TIME:   0.004 TIME LEFT:  2.00D  GRAD.:     4.111 HEAT:  30.37204
 CYCLE:    83 TIME:   0.004 TIME LEFT:  2.00D  GRAD.:     4.808 HEAT:  30.35872
 CYCLE:    84 TIME:   0.004 TIME LEFT:  2.00D  GRAD.:     2.278 HEAT:  30.33998
 CYCLE:    85 TIME:   0.008 TIME LEFT:  2.00D  GRAD.:     1.977 HEAT:  30.31134
 CYCLE:    86 TIME:   0.004 TIME LEFT:  2.00D  GRAD.:     5.766 HEAT:  30.27614
 CYCLE:    87 TIME:   0.004 TIME LEFT:  2.00D  GRAD.:     1.981 HEAT:  30.26019
 CYCLE:    88 TIME:   0.004 TIME LEFT:  2.00D  GRAD.:     2.669 HEAT:  30.23916
 CYCLE:    89 TIME:   0.004 TIME LEFT:  2.00D  GRAD.:     8.927 HEAT:  30.22966
 CYCLE:    90 TIME:   0.008 TIME LEFT:  2.00D  GRAD.:     2.176 HEAT:  30.20121
 CYCLE:    91 TIME:   0.004 TIME LEFT:  2.00D  GRAD.:     2.067 HEAT:  30.18438
 CYCLE:    92 TIME:   0.008 TIME LEFT:  2.00D  GRAD.:     4.777 HEAT:  30.16555
 CYCLE:    93 TIME:   0.004 TIME LEFT:  2.00D  GRAD.:     2.838 HEAT:  30.15391
 CYCLE:    94 TIME:   0.008 TIME LEFT:  2.00D  GRAD.:     2.220 HEAT:  30.13529
 CYCLE:    95 TIME:   0.004 TIME LEFT:  2.00D  GRAD.:     6.823 HEAT:  30.13247
 CYCLE:    96 TIME:   0.004 TIME LEFT:  2.00D  GRAD.:     5.520 HEAT:  30.12143
 CYCLE:    97 TIME:   0.004 TIME LEFT:  2.00D  GRAD.:     2.594 HEAT:  30.10165
 CYCLE:    98 TIME:   0.008 TIME LEFT:  2.00D  GRAD.:     2.722 HEAT:  30.09662
 CYCLE:    99 TIME:   0.004 TIME LEFT:  2.00D  GRAD.:     1.753 HEAT:  30.09070
 CYCLE:   100 TIME:   0.004 TIME LEFT:  2.00D  GRAD.:     4.796 HEAT:  30.08615
 CYCLE:   101 TIME:   0.004 TIME LEFT:  2.00D  GRAD.:     2.034 HEAT:  30.07839
 CYCLE:   102 TIME:   0.004 TIME LEFT:  2.00D  GRAD.:     1.023 HEAT:  30.07370
 CYCLE:   103 TIME:   0.008 TIME LEFT:  2.00D  GRAD.:     1.322 HEAT:  30.07070
 CYCLE:   104 TIME:   0.004 TIME LEFT:  2.00D  GRAD.:     2.077 HEAT:  30.06798
 CYCLE:   105 TIME:   0.004 TIME LEFT:  2.00D  GRAD.:     0.988 HEAT:  30.06530
 CYCLE:   106 TIME:   0.004 TIME LEFT:  2.00D  GRAD.:     0.732 HEAT:  30.06371
 CYCLE:   107 TIME:   0.008 TIME LEFT:  2.00D  GRAD.:     0.638 HEAT:  30.06243
 CYCLE:   108 TIME:   0.004 TIME LEFT:  2.00D  GRAD.:     0.592 HEAT:  30.06088
 CYCLE:   109 TIME:   0.004 TIME LEFT:  2.00D  GRAD.:     0.478 HEAT:  30.06048
 CYCLE:   110 TIME:   0.004 TIME LEFT:  2.00D  GRAD.:     0.307 HEAT:  30.06021
 CYCLE:   111 TIME:   0.004 TIME LEFT:  2.00D  GRAD.:     0.209 HEAT:  30.06007
 CYCLE:   112 TIME:   0.004 TIME LEFT:  2.00D  GRAD.:     0.160 HEAT:  30.05995
 CYCLE:   113 TIME:   0.008 TIME LEFT:  2.00D  GRAD.:     0.104 HEAT:  30.05988
 CYCLE:   114 TIME:   0.004 TIME LEFT:  2.00D  GRAD.:     0.092 HEAT:  30.05984
 CYCLE:   115 TIME:   0.004 TIME LEFT:  2.00D  GRAD.:     0.072 HEAT:  30.05983
 CYCLE:   116 TIME:   0.004 TIME LEFT:  2.00D  GRAD.:     0.059 HEAT:  30.05981
 CYCLE:   117 TIME:   0.004 TIME LEFT:  2.00D  GRAD.:     0.043 HEAT:  30.05981

     GRADIENT =  0.04278  IS LESS THAN CUTOFF =  0.05000



 -------------------------------------------------------------------------------
 pm3  precise nosym THREADS=1
 InChI=1S/C10H12/c1-8-6-7-9-4-2-3-5-10(8)9/h2-4,6,10H,5,7H2,1H3



     GEOMETRY OPTIMISED USING EIGENVECTOR FOLLOWING (EF).     
     SCF FIELD WAS ACHIEVED                                   


                              PM3 CALCULATION
                                                       MOPAC2016 (Version: 18.184L)
                                                       Sat Jun 15 10:14:50 2019
                                                       No. of days remaining =  18




          FINAL HEAT OF FORMATION =         30.05981 KCAL/MOL =     125.77024 KJ/MOL


          TOTAL ENERGY            =      -1369.09278 EV
          ELECTRONIC ENERGY       =      -7567.18773 EV  POINT GROUP:     C1  
          CORE-CORE REPULSION     =       6198.09494 EV
          COSMO AREA              =        174.73 SQUARE ANGSTROMS
          COSMO VOLUME            =        179.20 CUBIC ANGSTROMS

          GRADIENT NORM           =          0.04278 = 0.00912 PER ATOM
          IONIZATION POTENTIAL    =          8.767757 EV
          HOMO LUMO ENERGIES (EV) =         -8.768  0.268
          NO. OF FILLED LEVELS    =         26
          MOLECULAR WEIGHT        =        132.2048

          MOLECULAR DIMENSIONS (Angstroms)

            Atom       Atom       Distance
            H    22    H    17     7.33214
            H    20    H    14     5.41311
            H    15    H    11     3.10713


          SCF CALCULATIONS        =        128
 
          WALL-CLOCK TIME         =          0.609 SECONDS
          COMPUTATION TIME        =          0.564 SECONDS




   ATOM   CHEMICAL          X               Y               Z
  NUMBER   SYMBOL      (ANGSTROMS)     (ANGSTROMS)     (ANGSTROMS)
 
     1       C         -0.03989918  *  -0.35071714  *  -0.43662668  *
     2       C          0.55348162  *  -1.41169910  *   0.47989894  *
     3       C         -0.29444672  *   2.08276054  *  -0.34864917  *
     4       C         -2.54173305  *  -0.95895211  *  -0.02054233  *
     5       C          0.69670639  *   0.96200111  *  -0.30142010  *
     6       C         -1.47463472  *   0.04368381  *  -0.17881663  *
     7       C         -1.61001670  *   1.38156394  *  -0.16283466  *
     8       C          2.04542443  *  -1.37037000  *   0.44113195  *
     9       C          2.01115406  *   1.00740618  *  -0.05475499  *
    10       C          2.72044937  *  -0.24296783  *   0.17161635  *
    11       H          0.04156050  *  -0.69893773  *  -1.49651365  *
    12       H          0.18596800  *  -2.41315614  *   0.18302715  *
    13       H          0.21989884  *  -1.26686086  *   1.52766932  *
    14       H         -0.26007877  *   2.62404045  *  -1.31307386  *
    15       H         -0.11261575  *   2.83262729  *   0.44301726  *
    16       H         -2.64808490  *  -1.55981720  *  -0.93384607  *
    17       H         -3.51255202  *  -0.49433512  *   0.19310113  *
    18       H         -2.30505086  *  -1.64644987  *   0.80360044  *
    19       H         -2.53796469  *   1.93755638  *  -0.03269241  *
    20       H          2.56946580  *  -2.30397405  *   0.66934527  *
    21       H          2.56209849  *   1.94794458  *   0.03377308  *
    22       H          3.81427609  *  -0.21867962  *   0.14996746  *

                             CARTESIAN COORDINATES

   1    C       -0.039899178    -0.350717143    -0.436626677
   2    C        0.553481620    -1.411699101     0.479898944
   3    C       -0.294446723     2.082760543    -0.348649169
   4    C       -2.541733047    -0.958952113    -0.020542326
   5    C        0.696706392     0.962001109    -0.301420098
   6    C       -1.474634724     0.043683812    -0.178816633
   7    C       -1.610016696     1.381563942    -0.162834664
   8    C        2.045424427    -1.370369995     0.441131948
   9    C        2.011154064     1.007406179    -0.054754988
  10    C        2.720449374    -0.242967831     0.171616351
  11    H        0.041560503    -0.698937727    -1.496513651
  12    H        0.185968005    -2.413156136     0.183027155
  13    H        0.219898838    -1.266860855     1.527669323
  14    H       -0.260078767     2.624040446    -1.313073862
  15    H       -0.112615746     2.832627286     0.443017263
  16    H       -2.648084895    -1.559817197    -0.933846071
  17    H       -3.512552025    -0.494335119     0.193101128
  18    H       -2.305050862    -1.646449873     0.803600440
  19    H       -2.537964690     1.937556378    -0.032692413
  20    H        2.569465802    -2.303974049     0.669345274
  21    H        2.562098491     1.947944578     0.033773082
  22    H        3.814276085    -0.218679615     0.149967455


           Empirical Formula: C10 H12  =    22 atoms



      MOLECULAR POINT GROUP   :   C1  


                  EIGENVALUES  
 -41.85654 -35.35928 -32.35609 -28.78976 -27.11159 -24.26140 -21.78876 -20.04180
 -18.66670 -17.32078 -16.75143 -15.92114 -15.48593 -14.73914 -14.56718 -14.23427
 -14.05810 -13.74513 -13.22548 -12.93543 -12.53649 -12.09582 -11.73050 -11.17507
  -9.62104  -8.76776   0.26843   0.96134   2.02614   3.18691   3.24740   3.34152
   3.58854   3.67313   3.77740   3.82812   4.00896   4.10191   4.20282   4.31933
   4.36980   4.44057   4.51181   4.57907   4.71218   4.80787   5.06314   5.51595
   5.62301   5.90489   6.11566   6.24900


              NET ATOMIC CHARGES AND DIPOLE CONTRIBUTIONS

  ATOM NO.   TYPE          CHARGE      No. of ELECS.   s-Pop       p-Pop       
    1          C          -0.002582        4.0026     1.15644     2.84614
    2          C          -0.050993        4.0510     1.14525     2.90574
    3          C          -0.012357        4.0124     1.13659     2.87577
    4          C          -0.052081        4.0521     1.11751     2.93457
    5          C          -0.118054        4.1181     1.20956     2.90850
    6          C          -0.126797        4.1268     1.20427     2.92252
    7          C          -0.159482        4.1595     1.20268     2.95681
    8          C          -0.141046        4.1410     1.19778     2.94326
    9          C          -0.112211        4.1122     1.17341     2.93880
   10          C          -0.107087        4.1071     1.17930     2.92779
   11          H           0.077662        0.9223     0.92234
   12          H           0.055359        0.9446     0.94464
   13          H           0.062927        0.9371     0.93707
   14          H           0.065075        0.9349     0.93492
   15          H           0.063075        0.9369     0.93692
   16          H           0.045810        0.9542     0.95419
   17          H           0.043435        0.9566     0.95657
   18          H           0.047014        0.9530     0.95299
   19          H           0.114741        0.8853     0.88526
   20          H           0.098826        0.9012     0.90117
   21          H           0.107614        0.8924     0.89239
   22          H           0.101152        0.8988     0.89885
 DIPOLE           X         Y         Z       TOTAL
 POINT-CHG.    -0.436    -0.204     0.043     0.483
 HYBRID         0.027     0.010    -0.008     0.030
 SUM           -0.409    -0.194     0.035     0.454


          ATOMIC ORBITAL ELECTRON POPULATIONS

     Atom    s        px        py        pz   
    1  C   1.15644   0.91412   0.93810   0.99392
    2  C   1.14525   0.93421   0.97556   0.99597
    3  C   1.13659   0.91791   0.95032   1.00754
    4  C   1.11751   0.95893   0.97082   1.00482
    5  C   1.20956   0.95245   0.96143   0.99461
    6  C   1.20427   0.95592   0.95743   1.00918
    7  C   1.20268   0.97883   0.95025   1.02773
    8  C   1.19778   0.96029   0.97683   1.00615
    9  C   1.17341   0.94461   0.96935   1.02485
   10  C   1.17930   0.97924   0.93716   1.01139
   11  H   0.92234
   12  H   0.94464
   13  H   0.93707
   14  H   0.93492
   15  H   0.93692
   16  H   0.95419
   17  H   0.95657
   18  H   0.95299
   19  H   0.88526
   20  H   0.90117
   21  H   0.89239
   22  H   0.89885
 *******************************************************************************
 ** Site#: 14399        For non-commercial use only    Version 18.184L 64BITS **
 *******************************************************************************
 ** Cite this program as: MOPAC2016, Version: 18.184L, James J. P. Stewart,   **
 ** Stewart Computational Chemistry, web: HTTP://OpenMOPAC.net. Days left:  18**
 *******************************************************************************
 **                                                                           **
 **                                MOPAC2016                                  **
 **                                                                           **
 *******************************************************************************

                              PM3 CALCULATION RESULTS

 *******************************************************************************
 *  CALCULATION DONE:                                Sat Jun 15 10:14:50 2019  *
 *  PM3        - The PM3 Hamiltonian to be used
 *  OLDGEO     - PREVIOUS GEOMETRY TO BE USED
 *  PRECISE    - CRITERIA TO BE INCREASED BY 100 TIMES
 *  NOSYM      - POINT-GROUP SYMMETRY SET TO C1
 *  THREADS=1  - MULTI-THREADING NOT USED
 *  T=         - A TIME OF 172800.0 SECONDS REQUESTED
 *  DUMP=N     - RESTART FILE WRITTEN EVERY  7200.000 SECONDS
 *  THERMO     - THERMODYNAMIC QUANTITIES TO BE CALCULATED
 *******************************************************************************
oldgeo thermo nosym precise THREADS=1  pm3
 InChI=1S/C10H12/c1-8-6-7-9-4-2-3-5-10(8)9/h2-4,6,10H,5,7H2,1H3

   ATOM   CHEMICAL          X               Y               Z
  NUMBER   SYMBOL      (ANGSTROMS)     (ANGSTROMS)     (ANGSTROMS)
 
     1       C         -0.03989918  *  -0.35071714  *  -0.43662668  *
     2       C          0.55348162  *  -1.41169910  *   0.47989894  *
     3       C         -0.29444672  *   2.08276054  *  -0.34864917  *
     4       C         -2.54173305  *  -0.95895211  *  -0.02054233  *
     5       C          0.69670639  *   0.96200111  *  -0.30142010  *
     6       C         -1.47463472  *   0.04368381  *  -0.17881663  *
     7       C         -1.61001670  *   1.38156394  *  -0.16283466  *
     8       C          2.04542443  *  -1.37037000  *   0.44113195  *
     9       C          2.01115406  *   1.00740618  *  -0.05475499  *
    10       C          2.72044937  *  -0.24296783  *   0.17161635  *
    11       H          0.04156050  *  -0.69893773  *  -1.49651365  *
    12       H          0.18596800  *  -2.41315614  *   0.18302715  *
    13       H          0.21989884  *  -1.26686086  *   1.52766932  *
    14       H         -0.26007877  *   2.62404045  *  -1.31307386  *
    15       H         -0.11261575  *   2.83262729  *   0.44301726  *
    16       H         -2.64808490  *  -1.55981720  *  -0.93384607  *
    17       H         -3.51255202  *  -0.49433512  *   0.19310113  *
    18       H         -2.30505086  *  -1.64644987  *   0.80360044  *
    19       H         -2.53796469  *   1.93755638  *  -0.03269241  *
    20       H          2.56946580  *  -2.30397405  *   0.66934527  *
    21       H          2.56209849  *   1.94794458  *   0.03377308  *
    22       H          3.81427609  *  -0.21867962  *   0.14996746  *
 


          CARTESIAN COORDINATES 

    NO.       ATOM           X           Y           Z

     1         C         -0.0399     -0.3507     -0.4366
     2         C          0.5535     -1.4117      0.4799
     3         C         -0.2944      2.0828     -0.3486
     4         C         -2.5417     -0.9590     -0.0205
     5         C          0.6967      0.9620     -0.3014
     6         C         -1.4746      0.0437     -0.1788
     7         C         -1.6100      1.3816     -0.1628
     8         C          2.0454     -1.3704      0.4411
     9         C          2.0112      1.0074     -0.0548
    10         C          2.7204     -0.2430      0.1716
    11         H          0.0416     -0.6989     -1.4965
    12         H          0.1860     -2.4132      0.1830
    13         H          0.2199     -1.2669      1.5277
    14         H         -0.2601      2.6240     -1.3131
    15         H         -0.1126      2.8326      0.4430
    16         H         -2.6481     -1.5598     -0.9338
    17         H         -3.5126     -0.4943      0.1931
    18         H         -2.3051     -1.6464      0.8036
    19         H         -2.5380      1.9376     -0.0327
    20         H          2.5695     -2.3040      0.6693
    21         H          2.5621      1.9479      0.0338
    22         H          3.8143     -0.2187      0.1500

  H: (PM3): J. J. P. STEWART, J. COMP. CHEM. 10, 209 (1989).
  C: (PM3): J. J. P. STEWART, J. COMP. CHEM. 10, 209 (1989).

           Empirical Formula: C10 H12  =    22 atoms



      MOLECULAR POINT GROUP   :   C1  


      RHF CALCULATION, NO. OF DOUBLY OCCUPIED LEVELS = 26



          HEAT OF FORMATION =      30.059809 KCALS/MOLE


          CARTESIAN COORDINATE DERIVATIVES

   NUMBER  ATOM         X            Y            Z

     1       C     -0.001720     0.002142     0.001203
     2       C      0.001165    -0.000721    -0.001465
     3       C      0.000603     0.001384    -0.000255
     4       C      0.018656    -0.001556     0.006319
     5       C     -0.004087    -0.001981    -0.003504
     6       C     -0.002992    -0.000981     0.005072
     7       C     -0.002445     0.004897    -0.000586
     8       C     -0.000736    -0.004067     0.006675
     9       C      0.008326    -0.003432    -0.008678
    10       C     -0.013196     0.002781    -0.003809
    11       H      0.000416     0.000627    -0.004774
    12       H     -0.002286    -0.000462     0.005511
    13       H      0.000203    -0.001832     0.002611
    14       H      0.003931    -0.004282     0.002598
    15       H      0.001271     0.000707    -0.009559
    16       H      0.001704     0.018265     0.005595
    17       H     -0.001878    -0.009493    -0.011718
    18       H     -0.009709    -0.013281    -0.006762
    19       H      0.003667     0.001965     0.004565
    20       H      0.000358     0.008888     0.002367
    21       H     -0.000863     0.002839     0.004241
    22       H     -0.000389    -0.002408     0.004352
 


          GRADIENT NORM =   0.04703


          TIME FOR SCF CALCULATION =    0.00

          TIME FOR DERIVATIVES     =    0.00

          MOLECULAR WEIGHT =  132.20



          ROTATIONAL CONSTANTS IN CM(-1)

          A =    0.07957511   B =    0.04147689   C =    0.02834531



           PRINCIPAL MOMENTS OF INERTIA IN UNITS OF 10**(-40)*GRAM-CM**2

          A =      351.7780   B =      674.9005   C =      987.5630


          ORIENTATION OF MOLECULE IN FORCE CALCULATION

    NO.       ATOM         X         Y         Z

     1          C      -0.0142   -0.6328    0.0573
     2          C       1.5083   -0.6328    0.0573
     3          C      -1.7563    1.0874    0.0573
     4          C      -0.3149   -1.4063    2.5299
     5          C      -0.5605    0.5688   -0.6787
     6          C      -0.6930   -0.5369    1.4028
     7          C      -1.6685    0.3886    1.3843
     8          C       2.0376   -0.2610   -1.2883
     9          C       0.0686    1.0883   -1.7394
    10          C       1.3528    0.5266   -2.1309
    11          H      -0.3778   -1.5599   -0.4521
    12          H       1.8842   -1.6295    0.3595
    13          H       1.9081    0.0799    0.8071
    14          H      -2.7007    0.8423   -0.4645
    15          H      -1.7314    2.1870    0.1691
    16          H      -0.4875   -2.4620    2.2804
    17          H      -0.8885   -1.1753    3.4363
    18          H       0.7526   -1.2906    2.7642
    19          H      -2.3393    0.6397    2.2053
    20          H       3.0299   -0.6427   -1.5492
    21          H      -0.3188    1.9494   -2.2910
    22          H       1.7491    0.7994   -3.1138


    FIRST DERIVATIVES WILL BE USED IN THE CALCULATION OF SECOND DERIVATIVES

          ESTIMATED TIME TO COMPLETE CALCULATION =        2.06 SECONDS

    FOR POINT-GROUP C1   THERE ARE   1 UNIQUE SYMMETRY FUNCTIONS.

 STEP:   1 TIME =     0.02 SECS, INTEGRAL =      0.02 TIME LEFT: 172799.97
 STEP:   2 TIME =     0.02 SECS, INTEGRAL =      0.04 TIME LEFT: 172799.95
 STEP:   3 TIME =     0.02 SECS, INTEGRAL =      0.07 TIME LEFT: 172799.93
 STEP:   4 TIME =     0.02 SECS, INTEGRAL =      0.09 TIME LEFT: 172799.91
 STEP:   5 TIME =     0.02 SECS, INTEGRAL =      0.11 TIME LEFT: 172799.88
 STEP:   6 TIME =     0.02 SECS, INTEGRAL =      0.13 TIME LEFT: 172799.86
 STEP:   7 TIME =     0.02 SECS, INTEGRAL =      0.15 TIME LEFT: 172799.84
 STEP:   8 TIME =     0.02 SECS, INTEGRAL =      0.17 TIME LEFT: 172799.82
 STEP:   9 TIME =     0.02 SECS, INTEGRAL =      0.19 TIME LEFT: 172799.80
 STEP:  10 TIME =     0.02 SECS, INTEGRAL =      0.21 TIME LEFT: 172799.78
 STEP:  11 TIME =     0.02 SECS, INTEGRAL =      0.23 TIME LEFT: 172799.76
 STEP:  12 TIME =     0.02 SECS, INTEGRAL =      0.25 TIME LEFT: 172799.74
 STEP:  13 TIME =     0.02 SECS, INTEGRAL =      0.28 TIME LEFT: 172799.71
 STEP:  14 TIME =     0.02 SECS, INTEGRAL =      0.30 TIME LEFT: 172799.70
 STEP:  15 TIME =     0.02 SECS, INTEGRAL =      0.32 TIME LEFT: 172799.67
 STEP:  16 TIME =     0.02 SECS, INTEGRAL =      0.34 TIME LEFT: 172799.65
 STEP:  17 TIME =     0.02 SECS, INTEGRAL =      0.36 TIME LEFT: 172799.63
 STEP:  18 TIME =     0.02 SECS, INTEGRAL =      0.38 TIME LEFT: 172799.61
 STEP:  19 TIME =     0.02 SECS, INTEGRAL =      0.40 TIME LEFT: 172799.59
 STEP:  20 TIME =     0.02 SECS, INTEGRAL =      0.43 TIME LEFT: 172799.57
 STEP:  21 TIME =     0.02 SECS, INTEGRAL =      0.45 TIME LEFT: 172799.55
 STEP:  22 TIME =     0.02 SECS, INTEGRAL =      0.46 TIME LEFT: 172799.53
 STEP:  23 TIME =     0.02 SECS, INTEGRAL =      0.48 TIME LEFT: 172799.51
 STEP:  24 TIME =     0.02 SECS, INTEGRAL =      0.50 TIME LEFT: 172799.49
 STEP:  25 TIME =     0.02 SECS, INTEGRAL =      0.53 TIME LEFT: 172799.46
 STEP:  26 TIME =     0.02 SECS, INTEGRAL =      0.55 TIME LEFT: 172799.45
 STEP:  27 TIME =     0.02 SECS, INTEGRAL =      0.57 TIME LEFT: 172799.42
 STEP:  28 TIME =     0.02 SECS, INTEGRAL =      0.59 TIME LEFT: 172799.40
 STEP:  29 TIME =     0.02 SECS, INTEGRAL =      0.61 TIME LEFT: 172799.38
 STEP:  30 TIME =     0.02 SECS, INTEGRAL =      0.63 TIME LEFT: 172799.36
 STEP:  31 TIME =     0.02 SECS, INTEGRAL =      0.66 TIME LEFT: 172799.34
 STEP:  32 TIME =     0.02 SECS, INTEGRAL =      0.68 TIME LEFT: 172799.32
 STEP:  33 TIME =     0.02 SECS, INTEGRAL =      0.70 TIME LEFT: 172799.29
 STEP:  34 TIME =     0.02 SECS, INTEGRAL =      0.72 TIME LEFT: 172799.27
 STEP:  35 TIME =     0.02 SECS, INTEGRAL =      0.74 TIME LEFT: 172799.25
 STEP:  36 TIME =     0.02 SECS, INTEGRAL =      0.76 TIME LEFT: 172799.23
 STEP:  37 TIME =     0.02 SECS, INTEGRAL =      0.78 TIME LEFT: 172799.21
 STEP:  38 TIME =     0.02 SECS, INTEGRAL =      0.80 TIME LEFT: 172799.19
 STEP:  39 TIME =     0.02 SECS, INTEGRAL =      0.82 TIME LEFT: 172799.17
 STEP:  40 TIME =     0.02 SECS, INTEGRAL =      0.84 TIME LEFT: 172799.15
 STEP:  41 TIME =     0.02 SECS, INTEGRAL =      0.86 TIME LEFT: 172799.13
 STEP:  42 TIME =     0.02 SECS, INTEGRAL =      0.89 TIME LEFT: 172799.11
 STEP:  43 TIME =     0.02 SECS, INTEGRAL =      0.91 TIME LEFT: 172799.09
 STEP:  44 TIME =     0.02 SECS, INTEGRAL =      0.93 TIME LEFT: 172799.07
 STEP:  45 TIME =     0.02 SECS, INTEGRAL =      0.95 TIME LEFT: 172799.05
 STEP:  46 TIME =     0.02 SECS, INTEGRAL =      0.96 TIME LEFT: 172799.03
 STEP:  47 TIME =     0.02 SECS, INTEGRAL =      0.98 TIME LEFT: 172799.01
 STEP:  48 TIME =     0.02 SECS, INTEGRAL =      1.00 TIME LEFT: 172798.99
 STEP:  49 TIME =     0.02 SECS, INTEGRAL =      1.02 TIME LEFT: 172798.97
 STEP:  50 TIME =     0.02 SECS, INTEGRAL =      1.04 TIME LEFT: 172798.95
 STEP:  51 TIME =     0.02 SECS, INTEGRAL =      1.06 TIME LEFT: 172798.93
 STEP:  52 TIME =     0.02 SECS, INTEGRAL =      1.09 TIME LEFT: 172798.91
 STEP:  53 TIME =     0.02 SECS, INTEGRAL =      1.11 TIME LEFT: 172798.89
 STEP:  54 TIME =     0.02 SECS, INTEGRAL =      1.12 TIME LEFT: 172798.87
 STEP:  55 TIME =     0.02 SECS, INTEGRAL =      1.14 TIME LEFT: 172798.85
 STEP:  56 TIME =     0.02 SECS, INTEGRAL =      1.16 TIME LEFT: 172798.83
 STEP:  57 TIME =     0.02 SECS, INTEGRAL =      1.18 TIME LEFT: 172798.81
 STEP:  58 TIME =     0.02 SECS, INTEGRAL =      1.20 TIME LEFT: 172798.79
 STEP:  59 TIME =     0.02 SECS, INTEGRAL =      1.23 TIME LEFT: 172798.77
 STEP:  60 TIME =     0.02 SECS, INTEGRAL =      1.25 TIME LEFT: 172798.75
 STEP:  61 TIME =     0.02 SECS, INTEGRAL =      1.27 TIME LEFT: 172798.72
 STEP:  62 TIME =     0.02 SECS, INTEGRAL =      1.29 TIME LEFT: 172798.70
 STEP:  63 TIME =     0.02 SECS, INTEGRAL =      1.31 TIME LEFT: 172798.68
 STEP:  64 TIME =     0.02 SECS, INTEGRAL =      1.33 TIME LEFT: 172798.66
 STEP:  65 TIME =     0.02 SECS, INTEGRAL =      1.35 TIME LEFT: 172798.64
 STEP:  66 TIME =     0.02 SECS, INTEGRAL =      1.37 TIME LEFT: 172798.62

(To convert to Hartree/Bohr^2, multiply by (10^(-21) x N x a0^2)/(4.184 x 627.51) =  0.0642)


           FORCE MATRIX IN MILLIDYNES/ANGSTROM


                  C  1       C  2       C  3       C  4       C  5       C  6
 ------------------------------------------------------------------------------
     C    1  15.008387
     C    2   4.075896  14.632666
     C    3   0.742691   0.044288  14.948293
     C    4   0.489704   0.037320   0.127040  14.852608
     C    5   4.152904   0.648169   4.601993   0.048344  19.067640
     C    6   4.177552   0.543230   1.145706   5.451413   1.013185  18.710477
     C    7   1.142328   0.041521   4.503367   0.722486   1.068812  10.117213
     C    8   0.701761   4.776457   0.014828   0.002723   0.154453   0.052056
     C    9   0.769519   0.113180   0.641846   0.008674  10.228096   0.053609
     C   10   0.119635   0.834585   0.132960   0.001460   1.183902   0.010349
     H   11   4.161047   0.433095   0.019876   0.009746   0.402703   0.405555
     H   12   0.439965   4.476535   0.007222   0.005160   0.048892   0.010743
     H   13   0.451900   4.409908   0.004139   0.007089   0.016769   0.018033
     H   14   0.023296   0.003548   4.468374   0.018477   0.427657   0.032435
     H   15   0.036843   0.003451   4.512112   0.017067   0.441205   0.037658
     H   16   0.011880   0.003062   0.017509   4.701811   0.001959   0.448524
     H   17   0.041969   0.002896   0.003002   4.755072   0.007679   0.471945
     H   18   0.013353   0.009896   0.017121   4.683523   0.002719   0.450923
     H   19   0.105351   0.013351   0.406647   0.054600   0.043922   0.457979
     H   20   0.043354   0.425510   0.008122   0.000610   0.015591   0.007648
     H   21   0.109720   0.009191   0.063997   0.001785   0.461101   0.010181
     H   22   0.005119   0.117166   0.008709   0.000424   0.047419   0.001240


                  C  7       C  8       C  9       C 10       H 11       H 12
 ------------------------------------------------------------------------------
     C    7  18.182845
     C    8   0.008536  17.836131
     C    9   0.048439   1.107095  18.406420
     C   10   0.011425  10.183961   5.510569  18.241501
     H   11   0.033489   0.013748   0.027562   0.016813   4.619486
     H   12   0.001438   0.440195   0.009658   0.047634   0.035398   5.074027
     H   13   0.002583   0.410289   0.018509   0.032721   0.044710   0.569164
     H   14   0.427855   0.002119   0.022959   0.016044   0.001678   0.000373
     H   15   0.431184   0.001714   0.017877   0.011640   0.001443   0.001097
     H   16   0.030014   0.000805   0.000757   0.000529   0.003565   0.002060
     H   17   0.027424   0.000365   0.001955   0.000632   0.001130   0.000458
     H   18   0.034387   0.001114   0.000980   0.000986   0.001159   0.007086
     H   19   5.021125   0.002339   0.006487   0.001596   0.013414   0.000342
     H   20   0.002088   4.859214   0.119632   0.443079   0.003876   0.034839
     H   21   0.002860   0.045915   4.890211   0.433607   0.013518   0.001227
     H   22   0.001196   0.444954   0.430418   4.870062   0.000754   0.011702


                  H 13       H 14       H 15       H 16       H 17       H 18
 ------------------------------------------------------------------------------
     H   13   5.014602
     H   14   0.000442   5.072605
     H   15   0.000652   0.555292   5.111823
     H   16   0.000392   0.003148   0.002045   5.410958
     H   17   0.000507   0.000523   0.000492   0.557032   5.455688
     H   18   0.008569   0.002160   0.003013   0.571784   0.550931   5.388946
     H   19   0.000783   0.010200   0.014731   0.006868   0.013068   0.006474
     H   20   0.014339   0.000965   0.000848   0.000206   0.000200   0.000411
     H   21   0.000763   0.008770   0.007927   0.000223   0.000397   0.000157
     H   22   0.015861   0.000927   0.000815   0.000139   0.000114   0.000292


                  H 19       H 20       H 21       H 22
 ------------------------------------------------------
     H   19   5.420117
     H   20   0.000611   5.233239
     H   21   0.000818   0.007801   5.263305
     H   22   0.000450   0.063805   0.027536   5.238674


          HEAT OF FORMATION =      30.059809 KCALS/MOLE

          ZERO POINT ENERGY     119.086 KCAL/MOL


           NORMAL COORDINATE ANALYSIS (Total motion = 1 Angstrom)


   Root No.       1         2         3         4         5         6         7         8

                 1 A       2 A       3 A       4 A       5 A       6 A       7 A       8 A   

                 104.9     124.3     189.8     231.7     249.9     300.9     412.3     452.6
  
           1    0.0149    0.0031   -0.0109   -0.0248    0.0049    0.0144   -0.0039    0.0046
           2    0.0113    0.0067   -0.0173   -0.0011   -0.0018    0.0398    0.0081   -0.0219
           3    0.0092    0.0029   -0.0057   -0.0170    0.0010    0.0217   -0.0251    0.0109
           4    0.0152    0.0028   -0.0100   -0.0261    0.0053    0.0133   -0.0047    0.0133
           5    0.0499    0.0170   -0.0201    0.0082   -0.0148   -0.0270   -0.0032   -0.0057
           6    0.0189    0.0079   -0.0040    0.0259   -0.0104   -0.0007    0.0023   -0.0002
           7    0.0161    0.0090    0.0091    0.0005    0.0266   -0.0183   -0.0115    0.0064
           8    0.0156    0.0133    0.0052    0.0208    0.0279   -0.0030   -0.0081    0.0041
           9    0.0122    0.0085    0.0008    0.0073    0.0178   -0.0033    0.0114   -0.0149
          10   -0.0303   -0.0025   -0.0122    0.0609   -0.0041    0.0101   -0.0110    0.0044
          11   -0.0379   -0.0115   -0.0122    0.0003    0.0198   -0.0151    0.0080    0.0029
          12   -0.0135   -0.0079   -0.0049   -0.0357    0.0224   -0.0220    0.0123   -0.0164
          13    0.0027    0.0023   -0.0149   -0.0148    0.0075    0.0080    0.0060    0.0033
          14    0.0013    0.0061   -0.0261    0.0064    0.0018    0.0284    0.0364   -0.0274
          15    0.0015    0.0029   -0.0159   -0.0099    0.0055    0.0142    0.0060    0.0099
          16    0.0007   -0.0033    0.0074   -0.0144   -0.0107    0.0056    0.0043   -0.0139
          17   -0.0039   -0.0025    0.0065   -0.0078   -0.0174    0.0296   -0.0257    0.0125
          18    0.0022   -0.0006    0.0028   -0.0158   -0.0046    0.0151   -0.0201    0.0014
          19    0.0075   -0.0017    0.0354   -0.0076   -0.0272   -0.0235    0.0214   -0.0125
          20    0.0032   -0.0010    0.0359   -0.0015   -0.0348   -0.0009   -0.0080    0.0156
          21    0.0061    0.0020    0.0149   -0.0006   -0.0137    0.0011    0.0083   -0.0104
          22    0.0028   -0.0028    0.0133   -0.0001    0.0081    0.0079    0.0123    0.0080
          23    0.0092   -0.0061    0.0408   -0.0037    0.0216    0.0008    0.0185    0.0319
          24    0.0018   -0.0010    0.0233    0.0361   -0.0001    0.0061    0.0173    0.0050
          25   -0.0123   -0.0019   -0.0236    0.0014   -0.0127   -0.0090    0.0067    0.0089
          26   -0.0213   -0.0060   -0.0304   -0.0086   -0.0165   -0.0135    0.0125    0.0138
          27   -0.0187   -0.0057   -0.0231   -0.0081   -0.0157   -0.0162   -0.0057    0.0385
          28   -0.0140   -0.0070    0.0053    0.0057   -0.0034   -0.0030   -0.0121   -0.0299
          29   -0.0265   -0.0172    0.0174   -0.0200    0.0026   -0.0134   -0.0336   -0.0258
          30   -0.0183   -0.0081    0.0081    0.0160   -0.0086    0.0014   -0.0117   -0.0170
          31    0.0418    0.0114   -0.0171   -0.0152   -0.0007   -0.0140   -0.0069    0.0144
          32    0.0028    0.0055   -0.0224    0.0023    0.0045    0.0483    0.0321   -0.0376
          33    0.0057   -0.0011    0.0091   -0.0289   -0.0077    0.0222   -0.0661    0.0338
          34    0.0407    0.0090   -0.0161   -0.0275   -0.0035   -0.0330   -0.0222    0.0228
          35    0.0723    0.0260   -0.0374    0.0146   -0.0306   -0.0633   -0.0194   -0.0191
          36    0.0607    0.0293   -0.0525    0.0492   -0.0505   -0.0595   -0.0277   -0.0542
          37   -0.0065   -0.0039   -0.0119   -0.0525    0.0186    0.0667   -0.0107    0.0144
          38    0.0918    0.0355   -0.0611    0.0213   -0.0481   -0.0884   -0.0359   -0.0421
          39   -0.0096   -0.0062    0.0362    0.0280    0.0138    0.0283    0.0359    0.0326
          40    0.0085    0.0057   -0.0092   -0.0099    0.0167   -0.0000    0.0020    0.0091
          41    0.0390    0.0330    0.0029    0.0590    0.1267   -0.0379   -0.0740    0.0197
          42    0.0152    0.0054    0.0351    0.0091   -0.0087   -0.0207    0.0158   -0.0269
          43    0.0386    0.0249    0.0262    0.0332    0.1032   -0.0591   -0.0822    0.0304
          44    0.0142    0.0118    0.0080    0.0180    0.0205   -0.0022   -0.0069    0.0056
          45    0.0217    0.0210   -0.0303    0.0300    0.0840   -0.0059    0.0036   -0.0305
          46   -0.1267    0.2023    0.0044    0.0605   -0.0004   -0.0036   -0.0061    0.0088
          47   -0.0224   -0.0245   -0.0083   -0.0031    0.0091   -0.0017   -0.0028    0.0064
          48   -0.0139   -0.0934   -0.0331   -0.0209    0.0669   -0.0718    0.0574   -0.0358
          49    0.0178   -0.1483   -0.0383    0.1186   -0.0003    0.0227   -0.0303    0.0221
          50    0.0039   -0.1601   -0.0377   -0.0033    0.0538   -0.0528    0.0480   -0.0196
          51    0.0062   -0.0624   -0.0150    0.0008    0.0166   -0.0052   -0.0089   -0.0005
          52   -0.0133   -0.0492   -0.0195    0.0757   -0.0036    0.0144   -0.0168    0.0092
          53   -0.1283    0.1503   -0.0075    0.0159    0.0353   -0.0385    0.0204    0.0070
          54   -0.0477    0.1264    0.0258   -0.1070    0.0128   -0.0302    0.0316   -0.0389
          55    0.0030   -0.0076    0.0644    0.0027   -0.0581   -0.0538    0.0550   -0.0191
          56   -0.0028   -0.0087    0.0684    0.0015   -0.0697   -0.0292    0.0026    0.0262
          57    0.0043   -0.0005    0.0287    0.0066   -0.0280   -0.0154    0.0327   -0.0192
          58    0.0042   -0.0058    0.0434    0.0070    0.0248    0.0180    0.0296    0.0227
          59    0.0102   -0.0133    0.0983   -0.0004    0.0568    0.0245    0.0496    0.0685
          60    0.0061   -0.0016    0.0525    0.0587    0.0111    0.0087    0.0374    0.0070
          61   -0.0193    0.0000   -0.0425    0.0200   -0.0292   -0.0267    0.0321    0.0421
          62   -0.0337   -0.0087   -0.0464   -0.0075   -0.0317   -0.0492    0.0174    0.0733
          63   -0.0330   -0.0111   -0.0353   -0.0193   -0.0279   -0.0591   -0.0155    0.1081
          64   -0.0283   -0.0140    0.0275    0.0183    0.0008    0.0013   -0.0334   -0.0875
          65   -0.0568   -0.0337    0.0454   -0.0349    0.0119   -0.0164   -0.0891   -0.0866
          66   -0.0324   -0.0155    0.0246    0.0170   -0.0045    0.0020   -0.0357   -0.0566


   Root No.       9        10        11        12        13        14        15        16

                 9 A      10 A      11 A      12 A      13 A      14 A      15 A      16 A   

                 495.7     503.7     530.7     646.4     683.7     765.8     791.3     815.0
  
           1    0.0371    0.0041   -0.0143   -0.0082    0.0074    0.0076   -0.0093    0.0017
           2    0.0022   -0.0089    0.0065   -0.0344    0.0044    0.0096   -0.0074    0.0024
           3   -0.0151    0.0201   -0.0018   -0.0152    0.0005    0.0029   -0.0149    0.0013
           4    0.0370   -0.0053   -0.0304   -0.0186    0.0049    0.0105    0.0070   -0.0005
           5   -0.0207   -0.0082   -0.0000   -0.0074   -0.0002   -0.0149   -0.0113   -0.0054
           6    0.0362    0.0281    0.0104   -0.0051    0.0197   -0.0019   -0.0224    0.0005
           7   -0.0038    0.0368    0.0152    0.0139    0.0233    0.0106    0.0258   -0.0186
           8    0.0084   -0.0063   -0.0093   -0.0032   -0.0415   -0.0026   -0.0211   -0.0296
           9   -0.0045   -0.0293   -0.0131    0.0096    0.0382    0.0039    0.0014   -0.0108
          10   -0.0084    0.0113    0.0080   -0.0053   -0.0159   -0.0021   -0.0029    0.0035
          11    0.0181   -0.0141   -0.0162    0.0235    0.0288   -0.0026   -0.0017    0.0078
          12   -0.0200    0.0101    0.0239   -0.0253   -0.0320    0.0026    0.0092    0.0002
          13   -0.0185    0.0541   -0.0026    0.0337    0.0110   -0.0027    0.0080    0.0113
          14   -0.0090    0.0140   -0.0024    0.0097   -0.0192    0.0018    0.0036    0.0079
          15   -0.0083    0.0152   -0.0351    0.0393   -0.0272   -0.0161   -0.0181    0.0077
          16    0.0304   -0.0312    0.0499    0.0294   -0.0163   -0.0096   -0.0144    0.0028
          17    0.0047   -0.0311    0.0239    0.0299    0.0139   -0.0022    0.0081    0.0056
          18   -0.0352    0.0060    0.0291   -0.0116   -0.0136    0.0028    0.0148    0.0027
          19    0.0216    0.0095    0.0081   -0.0038   -0.0227   -0.0038   -0.0160   -0.0157
          20   -0.0054    0.0130   -0.0233   -0.0076   -0.0039    0.0032    0.0060   -0.0157
          21   -0.0224   -0.0151   -0.0148   -0.0009    0.0516    0.0073    0.0172   -0.0033
          22   -0.0231   -0.0508   -0.0260   -0.0074   -0.0232   -0.0072    0.0470   -0.0059
          23   -0.0183    0.0094    0.0108    0.0019    0.0070   -0.0213   -0.0030   -0.0033
          24    0.0201    0.0105    0.0203    0.0043    0.0061   -0.0058   -0.0011   -0.0016
          25   -0.0362   -0.0148    0.0090   -0.0066    0.0119   -0.0094   -0.0213    0.0067
          26    0.0203    0.0164    0.0293   -0.0140    0.0107    0.0142    0.0391    0.0091
          27    0.0027   -0.0240   -0.0166    0.0098   -0.0231   -0.0158   -0.0189    0.0038
          28   -0.0355   -0.0187   -0.0054   -0.0080    0.0152   -0.0201   -0.0156   -0.0023
          29    0.0014    0.0197   -0.0051   -0.0012    0.0099   -0.0222   -0.0026   -0.0043
          30    0.0456   -0.0095   -0.0118    0.0010   -0.0248    0.0007    0.0480   -0.0068
          31    0.0645    0.0038   -0.0426   -0.0432    0.0263    0.0153   -0.0428   -0.0056
          32   -0.0017    0.0101   -0.0030   -0.0231   -0.0143    0.0026   -0.0003    0.0164
          33   -0.0289   -0.0146    0.0361   -0.0087    0.0199    0.0104   -0.0015   -0.0188
          34    0.0210    0.0097   -0.0397    0.0329   -0.0071    0.0240    0.0337    0.0075
          35   -0.0306   -0.0092   -0.0090    0.0326   -0.0199    0.0133    0.0204    0.0044
          36    0.0265    0.0070   -0.0053    0.0561   -0.0253    0.0702    0.0407    0.0215
          37    0.0554    0.0027   -0.0364   -0.0854    0.0292    0.0215   -0.0514   -0.0032
          38   -0.0385   -0.0156   -0.0187    0.0609   -0.0419    0.0488    0.0477    0.0151
          39    0.0423    0.0308    0.0318   -0.0315    0.0451   -0.0658   -0.0462   -0.0167
          40   -0.0217    0.0698    0.0050    0.0490    0.0140    0.0135    0.0302   -0.0260
          41    0.0490   -0.0670    0.0314   -0.0512   -0.0462   -0.0314   -0.0184    0.1216
          42    0.0103   -0.0634   -0.0121   -0.0330    0.0593    0.0107   -0.0068   -0.0603
          43    0.0358   -0.0179    0.0464   -0.0389    0.0379   -0.0107    0.0428    0.0956
          44    0.0072   -0.0025   -0.0126   -0.0029   -0.0430   -0.0013   -0.0211   -0.0399
          45    0.0095   -0.0636    0.0196    0.0062    0.0362   -0.0119   -0.0053    0.0974
          46   -0.0227    0.0386   -0.0271   -0.0359   -0.0148    0.0102    0.0039   -0.0271
          47    0.0179   -0.0249   -0.0003    0.0375    0.0300   -0.0070    0.0021    0.0248
          48   -0.0083    0.0379   -0.0231   -0.0645   -0.0348    0.0137   -0.0127   -0.0558
          49   -0.0370    0.0395   -0.0200   -0.0315   -0.0130    0.0106    0.0191   -0.0144
          50    0.0465   -0.0147   -0.0306    0.0209    0.0323   -0.0046   -0.0327   -0.0172
          51   -0.0447    0.0275    0.0103   -0.0413   -0.0313    0.0111    0.0305   -0.0050
          52   -0.0150    0.0174    0.0023   -0.0100   -0.0148    0.0004    0.0024    0.0008
          53    0.0024    0.0246   -0.0735   -0.0164    0.0418    0.0147    0.0027   -0.0395
          54    0.0156   -0.0318    0.0742    0.0106   -0.0455   -0.0158   -0.0155    0.0302
          55    0.0306    0.0222   -0.0502   -0.0378   -0.0188   -0.0243   -0.0405    0.1614
          56   -0.0293    0.0727   -0.0692   -0.0666   -0.0172   -0.0051    0.0310    0.1769
          57   -0.0078   -0.0236   -0.0486   -0.0111    0.0591   -0.0068   -0.0100    0.0826
          58   -0.0485   -0.0610   -0.0245    0.0165   -0.0455    0.0940    0.0231    0.0235
          59   -0.0430   -0.0077    0.0026    0.0468   -0.0454    0.1850   -0.0251    0.0531
          60   -0.0412   -0.0046    0.0377    0.0318   -0.0042    0.0771   -0.0603    0.0281
          61   -0.0380   -0.0710    0.0446   -0.0473    0.0261    0.0757   -0.0390   -0.0215
          62    0.0147   -0.0211    0.0642   -0.0408    0.0351    0.0976   -0.0116   -0.0261
          63   -0.0035   -0.0423    0.0129   -0.0024    0.0049    0.0537   -0.0863   -0.0312
          64   -0.0321    0.0063    0.0038    0.0052    0.0327    0.0815   -0.0818    0.0120
          65   -0.0129    0.0090   -0.0505    0.0352   -0.0270    0.1281   -0.1096    0.0137
          66    0.0427   -0.0022   -0.0204    0.0169   -0.0282    0.0828   -0.0082    0.0039


   Root No.      17        18        19        20        21        22        23        24

                17 A      18 A      19 A      20 A      21 A      22 A      23 A      24 A   

                 856.1     894.5     941.6     953.7     965.9     979.5    1012.0    1021.9
  
           1    0.0032   -0.0045    0.0028   -0.0037    0.0014   -0.0068    0.0020   -0.0001
           2   -0.0419   -0.0067    0.0157   -0.0194    0.0078   -0.0033    0.0199    0.0055
           3   -0.0030   -0.0112    0.0294    0.0152   -0.0049   -0.0021    0.0122   -0.0198
           4    0.0318    0.0052   -0.0101   -0.0055    0.0005    0.0092   -0.0013    0.0061
           5   -0.0390    0.0108   -0.0172    0.0271   -0.0064   -0.0025   -0.0202   -0.0064
           6    0.0162    0.0017   -0.0116   -0.0096    0.0039    0.0062    0.0025    0.0141
           7   -0.0356    0.0109    0.0017    0.0087    0.0153   -0.0024    0.0144    0.0123
           8    0.0273    0.0103    0.0048    0.0192    0.0192    0.0035    0.0066    0.0128
           9    0.0106    0.0051    0.0002    0.0104    0.0076   -0.0042    0.0044    0.0060
          10    0.0018    0.0067   -0.0029   -0.0010    0.0184    0.0303   -0.0016   -0.0175
          11   -0.0039    0.0046   -0.0060    0.0064    0.0083   -0.0213    0.0122   -0.0194
          12    0.0144    0.0092   -0.0211   -0.0047    0.0078   -0.0141    0.0002    0.0012
          13   -0.0045    0.0022    0.0006   -0.0045   -0.0103    0.0004   -0.0077   -0.0148
          14    0.0171    0.0049    0.0003   -0.0002   -0.0133   -0.0002   -0.0059   -0.0132
          15   -0.0097    0.0033   -0.0003   -0.0113   -0.0078   -0.0026   -0.0075   -0.0120
          16   -0.0042   -0.0007    0.0073    0.0014   -0.0085   -0.0054   -0.0020    0.0207
          17    0.0063    0.0038   -0.0039   -0.0036   -0.0063    0.0056   -0.0106    0.0255
          18    0.0073    0.0038   -0.0051   -0.0020   -0.0040   -0.0034   -0.0020    0.0081
          19   -0.0097   -0.0168    0.0035   -0.0040   -0.0166   -0.0209   -0.0012   -0.0173
          20    0.0042   -0.0106   -0.0126   -0.0164   -0.0088    0.0096   -0.0188   -0.0112
          21   -0.0007   -0.0036   -0.0093   -0.0131    0.0002    0.0193   -0.0154    0.0021
          22   -0.0100    0.0146    0.0002    0.0003   -0.0105    0.0069    0.0130    0.0004
          23    0.0133    0.0061    0.0053   -0.0117   -0.0106    0.0062    0.0242   -0.0005
          24    0.0043    0.0016    0.0060   -0.0017   -0.0053   -0.0009    0.0067   -0.0050
          25    0.0072   -0.0224   -0.0101    0.0069    0.0040    0.0050    0.0102    0.0091
          26    0.0112   -0.0223   -0.0117    0.0258   -0.0027    0.0087    0.0048    0.0008
          27   -0.0228   -0.0218   -0.0119    0.0016    0.0072    0.0021    0.0129    0.0140
          28    0.0155   -0.0036    0.0091   -0.0068    0.0115   -0.0076   -0.0127   -0.0003
          29    0.0111   -0.0030    0.0164   -0.0134    0.0193   -0.0118   -0.0171    0.0010
          30   -0.0230    0.0085    0.0094    0.0107    0.0012   -0.0068   -0.0151   -0.0106
          31    0.0091    0.0095   -0.0575    0.0351    0.0421   -0.0180   -0.0776    0.0010
          32   -0.0593   -0.0029   -0.0143   -0.1080    0.0171   -0.0127    0.0417    0.0183
          33    0.0301   -0.0267    0.1258    0.1493   -0.0527    0.0242    0.0288   -0.0433
          34    0.1474   -0.0053    0.0020   -0.0053   -0.0346    0.0360    0.0058   -0.0216
          35    0.0199   -0.0042    0.0083   -0.0028   -0.0078    0.0047    0.0039   -0.0070
          36    0.0636   -0.0332    0.0525   -0.1035    0.0445   -0.0044    0.0688    0.0485
          37   -0.0445   -0.0038   -0.0025    0.0369    0.0434   -0.0254   -0.0496   -0.0209
          38    0.0350   -0.0245    0.0457   -0.0336    0.0082   -0.0070    0.0255   -0.0110
          39   -0.0107    0.0385   -0.0731    0.0229   -0.0329    0.0289   -0.0129    0.0339
          40   -0.0469    0.0588    0.0162    0.0293    0.0295    0.0059   -0.0271    0.0750
          41    0.0190   -0.0384   -0.0089   -0.0505   -0.0609    0.0100   -0.0483   -0.0346
          42    0.0326   -0.0615   -0.0202    0.0023    0.0157   -0.0226    0.1037   -0.0874
          43   -0.0827   -0.0592   -0.0281   -0.0839   -0.0403    0.0169    0.0116   -0.0584
          44    0.0260    0.0093    0.0028    0.0183    0.0258    0.0074    0.0134    0.0115
          45    0.0409    0.0208    0.0236    0.0267   -0.0615   -0.0448   -0.0751    0.0234
          46    0.0016   -0.0216    0.0166   -0.0086   -0.0398   -0.0055   -0.0177    0.0516
          47    0.0039    0.0217   -0.0288    0.0124    0.0318   -0.0461    0.0283   -0.0513
          48   -0.0229   -0.0488    0.0693   -0.0256   -0.0591    0.1174   -0.0581    0.0948
          49    0.0217   -0.0034   -0.0240   -0.0038   -0.0273   -0.0803    0.0026    0.0346
          50   -0.0467   -0.0295    0.0726   -0.0006   -0.0098    0.1233   -0.0203    0.0006
          51    0.0372    0.0114   -0.0536   -0.0054   -0.0157   -0.1158    0.0098    0.0295
          52    0.0069    0.0055   -0.0093   -0.0004    0.0091   -0.0001    0.0019   -0.0092
          53   -0.0168   -0.0443    0.0409   -0.0002   -0.0838   -0.0661   -0.0068    0.0766
          54   -0.0003    0.0350   -0.0146   -0.0066    0.0873    0.1416   -0.0098   -0.0725
          55    0.0023    0.0486    0.0655    0.0637    0.0144   -0.0374    0.0473    0.0427
          56   -0.0116    0.0710    0.0227    0.0250    0.0331    0.0330    0.0226    0.0491
          57    0.0157    0.0252    0.0298    0.0292    0.0131    0.0004    0.0103    0.0331
          58   -0.0237   -0.0376   -0.0009    0.0176    0.0330   -0.0138   -0.0391    0.0042
          59    0.0002   -0.0889   -0.0017    0.0120    0.0704   -0.0204   -0.0636    0.0170
          60   -0.0316   -0.0586    0.0124    0.0270    0.0425   -0.0414   -0.0609   -0.0143
          61    0.0334    0.0892    0.0396   -0.0200   -0.0341   -0.0094   -0.0264   -0.0513
          62    0.0116    0.1102    0.0553   -0.0523   -0.0228   -0.0197   -0.0310   -0.0423
          63   -0.0428    0.1061    0.0574   -0.1022    0.0031   -0.0325   -0.0168   -0.0100
          64    0.0267    0.0203   -0.0416    0.0391   -0.0561    0.0274    0.0127   -0.0298
          65   -0.0495    0.0457   -0.0900    0.0160   -0.0791    0.0587    0.0945    0.0348
          66   -0.0366    0.0316   -0.0402    0.0379   -0.0533    0.0263    0.0256   -0.0138


   Root No.      25        26        27        28        29        30        31        32

                25 A      26 A      27 A      28 A      29 A      30 A      31 A      32 A   

                1046.4    1050.1    1057.4    1063.8    1089.9    1105.9    1153.3    1159.7
  
           1   -0.0088   -0.0010    0.0010   -0.0076   -0.0142    0.0368   -0.0030    0.0028
           2    0.0014   -0.0053   -0.0001    0.0127   -0.0168    0.0214   -0.0157    0.0177
           3    0.0095   -0.0004   -0.0030    0.0080   -0.0075    0.0078    0.0116   -0.0446
           4    0.0006    0.0023    0.0010    0.0109   -0.0003   -0.0341    0.0050    0.0167
           5   -0.0051    0.0118   -0.0024    0.0036    0.0037   -0.0228   -0.0013   -0.0019
           6    0.0270    0.0182   -0.0093    0.0041    0.0133   -0.0187    0.0056   -0.0000
           7   -0.0021    0.0010    0.0149    0.0089    0.0003    0.0016    0.0018    0.0024
           8   -0.0069   -0.0009   -0.0147   -0.0026   -0.0042   -0.0026    0.0014   -0.0105
           9    0.0006    0.0054    0.0196   -0.0046   -0.0032    0.0009   -0.0015    0.0056
          10    0.0061   -0.0030    0.0028    0.0003   -0.0028    0.0013    0.0001   -0.0023
          11    0.0092   -0.0052   -0.0031    0.0081   -0.0026   -0.0001    0.0003    0.0006
          12   -0.0025   -0.0043   -0.0069   -0.0017   -0.0008    0.0024   -0.0043    0.0140
          13   -0.0022    0.0119   -0.0105   -0.0151    0.0066   -0.0059   -0.0038   -0.0146
          14   -0.0002    0.0085    0.0004   -0.0009    0.0142    0.0057    0.0021    0.0241
          15   -0.0073    0.0070   -0.0017   -0.0090    0.0069    0.0014   -0.0061    0.0079
          16   -0.0114    0.0075   -0.0004   -0.0042    0.0063   -0.0031    0.0014    0.0019
          17   -0.0140    0.0087    0.0039   -0.0107    0.0064   -0.0010    0.0016   -0.0083
          18   -0.0027    0.0052    0.0088   -0.0013    0.0021   -0.0033    0.0056   -0.0207
          19    0.0215   -0.0100    0.0051    0.0099   -0.0044   -0.0015   -0.0009    0.0007
          20    0.0126   -0.0113    0.0076   -0.0010   -0.0053    0.0039   -0.0018   -0.0019
          21   -0.0033   -0.0172   -0.0283    0.0062    0.0005    0.0052    0.0003    0.0128
          22    0.0241    0.0068   -0.0126   -0.0193   -0.0028   -0.0008    0.0073   -0.0123
          23   -0.0062   -0.0271    0.0085   -0.0074    0.0094    0.0035   -0.0026   -0.0014
          24   -0.0200   -0.0225    0.0100   -0.0047   -0.0037   -0.0023    0.0018    0.0075
          25   -0.0037   -0.0105    0.0083    0.0172    0.0122    0.0028   -0.0080    0.0004
          26    0.0071   -0.0015   -0.0104   -0.0182   -0.0147   -0.0061    0.0086   -0.0137
          27   -0.0026   -0.0111    0.0105    0.0085   -0.0031    0.0033   -0.0053    0.0098
          28    0.0018    0.0086   -0.0022   -0.0042   -0.0098   -0.0053    0.0015    0.0054
          29    0.0039    0.0117   -0.0011    0.0071    0.0079    0.0029    0.0009    0.0030
          30   -0.0137    0.0020    0.0042    0.0162    0.0082    0.0026   -0.0068   -0.0049
          31   -0.0207   -0.0438    0.0192   -0.1076    0.0294    0.2633   -0.0550   -0.0566
          32   -0.0227    0.0050    0.0193    0.0611   -0.0513   -0.0703    0.0450   -0.0872
          33    0.0619    0.0133   -0.0506   -0.0065    0.0233    0.0127   -0.0610    0.1908
          34   -0.0813    0.0209    0.0303    0.1296   -0.1095    0.0180    0.0814    0.0286
          35   -0.0184    0.0019    0.0062    0.0246   -0.0211    0.0043    0.0109    0.0035
          36    0.0894   -0.0356   -0.0194   -0.0814    0.0698    0.0100   -0.0439    0.0064
          37   -0.0235   -0.1027    0.0344   -0.0666    0.1101   -0.2121    0.0773    0.0179
          38   -0.0288   -0.0457    0.0191   -0.0011   -0.0050   -0.0006    0.0058   -0.0048
          39    0.0632    0.1294   -0.0479    0.0506   -0.0386    0.0570   -0.0396    0.0038
          40    0.0259   -0.0779   -0.0166    0.0476   -0.0262    0.0144    0.0033    0.0312
          41    0.0111   -0.0182   -0.0475   -0.0069    0.0026    0.0012   -0.0011   -0.0010
          42   -0.0576    0.1558    0.0919   -0.0720    0.0423   -0.0237   -0.0034   -0.0498
          43   -0.0515    0.0319   -0.0625   -0.0034    0.0399    0.0136   -0.0014    0.0666
          44   -0.0191    0.0050   -0.0284   -0.0054   -0.0004   -0.0015    0.0019   -0.0045
          45    0.1346   -0.0585    0.1700    0.0187   -0.0495   -0.0113   -0.0059   -0.0686
          46   -0.0209    0.0126    0.0029   -0.0141    0.0071    0.0004   -0.0017    0.0033
          47    0.0226   -0.0148   -0.0086    0.0183   -0.0073    0.0002    0.0001    0.0033
          48   -0.0418    0.0283    0.0183   -0.0345    0.0131   -0.0000   -0.0001   -0.0078
          49   -0.0132    0.0015   -0.0142   -0.0062    0.0043    0.0046   -0.0084    0.0242
          50    0.0035    0.0146    0.0287   -0.0023    0.0019   -0.0072    0.0142   -0.0492
          51   -0.0137   -0.0065   -0.0261   -0.0037    0.0026    0.0065   -0.0136    0.0439
          52    0.0035   -0.0027   -0.0008    0.0006   -0.0018    0.0014   -0.0010    0.0025
          53   -0.0247    0.0198    0.0032   -0.0047    0.0115   -0.0070    0.0067   -0.0162
          54    0.0220   -0.0151    0.0053   -0.0008   -0.0108    0.0070   -0.0046    0.0047
          55   -0.0355    0.0118   -0.0999    0.0051    0.0060   -0.0114    0.0086   -0.0650
          56   -0.0280    0.0684    0.1794   -0.0340    0.0032    0.0135   -0.0122    0.0867
          57   -0.0378   -0.0237   -0.1658    0.0115    0.0062   -0.0054    0.0113   -0.0680
          58    0.0309    0.0498   -0.0228   -0.0028   -0.0143   -0.0064    0.0199   -0.0057
          59    0.0170    0.0602   -0.0057    0.0843    0.0486   -0.0343   -0.1401   -0.0271
          60   -0.0279    0.0113   -0.0058   -0.0719   -0.0958    0.0369    0.2429    0.0704
          61   -0.0460   -0.0101    0.0332    0.1051    0.1557    0.0974    0.0487   -0.0316
          62    0.0022    0.0322   -0.0221   -0.0259   -0.0105   -0.0064    0.0090   -0.0116
          63    0.0179    0.0400   -0.0234   -0.0641   -0.0982   -0.0643   -0.0484    0.0371
          64   -0.0759   -0.0546    0.0089   -0.0497   -0.0962   -0.0854   -0.1877   -0.0272
          65    0.0626   -0.0033   -0.0076    0.0028    0.0518    0.0524    0.1368    0.0158
          66   -0.0306   -0.0284    0.0075   -0.0033   -0.0156   -0.0162   -0.0458   -0.0142


   Root No.      33        34        35        36        37        38        39        40

                33 A      34 A      35 A      36 A      37 A      38 A      39 A      40 A   

                1188.0    1200.8    1258.3    1305.7    1343.3    1366.2    1378.5    1388.0
  
           1    0.0005   -0.0357    0.0261    0.0167    0.0144    0.0053   -0.0198    0.0058
           2   -0.0125    0.0022   -0.0086   -0.0088   -0.0150   -0.0294    0.0014    0.0005
           3    0.0156    0.0120    0.0046    0.0182   -0.0040    0.0350    0.0122    0.0015
           4    0.0059   -0.0077   -0.0086   -0.0285    0.0245    0.0184    0.0092   -0.0174
           5   -0.0004   -0.0091    0.0073   -0.0005    0.0074    0.0057    0.0073    0.0026
           6    0.0044    0.0128   -0.0081    0.0159   -0.0208   -0.0158   -0.0324   -0.0062
           7   -0.0031    0.0045   -0.0203   -0.0182   -0.0145    0.0062   -0.0058   -0.0166
           8    0.0014   -0.0024    0.0178   -0.0073   -0.0013    0.0095   -0.0141    0.0160
           9    0.0086   -0.0055    0.0001    0.0439    0.0227   -0.0315    0.0363   -0.0072
          10   -0.0034   -0.0035   -0.0031   -0.0031    0.0096   -0.0123   -0.0081   -0.0088
          11    0.0059    0.0046    0.0032    0.0047   -0.0132    0.0198    0.0101   -0.0202
          12   -0.0082   -0.0086    0.0005   -0.0019    0.0076   -0.0173   -0.0084   -0.0036
          13   -0.0214   -0.0145    0.0214   -0.0040   -0.0089   -0.0254    0.0101    0.0084
          14    0.0020    0.0252   -0.0162   -0.0042    0.0133    0.0323   -0.0000   -0.0076
          15    0.0118   -0.0050   -0.0119    0.0008   -0.0072   -0.0101   -0.0110   -0.0012
          16    0.0099    0.0097    0.0120    0.0030   -0.0122    0.0079   -0.0022    0.0043
          17   -0.0115   -0.0068   -0.0145    0.0073   -0.0004   -0.0009    0.0009   -0.0018
          18    0.0110    0.0182   -0.0011   -0.0255    0.0245   -0.0130    0.0040   -0.0082
          19    0.0098    0.0109    0.0023    0.0002   -0.0007   -0.0010    0.0067   -0.0015
          20   -0.0126   -0.0168   -0.0166    0.0120    0.0115   -0.0116    0.0027   -0.0025
          21    0.0056    0.0066    0.0339   -0.0234   -0.0222    0.0250   -0.0192    0.0087
          22    0.0084    0.0089   -0.0061    0.0093   -0.0156   -0.0077   -0.0086    0.0024
          23    0.0020   -0.0036   -0.0028   -0.0061   -0.0021    0.0022    0.0049    0.0009
          24   -0.0162    0.0047    0.0139    0.0073    0.0175    0.0032   -0.0008   -0.0027
          25   -0.0195    0.0040    0.0148   -0.0091    0.0115    0.0132    0.0232    0.0031
          26    0.0117   -0.0007    0.0041    0.0135   -0.0013   -0.0066   -0.0070    0.0006
          27    0.0062   -0.0051   -0.0162   -0.0066   -0.0086   -0.0039   -0.0109   -0.0029
          28    0.0029    0.0103    0.0002    0.0181    0.0070   -0.0025   -0.0144   -0.0039
          29    0.0070   -0.0060   -0.0072   -0.0076   -0.0057   -0.0010    0.0009   -0.0000
          30   -0.0139   -0.0029    0.0094   -0.0085    0.0038    0.0055    0.0144    0.0033
          31   -0.0187    0.1250   -0.0467   -0.0258   -0.0175   -0.0081    0.0203   -0.0100
          32    0.0218   -0.0373    0.0258    0.0258    0.0005    0.0155    0.0037    0.0070
          33   -0.0329   -0.0282   -0.0091   -0.0166   -0.0077   -0.0366   -0.0197   -0.0007
          34   -0.0403    0.1028   -0.0523    0.0166   -0.0895   -0.0758    0.0455    0.0570
          35   -0.0070    0.0153   -0.0120   -0.0049   -0.0263   -0.0191    0.0595    0.0428
          36    0.0455   -0.0425   -0.0265   -0.0651    0.0006    0.0165    0.1354    0.0584
          37   -0.0172    0.0544   -0.0214    0.0261   -0.0585   -0.0470    0.0347    0.0521
          38   -0.0174    0.0042    0.0223    0.0324    0.0224    0.0076   -0.1147   -0.0660
          39    0.0340   -0.0340   -0.0177   -0.0486    0.0057    0.0152    0.0875    0.0327
          40    0.0387    0.0138   -0.0308    0.0517    0.0409    0.0081    0.0049    0.0141
          41    0.0092    0.0004    0.0975   -0.0340   -0.0740   -0.0826    0.0798   -0.0901
          42   -0.0726   -0.0231   -0.0293   -0.0659   -0.0333    0.0209   -0.0394    0.0020
          43    0.0328    0.0374   -0.0941    0.0748    0.0977    0.0712   -0.0442    0.0773
          44    0.0106    0.0016    0.0306   -0.0018   -0.0055   -0.0061    0.0040    0.0016
          45   -0.0830   -0.0515   -0.0544   -0.0529   -0.0071    0.0532   -0.0803    0.0466
          46   -0.0132   -0.0158   -0.0140    0.0391   -0.0421    0.0712    0.0694    0.0032
          47    0.0165    0.0158    0.0161   -0.0228    0.0180   -0.0230   -0.0148    0.0170
          48   -0.0371   -0.0359   -0.0381    0.0605   -0.0605    0.0690    0.0234   -0.1050
          49   -0.0164   -0.0230   -0.0089    0.0385   -0.0446    0.0418    0.0158    0.1500
          50    0.0306    0.0397    0.0130   -0.0630    0.0736   -0.0616   -0.0034    0.1180
          51   -0.0254   -0.0324   -0.0081    0.0454   -0.0535    0.0415    0.0092    0.0652
          52   -0.0020   -0.0030   -0.0004   -0.0004    0.0050   -0.0037    0.0027   -0.0424
          53    0.0321    0.0395    0.0280   -0.0620    0.0621   -0.0927   -0.0714    0.0882
          54   -0.0358   -0.0396   -0.0324    0.0431   -0.0369    0.0381    0.0112    0.1302
          55   -0.0418   -0.0124   -0.0742   -0.0033    0.0273   -0.0235    0.0108   -0.0155
          56    0.0671    0.0223    0.0976    0.0154   -0.0335    0.0242   -0.0054    0.0191
          57   -0.0613   -0.0255   -0.0609   -0.0282    0.0149   -0.0038   -0.0148   -0.0084
          58    0.0155    0.0018   -0.0111    0.0029   -0.0168   -0.0070   -0.0078    0.0015
          59   -0.0233    0.0270    0.0275    0.0365    0.0135   -0.0006   -0.0119    0.0007
          60    0.0423   -0.0701   -0.0436   -0.0809   -0.0041    0.0129    0.0319   -0.0049
          61    0.0796   -0.0921   -0.0352   -0.0045   -0.0386   -0.0434   -0.0259    0.0008
          62    0.0056    0.0053    0.0081    0.0144    0.0011   -0.0021   -0.0058    0.0013
          63   -0.0754    0.0707    0.0245   -0.0118    0.0298    0.0427    0.0270   -0.0002
          64    0.1033   -0.0322   -0.0714   -0.0288   -0.0438   -0.0077   -0.0108    0.0011
          65   -0.0628    0.0254    0.0455    0.0279    0.0287    0.0013   -0.0032   -0.0033
          66    0.0058   -0.0119   -0.0040   -0.0194   -0.0065    0.0050    0.0171    0.0048


   Root No.      41        42        43        44        45        46        47        48

                41 A      42 A      43 A      44 A      45 A      46 A      47 A      48 A   

                1388.6    1393.1    1409.3    1433.9    1484.4    1836.8    1862.3    1914.4
  
           1   -0.0042    0.0036    0.0462   -0.0355    0.0536    0.0001    0.0071    0.0013
           2   -0.0004    0.0080   -0.0227    0.0238   -0.0018    0.0008   -0.0117    0.0129
           3   -0.0026   -0.0111   -0.0027   -0.0091   -0.0604    0.0018    0.0068   -0.0141
           4    0.0166   -0.0118   -0.0311    0.0356   -0.0306    0.0025    0.0019   -0.0009
           5   -0.0032   -0.0007    0.0097    0.0075   -0.0028    0.0120    0.0033   -0.0037
           6    0.0089    0.0034   -0.0184   -0.0377    0.0205   -0.0262   -0.0086    0.0055
           7    0.0184   -0.0173    0.0329   -0.0065   -0.0153    0.0045   -0.0121    0.0234
           8   -0.0162    0.0173   -0.0157    0.0129    0.0141   -0.0032    0.0085   -0.0043
           9    0.0048   -0.0078   -0.0180   -0.0121   -0.0020   -0.0015    0.0021   -0.0209
          10   -0.0194   -0.0132    0.0033   -0.0070   -0.0140   -0.0020    0.0149    0.0055
          11   -0.0049    0.0063   -0.0056    0.0162    0.0436    0.0035   -0.0266   -0.0101
          12   -0.0041    0.0245    0.0086   -0.0219   -0.0675   -0.0037    0.0280    0.0111
          13   -0.0098    0.0128   -0.0355    0.0151    0.0003   -0.0199    0.0293   -0.1110
          14    0.0079   -0.0145    0.0258   -0.0348    0.0015   -0.0071    0.0196   -0.0766
          15    0.0023    0.0027    0.0068    0.0255   -0.0038    0.0238   -0.0441    0.1823
          16   -0.0048    0.0027   -0.0075    0.0004   -0.0346    0.0186   -0.1363   -0.0464
          17    0.0014   -0.0041    0.0031   -0.0078   -0.0191   -0.0196    0.1436    0.0540
          18    0.0074    0.0022    0.0029    0.0170    0.1113    0.0030   -0.0346   -0.0204
          19    0.0006   -0.0014   -0.0102    0.0106    0.0245   -0.0165    0.1157    0.0418
          20    0.0026   -0.0016    0.0086   -0.0115   -0.0200    0.0176   -0.1191   -0.0389
          21   -0.0077    0.0071    0.0029    0.0028   -0.0051   -0.0039    0.0216    0.0006
          22   -0.0018    0.0032   -0.0025   -0.0161    0.0057    0.0874    0.0113   -0.0081
          23   -0.0014   -0.0004   -0.0075   -0.0159    0.0027   -0.1237   -0.0181    0.0162
          24    0.0033   -0.0019    0.0190    0.0464   -0.0121    0.1552    0.0240   -0.0218
          25   -0.0056   -0.0027   -0.0213   -0.0453    0.0112    0.0456   -0.0280    0.1052
          26    0.0001    0.0027    0.0060    0.0267   -0.0068   -0.0102   -0.0171    0.0549
          27    0.0041   -0.0006    0.0103    0.0066   -0.0016   -0.0227    0.0414   -0.1456
          28    0.0058   -0.0013    0.0291    0.0497   -0.0133   -0.1398   -0.0129   -0.0010
          29   -0.0003    0.0004   -0.0103   -0.0181    0.0055    0.1323    0.0171   -0.0127
          30   -0.0047   -0.0003   -0.0122   -0.0208    0.0039   -0.1087   -0.0189    0.0240
          31    0.0072   -0.0044   -0.0535    0.0349   -0.0396   -0.0015    0.0010   -0.0096
          32   -0.0073   -0.0018    0.0143   -0.0099   -0.0134   -0.0004    0.0118    0.0038
          33    0.0032    0.0113    0.0015    0.0026    0.0310    0.0011   -0.0208    0.0030
          34   -0.0584    0.0346    0.0518   -0.0097    0.0274    0.0201   -0.0033    0.0087
          35   -0.0474    0.0164    0.0599    0.0117    0.0055    0.0110    0.0025   -0.0008
          36   -0.0721    0.0106    0.0837    0.0383   -0.0221   -0.0411   -0.0037    0.0017
          37   -0.0534    0.0269    0.0749   -0.0305    0.0435    0.0045   -0.0009   -0.0012
          38    0.0765   -0.0197   -0.0982   -0.0242    0.0011   -0.0027   -0.0031    0.0026
          39   -0.0421    0.0043    0.0443    0.0323   -0.0229   -0.0035   -0.0009   -0.0005
          40   -0.0156    0.0110   -0.0176   -0.0039    0.0061   -0.0008    0.0060    0.0055
          41    0.0911   -0.0877    0.0632   -0.0305   -0.0265   -0.0021    0.0097   -0.0040
          42    0.0008    0.0047    0.0240    0.0093   -0.0173    0.0041   -0.0204    0.0055
          43   -0.0803    0.0711   -0.0676    0.0105    0.0289   -0.0011    0.0052   -0.0134
          44   -0.0022    0.0028   -0.0088    0.0055    0.0118   -0.0032    0.0078   -0.0077
          45   -0.0434    0.0494   -0.0059    0.0285   -0.0044    0.0069   -0.0336    0.0123
          46    0.1442    0.1969    0.0097    0.0058    0.0232   -0.0007    0.0040    0.0014
          47   -0.0057   -0.0133    0.0022   -0.0064   -0.0132    0.0020   -0.0146   -0.0054
          48   -0.0890   -0.0659   -0.0238    0.0477    0.1067   -0.0013    0.0082    0.0029
          49    0.1064   -0.0865   -0.0281    0.0312    0.0434    0.0037   -0.0261   -0.0084
          50    0.1409    0.0941    0.0307   -0.0408   -0.0445   -0.0046    0.0311    0.0094
          51    0.0323   -0.0665   -0.0249    0.0232    0.0049    0.0020   -0.0131   -0.0028
          52   -0.0162    0.0478    0.0100   -0.0129   -0.0285   -0.0015    0.0109    0.0042
          53   -0.0576   -0.1637   -0.0031   -0.0234   -0.0652    0.0016   -0.0116   -0.0039
          54    0.0707   -0.1467   -0.0302    0.0426    0.0950   -0.0014    0.0129    0.0044
          55    0.0159   -0.0098    0.0131    0.0001    0.0313   -0.0060    0.0501    0.0270
          56   -0.0193    0.0101   -0.0241    0.0046   -0.0299   -0.0011    0.0039   -0.0044
          57    0.0106   -0.0019    0.0331   -0.0125    0.0022    0.0159   -0.1127   -0.0449
          58   -0.0010    0.0027   -0.0086   -0.0220    0.0063    0.1018    0.0133   -0.0108
          59    0.0007    0.0003    0.0379    0.0399   -0.0055   -0.0251   -0.0012   -0.0027
          60    0.0013   -0.0052   -0.0681   -0.0583    0.0045   -0.0742   -0.0142    0.0168
          61    0.0015    0.0129   -0.0068    0.0446   -0.0067    0.0343    0.0267   -0.0746
          62   -0.0007    0.0021    0.0069    0.0234   -0.0067   -0.0049   -0.0280    0.0959
          63   -0.0023   -0.0125   -0.0008   -0.0674    0.0134   -0.0179    0.0029   -0.0239
          64   -0.0006    0.0019   -0.0178   -0.0595    0.0142    0.0767    0.0219   -0.0454
          65    0.0042   -0.0011    0.0215    0.0618   -0.0148    0.0006   -0.0049    0.0169
          66   -0.0068    0.0005   -0.0242   -0.0460    0.0100   -0.0938   -0.0155    0.0164


   Root No.      49        50        51        52        53        54        55        56

                49 A      50 A      51 A      52 A      53 A      54 A      55 A      56 A   

                2860.4    2949.5    2970.5    3030.7    3044.2    3058.0    3063.6    3073.3
  
           1   -0.0217   -0.0012   -0.0002    0.0006   -0.0004    0.0002   -0.0000   -0.0001
           2   -0.0565   -0.0031   -0.0001   -0.0001    0.0003    0.0001   -0.0000    0.0001
           3   -0.0309   -0.0016   -0.0001    0.0000    0.0001   -0.0002   -0.0001    0.0000
           4   -0.0006   -0.0033    0.0000    0.0227   -0.0001   -0.0015    0.0006    0.0012
           5    0.0049   -0.0546   -0.0001   -0.0144    0.0001    0.0015   -0.0001   -0.0012
           6    0.0013   -0.0174   -0.0000    0.0292   -0.0001   -0.0014    0.0007    0.0014
           7   -0.0000    0.0001   -0.0353    0.0001    0.0269    0.0001   -0.0001   -0.0000
           8    0.0002    0.0001   -0.0440   -0.0001   -0.0311   -0.0001   -0.0001   -0.0000
           9    0.0000    0.0000   -0.0225    0.0000    0.0114    0.0001   -0.0000    0.0002
          10   -0.0000   -0.0002    0.0000    0.0012    0.0000   -0.0003   -0.0427   -0.0001
          11   -0.0001   -0.0001    0.0000    0.0005   -0.0000   -0.0002   -0.0328   -0.0002
          12    0.0000   -0.0000    0.0000    0.0002    0.0001   -0.0001   -0.0121   -0.0001
          13    0.0002   -0.0003   -0.0003   -0.0003    0.0005   -0.0000   -0.0000    0.0011
          14   -0.0010    0.0001   -0.0001    0.0001   -0.0002    0.0001   -0.0000    0.0009
[...]
 TRAVEL      0.0919         C  3 -- C  7          +8.8% ( 38.2%)     89.6%
 RED. MASS   0.4907         C  3 -- H 15          +8.0% ( 36.5%)      2.1%
 EFF. MASS   5.7964

 VIBRATION   40   40A         ATOM PAIR      ENERGY CONTRIBUTION    RADIAL
 FREQ.      1387.98         C  4 -- H 17         +23.6% ( 48.2%)      0.1%
 T-DIPOLE    0.0730         C  4 -- H 18         +15.5% ( 39.0%)      2.8%
 TRAVEL      0.1362         C  3 -- H 14          +8.3% ( 28.5%)      6.3%
 RED. MASS   0.2246         C  3 -- H 15          +8.0% ( 28.1%)      7.1%
 EFF. MASS   2.6203

 VIBRATION   41   41A         ATOM PAIR      ENERGY CONTRIBUTION    RADIAL
 FREQ.      1388.61         C  4 -- H 17         +18.8% ( 43.3%)      0.6%
 T-DIPOLE    0.0675         C  4 -- H 16         +16.5% ( 40.6%)      1.5%
 TRAVEL      0.1341         C  3 -- H 14          +8.7% ( 29.5%)      6.4%
 RED. MASS   0.2098         C  3 -- H 15          +8.5% ( 29.1%)      7.2%
 EFF. MASS   2.7019

 VIBRATION   42   42A         ATOM PAIR      ENERGY CONTRIBUTION    RADIAL
 FREQ.      1393.06         C  4 -- H 18         +25.0% ( 50.0%)      0.5%
 T-DIPOLE    0.0871         C  4 -- H 16         +21.7% ( 46.5%)      1.1%
 TRAVEL      0.1329         C  4 -- H 17         +10.5% ( 32.3%)     26.3%
 RED. MASS   0.2802         C  3 -- H 14          +7.0% ( 26.4%)      6.6%
 EFF. MASS   2.7396

 VIBRATION   43   43A         ATOM PAIR      ENERGY CONTRIBUTION    RADIAL
 FREQ.      1409.29         C  1 -- C  5         +12.3% ( 51.1%)     44.2%
 T-DIPOLE    0.0723         C  1 -- C  2         +11.0% ( 48.2%)     82.2%
 TRAVEL      0.0755         C  3 -- C  5         +10.8% ( 47.8%)     94.0%
 RED. MASS   0.9577         C  1 -- H 11          +6.9% ( 38.2%)      0.3%
 EFF. MASS   8.3941

 VIBRATION   44   44A         ATOM PAIR      ENERGY CONTRIBUTION    RADIAL
 FREQ.      1433.89         C  9 -- C 10         +14.0% ( 57.1%)     99.9%
 T-DIPOLE    0.1223         C  2 -- C  8         +10.9% ( 50.3%)     97.1%
 TRAVEL      0.0676         C  8 -- C 10          +8.4% ( 44.2%)      0.6%
 RED. MASS   1.2169         C  1 -- C  5          +7.6% ( 42.2%)     92.9%
 EFF. MASS  10.2932

 VIBRATION   45   45A         ATOM PAIR      ENERGY CONTRIBUTION    RADIAL
 FREQ.      1484.43         C  4 -- C  6         +22.0% ( 72.4%)     78.2%
 T-DIPOLE    0.1443         C  1 -- C  6         +21.4% ( 71.3%)     97.7%
 TRAVEL      0.0647         C  6 -- C  7         +13.0% ( 55.6%)     10.3%
 RED. MASS   2.9556         C  1 -- C  2          +6.9% ( 40.6%)     52.0%
 EFF. MASS  10.8422

 VIBRATION   46   46A         ATOM PAIR      ENERGY CONTRIBUTION    RADIAL
 FREQ.      1836.82         C  8 -- C 10         +42.4% ( 96.4%)     99.9%
 T-DIPOLE    0.2605         C  9 -- C 10         +14.7% ( 56.8%)     61.5%
 TRAVEL      0.0556         C  2 -- C  8         +13.4% ( 54.1%)     47.7%
 RED. MASS   5.0397         C 10 -- H 22         +12.8% ( 53.0%)      4.5%
 EFF. MASS  11.8827         C  8 -- H 20         +12.4% ( 52.0%)      5.4%

 VIBRATION   47   47A         ATOM PAIR      ENERGY CONTRIBUTION    RADIAL
 FREQ.      1862.34         C  6 -- C  7         +38.8% ( 92.6%)     97.9%
 T-DIPOLE    0.1537         C  4 -- C  6         +16.3% ( 60.0%)     62.9%
 TRAVEL      0.0552         C  1 -- C  6         +14.6% ( 56.8%)      3.0%
 RED. MASS   4.5319         C  3 -- C  7          +9.5% ( 45.7%)     21.4%
 EFF. MASS  11.8739

 VIBRATION   48   48A         ATOM PAIR      ENERGY CONTRIBUTION    RADIAL
 FREQ.      1914.44         C  5 -- C  9         +39.2% ( 92.5%)     99.2%
 T-DIPOLE    0.3642         C  3 -- C  5         +16.0% ( 59.2%)     51.4%
 TRAVEL      0.0544         C  1 -- C  5         +15.5% ( 58.2%)     26.9%
 RED. MASS   4.6754         C  9 -- C 10          +9.6% ( 45.8%)     28.8%
 EFF. MASS  11.9088

 VIBRATION   49   49A         ATOM PAIR      ENERGY CONTRIBUTION    RADIAL
 FREQ.      2860.43         C  1 -- H 11         +96.6% ( 99.8%)    100.0%
 T-DIPOLE    0.0871         C  1 -- C  2          +1.0% ( 10.1%)      8.5%
 TRAVEL      0.1283         C  1 -- C  5          +1.0% ( 10.0%)      9.4%
 RED. MASS   0.9214         C  1 -- C  6          +1.0% ( 10.0%)      9.0%
 EFF. MASS   1.4329

 VIBRATION   50   50A         ATOM PAIR      ENERGY CONTRIBUTION    RADIAL
 FREQ.      2949.52         C  2 -- H 13         +58.5% ( 79.3%)     97.4%
 T-DIPOLE    0.0541         C  2 -- H 12         +38.8% ( 64.6%)     95.2%
 TRAVEL      0.1220         C  2 -- C  8          +1.1% ( 11.0%)      0.0%
 RED. MASS   0.5323         C  1 -- C  2          +1.1% ( 10.9%)      0.2%
 EFF. MASS   1.5355

 VIBRATION   51   51A         ATOM PAIR      ENERGY CONTRIBUTION    RADIAL
 FREQ.      2970.52         C  3 -- H 14         +56.1% ( 77.6%)     97.4%
 T-DIPOLE    0.0584         C  3 -- H 15         +41.7% ( 66.9%)     95.8%
 TRAVEL      0.1217         C  3 -- C  7          +1.1% ( 10.8%)      0.1%
 RED. MASS   0.5280         C  3 -- C  5          +1.1% ( 10.8%)      0.1%
 EFF. MASS   1.5337

 VIBRATION   52   52A         ATOM PAIR      ENERGY CONTRIBUTION    RADIAL
 FREQ.      3030.70         C  2 -- H 12         +59.4% ( 76.0%)     98.7%
 T-DIPOLE    0.0856         C  2 -- H 13         +38.2% ( 61.0%)     96.1%
 TRAVEL      0.1317         C  8 -- H 20          +1.0% (  9.6%)    100.0%
 RED. MASS   0.4937         C  2 -- C  8          +0.7% (  8.0%)     20.9%
 EFF. MASS   1.2825

 VIBRATION   53   53A         ATOM PAIR      ENERGY CONTRIBUTION    RADIAL
 FREQ.      3044.23         C  3 -- H 15         +57.1% ( 74.7%)     98.3%
 T-DIPOLE    0.1281         C  3 -- H 14         +41.3% ( 63.5%)     96.3%
 TRAVEL      0.1311         C  3 -- C  5          +0.7% (  8.4%)     37.9%
 RED. MASS   0.4942         C  3 -- C  7          +0.7% (  8.4%)     33.8%
 EFF. MASS   1.2880

 VIBRATION   54   54A         ATOM PAIR      ENERGY CONTRIBUTION    RADIAL
 FREQ.      3058.03         C  8 -- H 20         +51.1% ( 72.6%)    100.0%
 T-DIPOLE    0.2610         C 10 -- H 22         +44.3% ( 67.6%)    100.0%
 TRAVEL      0.1227         C  9 -- H 21          +1.7% ( 13.1%)     99.9%
 RED. MASS   0.4475         C  8 -- C 10          +1.1% ( 10.6%)      0.1%
 EFF. MASS   1.4645

 VIBRATION   55   55A         ATOM PAIR      ENERGY CONTRIBUTION    RADIAL
 FREQ.      3063.55         C  4 -- H 18         +57.7% ( 78.3%)     98.0%
 T-DIPOLE    0.0406         C  4 -- H 16         +39.9% ( 65.1%)     95.6%
 TRAVEL      0.1210         C  4 -- H 17          +1.4% ( 12.2%)     12.3%
 RED. MASS   0.5204         C  4 -- C  6          +1.0% ( 10.2%)      0.0%
 EFF. MASS   1.5032

 VIBRATION   56   56A         ATOM PAIR      ENERGY CONTRIBUTION    RADIAL
 FREQ.      3073.26         C  9 -- H 21         +44.3% ( 67.7%)    100.0%
 T-DIPOLE    0.2925         C  8 -- H 20         +30.1% ( 55.8%)     99.9%
 TRAVEL      0.1190         C 10 -- H 22         +21.9% ( 47.6%)     99.8%
 RED. MASS   0.3333         C  8 -- C 10          +1.1% ( 10.5%)     99.0%
 EFF. MASS   1.5482

 VIBRATION   57   57A         ATOM PAIR      ENERGY CONTRIBUTION    RADIAL
 FREQ.      3078.01         C  4 -- H 17         +58.9% ( 79.2%)     98.6%
 T-DIPOLE    0.0464         C  4 -- H 16         +26.8% ( 53.4%)     90.7%
 TRAVEL      0.1203         C  4 -- H 18         +13.2% ( 37.5%)     79.0%
 RED. MASS   0.4684         C  4 -- C  6          +1.0% ( 10.6%)      0.0%
 EFF. MASS   1.5135

 VIBRATION   58   58A         ATOM PAIR      ENERGY CONTRIBUTION    RADIAL
 FREQ.      3082.46         C  9 -- H 21         +50.9% ( 72.4%)    100.0%
 T-DIPOLE    0.4055         C 10 -- H 22         +30.7% ( 56.2%)    100.0%
 TRAVEL      0.1177         C  8 -- H 20         +14.7% ( 38.9%)     99.8%
 RED. MASS   0.3741         C  9 -- C 10          +1.3% ( 11.7%)     88.1%
 EFF. MASS   1.5783

 VIBRATION   59   59A         ATOM PAIR      ENERGY CONTRIBUTION    RADIAL
 FREQ.      3125.80         C  7 -- H 19         +96.5% ( 99.9%)    100.0%
 T-DIPOLE    0.3851         C  6 -- C  7          +1.8% ( 13.6%)     48.5%
 TRAVEL      0.1178         C  3 -- C  7          +1.6% ( 13.0%)     23.9%
 RED. MASS   0.9280
 EFF. MASS   1.5541

 VIBRATION   60   60A         ATOM PAIR      ENERGY CONTRIBUTION    RADIAL
 FREQ.      3163.31         C  4 -- H 17         +39.7% ( 60.7%)     97.9%
 T-DIPOLE    0.0595         C  4 -- H 16         +32.5% ( 54.9%)     96.9%
 TRAVEL      0.1367         C  4 -- H 18         +27.5% ( 50.6%)     95.9%
 RED. MASS   0.3330         C  4 -- C  6          +0.3% (  5.5%)     98.4%
 EFF. MASS   1.1406

      SYMMETRY NUMBER FOR POINT-GROUP C1  =  1


          SYSTEM IS A GROUND STATE



 InChI=1S/C10H12/c1-8-6-7-9-4-2-3-5-10(8)9/h2-4,6,10H,5,7H2,1H3


          MOLECULE IS NOT LINEAR

          THERE ARE 60 GENUINE VIBRATIONS IN THIS SYSTEM
          THIS THERMODYNAMICS CALCULATION IS LIMITED TO
          MOLECULES WHICH HAVE NO INTERNAL ROTATIONS




                    CALCULATED THERMODYNAMIC PROPERTIES
                                          *
   TEMP. (K)   PARTITION FUNCTION   H.O.F.    ENTHALPY  HEAT CAPACITY ENTROPY
                                   KCAL/MOL   CAL/MOLE    CAL/K/MOL  CAL/K/MOL


 298.00  VIB.     0.5903D+02                  3646.8583    28.7728    20.3417
         ROT.     0.5462D+06                   888.2813     2.9808    29.2334
         INT.     0.3224D+08                  4535.1396    31.7536    49.5751
         TRA.     0.1470D+28                  1480.4688     4.9680    40.5480
         TOT.                       30.060    6015.6084    36.7216    90.1231

 200.00  VIB.     0.8837D+01                  1429.7447    16.7856    11.4787
         ROT.     0.3003D+06                   596.1620     2.9808    28.0447
         INT.     0.2654D+07                  2025.9067    19.7664    39.5234
         TRA.     0.8080D+27                   993.6033     4.9680    38.5668
         TOT.                       27.064    3019.5099    24.7344    78.0903

 210.00  VIB.     0.1059D+02                  1603.1803    17.9066    12.3247
         ROT.     0.3231D+06                   625.9700     2.9808    28.1902
         INT.     0.3423D+07                  2229.1503    20.8874    40.5148
         TRA.     0.8694D+27                  1043.2834     4.9680    38.8092
         TOT.                       27.317    3272.4338    25.8554    79.3241

 220.00  VIB.     0.1274D+02                  1787.9761    19.0574    13.1842
         ROT.     0.3465D+06                   655.7781     2.9808    28.3288
         INT.     0.4414D+07                  2443.7543    22.0382    41.5130
         TRA.     0.9322D+27                  1092.9636     4.9680    39.0403
         TOT.                       27.581    3536.7178    27.0062    80.5533

 230.00  VIB.     0.1537D+02                  1984.4223    20.2363    14.0572
         ROT.     0.3704D+06                   685.5862     2.9808    28.4613
         INT.     0.5691D+07                  2670.0086    23.2171    42.5185
         TRA.     0.9965D+27                  1142.6437     4.9680    39.2612
         TOT.                       27.857    3812.6523    28.1851    81.7797

 240.00  VIB.     0.1858D+02                  2192.7883    21.4409    14.9438
         ROT.     0.3948D+06                   715.3943     2.9808    28.5882
         INT.     0.7337D+07                  2908.1826    24.4217    43.5320
         TRA.     0.1062D+28                  1192.3239     4.9680    39.4726
         TOT.                       28.145    4100.5065    29.3898    83.0046

 250.00  VIB.     0.2254D+02                  2413.3171    22.6684    15.8439
         ROT.     0.4197D+06                   745.2024     2.9808    28.7099
         INT.     0.9460D+07                  3158.5195    25.6492    44.5538
         TRA.     0.1129D+28                  1242.0041     4.9680    39.6754
         TOT.                       28.445    4400.5236    30.6172    84.2292

 260.00  VIB.     0.2741D+02                  2646.2214    23.9155    16.7572
         ROT.     0.4452D+06                   775.0105     2.9808    28.8268
         INT.     0.1220D+08                  3421.2319    26.8963    45.5840
         TRA.     0.1198D+28                  1291.6842     4.9680    39.8703
         TOT.                       28.757    4712.9161    31.8643    85.4542

 270.00  VIB.     0.3342D+02                  2891.6806    25.1788    17.6834
         ROT.     0.4711D+06                   804.8186     2.9808    28.9393
         INT.     0.1574D+08                  3696.4993    28.1596    46.6227
         TRA.     0.1267D+28                  1341.3644     4.9680    40.0578
         TOT.                       29.082    5037.8637    33.1276    86.6804

 280.00  VIB.     0.4086D+02                  3149.8397    26.4549    18.6221
         ROT.     0.4975D+06                   834.6267     2.9808    29.0477
         INT.     0.2033D+08                  3984.4665    29.4357    47.6698
         TRA.     0.1338D+28                  1391.0445     4.9680    40.2384
         TOT.                       29.420    5375.5110    34.4037    87.9083

 290.00  VIB.     0.5008D+02                  3420.8085    27.7402    19.5729
         ROT.     0.5244D+06                   864.4348     2.9808    29.1523
         INT.     0.2626D+08                  4285.2434    30.7210    48.7252
         TRA.     0.1411D+28                  1440.7247     4.9680    40.4128
         TOT.                       29.770    5725.9681    35.6890    89.1379

 300.00  VIB.     0.6152D+02                  3704.6623    29.0313    20.5351
         ROT.     0.5517D+06                   894.2429     2.9808    29.2533
         INT.     0.3395D+08                  4598.9052    32.0121    49.7884
         TRA.     0.1484D+28                  1490.4049     4.9680    40.5812
         TOT.                       30.134    6089.3101    36.9801    90.3696

 310.00  VIB.     0.7578D+02                  4001.4428    30.3250    21.5081
         ROT.     0.5796D+06                   924.0510     2.9808    29.3511
         INT.     0.4392D+08                  4925.4938    33.3058    50.8592
         TRA.     0.1559D+28                  1540.0850     4.9680    40.7441
         TOT.                       30.510    6465.5788    38.2738    91.6032

 320.00  VIB.     0.9355D+02                  4311.1601    31.6182    22.4913
         ROT.     0.6078D+06                   953.8591     2.9808    29.4457
         INT.     0.5686D+08                  5265.0192    34.5990    51.9370
         TRA.     0.1635D+28                  1589.7652     4.9680    40.9018
         TOT.                       30.899    6854.7844    39.5670    92.8388

 330.00  VIB.     0.1158D+03                  4633.7946    32.9080    23.4840
         ROT.     0.6365D+06                   983.6672     2.9808    29.5374
         INT.     0.7368D+08                  5617.4618    35.8888    53.0214
         TRA.     0.1713D+28                  1639.4454     4.9680    41.0547
         TOT.                       31.301    7256.9072    40.8568    94.0761

 340.00  VIB.     0.1436D+03                  4969.2992    34.1918    24.4855
         ROT.     0.6657D+06                  1013.4753     2.9808    29.6264
         INT.     0.9556D+08                  5982.7746    37.1726    54.1119
         TRA.     0.1791D+28                  1689.1255     4.9680    41.2030
         TOT.                       31.716    7671.9001    42.1406    95.3149

 350.00  VIB.     0.1784D+03                  5317.6022    35.4672    25.4950
         ROT.     0.6953D+06                  1043.2834     2.9808    29.7128
         INT.     0.1240D+09                  6360.8856    38.4480    55.2078
         TRA.     0.1871D+28                  1738.8057     4.9680    41.3470
         TOT.                       32.144    8099.6913    43.4161    96.5549

 360.00  VIB.     0.2222D+03                  5678.6090    36.7322    26.5119
         ROT.     0.7253D+06                  1073.0915     2.9808    29.7968
         INT.     0.1612D+09                  6751.7005    39.7130    56.3087
         TRA.     0.1951D+28                  1788.4859     4.9680    41.4870
         TOT.                       32.584    8540.1864    44.6811    97.7957

 370.00  VIB.     0.2773D+03                  6052.2056    37.9849    27.5355
         ROT.     0.7557D+06                  1102.8996     2.9808    29.8785
         INT.     0.2095D+09                  7155.1052    40.9657    57.4139
         TRA.     0.2033D+28                  1838.1660     4.9680    41.6231
         TOT.                       33.037    8993.2713    45.9337    99.0370

 380.00  VIB.     0.3467D+03                  6438.2605    39.2236    28.5649
         ROT.     0.7866D+06                  1132.7077     2.9808    29.9580
         INT.     0.2727D+09                  7570.9682    42.2044    58.5229
         TRA.     0.2116D+28                  1887.8462     4.9680    41.7556
         TOT.                       33.503    9458.8144    47.1725   100.2785

 390.00  VIB.     0.4343D+03                  6836.6271    40.4470    29.5996
         ROT.     0.8178D+06                  1162.5158     2.9808    30.0354
         INT.     0.3552D+09                  7999.1429    43.4278    59.6350
         TRA.     0.2200D+28                  1937.5263     4.9680    41.8846
         TOT.                       33.981    9936.6693    48.3959   101.5197

 400.00  VIB.     0.5450D+03                  7247.1462    41.6539    30.6389
         ROT.     0.8495D+06                  1192.3239     2.9808    30.1109
         INT.     0.4630D+09                  8439.4701    44.6348    60.7498
         TRA.     0.2285D+28                  1987.2065     4.9680    42.0104
         TOT.                       34.471   10426.6766    49.6028   102.7602

   *: NOTE: HEATS OF FORMATION ARE RELATIVE TO THE
            ELEMENTS IN THEIR STANDARD STATE AT 298K
              (=  Standard Enthalpy of Formation).

            Hvib:  Zero-point energy is not included.
                   frequencies of less than zero cm-1 are not included.
            Hrot = (3/2)RT
            Htra = (3/2)RT + pV = (5/2)RT

            Heat capacity is Cp, not Cv

          For more information, see: HTTP://OpenMOPAC.net/Manual/thermochemistry.html


           FORCE CONSTANT IN CARTESIAN COORDINATES (Millidynes/A)

    ATOM   CHEMICAL       X               Y               Z
   NUMBER   SYMBOL  FORCE CONSTANT  FORCE CONSTANT  FORCE CONSTANT

      1       C        9.109927        8.399569        8.355302
      2       C        8.275527        8.317809        8.710070
      3       C        8.718573        8.961860        8.067406
      4       C        8.253841        8.453166        8.965937
      5       C        8.954596        7.272555       11.991333
      6       C        9.140903        9.535851        9.619025
      7       C        9.790837        8.255562        9.214852
      8       C       10.042683        6.697876       10.077420
      9       C        9.373661        7.937281       10.384522
     10       C        9.734863        6.764654       11.009510
     11       H        1.093547        3.312862        1.418778
     12       H        1.181711        4.244285        0.935588
     13       H        1.205890        2.527302        2.517260
     14       H        3.772871        0.895556        1.595190
     15       H        0.664499        4.967403        0.702831
     16       H        0.770801        4.916874        0.943233
     17       H        2.003649        0.923632        3.809065
     18       H        5.056628        0.712887        0.849334
     19       H        2.318206        0.782955        3.320954
     20       H        4.304404        1.018931        0.951939
     21       H        1.201714        3.351393        1.723506
     22       H        1.251351        0.771584        4.255111

 **********************
 *                    *
 * JOB ENDED NORMALLY *
 *                    *
 **********************



 TOTAL JOB TIME:             2.64 SECONDS

 == MOPAC DONE ==
