 *******************************************************************************
 ** Site#: 14399        For non-commercial use only    Version 18.184L 64BITS **
 *******************************************************************************
 ** Cite this program as: MOPAC2016, Version: 18.184L, James J. P. Stewart,   **
 ** Stewart Computational Chemistry, web: HTTP://OpenMOPAC.net. Days left:  18**
 *******************************************************************************
 **                                                                           **
 **                                MOPAC2016                                  **
 **                                                                           **
 *******************************************************************************

                              PM3 CALCULATION RESULTS

 *******************************************************************************
 *  CALCULATION DONE:                                Sat Jun 15 10:28:01 2019  *
 *  PM3        - The PM3 Hamiltonian to be used
 *  PRECISE    - CRITERIA TO BE INCREASED BY 100 TIMES
 *  NOSYM      - POINT-GROUP SYMMETRY SET TO C1
 *  THREADS=1  - MULTI-THREADING NOT USED
 *  T=         - A TIME OF 172800.0 SECONDS REQUESTED
 *  DUMP=N     - RESTART FILE WRITTEN EVERY  7200.000 SECONDS
 *******************************************************************************
pm3  precise nosym THREADS=1
 InChI=1S/C7H12/c1-2-3-4-7-5-6-7/h4H,2-3,5-6H2,1H3

   ATOM   CHEMICAL          X               Y               Z
  NUMBER   SYMBOL      (ANGSTROMS)     (ANGSTROMS)     (ANGSTROMS)
 
     1       C         -1.78640000  *   0.50120000  *  -0.33140000  *
     2       C          2.58130000  *  -0.16620000  *   0.76930000  *
     3       C          3.17660000  *   0.30390000  *  -0.44040000  *
     4       C         -0.71670000  *  -0.59390000  *  -0.34890000  *
     5       C         -3.04330000  *   0.03280000  *   0.39600000  *
     6       C          1.68410000  *  -0.02470000  *  -0.46050000  *
     7       C          0.50680000  *  -0.11610000  *  -1.07680000  *
     8       H         -1.38820000  *   1.40390000  *   0.18210000  *
     9       H         -2.05680000  *   0.77920000  *  -1.37380000  *
    10       H          2.35470000  *   0.60020000  *   1.53970000  *
    11       H          2.76480000  *  -1.22950000  *   1.03030000  *
    12       H          3.36470000  *   1.39610000  *  -0.50590000  *
    13       H          3.77450000  *  -0.43380000  *  -1.01550000  *
    14       H         -1.10820000  *  -1.49290000  *  -0.87180000  *
    15       H         -0.46340000  *  -0.88290000  *   0.69610000  *
    16       H         -3.80000000  *   0.84540000  *   0.39140000  *
    17       H         -3.47400000  *  -0.85660000  *  -0.11160000  *
    18       H         -2.80580000  *  -0.22520000  *   1.45010000  *
    19       H          0.43540000  *   0.15920000  *  -2.12410000  *
 


          CARTESIAN COORDINATES 

    NO.       ATOM           X           Y           Z

     1         C         -1.7864      0.5012     -0.3314
     2         C          2.5813     -0.1662      0.7693
     3         C          3.1766      0.3039     -0.4404
     4         C         -0.7167     -0.5939     -0.3489
     5         C         -3.0433      0.0328      0.3960
     6         C          1.6841     -0.0247     -0.4605
     7         C          0.5068     -0.1161     -1.0768
     8         H         -1.3882      1.4039      0.1821
     9         H         -2.0568      0.7792     -1.3738
    10         H          2.3547      0.6002      1.5397
    11         H          2.7648     -1.2295      1.0303
    12         H          3.3647      1.3961     -0.5059
    13         H          3.7745     -0.4338     -1.0155
    14         H         -1.1082     -1.4929     -0.8718
    15         H         -0.4634     -0.8829      0.6961
    16         H         -3.8000      0.8454      0.3914
    17         H         -3.4740     -0.8566     -0.1116
    18         H         -2.8058     -0.2252      1.4501
    19         H          0.4354      0.1592     -2.1241

  H: (PM3): J. J. P. STEWART, J. COMP. CHEM. 10, 209 (1989).
  C: (PM3): J. J. P. STEWART, J. COMP. CHEM. 10, 209 (1989).

           Empirical Formula: C7 H12  =    19 atoms



      MOLECULAR POINT GROUP   :   C1  


      RHF CALCULATION, NO. OF DOUBLY OCCUPIED LEVELS = 20


          Geometry optimization using EF

          DIAGONAL MATRIX USED AS START HESSIAN

 CYCLE:     1 TIME:   0.004 TIME LEFT:  2.00D  GRAD.:   146.540 HEAT:  38.37686
 CYCLE:     2 TIME:   0.004 TIME LEFT:  2.00D  GRAD.:   166.087 HEAT:  36.70270
 CYCLE:     3 TIME:   0.004 TIME LEFT:  2.00D  GRAD.:   127.472 HEAT:  30.14208
 CYCLE:     4 TIME:   0.008 TIME LEFT:  2.00D  GRAD.:   102.332 HEAT:  27.69064
 CYCLE:     5 TIME:   0.004 TIME LEFT:  2.00D  GRAD.:    83.716 HEAT:  27.00419
 CYCLE:     6 TIME:   0.004 TIME LEFT:  2.00D  GRAD.:    71.724 HEAT:  26.13241
 CYCLE:     7 TIME:   0.004 TIME LEFT:  2.00D  GRAD.:    31.558 HEAT:  25.07419
 CYCLE:     8 TIME:   0.008 TIME LEFT:  2.00D  GRAD.:    18.175 HEAT:  24.78257
 CYCLE:     9 TIME:   0.004 TIME LEFT:  2.00D  GRAD.:    29.043 HEAT:  24.70448
 CYCLE:    10 TIME:   0.000 TIME LEFT:  2.00D  GRAD.:    24.834 HEAT:  24.61836
 CYCLE:    11 TIME:   0.008 TIME LEFT:  2.00D  GRAD.:    12.728 HEAT:  24.48437
 CYCLE:    12 TIME:   0.004 TIME LEFT:  2.00D  GRAD.:     6.934 HEAT:  24.44874
 CYCLE:    13 TIME:   0.008 TIME LEFT:  2.00D  GRAD.:     5.377 HEAT:  24.43741
 CYCLE:    14 TIME:   0.004 TIME LEFT:  2.00D  GRAD.:     2.647 HEAT:  24.42502
 CYCLE:    15 TIME:   0.004 TIME LEFT:  2.00D  GRAD.:     3.334 HEAT:  24.41877
 CYCLE:    16 TIME:   0.000 TIME LEFT:  2.00D  GRAD.:     4.201 HEAT:  24.41040
 CYCLE:    17 TIME:   0.008 TIME LEFT:  2.00D  GRAD.:     4.215 HEAT:  24.40567
 CYCLE:    18 TIME:   0.004 TIME LEFT:  2.00D  GRAD.:     2.901 HEAT:  24.40010
 CYCLE:    19 TIME:   0.004 TIME LEFT:  2.00D  GRAD.:     2.993 HEAT:  24.39738
 CYCLE:    20 TIME:   0.004 TIME LEFT:  2.00D  GRAD.:     2.009 HEAT:  24.39427
 CYCLE:    21 TIME:   0.000 TIME LEFT:  2.00D  GRAD.:     2.186 HEAT:  24.39301
 CYCLE:    22 TIME:   0.004 TIME LEFT:  2.00D  GRAD.:     1.436 HEAT:  24.39115
 CYCLE:    23 TIME:   0.004 TIME LEFT:  2.00D  GRAD.:     1.699 HEAT:  24.39014
 CYCLE:    24 TIME:   0.004 TIME LEFT:  2.00D  GRAD.:     1.033 HEAT:  24.38860
 CYCLE:    25 TIME:   0.004 TIME LEFT:  2.00D  GRAD.:     1.271 HEAT:  24.38710
 CYCLE:    26 TIME:   0.004 TIME LEFT:  2.00D  GRAD.:     1.118 HEAT:  24.38597
 CYCLE:    27 TIME:   0.000 TIME LEFT:  2.00D  GRAD.:     1.366 HEAT:  24.38540
 CYCLE:    28 TIME:   0.004 TIME LEFT:  2.00D  GRAD.:     0.793 HEAT:  24.38453
 CYCLE:    29 TIME:   0.004 TIME LEFT:  2.00D  GRAD.:     0.742 HEAT:  24.38387
 CYCLE:    30 TIME:   0.004 TIME LEFT:  2.00D  GRAD.:     0.704 HEAT:  24.38295
 CYCLE:    31 TIME:   0.004 TIME LEFT:  2.00D  GRAD.:     0.797 HEAT:  24.38165
 CYCLE:    32 TIME:   0.004 TIME LEFT:  2.00D  GRAD.:     0.700 HEAT:  24.38089
 CYCLE:    33 TIME:   0.004 TIME LEFT:  2.00D  GRAD.:     0.849 HEAT:  24.37966
 CYCLE:    34 TIME:   0.004 TIME LEFT:  2.00D  GRAD.:     0.874 HEAT:  24.37823
 CYCLE:    35 TIME:   0.000 TIME LEFT:  2.00D  GRAD.:     0.885 HEAT:  24.37682
 CYCLE:    36 TIME:   0.004 TIME LEFT:  2.00D  GRAD.:     0.738 HEAT:  24.37545
 CYCLE:    37 TIME:   0.004 TIME LEFT:  2.00D  GRAD.:     0.786 HEAT:  24.37430
 CYCLE:    38 TIME:   0.004 TIME LEFT:  2.00D  GRAD.:     0.915 HEAT:  24.37312
 CYCLE:    39 TIME:   0.004 TIME LEFT:  2.00D  GRAD.:     0.976 HEAT:  24.37131
 CYCLE:    40 TIME:   0.004 TIME LEFT:  2.00D  GRAD.:     1.051 HEAT:  24.36862
 CYCLE:    41 TIME:   0.004 TIME LEFT:  2.00D  GRAD.:     0.967 HEAT:  24.36613
 CYCLE:    42 TIME:   0.004 TIME LEFT:  2.00D  GRAD.:     0.983 HEAT:  24.36372
 CYCLE:    43 TIME:   0.004 TIME LEFT:  2.00D  GRAD.:     1.080 HEAT:  24.36129
 CYCLE:    44 TIME:   0.000 TIME LEFT:  2.00D  GRAD.:     1.196 HEAT:  24.35813
 CYCLE:    45 TIME:   0.004 TIME LEFT:  2.00D  GRAD.:     1.213 HEAT:  24.35425
 CYCLE:    46 TIME:   0.004 TIME LEFT:  2.00D  GRAD.:     1.174 HEAT:  24.35039
 CYCLE:    47 TIME:   0.004 TIME LEFT:  2.00D  GRAD.:     1.139 HEAT:  24.34699
 CYCLE:    48 TIME:   0.004 TIME LEFT:  2.00D  GRAD.:     1.243 HEAT:  24.34388
 CYCLE:    49 TIME:   0.004 TIME LEFT:  2.00D  GRAD.:     1.210 HEAT:  24.34059
 CYCLE:    50 TIME:   0.004 TIME LEFT:  2.00D  GRAD.:     1.232 HEAT:  24.33695
 CYCLE:    51 TIME:   0.004 TIME LEFT:  2.00D  GRAD.:     1.076 HEAT:  24.33316
 CYCLE:    52 TIME:   0.000 TIME LEFT:  2.00D  GRAD.:     1.128 HEAT:  24.33015
 CYCLE:    53 TIME:   0.004 TIME LEFT:  2.00D  GRAD.:     0.960 HEAT:  24.32763
 CYCLE:    54 TIME:   0.004 TIME LEFT:  2.00D  GRAD.:     0.812 HEAT:  24.32596
 CYCLE:    55 TIME:   0.004 TIME LEFT:  2.00D  GRAD.:     0.751 HEAT:  24.32423
 CYCLE:    56 TIME:   0.004 TIME LEFT:  2.00D  GRAD.:     0.713 HEAT:  24.32298
 CYCLE:    57 TIME:   0.004 TIME LEFT:  2.00D  GRAD.:     0.671 HEAT:  24.32130
 CYCLE:    58 TIME:   0.004 TIME LEFT:  2.00D  GRAD.:     0.532 HEAT:  24.32063
 CYCLE:    59 TIME:   0.004 TIME LEFT:  2.00D  GRAD.:     0.536 HEAT:  24.31965
 CYCLE:    60 TIME:   0.004 TIME LEFT:  2.00D  GRAD.:     0.379 HEAT:  24.31932
 CYCLE:    61 TIME:   0.000 TIME LEFT:  2.00D  GRAD.:     0.385 HEAT:  24.31882
 CYCLE:    62 TIME:   0.004 TIME LEFT:  2.00D  GRAD.:     0.360 HEAT:  24.31860
 CYCLE:    63 TIME:   0.004 TIME LEFT:  2.00D  GRAD.:     0.999 HEAT:  24.31893
 CYCLE:    64 TIME:   0.004 TIME LEFT:  2.00D  GRAD.:     0.381 HEAT:  24.31778
 CYCLE:    65 TIME:   0.004 TIME LEFT:  2.00D  GRAD.:     0.338 HEAT:  24.31749
 CYCLE:    66 TIME:   0.004 TIME LEFT:  2.00D  GRAD.:     0.493 HEAT:  24.31666
 CYCLE:    67 TIME:   0.004 TIME LEFT:  2.00D  GRAD.:     0.431 HEAT:  24.31603
 CYCLE:    68 TIME:   0.004 TIME LEFT:  2.00D  GRAD.:     0.562 HEAT:  24.31490
 CYCLE:    69 TIME:   0.004 TIME LEFT:  2.00D  GRAD.:     0.406 HEAT:  24.31426
 CYCLE:    70 TIME:   0.000 TIME LEFT:  2.00D  GRAD.:     0.554 HEAT:  24.31300
 CYCLE:    71 TIME:   0.004 TIME LEFT:  2.00D  GRAD.:     0.563 HEAT:  24.31232
 CYCLE:    72 TIME:   0.004 TIME LEFT:  2.00D  GRAD.:     0.565 HEAT:  24.31151
 CYCLE:    73 TIME:   0.004 TIME LEFT:  2.00D  GRAD.:     0.558 HEAT:  24.31014
 CYCLE:    74 TIME:   0.004 TIME LEFT:  2.00D  GRAD.:     0.461 HEAT:  24.30937
 CYCLE:    75 TIME:   0.004 TIME LEFT:  2.00D  GRAD.:     0.697 HEAT:  24.30853
 CYCLE:    76 TIME:   0.000 TIME LEFT:  2.00D  GRAD.:     0.460 HEAT:  24.30811
 CYCLE:    77 TIME:   0.004 TIME LEFT:  2.00D  GRAD.:     0.367 HEAT:  24.30688
 CYCLE:    78 TIME:   0.004 TIME LEFT:  2.00D  GRAD.:     0.331 HEAT:  24.30648
 CYCLE:    79 TIME:   0.004 TIME LEFT:  2.00D  GRAD.:     0.304 HEAT:  24.30618
 CYCLE:    80 TIME:   0.004 TIME LEFT:  2.00D  GRAD.:     0.253 HEAT:  24.30601
 CYCLE:    81 TIME:   0.004 TIME LEFT:  2.00D  GRAD.:     0.300 HEAT:  24.30582
 CYCLE:    82 TIME:   0.004 TIME LEFT:  2.00D  GRAD.:     0.208 HEAT:  24.30568
 CYCLE:    83 TIME:   0.000 TIME LEFT:  2.00D  GRAD.:     0.159 HEAT:  24.30561
 CYCLE:    84 TIME:   0.004 TIME LEFT:  2.00D  GRAD.:     0.298 HEAT:  24.30543
 CYCLE:    85 TIME:   0.004 TIME LEFT:  2.00D  GRAD.:     0.305 HEAT:  24.30525
 CYCLE:    86 TIME:   0.004 TIME LEFT:  2.00D  GRAD.:     0.709 HEAT:  24.30443
 CYCLE:    87 TIME:   0.004 TIME LEFT:  2.00D  GRAD.:     0.488 HEAT:  24.30390
 CYCLE:    88 TIME:   0.004 TIME LEFT:  2.00D  GRAD.:     0.436 HEAT:  24.30299
 CYCLE:    89 TIME:   0.004 TIME LEFT:  2.00D  GRAD.:     0.280 HEAT:  24.30274
 CYCLE:    90 TIME:   0.000 TIME LEFT:  2.00D  GRAD.:     0.182 HEAT:  24.30244
 CYCLE:    91 TIME:   0.004 TIME LEFT:  2.00D  GRAD.:     0.169 HEAT:  24.30235
 CYCLE:    92 TIME:   0.004 TIME LEFT:  2.00D  GRAD.:     0.140 HEAT:  24.30223
 CYCLE:    93 TIME:   0.004 TIME LEFT:  2.00D  GRAD.:     0.089 HEAT:  24.30219
 CYCLE:    94 TIME:   0.004 TIME LEFT:  2.00D  GRAD.:     0.045 HEAT:  24.30218

     GRADIENT =  0.04479  IS LESS THAN CUTOFF =  0.05000



 -------------------------------------------------------------------------------
 pm3  precise nosym THREADS=1
 InChI=1S/C7H12/c1-2-3-4-7-5-6-7/h4H,2-3,5-6H2,1H3



     GEOMETRY OPTIMISED USING EIGENVECTOR FOLLOWING (EF).     
     SCF FIELD WAS ACHIEVED                                   


                              PM3 CALCULATION
                                                       MOPAC2016 (Version: 18.184L)
                                                       Sat Jun 15 10:28:01 2019
                                                       No. of days remaining =  18




          FINAL HEAT OF FORMATION =         24.30218 KCAL/MOL =     101.68032 KJ/MOL


          TOTAL ENERGY            =      -1013.42121 EV
          ELECTRONIC ENERGY       =      -4657.16616 EV  POINT GROUP:     C1  
          CORE-CORE REPULSION     =       3643.74494 EV
          COSMO AREA              =        161.12 SQUARE ANGSTROMS
          COSMO VOLUME            =        149.46 CUBIC ANGSTROMS

          GRADIENT NORM           =          0.04479 = 0.01028 PER ATOM
          IONIZATION POTENTIAL    =          9.782078 EV
          HOMO LUMO ENERGIES (EV) =         -9.782  1.047
          NO. OF FILLED LEVELS    =         20
          MOLECULAR WEIGHT        =         96.1718

          MOLECULAR DIMENSIONS (Angstroms)

            Atom       Atom       Distance
            H    16    H    13     7.89308
            H    10    H    19     3.93364
            H    14    H    12     3.30288


          SCF CALCULATIONS        =        103
 
          WALL-CLOCK TIME         =          0.348 SECONDS
          COMPUTATION TIME        =          0.315 SECONDS




   ATOM   CHEMICAL          X               Y               Z
  NUMBER   SYMBOL      (ANGSTROMS)     (ANGSTROMS)     (ANGSTROMS)
 
     1       C         -1.84834341  *   0.48779211  *  -0.38724269  *
     2       C          2.58885273  *  -0.29188568  *   0.73270028  *
     3       C          3.15304822  *   0.27796322  *  -0.55147612  *
     4       C         -0.68317066  *  -0.47727543  *  -0.22187873  *
     5       C         -3.08572609  *  -0.01685463  *   0.32008292  *
     6       C          1.72488845  *  -0.00239416  *  -0.41078550  *
     7       C          0.52335610  *   0.00555262  *  -0.94602277  *
     8       H         -1.56736129  *   1.48496725  *   0.00463804  *
     9       H         -2.06293438  *   0.64125567  *  -1.46365837  *
    10       H          2.53424397  *   0.33152610  *   1.63277317  *
    11       H          2.80141239  *  -1.33057974  *   1.01137613  *
    12       H          3.50885125  *   1.31438477  *  -0.58178466  *
    13       H          3.77385138  *  -0.34815355  *  -1.20285217  *
    14       H         -0.95474478  *  -1.47652475  *  -0.61959291  *
    15       H         -0.46610788  *  -0.63090417  *   0.85418069  *
    16       H         -3.92536362  *   0.67945884  *   0.19959212  *
    17       H         -3.40787830  *  -0.99072705  *  -0.07220533  *
    18       H         -2.91415305  *  -0.14069777  *   1.39770833  *
    19       H          0.37970219  *   0.37065061  *  -1.97010039  *

                             CARTESIAN COORDINATES

   1    C       -1.848343413     0.487792114    -0.387242694
   2    C        2.588852734    -0.291885676     0.732700278
   3    C        3.153048217     0.277963223    -0.551476121
   4    C       -0.683170659    -0.477275429    -0.221878728
   5    C       -3.085726087    -0.016854626     0.320082917
   6    C        1.724888454    -0.002394161    -0.410785505
   7    C        0.523356104     0.005552616    -0.946022773
   8    H       -1.567361287     1.484967255     0.004638045
   9    H       -2.062934379     0.641255671    -1.463658369
  10    H        2.534243971     0.331526101     1.632773175
  11    H        2.801412388    -1.330579739     1.011376129
  12    H        3.508851250     1.314384768    -0.581784658
  13    H        3.773851380    -0.348153551    -1.202852170
  14    H       -0.954744778    -1.476524753    -0.619592913
  15    H       -0.466107875    -0.630904165     0.854180685
  16    H       -3.925363624     0.679458839     0.199592123
  17    H       -3.407878299    -0.990727047    -0.072205329
  18    H       -2.914153045    -0.140697768     1.397708332
  19    H        0.379702193     0.370650609    -1.970100394


           Empirical Formula: C7 H12  =    19 atoms



      MOLECULAR POINT GROUP   :   C1  


                  EIGENVALUES  
 -39.26369 -36.22947 -29.79812 -24.17009 -22.45830 -20.95536 -18.50798 -17.03992
 -16.26308 -15.86314 -15.35922 -14.19360 -13.31071 -12.98704 -12.37170 -12.36002
 -12.04663 -11.55323 -11.26417  -9.78208   1.04658   2.88446   3.00643   3.25622
   3.65898   3.76731   3.92275   4.01776   4.10468   4.21136   4.26152   4.43632
   4.49635   4.73030   4.90802   4.92073   4.97035   5.00830   5.50934   6.10365


              NET ATOMIC CHARGES AND DIPOLE CONTRIBUTIONS

  ATOM NO.   TYPE          CHARGE      No. of ELECS.   s-Pop       p-Pop       
    1          C          -0.094620        4.0946     1.15808     2.93654
    2          C          -0.099555        4.0996     1.14969     2.94986
    3          C          -0.100013        4.1000     1.15024     2.94977
    4          C          -0.066089        4.0661     1.14852     2.91756
    5          C          -0.109951        4.1100     1.13845     2.97150
    6          C          -0.205000        4.2050     1.18609     3.01891
    7          C          -0.067448        4.0674     1.17180     2.89565
    8          H           0.051052        0.9489     0.94895
    9          H           0.048222        0.9518     0.95178
   10          H           0.079016        0.9210     0.92098
   11          H           0.078573        0.9214     0.92143
   12          H           0.078714        0.9213     0.92129
   13          H           0.078510        0.9215     0.92149
   14          H           0.056309        0.9437     0.94369
   15          H           0.057122        0.9429     0.94288
   16          H           0.037537        0.9625     0.96246
   17          H           0.037537        0.9625     0.96246
   18          H           0.038179        0.9618     0.96182
   19          H           0.101906        0.8981     0.89809
 DIPOLE           X         Y         Z       TOTAL
 POINT-CHG.    -0.084    -0.026     0.075     0.115
 HYBRID         0.018    -0.016    -0.007     0.025
 SUM           -0.066    -0.042     0.068     0.104


          ATOMIC ORBITAL ELECTRON POPULATIONS

     Atom    s        px        py        pz   
    1  C   1.15808   0.94866   0.98495   1.00292
    2  C   1.14969   1.01806   1.01137   0.92044
    3  C   1.15024   0.93969   1.01178   0.99831
    4  C   1.14852   0.93668   0.98024   1.00065
    5  C   1.13845   0.97013   1.00328   0.99809
    6  C   1.18609   0.94755   1.04216   1.02920
    7  C   1.17180   0.92083   0.99292   0.98191
    8  H   0.94895
    9  H   0.95178
   10  H   0.92098
   11  H   0.92143
   12  H   0.92129
   13  H   0.92149
   14  H   0.94369
   15  H   0.94288
   16  H   0.96246
   17  H   0.96246
   18  H   0.96182
   19  H   0.89809
 *******************************************************************************
 ** Site#: 14399        For non-commercial use only    Version 18.184L 64BITS **
 *******************************************************************************
 ** Cite this program as: MOPAC2016, Version: 18.184L, James J. P. Stewart,   **
 ** Stewart Computational Chemistry, web: HTTP://OpenMOPAC.net. Days left:  18**
 *******************************************************************************
 **                                                                           **
 **                                MOPAC2016                                  **
 **                                                                           **
 *******************************************************************************

                              PM3 CALCULATION RESULTS

 *******************************************************************************
 *  CALCULATION DONE:                                Sat Jun 15 10:28:01 2019  *
 *  PM3        - The PM3 Hamiltonian to be used
 *  OLDGEO     - PREVIOUS GEOMETRY TO BE USED
 *  PRECISE    - CRITERIA TO BE INCREASED BY 100 TIMES
 *  NOSYM      - POINT-GROUP SYMMETRY SET TO C1
 *  THREADS=1  - MULTI-THREADING NOT USED
 *  T=         - A TIME OF 172800.0 SECONDS REQUESTED
 *  DUMP=N     - RESTART FILE WRITTEN EVERY  7200.000 SECONDS
 *  THERMO     - THERMODYNAMIC QUANTITIES TO BE CALCULATED
 *******************************************************************************
oldgeo thermo nosym precise THREADS=1  pm3
 InChI=1S/C7H12/c1-2-3-4-7-5-6-7/h4H,2-3,5-6H2,1H3

   ATOM   CHEMICAL          X               Y               Z
  NUMBER   SYMBOL      (ANGSTROMS)     (ANGSTROMS)     (ANGSTROMS)
 
     1       C         -1.84834341  *   0.48779211  *  -0.38724269  *
     2       C          2.58885273  *  -0.29188568  *   0.73270028  *
     3       C          3.15304822  *   0.27796322  *  -0.55147612  *
     4       C         -0.68317066  *  -0.47727543  *  -0.22187873  *
     5       C         -3.08572609  *  -0.01685463  *   0.32008292  *
     6       C          1.72488845  *  -0.00239416  *  -0.41078550  *
     7       C          0.52335610  *   0.00555262  *  -0.94602277  *
     8       H         -1.56736129  *   1.48496725  *   0.00463804  *
     9       H         -2.06293438  *   0.64125567  *  -1.46365837  *
    10       H          2.53424397  *   0.33152610  *   1.63277317  *
    11       H          2.80141239  *  -1.33057974  *   1.01137613  *
    12       H          3.50885125  *   1.31438477  *  -0.58178466  *
    13       H          3.77385138  *  -0.34815355  *  -1.20285217  *
    14       H         -0.95474478  *  -1.47652475  *  -0.61959291  *
    15       H         -0.46610788  *  -0.63090417  *   0.85418069  *
    16       H         -3.92536362  *   0.67945884  *   0.19959212  *
    17       H         -3.40787830  *  -0.99072705  *  -0.07220533  *
    18       H         -2.91415305  *  -0.14069777  *   1.39770833  *
    19       H          0.37970219  *   0.37065061  *  -1.97010039  *
 


          CARTESIAN COORDINATES 

    NO.       ATOM           X           Y           Z

     1         C         -1.8483      0.4878     -0.3872
     2         C          2.5889     -0.2919      0.7327
     3         C          3.1530      0.2780     -0.5515
     4         C         -0.6832     -0.4773     -0.2219
     5         C         -3.0857     -0.0169      0.3201
     6         C          1.7249     -0.0024     -0.4108
     7         C          0.5234      0.0056     -0.9460
     8         H         -1.5674      1.4850      0.0046
     9         H         -2.0629      0.6413     -1.4637
    10         H          2.5342      0.3315      1.6328
    11         H          2.8014     -1.3306      1.0114
    12         H          3.5089      1.3144     -0.5818
    13         H          3.7739     -0.3482     -1.2029
    14         H         -0.9547     -1.4765     -0.6196
    15         H         -0.4661     -0.6309      0.8542
    16         H         -3.9254      0.6795      0.1996
    17         H         -3.4079     -0.9907     -0.0722
    18         H         -2.9142     -0.1407      1.3977
    19         H          0.3797      0.3707     -1.9701

  H: (PM3): J. J. P. STEWART, J. COMP. CHEM. 10, 209 (1989).
  C: (PM3): J. J. P. STEWART, J. COMP. CHEM. 10, 209 (1989).

           Empirical Formula: C7 H12  =    19 atoms



      MOLECULAR POINT GROUP   :   C1  


      RHF CALCULATION, NO. OF DOUBLY OCCUPIED LEVELS = 20



          HEAT OF FORMATION =      24.302178 KCALS/MOLE


          CARTESIAN COORDINATE DERIVATIVES

   NUMBER  ATOM         X            Y            Z

     1       C     -0.004641     0.000164    -0.000019
     2       C     -0.003104     0.000835     0.007077
     3       C      0.001157     0.004084     0.004049
     4       C      0.001599     0.000162     0.001413
     5       C      0.000187     0.002446     0.002161
     6       C      0.003582     0.000135     0.005497
     7       C     -0.002301    -0.000998    -0.006185
     8       H     -0.010556    -0.005871     0.000658
     9       H      0.011297     0.001874     0.004723
    10       H     -0.009039    -0.006124    -0.002970
    11       H      0.006202     0.003844    -0.002528
    12       H      0.022812     0.004741     0.002023
    13       H     -0.009690    -0.001545    -0.002913
    14       H     -0.011391    -0.000304    -0.002130
    15       H      0.003864    -0.000808    -0.000021
    16       H     -0.012512    -0.002700     0.000121
    17       H      0.000793    -0.003888    -0.009333
    18       H      0.010619     0.003402     0.005870
    19       H      0.001121     0.000552    -0.007493
 


          GRADIENT NORM =   0.04463

          MOLECULAR WEIGHT =   96.17



          ROTATIONAL CONSTANTS IN CM(-1)

          A =    0.30350688   B =    0.03417690   C =    0.03251043



           PRINCIPAL MOMENTS OF INERTIA IN UNITS OF 10**(-40)*GRAM-CM**2

          A =       92.2311   B =      819.0555   C =      861.0398


          ORIENTATION OF MOLECULE IN FORCE CALCULATION

    NO.       ATOM         X         Y         Z

     1          C      -2.1566   -0.2498    0.2509
     2          C       2.4857   -0.2498    0.2509
     3          C       2.6195    1.2583    0.2509
     4          C      -0.8409   -0.4361   -0.4912
     5          C      -3.0839   -1.4235    0.0303
     6          C       1.3354    0.6121   -0.0170
     7          C       0.0565    0.7348   -0.2991
     8          H      -1.9610   -0.1189    1.3332
     9          H      -2.6472    0.6880   -0.0779
    10          H       2.5459   -0.8065    1.1934
    11          H       2.9305   -0.8395   -0.5591
    12          H       2.7782    1.7947    1.1936
    13          H       3.1608    1.7606   -0.5592
    14          H      -1.0286   -0.5599   -1.5774
    15          H      -0.3481   -1.3729   -0.1626
    16          H      -4.0325   -1.2878    0.5653
    17          H      -3.3229   -1.5568   -1.0333
    18          H      -2.6391   -2.3632    0.3842
    19          H      -0.3892    1.7306   -0.4106


    FIRST DERIVATIVES WILL BE USED IN THE CALCULATION OF SECOND DERIVATIVES

    FOR POINT-GROUP C1   THERE ARE   1 UNIQUE SYMMETRY FUNCTIONS.

 STEP:   1 TIME =     0.02 SECS, INTEGRAL =      0.02 TIME LEFT: 172799.98
 STEP:   2 TIME =     0.01 SECS, INTEGRAL =      0.03 TIME LEFT: 172799.97
 STEP:   3 TIME =     0.02 SECS, INTEGRAL =      0.04 TIME LEFT: 172799.96
 STEP:   4 TIME =     0.01 SECS, INTEGRAL =      0.05 TIME LEFT: 172799.95
 STEP:   5 TIME =     0.02 SECS, INTEGRAL =      0.07 TIME LEFT: 172799.93
 STEP:   6 TIME =     0.01 SECS, INTEGRAL =      0.08 TIME LEFT: 172799.92
 STEP:   7 TIME =     0.02 SECS, INTEGRAL =      0.10 TIME LEFT: 172799.90
 STEP:   8 TIME =     0.01 SECS, INTEGRAL =      0.11 TIME LEFT: 172799.89
 STEP:   9 TIME =     0.01 SECS, INTEGRAL =      0.12 TIME LEFT: 172799.88
 STEP:  10 TIME =     0.01 SECS, INTEGRAL =      0.13 TIME LEFT: 172799.87
 STEP:  11 TIME =     0.02 SECS, INTEGRAL =      0.15 TIME LEFT: 172799.85
 STEP:  12 TIME =     0.01 SECS, INTEGRAL =      0.16 TIME LEFT: 172799.84
 STEP:  13 TIME =     0.01 SECS, INTEGRAL =      0.17 TIME LEFT: 172799.83
 STEP:  14 TIME =     0.02 SECS, INTEGRAL =      0.19 TIME LEFT: 172799.81
 STEP:  15 TIME =     0.01 SECS, INTEGRAL =      0.20 TIME LEFT: 172799.80
 STEP:  16 TIME =     0.01 SECS, INTEGRAL =      0.21 TIME LEFT: 172799.79
 STEP:  17 TIME =     0.02 SECS, INTEGRAL =      0.23 TIME LEFT: 172799.77
 STEP:  18 TIME =     0.02 SECS, INTEGRAL =      0.24 TIME LEFT: 172799.76
 STEP:  19 TIME =     0.01 SECS, INTEGRAL =      0.25 TIME LEFT: 172799.75
 STEP:  20 TIME =     0.02 SECS, INTEGRAL =      0.27 TIME LEFT: 172799.73
 STEP:  21 TIME =     0.01 SECS, INTEGRAL =      0.28 TIME LEFT: 172799.72
 STEP:  22 TIME =     0.02 SECS, INTEGRAL =      0.30 TIME LEFT: 172799.70
 STEP:  23 TIME =     0.01 SECS, INTEGRAL =      0.31 TIME LEFT: 172799.69
 STEP:  24 TIME =     0.01 SECS, INTEGRAL =      0.32 TIME LEFT: 172799.68
 STEP:  25 TIME =     0.01 SECS, INTEGRAL =      0.33 TIME LEFT: 172799.67
 STEP:  26 TIME =     0.02 SECS, INTEGRAL =      0.35 TIME LEFT: 172799.65
 STEP:  27 TIME =     0.01 SECS, INTEGRAL =      0.36 TIME LEFT: 172799.64
 STEP:  28 TIME =     0.01 SECS, INTEGRAL =      0.37 TIME LEFT: 172799.63
 STEP:  29 TIME =     0.02 SECS, INTEGRAL =      0.39 TIME LEFT: 172799.61
 STEP:  30 TIME =     0.01 SECS, INTEGRAL =      0.40 TIME LEFT: 172799.60
 STEP:  31 TIME =     0.02 SECS, INTEGRAL =      0.41 TIME LEFT: 172799.59
 STEP:  32 TIME =     0.01 SECS, INTEGRAL =      0.43 TIME LEFT: 172799.57
 STEP:  33 TIME =     0.01 SECS, INTEGRAL =      0.44 TIME LEFT: 172799.56
 STEP:  34 TIME =     0.01 SECS, INTEGRAL =      0.45 TIME LEFT: 172799.55
 STEP:  35 TIME =     0.02 SECS, INTEGRAL =      0.46 TIME LEFT: 172799.54
 STEP:  36 TIME =     0.02 SECS, INTEGRAL =      0.48 TIME LEFT: 172799.52
 STEP:  37 TIME =     0.01 SECS, INTEGRAL =      0.49 TIME LEFT: 172799.51
 STEP:  38 TIME =     0.02 SECS, INTEGRAL =      0.51 TIME LEFT: 172799.49
 STEP:  39 TIME =     0.01 SECS, INTEGRAL =      0.52 TIME LEFT: 172799.48
 STEP:  40 TIME =     0.02 SECS, INTEGRAL =      0.54 TIME LEFT: 172799.46
 STEP:  41 TIME =     0.01 SECS, INTEGRAL =      0.55 TIME LEFT: 172799.45
 STEP:  42 TIME =     0.01 SECS, INTEGRAL =      0.56 TIME LEFT: 172799.44
 STEP:  43 TIME =     0.01 SECS, INTEGRAL =      0.57 TIME LEFT: 172799.43
 STEP:  44 TIME =     0.02 SECS, INTEGRAL =      0.59 TIME LEFT: 172799.41
 STEP:  45 TIME =     0.01 SECS, INTEGRAL =      0.60 TIME LEFT: 172799.40
 STEP:  46 TIME =     0.02 SECS, INTEGRAL =      0.61 TIME LEFT: 172799.39
 STEP:  47 TIME =     0.01 SECS, INTEGRAL =      0.62 TIME LEFT: 172799.38
 STEP:  48 TIME =     0.01 SECS, INTEGRAL =      0.64 TIME LEFT: 172799.36
 STEP:  49 TIME =     0.01 SECS, INTEGRAL =      0.65 TIME LEFT: 172799.35
 STEP:  50 TIME =     0.02 SECS, INTEGRAL =      0.66 TIME LEFT: 172799.34
 STEP:  51 TIME =     0.02 SECS, INTEGRAL =      0.68 TIME LEFT: 172799.32
 STEP:  52 TIME =     0.01 SECS, INTEGRAL =      0.69 TIME LEFT: 172799.31
 STEP:  53 TIME =     0.02 SECS, INTEGRAL =      0.71 TIME LEFT: 172799.29
 STEP:  54 TIME =     0.01 SECS, INTEGRAL =      0.72 TIME LEFT: 172799.28
 STEP:  55 TIME =     0.01 SECS, INTEGRAL =      0.73 TIME LEFT: 172799.27
 STEP:  56 TIME =     0.01 SECS, INTEGRAL =      0.74 TIME LEFT: 172799.26
 STEP:  57 TIME =     0.02 SECS, INTEGRAL =      0.76 TIME LEFT: 172799.24

(To convert to Hartree/Bohr^2, multiply by (10^(-21) x N x a0^2)/(4.184 x 627.51) =  0.0642)


           FORCE MATRIX IN MILLIDYNES/ANGSTROM


                  C  1       C  2       C  3       C  4       C  5       C  6
 ------------------------------------------------------------------------------
     C    1  14.363332
     C    2   0.012323  15.530307
     C    3   0.018838   4.613101  15.527568
     C    4   4.121398   0.121220   0.160868  14.672287
     C    5   4.474519   0.001727   0.003272   0.664051  14.375381
     C    6   0.044689   6.038476   6.026339   0.884176   0.009613  22.210834
     C    7   0.697429   0.492396   0.491828   4.950192   0.054389  11.224665
     H    8   4.476376   0.000774   0.000896   0.441221   0.437213   0.002182
     H    9   4.449683   0.000642   0.000557   0.445136   0.436516   0.002081
     H   10   0.001230   4.793433   0.457981   0.017191   0.000362   0.469765
     H   11   0.001983   4.793362   0.457828   0.016699   0.000409   0.468585
     H   12   0.003253   0.458011   4.794707   0.022411   0.000542   0.465322
     H   13   0.002627   0.458100   4.794057   0.022085   0.000307   0.465120
     H   14   0.451019   0.015251   0.021728   4.406984   0.026418   0.032087
     H   15   0.440749   0.008441   0.004553   4.450426   0.027525   0.046556
     H   16   0.449363   0.000543   0.000609   0.051060   4.752088   0.002068
     H   17   0.463357   0.000414   0.000271   0.023708   4.724967   0.000719
     H   18   0.462450   0.000457   0.000239   0.023735   4.723550   0.000780
     H   19   0.028472   0.136043   0.101520   0.435216   0.002161   0.459193


                  C  7       H  8       H  9       H 10       H 11       H 12
 ------------------------------------------------------------------------------
     C    7  18.444580
     H    8   0.021673   5.089840
     H    9   0.034513   0.573151   5.072219
     H   10   0.019845   0.000262   0.000199   5.398108
     H   11   0.020205   0.000177   0.000256   0.491482   5.398202
     H   12   0.016336   0.000167   0.000080   0.020576   0.042732   5.398917
     H   13   0.016297   0.000142   0.000138   0.042828   0.020550   0.491374
     H   14   0.407619   0.046140   0.023951   0.002314   0.002133   0.003133
     H   15   0.455469   0.024621   0.045379   0.002174   0.000696   0.000693
     H   16   0.009688   0.029918   0.030014   0.000122   0.000107   0.000140
     H   17   0.001644   0.048142   0.024472   0.000106   0.000106   0.000107
     H   18   0.001385   0.024682   0.047135   0.000087   0.000149   0.000156
     H   19   4.777836   0.002597   0.023569   0.020336   0.019830   0.013912


                  H 13       H 14       H 15       H 16       H 17       H 18
 ------------------------------------------------------------------------------
     H   13   5.398366
     H   14   0.003304   5.007377
     H   15   0.000650   0.563696   5.057283
     H   16   0.000126   0.001841   0.001708   5.490109
     H   17   0.000114   0.018415   0.001594   0.572156   5.467022
     H   18   0.000130   0.001603   0.018963   0.573830   0.577414   5.467280
     H   19   0.013716   0.013879   0.037621   0.000518   0.000638   0.000612


                  H 19
 ------------------
     H   19   5.149735


          HEAT OF FORMATION =      24.302178 KCALS/MOLE

          ZERO POINT ENERGY     106.605 KCAL/MOL


           NORMAL COORDINATE ANALYSIS (Total motion = 1 Angstrom)


   Root No.       1         2         3         4         5         6         7         8

                 1 A       2 A       3 A       4 A       5 A       6 A       7 A       8 A   

                  52.0      77.9     137.8     204.3     215.1     305.7     369.5     431.5
  
           1   -0.0254    0.0196    0.0059   -0.0170    0.0115    0.0321    0.0151    0.0283
           2    0.0066   -0.0231    0.0071    0.0130    0.0010   -0.0186    0.0368    0.0118
           3   -0.0168    0.0384   -0.0113   -0.0234    0.0012   -0.0286    0.0173   -0.0089
           4    0.0261    0.0086    0.0368    0.0132   -0.0301   -0.0240   -0.0017   -0.0162
           5    0.0104    0.0140    0.0153    0.0018   -0.0063    0.0014   -0.0072   -0.0049
           6   -0.0259    0.0207   -0.0202    0.0092   -0.0212   -0.0083   -0.0107    0.0099
           7    0.0075   -0.0046   -0.0248    0.0021   -0.0008    0.0077   -0.0384   -0.0294
           8    0.0121    0.0151    0.0206    0.0026   -0.0083   -0.0006   -0.0012    0.0005
           9   -0.0201   -0.0174    0.0423   -0.0091    0.0303   -0.0125   -0.0080   -0.0124
          10    0.0078    0.0033   -0.0047   -0.0064    0.0246    0.0296   -0.0030    0.0158
          11   -0.0210   -0.0197   -0.0227    0.0038   -0.0220   -0.0256   -0.0098   -0.0155
          12    0.0492    0.0082   -0.0257   -0.0029    0.0310   -0.0279    0.0067   -0.0078
          13   -0.0225   -0.0282   -0.0220    0.0009    0.0047   -0.0176    0.0542    0.0274
          14    0.0063    0.0278    0.0229   -0.0073    0.0075    0.0163    0.0184    0.0215
          15   -0.0282   -0.0314    0.0281    0.0073   -0.0009    0.0172   -0.0166   -0.0014
          16    0.0087    0.0019    0.0062    0.0037   -0.0047   -0.0188   -0.0290   -0.0058
          17   -0.0023   -0.0032   -0.0219   -0.0100    0.0255    0.0256   -0.0287   -0.0151
          18    0.0085   -0.0051   -0.0069    0.0106   -0.0261    0.0554    0.0453   -0.0484
          19    0.0005    0.0024    0.0070    0.0036   -0.0058   -0.0112   -0.0101   -0.0224
          20   -0.0140   -0.0158   -0.0338   -0.0065    0.0120    0.0022   -0.0135   -0.0071
          21    0.0402   -0.0125   -0.0141    0.0111   -0.0252    0.0172   -0.0176    0.0550
          22   -0.0746    0.0392    0.0246   -0.0255   -0.0080    0.0501    0.0123    0.0350
          23    0.0345   -0.1048    0.0238    0.0480    0.0155   -0.0066    0.0384    0.0240
          24   -0.0113    0.0446   -0.0165   -0.0260    0.0030   -0.0325    0.0172   -0.0111
          25   -0.0055    0.0487    0.0171   -0.0271    0.0254    0.0492    0.0183    0.0390
          26    0.0004    0.0172    0.0098   -0.0034    0.0002   -0.0110    0.0367    0.0146
          27   -0.0643    0.1097   -0.0209   -0.0545   -0.0220   -0.0352    0.0135   -0.0192
          28    0.0569    0.0101    0.0467    0.0266   -0.0671    0.0220    0.0745   -0.0877
          29    0.0053    0.0390   -0.0214    0.0142   -0.0415    0.0000   -0.0123    0.0188
          30   -0.0309    0.0354   -0.0426    0.0157   -0.0399   -0.0123   -0.0194    0.0296
          31    0.0131    0.0170    0.0740    0.0107   -0.0221   -0.0909   -0.0406    0.0491
          32    0.0211   -0.0031    0.0681   -0.0047    0.0133   -0.0096    0.0104   -0.0212
          33   -0.0408    0.0378   -0.0384    0.0126   -0.0312   -0.0371   -0.0456    0.0594
          34    0.0246   -0.0119   -0.0700    0.0101   -0.0259    0.0864   -0.0054   -0.0788
          35    0.0084    0.0407   -0.0110    0.0149   -0.0432   -0.0083   -0.0063    0.0308
          36   -0.0209   -0.0307    0.0682   -0.0177    0.0549   -0.0219   -0.0109   -0.0218
          37   -0.0193   -0.0070   -0.0270   -0.0122    0.0403   -0.0379   -0.0986   -0.0016
          38    0.0236   -0.0008    0.0767   -0.0027    0.0075   -0.0096    0.0238   -0.0179
          39   -0.0308   -0.0289    0.0760   -0.0221    0.0681   -0.0493   -0.0328   -0.0053
          40    0.0552   -0.0210   -0.0152    0.0082    0.0446    0.0448   -0.0128    0.0329
          41   -0.0632   -0.0175   -0.0137    0.0059   -0.1032   -0.0135   -0.0427    0.0188
          42    0.0457    0.0120   -0.0245   -0.0055    0.0372   -0.0312    0.0120   -0.0146
          43   -0.0061    0.0125   -0.0191   -0.0187    0.0413    0.0392   -0.0093    0.0116
          44   -0.0081   -0.0191   -0.0323   -0.0005    0.0120   -0.0220   -0.0048   -0.0252
          45    0.1067   -0.0049   -0.0333    0.0037    0.1047   -0.0340    0.0326   -0.0294
          46   -0.0410   -0.0108   -0.0120    0.0839    0.0287    0.0041    0.0371    0.0300
          47    0.0206    0.0208    0.0573   -0.1095   -0.0152    0.0724   -0.0298    0.0251
          48   -0.0648    0.0014    0.0374    0.1806    0.0475    0.0426   -0.0370    0.0017
          49    0.0151   -0.0585   -0.0388   -0.1703   -0.0435   -0.0549    0.0861    0.0249
          50   -0.0129    0.1196    0.0033    0.0954    0.0482    0.0054    0.0317    0.0226
          51   -0.0342   -0.0362    0.0344    0.0330    0.0048    0.0273   -0.0260   -0.0011
          52   -0.0393   -0.0540   -0.0387    0.1039    0.0230   -0.0505    0.0831    0.0272
          53    0.0111   -0.0158    0.0213   -0.0246   -0.0052    0.0041    0.0275    0.0209
          54    0.0057   -0.1153    0.0448   -0.1673   -0.0575    0.0250   -0.0270   -0.0025
          55   -0.0106    0.0011    0.0066    0.0109   -0.0287   -0.0357    0.0078   -0.0533
          56   -0.0170   -0.0188   -0.0311   -0.0027   -0.0006   -0.0097   -0.0117   -0.0068
          57    0.0571   -0.0358    0.0054    0.0145   -0.0406    0.0092   -0.0709    0.1811


   Root No.       9        10        11        12        13        14        15        16

                 9 A      10 A      11 A      12 A      13 A      14 A      15 A      16 A   

                 540.2     768.4     817.1     825.4     855.5     893.5     928.0     956.8
  
           1    0.0135    0.0093   -0.0020    0.0043    0.0045    0.0003   -0.0039    0.0144
           2   -0.0238   -0.0101    0.0030   -0.0065   -0.0046   -0.0010    0.0040   -0.0098
           3   -0.0143    0.0111   -0.0080    0.0170    0.0028    0.0093    0.0001   -0.0120
           4    0.0173   -0.0107   -0.0055    0.0118    0.0269   -0.0152    0.0019   -0.0029
           5   -0.0162   -0.0049   -0.0010    0.0044    0.0154   -0.0074   -0.0004    0.0067
           6    0.0031   -0.0014    0.0077    0.0017    0.0134    0.0068    0.0082    0.0024
           7   -0.0414   -0.0091   -0.0025    0.0037    0.0171   -0.0026   -0.0030    0.0035
           8   -0.0072    0.0061    0.0029   -0.0090   -0.0281    0.0160   -0.0047    0.0004
           9   -0.0081   -0.0049    0.0036    0.0109   -0.0079   -0.0040    0.0037    0.0038
          10    0.0297    0.0132    0.0002   -0.0030   -0.0118   -0.0023    0.0144   -0.0292
          11    0.0352   -0.0010    0.0012   -0.0034   -0.0105    0.0091   -0.0102    0.0160
          12    0.0132    0.0230    0.0017   -0.0075   -0.0112   -0.0146    0.0163    0.0218
          13   -0.0176   -0.0004    0.0004   -0.0001    0.0065   -0.0022   -0.0097    0.0394
          14   -0.0068   -0.0009    0.0010   -0.0018    0.0045   -0.0063    0.0059   -0.0041
          15    0.0055   -0.0005   -0.0014    0.0035    0.0022    0.0062   -0.0098   -0.0220
          16   -0.0092    0.0041    0.0002   -0.0079   -0.0219    0.0131   -0.0027   -0.0032
          17   -0.0446   -0.0002    0.0004   -0.0004    0.0011   -0.0017    0.0014   -0.0021
          18    0.0006   -0.0025    0.0083    0.0055   -0.0077    0.0050   -0.0010   -0.0024
          19    0.0032    0.0085    0.0015   -0.0079   -0.0400    0.0222    0.0031   -0.0025
          20    0.0551   -0.0045   -0.0043    0.0118    0.0221   -0.0104    0.0075   -0.0134
          21   -0.0061    0.0072    0.0096   -0.0196    0.0109   -0.0132   -0.0291   -0.0092
          22    0.0069   -0.0692    0.0167   -0.0281    0.0154    0.0176   -0.0769   -0.0281
          23   -0.0315    0.1044   -0.0445    0.0942    0.0360    0.0464   -0.0450   -0.0274
          24   -0.0114    0.0082   -0.0043    0.0080   -0.0047   -0.0007    0.0193   -0.0005
          25    0.0099    0.0156    0.0048   -0.0127   -0.0034   -0.0377    0.0664   -0.0201
          26   -0.0238   -0.0493    0.0216   -0.0460   -0.0178   -0.0289    0.0399   -0.0244
          27   -0.0095   -0.1215    0.0389   -0.0791   -0.0274   -0.0155   -0.0007   -0.0088
          28    0.0510    0.0044   -0.0321   -0.0426    0.2023    0.0539    0.0774    0.0160
          29   -0.0062   -0.0162   -0.1465   -0.0322    0.0408   -0.0214   -0.0008    0.0036
          30    0.0067   -0.0104   -0.0829   -0.0164    0.0160   -0.0085    0.0019   -0.0012
          31    0.0397   -0.0412    0.0462    0.1040   -0.0198   -0.1421   -0.0398   -0.0187
          32   -0.0012    0.0003    0.1375    0.0523    0.0279   -0.0206    0.0084    0.0108
          33    0.0042   -0.0227   -0.0719    0.0167   -0.0252   -0.0552   -0.0227   -0.0098
          34   -0.0736   -0.0620   -0.0634    0.0925   -0.0843   -0.0901   -0.0011    0.0318
          35    0.0097    0.0131    0.1528    0.0280   -0.0332    0.0564    0.0140   -0.0043
          36   -0.0125    0.0007   -0.0761   -0.0286    0.0162   -0.0118   -0.0079    0.0014
          37   -0.0713    0.0170    0.0793   -0.0409    0.1700    0.0403    0.0016    0.0087
          38    0.0147    0.0092   -0.1467   -0.0581   -0.0599   -0.0004   -0.0256   -0.0133
          39   -0.0141    0.0159   -0.0397   -0.0542    0.0772    0.0160   -0.0070   -0.0018
          40    0.0666   -0.0442    0.0232   -0.0478   -0.0125    0.0098   -0.0703   -0.0815
          41   -0.0164    0.1415    0.0097   -0.0362   -0.0398   -0.0607    0.0470   -0.0022
          42    0.0137    0.0134   -0.0030    0.0036   -0.0080   -0.0074    0.0226    0.0321
          43    0.0730    0.0140   -0.0138    0.0299    0.0141   -0.0035    0.0492   -0.0579
          44    0.0730   -0.0462   -0.0044    0.0143    0.0076    0.0293   -0.0214    0.0055
          45    0.0613   -0.1188    0.0077   -0.0073    0.0019    0.0495   -0.0743    0.0358
          46   -0.0020   -0.0040    0.0074   -0.0161   -0.0001   -0.0187    0.0036    0.1211
          47    0.0416    0.0196   -0.0008    0.0013    0.0083   -0.0052   -0.0353    0.2277
          48    0.0233   -0.0114    0.0116   -0.0261   -0.0113   -0.0235    0.0240    0.0729
          49   -0.0461    0.0065   -0.0126    0.0301    0.0223    0.0282   -0.0411   -0.1062
          50   -0.0143    0.0419   -0.0268    0.0610    0.0353    0.0531   -0.0896   -0.0479
          51    0.0135   -0.0086    0.0059   -0.0131   -0.0062   -0.0097    0.0114    0.0186
          52   -0.0497   -0.0398    0.0187   -0.0405   -0.0114   -0.0425    0.0782   -0.0972
          53   -0.0182   -0.0270    0.0148   -0.0326   -0.0094   -0.0365    0.0629   -0.0474
          54    0.0134   -0.0251    0.0147   -0.0327   -0.0145   -0.0278    0.0394    0.0271
          55    0.0485    0.0276    0.0173   -0.0372   -0.0689    0.0277   -0.0481    0.0012
          56    0.0722   -0.0079   -0.0049    0.0111    0.0045    0.0091    0.0033   -0.0052
          57   -0.0166   -0.0996   -0.0579    0.0894   -0.0441    0.1485    0.1341    0.0459


   Root No.      17        18        19        20        21        22        23        24

                17 A      18 A      19 A      20 A      21 A      22 A      23 A      24 A   

                1011.2    1036.5    1077.8    1084.4    1117.1    1126.2    1132.3    1139.0
  
           1   -0.0058   -0.0070    0.0067   -0.0005    0.0220    0.0108    0.0147    0.0158
           2    0.0051    0.0079   -0.0064   -0.0004    0.0314    0.0153   -0.0187    0.0012
           3   -0.0085   -0.0052   -0.0045   -0.0002   -0.0152    0.0347    0.0114    0.0258
           4   -0.0024    0.0059   -0.0259   -0.0091   -0.0013   -0.0248    0.0173    0.0112
           5    0.0007   -0.0034    0.0294   -0.0017   -0.0016   -0.0199    0.0161    0.0086
           6    0.0169   -0.0180   -0.0048    0.0558   -0.0004   -0.0036    0.0022    0.0026
           7   -0.0082   -0.0020   -0.0085    0.0141    0.0008   -0.0199    0.0092    0.0106
           8   -0.0069   -0.0073    0.0128   -0.0024   -0.0024    0.0027    0.0002   -0.0097
           9    0.0153   -0.0175   -0.0071   -0.0558   -0.0001   -0.0047    0.0023    0.0020
          10    0.0095    0.0132   -0.0015   -0.0008   -0.0065    0.0129   -0.0083   -0.0118
          11    0.0013    0.0010    0.0075   -0.0008   -0.0123    0.0119    0.0052    0.0016
          12    0.0135    0.0144    0.0100   -0.0011    0.0215   -0.0183    0.0125   -0.0182
          13    0.0028    0.0036   -0.0046    0.0005   -0.0175   -0.0154   -0.0134   -0.0050
          14   -0.0035   -0.0050    0.0014    0.0009   -0.0359   -0.0119    0.0163   -0.0122
          15    0.0087    0.0043    0.0054   -0.0004   -0.0038   -0.0261   -0.0211   -0.0069
          16    0.0012   -0.0100   -0.0156    0.0010   -0.0002    0.0070   -0.0059   -0.0047
          17    0.0043    0.0083   -0.0322    0.0031    0.0031    0.0208   -0.0179   -0.0011
          18   -0.0275    0.0356    0.0023    0.0023    0.0008   -0.0013    0.0011   -0.0008
          19   -0.0012    0.0053    0.0011    0.0004    0.0018    0.0118   -0.0070   -0.0056
          20   -0.0030   -0.0026   -0.0165    0.0013    0.0187   -0.0167    0.0016    0.0104
          21   -0.0095   -0.0287   -0.0092   -0.0036    0.0007    0.0095   -0.0075   -0.0043
          22    0.0516    0.0207    0.0058    0.0019    0.1897    0.0246    0.1511   -0.1039
          23   -0.0104   -0.0144   -0.0076    0.0007    0.0627    0.1041    0.0962    0.0215
          24   -0.0162   -0.0068   -0.0042   -0.0008   -0.0492    0.0220   -0.0269    0.0458
          25   -0.0544   -0.0543    0.0508   -0.0061    0.0937   -0.0412   -0.0871    0.1617
          26   -0.0047   -0.0020    0.0103   -0.0027    0.0801   -0.0232   -0.0845    0.0480
          27    0.0384    0.0385   -0.0206    0.0010    0.0174    0.0008   -0.0226   -0.0590
          28    0.1067   -0.0573   -0.0029   -0.0317    0.0099    0.1179   -0.0868   -0.0365
          29   -0.0160    0.0373    0.0506   -0.1933    0.0038    0.0388   -0.0249   -0.0138
          30   -0.0026    0.0129    0.0053   -0.0613    0.0021    0.0214   -0.0150   -0.0074
          31   -0.0432    0.0979    0.0215    0.0506    0.0126    0.1121   -0.0815   -0.0359
          32    0.0372   -0.0231    0.0673    0.1776    0.0038    0.0452   -0.0301   -0.0118
          33   -0.0352    0.0500   -0.0054   -0.0486    0.0033    0.0244   -0.0184   -0.0086
          34    0.0923   -0.1023    0.1275   -0.0244   -0.0126    0.0208    0.0047   -0.0334
          35   -0.0071   -0.0111   -0.0972   -0.1795    0.0048   -0.0344    0.0093    0.0195
          36   -0.0041    0.0040    0.0330    0.0573   -0.0019    0.0088   -0.0016   -0.0070
          37   -0.0756    0.0771    0.1414   -0.0301   -0.0101    0.0183    0.0067   -0.0323
          38   -0.0223   -0.0047   -0.0732    0.2022    0.0054   -0.0305    0.0062    0.0218
          39   -0.0422    0.0401    0.0406    0.0483   -0.0024    0.0010    0.0038   -0.0073
          40    0.1134    0.0798    0.0632   -0.0095   -0.1276    0.0404    0.0300    0.1464
          41    0.0962    0.0877    0.0485   -0.0067   -0.0135   -0.0213    0.0365    0.0208
          42   -0.0145   -0.0063   -0.0052    0.0009    0.0415   -0.0177    0.0036   -0.0469
          43   -0.0648   -0.0537   -0.0031    0.0057   -0.0803    0.0108   -0.0256   -0.1585
          44   -0.0416   -0.0404    0.0067    0.0022   -0.0639    0.0258   -0.0027   -0.0483
          45   -0.0001   -0.0073    0.0123   -0.0024   -0.0149    0.0248    0.0178    0.0584
          46   -0.0076    0.0026   -0.0162    0.0011   -0.0289    0.0108    0.0024    0.0054
          47    0.0036    0.0185   -0.0310    0.0018   -0.0437    0.0005   -0.0276   -0.0075
          48   -0.0115   -0.0018   -0.0091    0.0005   -0.0236    0.0213    0.0158    0.0112
          49    0.0267    0.0065    0.0218   -0.0004   -0.0191   -0.0892   -0.0355   -0.0317
          50    0.0457    0.0249    0.0139   -0.0004   -0.0259   -0.1120   -0.0799   -0.0428
          51   -0.0036   -0.0003   -0.0022   -0.0000   -0.0067    0.0043   -0.0031    0.0043
          52   -0.0333   -0.0354    0.0155    0.0015   -0.0612    0.0013    0.0832   -0.0097
          53   -0.0292   -0.0277    0.0065    0.0017   -0.0656    0.0136    0.0799   -0.0117
          54   -0.0173   -0.0095   -0.0049    0.0007   -0.0264    0.0237    0.0306    0.0055
          55   -0.0623   -0.0868    0.1503   -0.0234    0.0458   -0.0174   -0.0409    0.0056
          56   -0.0278   -0.0319    0.0545   -0.0042    0.0407   -0.0335   -0.0116    0.0181
          57    0.0044    0.0673    0.0544    0.0396    0.0190   -0.0188    0.0040    0.0069


   Root No.      25        26        27        28        29        30        31        32

                25 A      26 A      27 A      28 A      29 A      30 A      31 A      32 A   

                1145.7    1170.8    1184.4    1221.8    1242.5    1324.8    1377.7    1390.4
  
           1   -0.0105   -0.0243   -0.0047   -0.0091   -0.0272    0.0359   -0.0056    0.0013
           2    0.0379    0.0052    0.0106   -0.0034   -0.0068    0.0161   -0.0135    0.0003
           3    0.0146    0.0158    0.0026    0.0023    0.0080   -0.0086   -0.0050   -0.0005
           4    0.0180   -0.0094   -0.0124    0.0562   -0.0009    0.0067    0.0001    0.0191
           5    0.0179    0.0034    0.0270    0.0009   -0.0312   -0.0105    0.0040   -0.0313
           6    0.0049   -0.0017   -0.0039    0.0121   -0.0003    0.0015    0.0002    0.0048
           7   -0.0043    0.0113    0.0355   -0.0563    0.0054    0.0055   -0.0002   -0.0234
           8    0.0085   -0.0045   -0.0388   -0.0257    0.0320    0.0078   -0.0042   -0.0241
           9   -0.0013    0.0023    0.0090   -0.0117    0.0009    0.0012   -0.0001   -0.0047
          10    0.0271    0.0160   -0.0018   -0.0110   -0.0291   -0.0039    0.0236   -0.0040
          11   -0.0054   -0.0494    0.0070   -0.0061   -0.0195   -0.0018   -0.0036   -0.0071
          12   -0.0124   -0.0098    0.0068    0.0025    0.0060    0.0042   -0.0127   -0.0024
          13   -0.0011    0.0106   -0.0014    0.0030    0.0085   -0.0025   -0.0111    0.0021
          14   -0.0249    0.0076   -0.0092    0.0000   -0.0040    0.0053   -0.0170    0.0028
          15   -0.0064   -0.0099   -0.0030   -0.0022   -0.0055    0.0039   -0.0044    0.0006
          16   -0.0048   -0.0017   -0.0145    0.0004    0.0056   -0.0115   -0.0062    0.0028
          17   -0.0258   -0.0042    0.0016    0.0693   -0.0028    0.0077    0.0009    0.0123
          18   -0.0028   -0.0011   -0.0025   -0.0009    0.0024   -0.0026   -0.0018    0.0004
          19   -0.0059    0.0003   -0.0116    0.0012   -0.0120   -0.0261   -0.0065    0.0010
          20    0.0016    0.0364   -0.0313   -0.0177    0.0117   -0.0118   -0.0056    0.0014
          21    0.0045    0.0002   -0.0050   -0.0016   -0.0086   -0.0055    0.0004    0.0002
          22   -0.0352   -0.0174    0.0420    0.0345    0.0859   -0.0664   -0.0352   -0.0030
          23    0.0248    0.0175    0.0269    0.0147    0.0422   -0.0343    0.1076   -0.0011
          24    0.0213    0.0139   -0.0073   -0.0076   -0.0175    0.0156   -0.0059    0.0005
          25   -0.0301   -0.1479    0.0193    0.0179    0.0928   -0.0789    0.0162   -0.0032
          26    0.0447   -0.0468    0.0270    0.0083    0.0486   -0.0364    0.0456   -0.0016
          27    0.0593    0.0551    0.0113   -0.0044   -0.0165    0.0153    0.1029    0.0010
          28   -0.0907    0.0151    0.0033   -0.0509    0.0381    0.0386    0.0163   -0.0925
          29   -0.0308    0.0175    0.0563   -0.0651   -0.0538   -0.0800   -0.0313    0.1485
          30   -0.0172    0.0050    0.0119   -0.0200   -0.0139   -0.0374   -0.0198    0.1090
          31   -0.0956    0.0151    0.0098   -0.0548    0.0309    0.0192    0.0053   -0.0374
          32   -0.0265    0.0194    0.0531   -0.0654   -0.0553   -0.0787   -0.0298    0.1438
          33   -0.0251    0.0001   -0.0101   -0.0006    0.0322    0.0532    0.0254   -0.1431
          34    0.0547   -0.0237   -0.1074   -0.0176    0.0518    0.0430    0.0202    0.1055
          35   -0.0283    0.0209    0.0515   -0.1114    0.0498    0.0622    0.0276    0.1148
          36    0.0100   -0.0063   -0.0188    0.0289   -0.0148   -0.0323   -0.0197   -0.0973
          37    0.0507   -0.0247   -0.1054   -0.0049    0.0413    0.0257    0.0108    0.0565
          38   -0.0254    0.0223    0.0490   -0.1128    0.0493    0.0634    0.0288    0.1192
          39    0.0140   -0.0050   -0.0303   -0.0294    0.0330    0.0448    0.0254    0.1282
          40    0.0161    0.0328    0.0630    0.0370    0.1075    0.0024   -0.0815   -0.0084
          41   -0.0105   -0.0314    0.0515    0.0199    0.0383    0.0509    0.0891    0.0318
          42   -0.0098   -0.0159   -0.0080   -0.0080   -0.0240   -0.0006    0.0037   -0.0033
          43    0.0905   -0.0632    0.1506    0.0532    0.1043    0.0142   -0.0299    0.0085
          44    0.0182   -0.1149    0.0803    0.0241    0.0341    0.0199    0.0234    0.0137
          45   -0.0416   -0.0680   -0.0150   -0.0073   -0.0403    0.0321    0.1158    0.0297
          46    0.0094    0.0320    0.0041    0.0114    0.0332   -0.0353    0.0243   -0.0037
          47    0.0314    0.0501    0.0136    0.0208    0.0605   -0.0757    0.0675   -0.0107
          48    0.0039    0.0210    0.0013    0.0061    0.0179   -0.0256    0.0271   -0.0046
          49   -0.0505   -0.0289   -0.0137    0.0010    0.0040   -0.0290    0.0368   -0.0065
          50   -0.0293   -0.0195   -0.0092    0.0033    0.0116   -0.0455    0.0826   -0.0110
          51    0.0051    0.0032   -0.0001   -0.0015   -0.0046    0.0122   -0.0204    0.0032
          52   -0.0785   -0.0023   -0.0201    0.0048    0.0075   -0.0440    0.0676   -0.0101
          53   -0.0606    0.0123   -0.0171    0.0035    0.0021   -0.0273    0.0465   -0.0064
          54   -0.0071    0.0169   -0.0030    0.0028    0.0061   -0.0184    0.0438   -0.0052
          55   -0.0599    0.1790    0.0840    0.1549   -0.0044    0.0625    0.0207    0.0077
          56   -0.0256    0.1169    0.0125    0.0535    0.0181    0.0299    0.0063    0.0047
          57   -0.0257    0.0288    0.0209    0.0337    0.0077    0.0127    0.0012    0.0014


   Root No.      33        34        35        36        37        38        39        40

                33 A      34 A      35 A      36 A      37 A      38 A      39 A      40 A   

                1396.5    1408.6    1408.8    1411.9    1431.6    1493.9    2106.3    2941.7
  
           1    0.0041    0.0294    0.0085   -0.0150   -0.0309    0.0177    0.0027    0.0073
           2   -0.0013   -0.0096   -0.0026    0.0039   -0.0364    0.0072    0.0017   -0.0087
           3   -0.0032   -0.0195   -0.0070    0.0095   -0.0055   -0.0046   -0.0003    0.0144
           4   -0.0007    0.0023    0.0008   -0.0009   -0.0038   -0.0257   -0.0465   -0.0000
           5   -0.0098   -0.0091   -0.0031    0.0033    0.0125    0.0586    0.0538    0.0000
           6    0.0000    0.0004    0.0002   -0.0002   -0.0010   -0.0069   -0.0112   -0.0000
           7    0.0074    0.0026    0.0009   -0.0009   -0.0057   -0.0354   -0.0547   -0.0000
           8    0.0172    0.0079    0.0027   -0.0028   -0.0118   -0.0511   -0.0451   -0.0000
           9    0.0013    0.0006    0.0002   -0.0002   -0.0011   -0.0067   -0.0110   -0.0000
          10   -0.0171   -0.0272   -0.0084    0.0101    0.0160   -0.0494    0.0126   -0.0151
          11   -0.0355    0.0021    0.0006   -0.0010    0.0129   -0.0361    0.0100    0.0172
          12   -0.0115    0.0142    0.0043   -0.0055   -0.0012   -0.0010    0.0029   -0.0337
          13    0.0107    0.0020   -0.0127    0.0264    0.0318   -0.0031   -0.0005   -0.0005
          14    0.0132   -0.0099    0.0129   -0.0058    0.0387   -0.0043   -0.0005    0.0005
          15    0.0027    0.0003   -0.0271   -0.0164    0.0068   -0.0010   -0.0000   -0.0009
          16    0.0108    0.0047    0.0016   -0.0015   -0.0028    0.0190    0.2844    0.0004
          17   -0.0055    0.0005    0.0001   -0.0003    0.0003   -0.0059   -0.0243    0.0002
          18    0.0025    0.0015    0.0005   -0.0005   -0.0006    0.0046    0.0625    0.0000
          19    0.0054    0.0005    0.0001    0.0000    0.0056    0.0686   -0.1890    0.0003
          20    0.0168    0.0036    0.0009   -0.0012   -0.0050    0.0308   -0.0067   -0.0015
          21    0.0006   -0.0018   -0.0004    0.0006    0.0008    0.0132   -0.0405    0.0001
          22   -0.0187   -0.0913   -0.0305    0.0566    0.0054   -0.0268    0.0008   -0.0256
          23    0.0137    0.1158    0.0369   -0.0678    0.1219   -0.0108    0.0004   -0.0176
          24    0.0009   -0.0012   -0.0016   -0.0018   -0.0222    0.0058    0.0011   -0.1321
          25   -0.0103   -0.0236   -0.0064    0.0180    0.0637   -0.0255    0.0012   -0.0623
          26    0.0023    0.0330    0.0119   -0.0200    0.0576   -0.0109    0.0018    0.1230
          27    0.0225    0.1427    0.0424   -0.0845    0.0910    0.0066   -0.0011   -0.0433
          28   -0.0212   -0.0165   -0.0055    0.0057    0.0159    0.0411   -0.0045    0.0002
          29    0.0426    0.0294    0.0099   -0.0101   -0.0267   -0.0558    0.0259   -0.0001
          30    0.0296    0.0224    0.0076   -0.0079   -0.0236   -0.0746   -0.0378    0.0002
          31   -0.0066   -0.0043   -0.0015    0.0014    0.0042    0.0063   -0.0199   -0.0003
          32    0.0413    0.0276    0.0094   -0.0094   -0.0256   -0.0529    0.0270    0.0003
          33   -0.0373   -0.0278   -0.0094    0.0097    0.0290    0.0871    0.0316    0.0003
          34   -0.0530   -0.0183   -0.0063    0.0060    0.0201    0.0510   -0.0093   -0.0001
          35   -0.0669   -0.0233   -0.0080    0.0076    0.0237    0.0462   -0.0244   -0.0001
          36    0.0545    0.0202    0.0069   -0.0067   -0.0237   -0.0728   -0.0379   -0.0003
          37   -0.0262   -0.0090   -0.0031    0.0029    0.0087    0.0165   -0.0247    0.0001
          38   -0.0693   -0.0247   -0.0085    0.0082    0.0247    0.0492   -0.0231    0.0000
          39   -0.0692   -0.0253   -0.0087    0.0085    0.0291    0.0857    0.0314   -0.0000
          40   -0.0403    0.0661    0.0146   -0.0246   -0.0177    0.0281    0.0010    0.0550
          41    0.1531   -0.0616   -0.0197    0.0258   -0.0296    0.0332    0.0096    0.0385
          42   -0.0158   -0.0017    0.0001    0.0006    0.0081   -0.0186   -0.0024    0.3277
          43    0.0421    0.0248    0.0138   -0.0085   -0.0280    0.0674   -0.0232    0.1261
          44    0.0634   -0.0142   -0.0008    0.0069   -0.0152    0.0345   -0.0079   -0.2439
          45    0.1408   -0.0870   -0.0277    0.0348   -0.0117    0.0164   -0.0038    0.0798
          46   -0.0161   -0.0387    0.1216   -0.0311   -0.0261    0.0005   -0.0004    0.0001
          47   -0.0474   -0.0165   -0.1611   -0.1180   -0.0966    0.0020   -0.0002    0.0000
          48   -0.0217   -0.0606    0.2580   -0.0482   -0.0431    0.0020   -0.0001   -0.0003
          49   -0.0300   -0.0750    0.1849   -0.1739   -0.0635    0.0042   -0.0002    0.0016
          50   -0.0516    0.0759    0.0127    0.1731   -0.1026    0.0094   -0.0002    0.0004
          51    0.0149    0.0077   -0.0515    0.0142    0.0348   -0.0034   -0.0001    0.0086
          52   -0.0470    0.0264   -0.1673   -0.0728   -0.1018    0.0067    0.0002    0.0041
          53   -0.0298    0.0330   -0.0200    0.0497   -0.0569    0.0039   -0.0001   -0.0070
          54   -0.0249    0.0616    0.1336    0.2327   -0.0460    0.0057   -0.0000    0.0031
          55   -0.0174   -0.0104   -0.0034    0.0027   -0.0024   -0.0696   -0.0289   -0.0083
          56    0.0069   -0.0003   -0.0004   -0.0004   -0.0093   -0.0366    0.1228    0.0155
          57   -0.0037    0.0009    0.0000   -0.0004   -0.0004   -0.0121   -0.0094   -0.0030


   Root No.      41        42        43        44        45        46        47        48

                41 A      42 A      43 A      44 A      45 A      46 A      47 A      48 A   

                2959.3    3023.5    3037.7    3041.6    3072.8    3078.4    3084.5    3086.4
  
           1   -0.0160   -0.0001    0.0068   -0.0007    0.0000   -0.0011   -0.0007   -0.0000
           2    0.0195    0.0026   -0.0270    0.0016   -0.0000    0.0013    0.0025   -0.0000
           3   -0.0318    0.0023   -0.0213    0.0011   -0.0000   -0.0025    0.0019   -0.0000
           4   -0.0000   -0.0001   -0.0000   -0.0000    0.0066   -0.0000    0.0000    0.0066
           5    0.0000    0.0000   -0.0000   -0.0005   -0.0006   -0.0000    0.0000   -0.0006
           6   -0.0000    0.0000    0.0000    0.0000   -0.0301    0.0000   -0.0001   -0.0302
           7   -0.0000   -0.0001    0.0000    0.0005   -0.0066    0.0000   -0.0000    0.0067
           8   -0.0000   -0.0000    0.0000    0.0003    0.0005   -0.0000   -0.0000   -0.0006
           9   -0.0000    0.0000   -0.0000    0.0001    0.0299   -0.0001    0.0000   -0.0304
          10   -0.0067    0.0094    0.0015    0.0027   -0.0000    0.0001    0.0003    0.0000
          11    0.0075   -0.0302   -0.0033   -0.0061   -0.0000   -0.0001    0.0003   -0.0000
          12   -0.0152   -0.0170   -0.0022   -0.0006    0.0001    0.0001    0.0000   -0.0000
          13    0.0009    0.0003   -0.0031    0.0003    0.0000   -0.0216   -0.0319    0.0000
          14   -0.0010   -0.0002    0.0013   -0.0002   -0.0000    0.0251    0.0211   -0.0000
          15    0.0016   -0.0003    0.0027   -0.0001   -0.0001   -0.0432    0.0282   -0.0000
          16    0.0002    0.0007   -0.0002   -0.0065   -0.0000   -0.0000   -0.0000    0.0001
          17    0.0001   -0.0002    0.0000    0.0003   -0.0000   -0.0000   -0.0000   -0.0000
          18    0.0000    0.0001   -0.0001   -0.0014    0.0000   -0.0000   -0.0000   -0.0005
          19    0.0000   -0.0032    0.0010    0.0303    0.0000    0.0001    0.0000    0.0000
          20   -0.0004    0.0051   -0.0013   -0.0561   -0.0000   -0.0001   -0.0001   -0.0000
          21   -0.0000   -0.0007    0.0001    0.0074   -0.0000    0.0000   -0.0000   -0.0001
          22    0.0485   -0.0097    0.0813   -0.0047    0.0001    0.0059   -0.0088    0.0000
          23    0.0400   -0.0036    0.0235   -0.0015    0.0000    0.0060   -0.0030    0.0000
          24    0.2891   -0.0457    0.3943   -0.0226    0.0002    0.0235   -0.0333    0.0002
          25    0.1447    0.0158   -0.1670    0.0096   -0.0001    0.0070    0.0126   -0.0000
          26   -0.2746   -0.0305    0.3045   -0.0218    0.0002   -0.0204   -0.0274    0.0001
          27    0.0920    0.0137   -0.1344    0.0094   -0.0001    0.0048    0.0119   -0.0000
          28    0.0001   -0.0000   -0.0000    0.0001    0.0165   -0.0000    0.0001    0.0150
          29   -0.0000    0.0001    0.0002    0.0004   -0.1223    0.0001   -0.0004   -0.1244
          30    0.0001   -0.0003   -0.0004   -0.0012    0.1992   -0.0001    0.0007    0.1963
          31   -0.0001   -0.0001    0.0000   -0.0002   -0.0975    0.0000   -0.0003   -0.0948
          32    0.0001    0.0001   -0.0000    0.0002    0.1295   -0.0000    0.0004    0.1314
          33    0.0002    0.0001   -0.0000    0.0008    0.1697   -0.0001    0.0006    0.1674
          34   -0.0001   -0.0001    0.0000    0.0005   -0.0377    0.0001   -0.0000    0.0372
          35   -0.0001   -0.0003    0.0000    0.0006   -0.1163    0.0002   -0.0000    0.1204
          36   -0.0002   -0.0005   -0.0000    0.0007   -0.1974    0.0004   -0.0001    0.1974
          37    0.0001    0.0002   -0.0001    0.0006    0.1180   -0.0002    0.0001   -0.1175
          38    0.0000    0.0001   -0.0000    0.0004    0.1097   -0.0002    0.0001   -0.1137
          39   -0.0001   -0.0002    0.0001   -0.0002   -0.1688    0.0003   -0.0002    0.1691
          40    0.0221    0.0715    0.0071    0.0080   -0.0000   -0.0012    0.0005    0.0000
          41    0.0182    0.0157    0.0014   -0.0018    0.0001   -0.0004    0.0003   -0.0000
          42    0.1505    0.3596    0.0400    0.0371   -0.0006   -0.0011   -0.0010    0.0001
          43    0.0576   -0.1906   -0.0203   -0.0353   -0.0001   -0.0000    0.0010   -0.0002
          44   -0.1066    0.3492    0.0361    0.0732    0.0002    0.0021   -0.0005    0.0003
          45    0.0324   -0.1498   -0.0159   -0.0283   -0.0001   -0.0010    0.0003   -0.0002
          46   -0.0003   -0.0006    0.0336   -0.0024   -0.0006   -0.0047    0.3638   -0.0004
          47    0.0000    0.0005   -0.0083    0.0005    0.0001    0.0120   -0.0539    0.0001
          48    0.0006    0.0006   -0.0208    0.0016    0.0003   -0.0261   -0.2058    0.0002
          49   -0.0014    0.0013   -0.0051    0.0003    0.0002    0.0801   -0.0661    0.0000
          50    0.0003    0.0004   -0.0010   -0.0000    0.0001    0.0585   -0.0135   -0.0000
          51   -0.0162    0.0030   -0.0195    0.0006    0.0006    0.4147   -0.2227    0.0001
          52   -0.0094   -0.0006    0.0058   -0.0011    0.0000    0.1826    0.0825   -0.0002
          53    0.0126    0.0028   -0.0122    0.0027    0.0000   -0.3715   -0.1853    0.0004
          54   -0.0059   -0.0014    0.0063   -0.0011   -0.0000    0.1280    0.0914   -0.0001
          55   -0.0035    0.0288   -0.0060   -0.2924    0.0001   -0.0006   -0.0004    0.0000
          56    0.0041   -0.0619    0.0165    0.6709    0.0002    0.0012    0.0007   -0.0000
          57   -0.0011    0.0069   -0.0020   -0.0738   -0.0009   -0.0001   -0.0001   -0.0002


   Root No.      49        50        51

                49 A      50 A      51 A   

                3122.2    3122.8    3181.3
  
           1    0.0000   -0.0000   -0.0004
           2   -0.0000    0.0000   -0.0002
           3   -0.0000    0.0000    0.0001
           4   -0.0100    0.0082    0.0000
           5    0.0215   -0.0188   -0.0000
           6   -0.0026    0.0022   -0.0000
           7   -0.0123   -0.0128   -0.0000
           8   -0.0175   -0.0191   -0.0000
           9   -0.0024   -0.0025    0.0000
          10   -0.0000    0.0000    0.0000
          11   -0.0000    0.0000    0.0002
          12   -0.0000    0.0000    0.0001
          13    0.0000    0.0000   -0.0163
          14   -0.0000   -0.0000   -0.0183
          15   -0.0000    0.0000   -0.0026
          16    0.0017    0.0001    0.0000
          17   -0.0001   -0.0002    0.0000
          18    0.0004    0.0000    0.0000
          19   -0.0000   -0.0000    0.0000
          20   -0.0000    0.0002    0.0000
          21   -0.0000   -0.0000   -0.0000
          22    0.0000   -0.0000   -0.0013
          23    0.0000    0.0000   -0.0010
          24    0.0002   -0.0000   -0.0032
          25   -0.0001    0.0000    0.0007
          26    0.0001   -0.0000   -0.0032
          27   -0.0001    0.0000    0.0009
          28    0.0098   -0.0089   -0.0000
          29   -0.1204    0.1091    0.0000
          30    0.2199   -0.1975   -0.0001
          31    0.0999   -0.0897   -0.0001
          32   -0.1281    0.1160    0.0001
          33   -0.1909    0.1713    0.0001
          34    0.0279    0.0315    0.0000
          35    0.1047    0.1180   -0.0000
          36    0.1975    0.2206    0.0000
          37    0.1081    0.1209    0.0000
          38    0.0971    0.1094    0.0000
          39   -0.1710   -0.1908   -0.0000
          40    0.0001    0.0000   -0.0008
          41    0.0000    0.0000   -0.0003
          42    0.0003   -0.0001   -0.0021
          43   -0.0001    0.0001    0.0007
          44    0.0001   -0.0001   -0.0021
          45   -0.0001    0.0001    0.0009
          46   -0.0000   -0.0001    0.2834
          47    0.0000    0.0000   -0.0578
          48    0.0000    0.0000   -0.1694
          49    0.0000   -0.0000    0.0572
          50    0.0000   -0.0000    0.0236
          51    0.0001   -0.0000    0.3074
          52   -0.0000    0.0000   -0.1421
          53    0.0001   -0.0000    0.2593
          54   -0.0000    0.0000   -0.1059
          55   -0.0003    0.0003    0.0000
          56    0.0006   -0.0009   -0.0000
          57   -0.0001    0.0001    0.0000


           MASS-WEIGHTED COORDINATE ANALYSIS (NORMAL COORDINATES)


   Root No.       1         2         3         4         5         6         7         8

                 1 A       2 A       3 A       4 A       5 A       6 A       7 A       8 A   

                  52.0      77.9     137.8     204.3     215.1     305.7     369.5     431.5
  
           1   -0.2163    0.1682    0.0488   -0.1452    0.1045    0.2613    0.1184    0.2218
           2    0.0559   -0.1989    0.0584    0.1107    0.0090   -0.1518    0.2893    0.0924
           3   -0.1425    0.3302   -0.0931   -0.1996    0.0109   -0.2330    0.1360   -0.0695
           4    0.2222    0.0739    0.3030    0.1125   -0.2734   -0.1956   -0.0133   -0.1273
           5    0.0886    0.1199    0.1259    0.0157   -0.0568    0.0117   -0.0562   -0.0381
           6   -0.2203    0.1781   -0.1661    0.0782   -0.1921   -0.0673   -0.0843    0.0779
           7    0.0633   -0.0396   -0.2046    0.0176   -0.0075    0.0630   -0.3015   -0.2310
           8    0.1025    0.1300    0.1700    0.0219   -0.0755   -0.0048   -0.0091    0.0041
           9   -0.1710   -0.1491    0.3489   -0.0779    0.2752   -0.1020   -0.0630   -0.0976
          10    0.0663    0.0280   -0.0388   -0.0547    0.2235    0.2411   -0.0234    0.1239
          11   -0.1784   -0.1690   -0.1873    0.0327   -0.1993   -0.2085   -0.0767   -0.1215
          12    0.4185    0.0701   -0.2115   -0.0247    0.2817   -0.2271    0.0526   -0.0613
          13   -0.1910   -0.2426   -0.1810    0.0072    0.0425   -0.1435    0.4259    0.2145
          14    0.0537    0.2393    0.1884   -0.0621    0.0679    0.1326    0.1445    0.1688
          15   -0.2398   -0.2702    0.2319    0.0623   -0.0084    0.1401   -0.1303   -0.0112
          16    0.0736    0.0162    0.0509    0.0315   -0.0427   -0.1531   -0.2275   -0.0452
          17   -0.0199   -0.0274   -0.1808   -0.0850    0.2310    0.2088   -0.2256   -0.1185
          18    0.0724   -0.0438   -0.0565    0.0903   -0.2369    0.4514    0.3555   -0.3796
          19    0.0042    0.0209    0.0575    0.0306   -0.0529   -0.0909   -0.0790   -0.1754
          20   -0.1193   -0.1353   -0.2787   -0.0556    0.1092    0.0177   -0.1063   -0.0558
          21    0.3419   -0.1076   -0.1159    0.0948   -0.2288    0.1401   -0.1386    0.4315
          22   -0.1837    0.0975    0.0588   -0.0628   -0.0210    0.1182    0.0280    0.0795
          23    0.0849   -0.2608    0.0569    0.1183    0.0408   -0.0156    0.0873    0.0544
          24   -0.0277    0.1111   -0.0394   -0.0641    0.0080   -0.0768    0.0392   -0.0253
          25   -0.0135    0.1212    0.0408   -0.0670    0.0667    0.1160    0.0416    0.0886
          26    0.0010    0.0429    0.0235   -0.0084    0.0006   -0.0259    0.0836    0.0331
          27   -0.1585    0.2731   -0.0499   -0.1344   -0.0578   -0.0831    0.0308   -0.0436
          28    0.1402    0.0251    0.1114    0.0656   -0.1764    0.0519    0.1696   -0.1993
          29    0.0130    0.0970   -0.0511    0.0350   -0.1092    0.0001   -0.0279    0.0427
          30   -0.0761    0.0882   -0.1018    0.0387   -0.1048   -0.0291   -0.0442    0.0673
          31    0.0322    0.0423    0.1767    0.0263   -0.0580   -0.2144   -0.0923    0.1115
          32    0.0519   -0.0076    0.1625   -0.0117    0.0350   -0.0226    0.0236   -0.0482
          33   -0.1006    0.0940   -0.0916    0.0311   -0.0820   -0.0876   -0.1037    0.1350
          34    0.0607   -0.0296   -0.1671    0.0249   -0.0682    0.2039   -0.0124   -0.1791
          35    0.0208    0.1013   -0.0263    0.0368   -0.1137   -0.0195   -0.0144    0.0700
          36   -0.0516   -0.0765    0.1628   -0.0436    0.1442   -0.0518   -0.0249   -0.0495
          37   -0.0475   -0.0175   -0.0644   -0.0301    0.1059   -0.0894   -0.2244   -0.0036
          38    0.0582   -0.0020    0.1831   -0.0068    0.0198   -0.0227    0.0541   -0.0407
          39   -0.0759   -0.0719    0.1814   -0.0546    0.1791   -0.1162   -0.0746   -0.0120
          40    0.1361   -0.0522   -0.0364    0.0203    0.1171    0.1058   -0.0291    0.0747
          41   -0.1556   -0.0436   -0.0327    0.0146   -0.2713   -0.0318   -0.0972    0.0426
          42    0.1124    0.0299   -0.0584   -0.0135    0.0978   -0.0735    0.0272   -0.0331
          43   -0.0150    0.0312   -0.0455   -0.0460    0.1086    0.0925   -0.0211    0.0264
          44   -0.0200   -0.0475   -0.0772   -0.0013    0.0315   -0.0518   -0.0110   -0.0573
          45    0.2627   -0.0121   -0.0794    0.0092    0.2752   -0.0803    0.0742   -0.0669
          46   -0.1011   -0.0268   -0.0286    0.2069    0.0755    0.0096    0.0844    0.0682
          47    0.0507    0.0518    0.1368   -0.2702   -0.0400    0.1709   -0.0677    0.0570
          48   -0.1595    0.0035    0.0892    0.4456    0.1248    0.1006   -0.0842    0.0040
          49    0.0373   -0.1456   -0.0925   -0.4201   -0.1143   -0.1296    0.1958    0.0565
          50   -0.0317    0.2976    0.0078    0.2354    0.1266    0.0127    0.0720    0.0513
          51   -0.0842   -0.0900    0.0822    0.0815    0.0126    0.0644   -0.0592   -0.0025
          52   -0.0968   -0.1345   -0.0923    0.2564    0.0604   -0.1191    0.1892    0.0619
          53    0.0273   -0.0393    0.0508   -0.0606   -0.0136    0.0098    0.0625    0.0476
          54    0.0139   -0.2869    0.1068   -0.4127   -0.1512    0.0589   -0.0614   -0.0057
          55   -0.0262    0.0026    0.0158    0.0269   -0.0753   -0.0841    0.0177   -0.1211
          56   -0.0419   -0.0467   -0.0742   -0.0066   -0.0016   -0.0230   -0.0266   -0.0155
          57    0.1406   -0.0892    0.0128    0.0358   -0.1067    0.0216   -0.1613    0.4114


   Root No.       9        10        11        12        13        14        15        16

                 9 A      10 A      11 A      12 A      13 A      14 A      15 A      16 A   

                 540.2     768.4     817.1     825.4     855.5     893.5     928.0     956.8
  
           1    0.1082    0.0956   -0.0185    0.0478    0.0374    0.0027   -0.0410    0.1207
           2   -0.1910   -0.1043    0.0286   -0.0724   -0.0380   -0.0105    0.0422   -0.0818
           3   -0.1142    0.1144   -0.0754    0.1908    0.0236    0.0976    0.0005   -0.1007
           4    0.1388   -0.1105   -0.0521    0.1318    0.2246   -0.1591    0.0197   -0.0247
           5   -0.1297   -0.0499   -0.0095    0.0492    0.1282   -0.0779   -0.0039    0.0559
           6    0.0250   -0.0147    0.0727    0.0196    0.1115    0.0710    0.0872    0.0197
           7   -0.3318   -0.0936   -0.0241    0.0418    0.1429   -0.0277   -0.0320    0.0290
           8   -0.0578    0.0632    0.0278   -0.1004   -0.2340    0.1678   -0.0504    0.0036
           9   -0.0652   -0.0508    0.0344    0.1226   -0.0660   -0.0415    0.0393    0.0317
          10    0.2382    0.1355    0.0021   -0.0336   -0.0988   -0.0241    0.1529   -0.2438
          11    0.2822   -0.0102    0.0118   -0.0376   -0.0877    0.0952   -0.1081    0.1335
          12    0.1057    0.2362    0.0157   -0.0838   -0.0934   -0.1535    0.1732    0.1819
          13   -0.1410   -0.0046    0.0038   -0.0011    0.0541   -0.0231   -0.1030    0.3291
          14   -0.0548   -0.0091    0.0092   -0.0199    0.0371   -0.0663    0.0626   -0.0347
          15    0.0444   -0.0053   -0.0131    0.0396    0.0184    0.0653   -0.1045   -0.1841
          16   -0.0734    0.0419    0.0017   -0.0889   -0.1830    0.1373   -0.0283   -0.0271
          17   -0.3570   -0.0021    0.0036   -0.0046    0.0094   -0.0178    0.0153   -0.0177
          18    0.0046   -0.0259    0.0784    0.0618   -0.0641    0.0523   -0.0110   -0.0200
          19    0.0255    0.0870    0.0144   -0.0887   -0.3337    0.2322    0.0324   -0.0213
          20    0.4412   -0.0458   -0.0410    0.1319    0.1847   -0.1087    0.0798   -0.1118
          21   -0.0488    0.0740    0.0911   -0.2195    0.0913   -0.1387   -0.3098   -0.0770
          22    0.0161   -0.2061    0.0457   -0.0914    0.0372    0.0535   -0.2367   -0.0680
          23   -0.0732    0.3111   -0.1218    0.3058    0.0870    0.1408   -0.1386   -0.0663
          24   -0.0263    0.0244   -0.0118    0.0260   -0.0113   -0.0020    0.0595   -0.0011
          25    0.0229    0.0466    0.0133   -0.0412   -0.0081   -0.1144    0.2045   -0.0486
          26   -0.0552   -0.1469    0.0591   -0.1493   -0.0430   -0.0877    0.1229   -0.0591
          27   -0.0220   -0.3621    0.1066   -0.2566   -0.0663   -0.0469   -0.0021   -0.0213
          28    0.1183    0.0130   -0.0879   -0.1382    0.4888    0.1637    0.2382    0.0387
          29   -0.0145   -0.0482   -0.4010   -0.1047    0.0987   -0.0649   -0.0023    0.0087
          30    0.0156   -0.0310   -0.2268   -0.0532    0.0385   -0.0257    0.0058   -0.0028
          31    0.0921   -0.1227    0.1265    0.3375   -0.0479   -0.4313   -0.1225   -0.0452
          32   -0.0028    0.0007    0.3764    0.1698    0.0675   -0.0625    0.0257    0.0262
          33    0.0098   -0.0675   -0.1968    0.0540   -0.0610   -0.1675   -0.0699   -0.0238
          34   -0.1707   -0.1848   -0.1736    0.3003   -0.2037   -0.2737   -0.0033    0.0770
          35    0.0225    0.0389    0.4182    0.0909   -0.0803    0.1713    0.0431   -0.0104
          36   -0.0291    0.0022   -0.2083   -0.0927    0.0391   -0.0357   -0.0243    0.0034
          37   -0.1655    0.0507    0.2171   -0.1327    0.4108    0.1224    0.0048    0.0212
          38    0.0340    0.0273   -0.4016   -0.1885   -0.1447   -0.0012   -0.0789   -0.0322
          39   -0.0326    0.0475   -0.1088   -0.1758    0.1866    0.0487   -0.0215   -0.0045
          40    0.1545   -0.1318    0.0635   -0.1551   -0.0302    0.0297   -0.2166   -0.1974
[...]
 T-DIPOLE    0.0674         C  1 -- H  8         +12.6% ( 44.3%)      0.0%
 TRAVEL      0.1070         C  7 -- H 19         +10.7% ( 41.0%)      0.0%
 RED. MASS   0.5786         C  1 -- C  4          +8.8% ( 37.2%)     71.6%
 EFF. MASS   4.4467

 VIBRATION   31   31A         ATOM PAIR      ENERGY CONTRIBUTION    RADIAL
 FREQ.      1377.68         C  4 -- H 15         +15.1% ( 40.2%)      2.7%
 T-DIPOLE    0.0465         C  4 -- H 14         +14.9% ( 40.0%)      2.3%
 TRAVEL      0.1403         C  1 -- H  9         +10.0% ( 32.8%)      2.9%
 RED. MASS   0.2141         C  1 -- H  8         +10.0% ( 32.7%)      2.9%
 EFF. MASS   2.4851

 VIBRATION   32   32A         ATOM PAIR      ENERGY CONTRIBUTION    RADIAL
 FREQ.      1390.39         C  2 -- H 11         +20.4% ( 49.2%)      3.6%
 T-DIPOLE    0.0945         C  2 -- H 10         +20.4% ( 49.1%)      3.6%
 TRAVEL      0.1339         C  3 -- H 13         +16.5% ( 44.2%)      3.6%
 RED. MASS   0.3222         C  3 -- H 12         +16.5% ( 44.2%)      3.6%
 EFF. MASS   2.7037

 VIBRATION   33   33A         ATOM PAIR      ENERGY CONTRIBUTION    RADIAL
 FREQ.      1396.51         C  4 -- H 15         +19.5% ( 51.0%)      4.5%
 T-DIPOLE    0.0537         C  4 -- H 14         +19.2% ( 50.6%)      4.3%
 TRAVEL      0.1121         C  4 -- C  7         +12.7% ( 41.3%)     93.5%
 RED. MASS   0.4511         C  1 -- C  4          +8.1% ( 32.9%)      6.0%
 EFF. MASS   3.8442

 VIBRATION   34   34A         ATOM PAIR      ENERGY CONTRIBUTION    RADIAL
 FREQ.      1408.62         C  1 -- H  9         +17.7% ( 46.5%)      3.8%
 T-DIPOLE    0.0292         C  1 -- H  8         +17.5% ( 46.4%)      3.7%
 TRAVEL      0.1152         C  1 -- C  4         +15.7% ( 43.9%)     99.7%
 RED. MASS   0.4154         C  4 -- H 15          +9.2% ( 33.6%)      2.8%
 EFF. MASS   3.6090

 VIBRATION   35   35A         ATOM PAIR      ENERGY CONTRIBUTION    RADIAL
 FREQ.      1408.84         C  5 -- H 16         +48.8% ( 61.2%)      0.0%
 T-DIPOLE    0.0408         C  5 -- H 18         +21.5% ( 40.6%)      8.6%
 TRAVEL      0.1706         C  5 -- H 17         +17.6% ( 36.7%)     13.6%
 RED. MASS   0.3787         C  1 -- C  5          +5.0% ( 19.6%)      1.4%
 EFF. MASS   1.6446

 VIBRATION   36   36A         ATOM PAIR      ENERGY CONTRIBUTION    RADIAL
 FREQ.      1411.90         C  5 -- H 18         +32.7% ( 52.5%)      0.9%
 T-DIPOLE    0.0497         C  5 -- H 17         +32.0% ( 51.9%)      1.0%
 TRAVEL      0.1563         C  5 -- H 16          +9.9% ( 28.9%)     38.8%
 RED. MASS   0.3186         C  1 -- C  5          +7.2% ( 24.6%)      8.0%
 EFF. MASS   1.9548

 VIBRATION   37   37A         ATOM PAIR      ENERGY CONTRIBUTION    RADIAL
 FREQ.      1431.63         C  1 -- C  5         +19.6% ( 57.7%)     99.9%
 T-DIPOLE    0.0467         C  5 -- H 17         +12.5% ( 46.1%)      3.6%
 TRAVEL      0.0911         C  5 -- H 18         +12.5% ( 46.1%)      3.5%
 RED. MASS   0.9570         C  1 -- H  9         +11.5% ( 44.1%)      2.9%
 EFF. MASS   5.6728         C  1 -- H  8         +11.4% ( 43.9%)      2.9%
                            C  5 -- H 16         +11.1% ( 43.5%)      4.2%

 VIBRATION   38   38A         ATOM PAIR      ENERGY CONTRIBUTION    RADIAL
 FREQ.      1493.90         C  4 -- C  7         +16.5% ( 64.9%)     84.9%
 T-DIPOLE    0.1108         C  2 -- C  3         +13.5% ( 58.9%)    100.0%
 TRAVEL      0.0677         C  7 -- H 19         +10.2% ( 51.0%)      0.0%
 RED. MASS   1.7986         C  2 -- C  6          +7.7% ( 44.4%)     90.1%
 EFF. MASS   9.8536

 VIBRATION   39   39A         ATOM PAIR      ENERGY CONTRIBUTION    RADIAL
 FREQ.      2106.32         C  6 -- C  7         +38.7% ( 92.8%)     99.7%
 T-DIPOLE    0.6408         C  2 -- C  6         +22.3% ( 70.4%)     84.5%
 TRAVEL      0.0518         C  3 -- C  6         +22.3% ( 70.4%)     85.0%
 RED. MASS   5.7181         C  4 -- C  7          +6.5% ( 37.9%)     46.0%
 EFF. MASS  11.9245

 VIBRATION   40   40A         ATOM PAIR      ENERGY CONTRIBUTION    RADIAL
 FREQ.      2941.73         C  4 -- H 14         +46.2% ( 70.7%)     97.1%
 T-DIPOLE    0.0237         C  4 -- H 15         +34.7% ( 61.3%)     95.6%
 TRAVEL      0.1217         C  1 -- H  9          +8.8% ( 30.8%)     96.5%
 RED. MASS   0.3782         C  1 -- H  8          +7.8% ( 29.1%)     95.8%
 EFF. MASS   1.5484

 VIBRATION   41   41A         ATOM PAIR      ENERGY CONTRIBUTION    RADIAL
 FREQ.      2959.34         C  1 -- H  9         +43.9% ( 68.7%)     97.0%
 T-DIPOLE    0.0136         C  1 -- H  8         +37.2% ( 63.2%)     96.1%
 TRAVEL      0.1219         C  4 -- H 14          +9.7% ( 32.2%)     97.6%
 RED. MASS   0.3732         C  4 -- H 15          +6.7% ( 26.8%)     95.7%
 EFF. MASS   1.5325

 VIBRATION   42   42A         ATOM PAIR      ENERGY CONTRIBUTION    RADIAL
 FREQ.      3023.55         C  4 -- H 15         +55.4% ( 73.4%)     98.4%
 T-DIPOLE    0.0491         C  4 -- H 14         +40.6% ( 62.8%)     96.7%
 TRAVEL      0.1319         C  7 -- H 19          +1.6% ( 12.4%)     99.8%
 RED. MASS   0.4687         C  1 -- H  8          +0.7% (  8.1%)     98.8%
 EFF. MASS   1.2816

 VIBRATION   43   43A         ATOM PAIR      ENERGY CONTRIBUTION    RADIAL
 FREQ.      3037.68         C  1 -- H  8         +52.4% ( 71.3%)     98.2%
 T-DIPOLE    0.0327         C  1 -- H  9         +44.2% ( 65.5%)     97.2%
 TRAVEL      0.1320         C  4 -- H 15          +0.6% (  7.9%)     97.8%
 RED. MASS   0.4672         C  1 -- C  5          +0.6% (  7.8%)     25.4%
 EFF. MASS   1.2745

 VIBRATION   44   44A         ATOM PAIR      ENERGY CONTRIBUTION    RADIAL
 FREQ.      3041.61         C  7 -- H 19         +95.4% ( 99.0%)    100.0%
 T-DIPOLE    0.2567         C  6 -- C  7          +1.5% ( 12.6%)     40.0%
 TRAVEL      0.1210         C  4 -- C  7          +1.3% ( 11.6%)     14.2%
 RED. MASS   0.8962         C  4 -- H 15          +1.2% ( 11.2%)     99.5%
 EFF. MASS   1.5143

 VIBRATION   45   45A         ATOM PAIR      ENERGY CONTRIBUTION    RADIAL
 FREQ.      3072.85         C  2 -- H 11         +24.6% ( 51.4%)     97.1%
 T-DIPOLE    0.0005         C  2 -- H 10         +24.6% ( 51.4%)     97.1%
 TRAVEL      0.1191         C  3 -- H 13         +24.4% ( 51.1%)     97.1%
 RED. MASS   0.2595         C  3 -- H 12         +24.1% ( 50.9%)     97.0%
 EFF. MASS   1.5473

 VIBRATION   46   46A         ATOM PAIR      ENERGY CONTRIBUTION    RADIAL
 FREQ.      3078.44         C  5 -- H 18         +49.7% ( 72.7%)     97.2%
 T-DIPOLE    0.0095         C  5 -- H 17         +48.1% ( 71.6%)     96.9%
 TRAVEL      0.1208         C  1 -- C  5          +1.0% ( 10.2%)      0.0%
 RED. MASS   0.5061         C  5 -- H 16          +1.0% ( 10.1%)      0.4%
 EFF. MASS   1.5012

 VIBRATION   47   47A         ATOM PAIR      ENERGY CONTRIBUTION    RADIAL
 FREQ.      3084.53         C  5 -- H 16         +61.7% ( 81.0%)     98.8%
 T-DIPOLE    0.0066         C  5 -- H 17         +19.1% ( 45.1%)     86.4%
 TRAVEL      0.1206         C  5 -- H 18         +17.5% ( 43.2%)     85.0%
 RED. MASS   0.4761         C  1 -- C  5          +1.0% ( 10.3%)      0.0%
 EFF. MASS   1.5027

 VIBRATION   48   48A         ATOM PAIR      ENERGY CONTRIBUTION    RADIAL
 FREQ.      3086.41         C  3 -- H 13         +24.8% ( 51.3%)     97.3%
 T-DIPOLE    0.2158         C  3 -- H 12         +24.6% ( 51.1%)     97.2%
 TRAVEL      0.1190         C  2 -- H 11         +24.3% ( 50.8%)     97.3%
 RED. MASS   0.2606         C  2 -- H 10         +24.3% ( 50.8%)     97.3%
 EFF. MASS   1.5418

 VIBRATION   49   49A         ATOM PAIR      ENERGY CONTRIBUTION    RADIAL
 FREQ.      3122.24         C  2 -- H 10         +27.1% ( 51.9%)     96.3%
 T-DIPOLE    0.1581         C  2 -- H 11         +27.1% ( 51.9%)     96.3%
 TRAVEL      0.1271         C  3 -- H 12         +21.9% ( 46.6%)     96.3%
 RED. MASS   0.2454         C  3 -- H 13         +21.7% ( 46.4%)     96.2%
 EFF. MASS   1.3369

 VIBRATION   50   50A         ATOM PAIR      ENERGY CONTRIBUTION    RADIAL
 FREQ.      3122.82         C  3 -- H 12         +27.5% ( 52.0%)     96.5%
 T-DIPOLE    0.2415         C  3 -- H 13         +27.2% ( 51.7%)     96.4%
 TRAVEL      0.1300         C  2 -- H 10         +22.0% ( 46.6%)     96.5%
 RED. MASS   0.2450         C  2 -- H 11         +21.9% ( 46.5%)     96.5%
 EFF. MASS   1.2785

 VIBRATION   51   51A         ATOM PAIR      ENERGY CONTRIBUTION    RADIAL
 FREQ.      3181.28         C  5 -- H 16         +36.5% ( 58.1%)     97.6%
 T-DIPOLE    0.0179         C  5 -- H 18         +31.7% ( 54.1%)     96.8%
 TRAVEL      0.1365         C  5 -- H 17         +31.5% ( 54.0%)     96.8%
 RED. MASS   0.3283         C  1 -- C  5          +0.3% (  5.1%)     99.6%
 EFF. MASS   1.1368

      SYMMETRY NUMBER FOR POINT-GROUP C1  =  1


          SYSTEM IS A GROUND STATE



 InChI=1S/C7H12/c1-2-3-4-7-5-6-7/h4H,2-3,5-6H2,1H3


          MOLECULE IS NOT LINEAR

          THERE ARE 51 GENUINE VIBRATIONS IN THIS SYSTEM
          THIS THERMODYNAMICS CALCULATION IS LIMITED TO
          MOLECULES WHICH HAVE NO INTERNAL ROTATIONS




                    CALCULATED THERMODYNAMIC PROPERTIES
                                          *
   TEMP. (K)   PARTITION FUNCTION   H.O.F.    ENTHALPY  HEAT CAPACITY ENTROPY
                                   KCAL/MOL   CAL/MOLE    CAL/K/MOL  CAL/K/MOL


 298.00  VIB.     0.1685D+03                  3386.4941    23.4845    21.5522
         ROT.     0.2877D+06                   888.2813     2.9808    27.9594
         INT.     0.4847D+08                  4274.7754    26.4653    49.5115
         TRA.     0.9118D+27                  1480.4688     4.9680    39.5994
         TOT.                       24.302    5755.2443    31.4333    89.1110

 200.00  VIB.     0.2586D+02                  1528.3534    14.8363    14.1055
         ROT.     0.1582D+06                   596.1620     2.9808    26.7707
         INT.     0.4091D+07                  2124.5153    17.8172    40.8762
         TRA.     0.5013D+27                   993.6033     4.9680    37.6183
         TOT.                       21.665    3118.1186    22.7852    78.4945

 210.00  VIB.     0.3133D+02                  1680.4979    15.5977    14.8476
         ROT.     0.1702D+06                   625.9700     2.9808    26.9161
         INT.     0.5333D+07                  2306.4680    18.5785    41.7638
         TRA.     0.5394D+27                  1043.2834     4.9680    37.8607
         TOT.                       21.897    3349.7514    23.5465    79.6245

 220.00  VIB.     0.3795D+02                  1840.4108    16.3901    15.5914
         ROT.     0.1825D+06                   655.7781     2.9808    27.0548
         INT.     0.6925D+07                  2496.1890    19.3709    42.6462
         TRA.     0.5784D+27                  1092.9636     4.9680    38.0918
         TOT.                       22.136    3589.1525    24.3389    80.7380

 230.00  VIB.     0.4594D+02                  2008.4028    17.2134    16.3380
         ROT.     0.1951D+06                   685.5862     2.9808    27.1873
         INT.     0.8963D+07                  2693.9891    20.1942    43.5253
         TRA.     0.6182D+27                  1142.6437     4.9680    38.3126
         TOT.                       22.384    3836.6328    25.1622    81.8380

 240.00  VIB.     0.5561D+02                  2184.7788    18.0666    17.0886
         ROT.     0.2079D+06                   715.3943     2.9808    27.3142
         INT.     0.1156D+08                  2900.1731    21.0474    44.4027
         TRA.     0.6590D+27                  1192.3239     4.9680    38.5241
         TOT.                       22.639    4092.4970    26.0155    82.9268

 250.00  VIB.     0.6730D+02                  2369.8291    18.9479    17.8438
         ROT.     0.2211D+06                   745.2024     2.9808    27.4359
         INT.     0.1488D+08                  3115.0316    21.9287    45.2797
         TRA.     0.7006D+27                  1242.0041     4.9680    38.7269
         TOT.                       22.904    4357.0356    26.8968    84.0066

 260.00  VIB.     0.8145D+02                  2563.8233    19.8550    18.6046
         ROT.     0.2345D+06                   775.0105     2.9808    27.5528
         INT.     0.1910D+08                  3338.8338    22.8358    46.1573
         TRA.     0.7431D+27                  1291.6842     4.9680    38.9217
         TOT.                       23.177    4630.5180    27.8038    85.0791

 270.00  VIB.     0.9859D+02                  2767.0048    20.7849    19.3713
         ROT.     0.2481D+06                   804.8186     2.9808    27.6653
         INT.     0.2446D+08                  3571.8234    23.7657    47.0365
         TRA.     0.7864D+27                  1341.3644     4.9680    39.1092
         TOT.                       23.460    4913.1878    28.7337    86.1458

 280.00  VIB.     0.1193D+03                  2979.5879    21.7348    20.1443
         ROT.     0.2620D+06                   834.6267     2.9808    27.7737
         INT.     0.3127D+08                  3814.2147    24.7156    47.9180
         TRA.     0.8304D+27                  1391.0445     4.9680    39.2899
         TOT.                       23.752    5205.2592    29.6836    87.2079

 290.00  VIB.     0.1445D+03                  3201.7560    22.7014    20.9238
         ROT.     0.2762D+06                   864.4348     2.9808    27.8783
         INT.     0.3992D+08                  4066.1908    25.6822    48.8021
         TRA.     0.8753D+27                  1440.7247     4.9680    39.4642
         TOT.                       24.054    5506.9155    30.6502    88.2663

 300.00  VIB.     0.1751D+03                  3433.6600    23.6814    21.7099
         ROT.     0.2906D+06                   894.2429     2.9808    27.9793
         INT.     0.5088D+08                  4327.9029    26.6622    49.6892
         TRA.     0.9210D+27                  1490.4049     4.9680    39.6326
         TOT.                       24.365    5818.3078    31.6303    89.3219

 310.00  VIB.     0.2122D+03                  3675.4191    24.6719    22.5025
         ROT.     0.3053D+06                   924.0510     2.9808    28.0771
         INT.     0.6477D+08                  4599.4701    27.6527    50.5796
         TRA.     0.9674D+27                  1540.0850     4.9680    39.7955
         TOT.                       24.686    6139.5552    32.6207    90.3752

 320.00  VIB.     0.2573D+03                  3927.1213    25.6696    23.3016
         ROT.     0.3201D+06                   953.8591     2.9808    28.1717
         INT.     0.8237D+08                  4880.9804    28.6504    51.4733
         TRA.     0.1015D+28                  1589.7652     4.9680    39.9533
         TOT.                       25.018    6470.7456    33.6184    91.4266

 330.00  VIB.     0.3121D+03                  4188.8248    26.6716    24.1068
         ROT.     0.3353D+06                   983.6672     2.9808    28.2634
         INT.     0.1046D+09                  5172.4920    29.6525    52.3702
         TRA.     0.1063D+28                  1639.4454     4.9680    40.1062
         TOT.                       25.359    6811.9374    34.6205    92.4764

 340.00  VIB.     0.3789D+03                  4460.5598    27.6754    24.9179
         ROT.     0.3506D+06                  1013.4753     2.9808    28.3524
         INT.     0.1329D+09                  5474.0351    30.6562    53.2704
         TRA.     0.1111D+28                  1689.1255     4.9680    40.2545
         TOT.                       25.710    7163.1606    35.6242    93.5248

 350.00  VIB.     0.4603D+03                  4742.3304    28.6784    25.7347
         ROT.     0.3662D+06                  1043.2834     2.9808    28.4388
         INT.     0.1686D+09                  5785.6138    31.6592    54.1735
         TRA.     0.1161D+28                  1738.8057     4.9680    40.3985
         TOT.                       26.071    7524.4195    36.6272    94.5719

 360.00  VIB.     0.5594D+03                  5034.1172    29.6783    26.5566
         ROT.     0.3820D+06                  1073.0915     2.9808    28.5228
         INT.     0.2137D+09                  6107.2087    32.6591    55.0794
         TRA.     0.1211D+28                  1788.4859     4.9680    40.5384
         TOT.                       26.443    7895.6946    37.6271    95.6178

 370.00  VIB.     0.6804D+03                  5335.8793    30.6731    27.3833
         ROT.     0.3980D+06                  1102.8996     2.9808    28.6045
         INT.     0.2708D+09                  6438.7789    33.6539    55.9878
         TRA.     0.1261D+28                  1838.1660     4.9680    40.6745
         TOT.                       26.824    8276.9449    38.6219    96.6623

 380.00  VIB.     0.8282D+03                  5647.5565    31.6610    28.2144
         ROT.     0.4143D+06                  1132.7077     2.9808    28.6839
         INT.     0.3431D+09                  6780.2642    34.6419    56.8984
         TRA.     0.1313D+28                  1887.8462     4.9680    40.8070
         TOT.                       27.215    8668.1104    39.6099    97.7054

 390.00  VIB.     0.1009D+04                  5969.0720    32.6405    29.0495
         ROT.     0.4307D+06                  1162.5158     2.9808    28.7614
         INT.     0.4345D+09                  7131.5878    35.6213    57.8109
         TRA.     0.1365D+28                  1937.5263     4.9680    40.9361
         TOT.                       27.616    9069.1142    40.5894    98.7470

 400.00  VIB.     0.1229D+04                  6300.3343    33.6102    29.8882
         ROT.     0.4474D+06                  1192.3239     2.9808    28.8368
         INT.     0.5500D+09                  7492.6582    36.5910    58.7250
         TRA.     0.1418D+28                  1987.2065     4.9680    41.0619
         TOT.                       28.027    9479.8647    41.5590    99.7869

   *: NOTE: HEATS OF FORMATION ARE RELATIVE TO THE
            ELEMENTS IN THEIR STANDARD STATE AT 298K
              (=  Standard Enthalpy of Formation).

            Hvib:  Zero-point energy is not included.
                   frequencies of less than zero cm-1 are not included.
            Hrot = (3/2)RT
            Htra = (3/2)RT + pV = (5/2)RT

            Heat capacity is Cp, not Cv

          For more information, see: HTTP://OpenMOPAC.net/Manual/thermochemistry.html


           FORCE CONSTANT IN CARTESIAN COORDINATES (Millidynes/A)

    ATOM   CHEMICAL       X               Y               Z
   NUMBER   SYMBOL  FORCE CONSTANT  FORCE CONSTANT  FORCE CONSTANT

      1       C        8.202537        8.459539        8.209842
      2       C        6.436912       10.496195        8.298897
      3       C        7.635010        9.291462        8.298385
      4       C        8.589017        8.873450        7.900965
      5       C        8.426558        8.229701        8.239972
      6       C       20.461939        5.429012        3.140757
      7       C       15.290060        9.076368        3.005609
      8       H        0.868992        0.742741        4.802717
      9       H        1.589485        3.693558        1.134672
     10       H        0.557998        1.888023        4.120469
     11       H        1.307392        2.033620        3.228385
     12       H        0.673793        1.774563        4.122521
     13       H        1.701822        1.639133        3.230018
     14       H        0.823005        0.688436        4.755987
     15       H        1.586363        3.683599        1.119360
     16       H        4.154592        0.809057        1.833393
     17       H        0.892608        0.756763        5.128511
     18       H        1.547369        4.047955        1.184470
     19       H        1.407571        4.354378        0.407860

 **********************
 *                    *
 * JOB ENDED NORMALLY *
 *                    *
 **********************



 TOTAL JOB TIME:             1.50 SECONDS

 == MOPAC DONE ==
