 *******************************************************************************
 ** Site#: 14399        For non-commercial use only    Version 18.184L 64BITS **
 *******************************************************************************
 ** Cite this program as: MOPAC2016, Version: 18.184L, James J. P. Stewart,   **
 ** Stewart Computational Chemistry, web: HTTP://OpenMOPAC.net. Days left:  18**
 *******************************************************************************
 **                                                                           **
 **                                MOPAC2016                                  **
 **                                                                           **
 *******************************************************************************

                              PM3 CALCULATION RESULTS

 *******************************************************************************
 *  CALCULATION DONE:                                Sat Jun 15 10:18:35 2019  *
 *  PM3        - The PM3 Hamiltonian to be used
 *  PRECISE    - CRITERIA TO BE INCREASED BY 100 TIMES
 *  NOSYM      - POINT-GROUP SYMMETRY SET TO C1
 *  THREADS=1  - MULTI-THREADING NOT USED
 *  T=         - A TIME OF 172800.0 SECONDS REQUESTED
 *  DUMP=N     - RESTART FILE WRITTEN EVERY  7200.000 SECONDS
 *******************************************************************************
pm3  precise nosym THREADS=1
 InChI=1S/C7H10/c1-2-4-6-7-5-3-1/h1,5H,2,4,6-7H2

   ATOM   CHEMICAL          X               Y               Z
  NUMBER   SYMBOL      (ANGSTROMS)     (ANGSTROMS)     (ANGSTROMS)
 
     1       C          0.48200000  *  -1.17440000  *   0.33800000  *
     2       C         -0.63710000  *  -0.90270000  *  -0.71050000  *
     3       C          1.69900000  *  -0.20070000  *   0.25830000  *
     4       C         -1.70300000  *   0.14780000  *  -0.26780000  *
     5       C          1.35160000  *   1.25070000  *   0.48200000  *
     6       C         -1.14460000  *   1.52090000  *   0.01520000  *
     7       C          0.11830000  *   1.58350000  *   0.28410000  *
     8       H          0.05250000  *  -1.15480000  *   1.36340000  *
     9       H          0.86880000  *  -2.20310000  *   0.17170000  *
    10       H         -1.17220000  *  -1.85840000  *  -0.90020000  *
    11       H         -0.18290000  *  -0.59190000  *  -1.67680000  *
    12       H          2.19090000  *  -0.30230000  *  -0.73280000  *
    13       H          2.43720000  *  -0.50180000  *   1.03170000  *
    14       H         -2.45660000  *   0.24220000  *  -1.07830000  *
    15       H         -2.22980000  *  -0.21830000  *   0.63940000  *
    16       H          2.12220000  *   2.00680000  *   0.55030000  *
    17       H         -1.79630000  *   2.35650000  *   0.23240000  *
 


          CARTESIAN COORDINATES 

    NO.       ATOM           X           Y           Z

     1         C          0.4820     -1.1744      0.3380
     2         C         -0.6371     -0.9027     -0.7105
     3         C          1.6990     -0.2007      0.2583
     4         C         -1.7030      0.1478     -0.2678
     5         C          1.3516      1.2507      0.4820
     6         C         -1.1446      1.5209      0.0152
     7         C          0.1183      1.5835      0.2841
     8         H          0.0525     -1.1548      1.3634
     9         H          0.8688     -2.2031      0.1717
    10         H         -1.1722     -1.8584     -0.9002
    11         H         -0.1829     -0.5919     -1.6768
    12         H          2.1909     -0.3023     -0.7328
    13         H          2.4372     -0.5018      1.0317
    14         H         -2.4566      0.2422     -1.0783
    15         H         -2.2298     -0.2183      0.6394
    16         H          2.1222      2.0068      0.5503
    17         H         -1.7963      2.3565      0.2324

  H: (PM3): J. J. P. STEWART, J. COMP. CHEM. 10, 209 (1989).
  C: (PM3): J. J. P. STEWART, J. COMP. CHEM. 10, 209 (1989).

           Empirical Formula: C7 H10  =    17 atoms



      MOLECULAR POINT GROUP   :   C1  


      RHF CALCULATION, NO. OF DOUBLY OCCUPIED LEVELS = 19


          Geometry optimization using EF

          DIAGONAL MATRIX USED AS START HESSIAN

 CYCLE:     1 TIME:   0.004 TIME LEFT:  2.00D  GRAD.:   106.907 HEAT:  81.33072
 CYCLE:     2 TIME:   0.008 TIME LEFT:  2.00D  GRAD.:    70.827 HEAT:  76.76709
 CYCLE:     3 TIME:   0.004 TIME LEFT:  2.00D  GRAD.:    91.524 HEAT:  73.90398
 CYCLE:     4 TIME:   0.000 TIME LEFT:  2.00D  GRAD.:   109.299 HEAT:  71.92619
 CYCLE:     5 TIME:   0.004 TIME LEFT:  2.00D  GRAD.:   106.050 HEAT:  68.52538
 CYCLE:     6 TIME:   0.004 TIME LEFT:  2.00D  GRAD.:   139.696 HEAT:  67.77741
 CYCLE:     7 TIME:   0.004 TIME LEFT:  2.00D  GRAD.:   132.240 HEAT:  66.38669
 CYCLE:     8 TIME:   0.000 TIME LEFT:  2.00D  GRAD.:   102.428 HEAT:  63.54889
 CYCLE:     9 TIME:   0.008 TIME LEFT:  2.00D  GRAD.:    62.717 HEAT:  60.90750
 CYCLE:    10 TIME:   0.004 TIME LEFT:  2.00D  GRAD.:    43.570 HEAT:  59.65884
 CYCLE:    11 TIME:   0.004 TIME LEFT:  2.00D  GRAD.:    49.019 HEAT:  58.80380
 CYCLE:    12 TIME:   0.004 TIME LEFT:  2.00D  GRAD.:    44.996 HEAT:  57.00787
 CYCLE:    13 TIME:   0.004 TIME LEFT:  2.00D  GRAD.:    56.313 HEAT:  54.86749
 CYCLE:    14 TIME:   0.000 TIME LEFT:  2.00D  GRAD.:    45.755 HEAT:  51.47148
 CYCLE:    15 TIME:   0.008 TIME LEFT:  2.00D  GRAD.:    78.895 HEAT:  51.13771
 CYCLE:    16 TIME:   0.004 TIME LEFT:  2.00D  GRAD.:    47.379 HEAT:  50.29775
 CYCLE:    17 TIME:   0.004 TIME LEFT:  2.00D  GRAD.:    42.051 HEAT:  49.92526
 CYCLE:    18 TIME:   0.000 TIME LEFT:  2.00D  GRAD.:    22.252 HEAT:  49.19008
 CYCLE:    19 TIME:   0.004 TIME LEFT:  2.00D  GRAD.:    33.934 HEAT:  48.93893
 CYCLE:    20 TIME:   0.004 TIME LEFT:  2.00D  GRAD.:    25.193 HEAT:  48.37061
 CYCLE:    21 TIME:   0.004 TIME LEFT:  2.00D  GRAD.:    24.203 HEAT:  48.16464
 CYCLE:    22 TIME:   0.000 TIME LEFT:  2.00D  GRAD.:    15.049 HEAT:  48.01443
 CYCLE:    23 TIME:   0.004 TIME LEFT:  2.00D  GRAD.:     8.471 HEAT:  47.91511
 CYCLE:    24 TIME:   0.004 TIME LEFT:  2.00D  GRAD.:     4.160 HEAT:  47.87959
 CYCLE:    25 TIME:   0.004 TIME LEFT:  2.00D  GRAD.:     4.615 HEAT:  47.86395
 CYCLE:    26 TIME:   0.004 TIME LEFT:  2.00D  GRAD.:     4.452 HEAT:  47.85329
 CYCLE:    27 TIME:   0.000 TIME LEFT:  2.00D  GRAD.:     4.279 HEAT:  47.85025
 CYCLE:    28 TIME:   0.004 TIME LEFT:  2.00D  GRAD.:     1.451 HEAT:  47.84285
 CYCLE:    29 TIME:   0.004 TIME LEFT:  2.00D  GRAD.:     1.831 HEAT:  47.84113
 CYCLE:    30 TIME:   0.004 TIME LEFT:  2.00D  GRAD.:     1.413 HEAT:  47.83867
 CYCLE:    31 TIME:   0.000 TIME LEFT:  2.00D  GRAD.:     1.044 HEAT:  47.83642
 CYCLE:    32 TIME:   0.004 TIME LEFT:  2.00D  GRAD.:     0.666 HEAT:  47.83543
 CYCLE:    33 TIME:   0.004 TIME LEFT:  2.00D  GRAD.:     0.521 HEAT:  47.83462
 CYCLE:    34 TIME:   0.000 TIME LEFT:  2.00D  GRAD.:     0.468 HEAT:  47.83418
 CYCLE:    35 TIME:   0.004 TIME LEFT:  2.00D  GRAD.:     0.431 HEAT:  47.83370
 CYCLE:    36 TIME:   0.004 TIME LEFT:  2.00D  GRAD.:     0.414 HEAT:  47.83329
 CYCLE:    37 TIME:   0.004 TIME LEFT:  2.00D  GRAD.:     0.367 HEAT:  47.83296
 CYCLE:    38 TIME:   0.000 TIME LEFT:  2.00D  GRAD.:     0.380 HEAT:  47.83260
 CYCLE:    39 TIME:   0.004 TIME LEFT:  2.00D  GRAD.:     0.456 HEAT:  47.83211
 CYCLE:    40 TIME:   0.004 TIME LEFT:  2.00D  GRAD.:     0.466 HEAT:  47.83159
 CYCLE:    41 TIME:   0.004 TIME LEFT:  2.00D  GRAD.:     0.339 HEAT:  47.83122
 CYCLE:    42 TIME:   0.004 TIME LEFT:  2.00D  GRAD.:     0.229 HEAT:  47.83106
 CYCLE:    43 TIME:   0.000 TIME LEFT:  2.00D  GRAD.:     0.151 HEAT:  47.83099
 CYCLE:    44 TIME:   0.004 TIME LEFT:  2.00D  GRAD.:     0.132 HEAT:  47.83094
 CYCLE:    45 TIME:   0.004 TIME LEFT:  2.00D  GRAD.:     0.113 HEAT:  47.83090
 CYCLE:    46 TIME:   0.000 TIME LEFT:  2.00D  GRAD.:     0.114 HEAT:  47.83086
 CYCLE:    47 TIME:   0.004 TIME LEFT:  2.00D  GRAD.:     0.136 HEAT:  47.83081
 CYCLE:    48 TIME:   0.004 TIME LEFT:  2.00D  GRAD.:     0.286 HEAT:  47.83075
 CYCLE:    49 TIME:   0.004 TIME LEFT:  2.00D  GRAD.:     0.220 HEAT:  47.83067
 CYCLE:    50 TIME:   0.000 TIME LEFT:  2.00D  GRAD.:     0.158 HEAT:  47.83043
 CYCLE:    51 TIME:   0.004 TIME LEFT:  2.00D  GRAD.:     0.138 HEAT:  47.83036
 CYCLE:    52 TIME:   0.004 TIME LEFT:  2.00D  GRAD.:     0.108 HEAT:  47.83028
 CYCLE:    53 TIME:   0.000 TIME LEFT:  2.00D  GRAD.:     0.090 HEAT:  47.83026
 CYCLE:    54 TIME:   0.004 TIME LEFT:  2.00D  GRAD.:     0.108 HEAT:  47.83024
 CYCLE:    55 TIME:   0.004 TIME LEFT:  2.00D  GRAD.:     0.062 HEAT:  47.83022
 CYCLE:    56 TIME:   0.004 TIME LEFT:  2.00D  GRAD.:     0.048 HEAT:  47.83020

     GRADIENT =  0.04836  IS LESS THAN CUTOFF =  0.05000



 -------------------------------------------------------------------------------
 pm3  precise nosym THREADS=1
 InChI=1S/C7H10/c1-2-4-6-7-5-3-1/h1,5H,2,4,6-7H2



     GEOMETRY OPTIMISED USING EIGENVECTOR FOLLOWING (EF).     
     SCF FIELD WAS ACHIEVED                                   


                              PM3 CALCULATION
                                                       MOPAC2016 (Version: 18.184L)
                                                       Sat Jun 15 10:18:35 2019
                                                       No. of days remaining =  18




          FINAL HEAT OF FORMATION =         47.83020 KCAL/MOL =     200.12156 KJ/MOL


          TOTAL ENERGY            =       -981.73558 EV
          ELECTRONIC ENERGY       =      -4633.15412 EV  POINT GROUP:     C1  
          CORE-CORE REPULSION     =       3651.41853 EV
          COSMO AREA              =        139.26 SQUARE ANGSTROMS
          COSMO VOLUME            =        135.26 CUBIC ANGSTROMS

          GRADIENT NORM           =          0.04836 = 0.01173 PER ATOM
          IONIZATION POTENTIAL    =          9.142565 EV
          HOMO LUMO ENERGIES (EV) =         -9.143  0.349
          NO. OF FILLED LEVELS    =         19
          MOLECULAR WEIGHT        =         94.1560

          MOLECULAR DIMENSIONS (Angstroms)

            Atom       Atom       Distance
            H    14    H    13     5.17723
            H     9    H    16     4.26999
            H    12    H    17     3.94971


          SCF CALCULATIONS        =         62
 
          WALL-CLOCK TIME         =          0.188 SECONDS
          COMPUTATION TIME        =          0.166 SECONDS




   ATOM   CHEMICAL          X               Y               Z
  NUMBER   SYMBOL      (ANGSTROMS)     (ANGSTROMS)     (ANGSTROMS)
 
     1       C          0.41893787  *  -1.09150549  *   0.40266121  *
     2       C         -0.56121599  *  -0.81302768  *  -0.74384292  *
     3       C          1.67089208  *  -0.19788102  *   0.41649046  *
     4       C         -1.67093366  *   0.20031628  *  -0.41562629  *
     5       C          1.35099671  *   1.21895755  *   0.04820226  *
     6       C         -1.15957641  *   1.34127412  *   0.41026067  *
     7       C          0.11868942  *   1.58893571  *   0.28421678  *
     8       H         -0.11517028  *  -0.99786404  *   1.36894902  *
     9       H          0.75002011  *  -2.14677592  *   0.34839436  *
    10       H         -1.04169837  *  -1.76286889  *  -1.04898170  *
    11       H          0.00536064  *  -0.46891841  *  -1.63171400  *
    12       H          2.41049598  *  -0.57815997  *  -0.31516314  *
    13       H          2.16495722  *  -0.25035903  *   1.40553503  *
    14       H         -2.14265757  *   0.56361397  *  -1.34867145  *
    15       H         -2.47565991  *  -0.29849977  *   0.15933361  *
    16       H          2.08308076  *   1.82137957  *  -0.49472027  *
    17       H         -1.81041745  *   1.81751214  *   1.14726767  *

                             CARTESIAN COORDINATES

   1    C        0.418937865    -1.091505488     0.402661212
   2    C       -0.561215991    -0.813027680    -0.743842922
   3    C        1.670892083    -0.197881019     0.416490463
   4    C       -1.670933656     0.200316283    -0.415626294
   5    C        1.350996714     1.218957548     0.048202262
   6    C       -1.159576410     1.341274116     0.410260668
   7    C        0.118689415     1.588935708     0.284216781
   8    H       -0.115170276    -0.997864038     1.368949025
   9    H        0.750020109    -2.146775919     0.348394360
  10    H       -1.041698372    -1.762868894    -1.048981699
  11    H        0.005360637    -0.468918411    -1.631713996
  12    H        2.410495976    -0.578159975    -0.315163136
  13    H        2.164957219    -0.250359033     1.405535029
  14    H       -2.142657570     0.563613966    -1.348671453
  15    H       -2.475659906    -0.298499774     0.159333612
  16    H        2.083080760     1.821379568    -0.494720270
  17    H       -1.810417451     1.817512145     1.147267674


           Empirical Formula: C7 H10  =    17 atoms



      MOLECULAR POINT GROUP   :   C1  


                  EIGENVALUES  
 -40.39458 -32.35891 -30.55185 -24.27766 -23.42437 -19.68484 -17.61611 -16.38866
 -16.22787 -15.72726 -14.49342 -14.24619 -13.81759 -12.68939 -12.55141 -12.03064
 -11.73750 -10.21486  -9.14257   0.34875   1.56840   3.26582   3.29372   3.57026
   3.61776   3.82578   3.85964   4.13183   4.13637   4.31674   4.36448   4.68248
   4.75507   4.91893   5.04574   5.24678   5.43639   6.54034


              NET ATOMIC CHARGES AND DIPOLE CONTRIBUTIONS

  ATOM NO.   TYPE          CHARGE      No. of ELECS.   s-Pop       p-Pop       
    1          C          -0.098276        4.0983     1.16492     2.93336
    2          C          -0.098286        4.0983     1.16492     2.93337
    3          C          -0.052761        4.0528     1.15254     2.90022
    4          C          -0.052743        4.0527     1.15253     2.90021
    5          C          -0.073946        4.0739     1.16942     2.90453
    6          C          -0.073923        4.0739     1.16941     2.90451
    7          C          -0.199236        4.1992     1.23609     2.96315
    8          H           0.055467        0.9445     0.94453
    9          H           0.046349        0.9537     0.95365
   10          H           0.046364        0.9536     0.95364
   11          H           0.055489        0.9445     0.94451
   12          H           0.052241        0.9478     0.94776
   13          H           0.055852        0.9441     0.94415
   14          H           0.055867        0.9441     0.94413
   15          H           0.052235        0.9478     0.94777
   16          H           0.114672        0.8853     0.88533
   17          H           0.114639        0.8854     0.88536
 DIPOLE           X         Y         Z       TOTAL
 POINT-CHG.    -0.069    -0.925    -0.165     0.942
 HYBRID         0.003     0.035     0.006     0.035
 SUM           -0.066    -0.890    -0.159     0.906


          ATOMIC ORBITAL ELECTRON POPULATIONS

     Atom    s        px        py        pz   
    1  C   1.16492   0.95934   0.98376   0.99025
    2  C   1.16492   0.96715   0.98454   0.98169
    3  C   1.15254   0.96642   0.92403   1.00978
    4  C   1.15253   0.96716   0.94058   0.99247
    5  C   1.16942   0.96852   0.93786   0.99816
    6  C   1.16941   0.95240   0.95159   1.00052
    7  C   1.23609   0.96488   0.99793   1.00034
    8  H   0.94453
    9  H   0.95365
   10  H   0.95364
   11  H   0.94451
   12  H   0.94776
   13  H   0.94415
   14  H   0.94413
   15  H   0.94777
   16  H   0.88533
   17  H   0.88536
 *******************************************************************************
 ** Site#: 14399        For non-commercial use only    Version 18.184L 64BITS **
 *******************************************************************************
 ** Cite this program as: MOPAC2016, Version: 18.184L, James J. P. Stewart,   **
 ** Stewart Computational Chemistry, web: HTTP://OpenMOPAC.net. Days left:  18**
 *******************************************************************************
 **                                                                           **
 **                                MOPAC2016                                  **
 **                                                                           **
 *******************************************************************************

                              PM3 CALCULATION RESULTS

 *******************************************************************************
 *  CALCULATION DONE:                                Sat Jun 15 10:18:35 2019  *
 *  PM3        - The PM3 Hamiltonian to be used
 *  OLDGEO     - PREVIOUS GEOMETRY TO BE USED
 *  PRECISE    - CRITERIA TO BE INCREASED BY 100 TIMES
 *  NOSYM      - POINT-GROUP SYMMETRY SET TO C1
 *  THREADS=1  - MULTI-THREADING NOT USED
 *  T=         - A TIME OF 172800.0 SECONDS REQUESTED
 *  DUMP=N     - RESTART FILE WRITTEN EVERY  7200.000 SECONDS
 *  THERMO     - THERMODYNAMIC QUANTITIES TO BE CALCULATED
 *******************************************************************************
oldgeo thermo nosym precise THREADS=1  pm3
 InChI=1S/C7H10/c1-2-4-6-7-5-3-1/h1,5H,2,4,6-7H2

   ATOM   CHEMICAL          X               Y               Z
  NUMBER   SYMBOL      (ANGSTROMS)     (ANGSTROMS)     (ANGSTROMS)
 
     1       C          0.41893787  *  -1.09150549  *   0.40266121  *
     2       C         -0.56121599  *  -0.81302768  *  -0.74384292  *
     3       C          1.67089208  *  -0.19788102  *   0.41649046  *
     4       C         -1.67093366  *   0.20031628  *  -0.41562629  *
     5       C          1.35099671  *   1.21895755  *   0.04820226  *
     6       C         -1.15957641  *   1.34127412  *   0.41026067  *
     7       C          0.11868942  *   1.58893571  *   0.28421678  *
     8       H         -0.11517028  *  -0.99786404  *   1.36894902  *
     9       H          0.75002011  *  -2.14677592  *   0.34839436  *
    10       H         -1.04169837  *  -1.76286889  *  -1.04898170  *
    11       H          0.00536064  *  -0.46891841  *  -1.63171400  *
    12       H          2.41049598  *  -0.57815997  *  -0.31516314  *
    13       H          2.16495722  *  -0.25035903  *   1.40553503  *
    14       H         -2.14265757  *   0.56361397  *  -1.34867145  *
    15       H         -2.47565991  *  -0.29849977  *   0.15933361  *
    16       H          2.08308076  *   1.82137957  *  -0.49472027  *
    17       H         -1.81041745  *   1.81751214  *   1.14726767  *
 


          CARTESIAN COORDINATES 

    NO.       ATOM           X           Y           Z

     1         C          0.4189     -1.0915      0.4027
     2         C         -0.5612     -0.8130     -0.7438
     3         C          1.6709     -0.1979      0.4165
     4         C         -1.6709      0.2003     -0.4156
     5         C          1.3510      1.2190      0.0482
     6         C         -1.1596      1.3413      0.4103
     7         C          0.1187      1.5889      0.2842
     8         H         -0.1152     -0.9979      1.3689
     9         H          0.7500     -2.1468      0.3484
    10         H         -1.0417     -1.7629     -1.0490
    11         H          0.0054     -0.4689     -1.6317
    12         H          2.4105     -0.5782     -0.3152
    13         H          2.1650     -0.2504      1.4055
    14         H         -2.1427      0.5636     -1.3487
    15         H         -2.4757     -0.2985      0.1593
    16         H          2.0831      1.8214     -0.4947
    17         H         -1.8104      1.8175      1.1473

  H: (PM3): J. J. P. STEWART, J. COMP. CHEM. 10, 209 (1989).
  C: (PM3): J. J. P. STEWART, J. COMP. CHEM. 10, 209 (1989).

           Empirical Formula: C7 H10  =    17 atoms



      MOLECULAR POINT GROUP   :   C1  


      RHF CALCULATION, NO. OF DOUBLY OCCUPIED LEVELS = 19



          HEAT OF FORMATION =      47.830200 KCALS/MOLE


          CARTESIAN COORDINATE DERIVATIVES

   NUMBER  ATOM         X            Y            Z

     1       C      0.001853     0.004243    -0.003825
     2       C      0.002838    -0.005828     0.001614
     3       C      0.004572     0.001018    -0.007870
     4       C      0.000122     0.002104     0.002967
     5       C      0.001983     0.002878     0.007711
     6       C     -0.010602    -0.002020     0.009739
     7       C     -0.005052     0.012362    -0.012454
     8       H      0.002288    -0.005954    -0.001721
     9       H     -0.001774     0.008515     0.006999
    10       H      0.005846    -0.012734    -0.000809
    11       H      0.003910     0.003117    -0.006763
    12       H     -0.002061    -0.006709     0.001504
    13       H      0.005617     0.003006    -0.013149
    14       H      0.009548    -0.013908     0.008116
    15       H      0.009479    -0.002669    -0.009067
    16       H     -0.013879     0.011993     0.000587
    17       H     -0.014687     0.000585     0.016419
 


          GRADIENT NORM =   0.05336

          MOLECULAR WEIGHT =   94.16



          ROTATIONAL CONSTANTS IN CM(-1)

          A =    0.13445838   B =    0.10088944   C =    0.06712881



           PRINCIPAL MOMENTS OF INERTIA IN UNITS OF 10**(-40)*GRAM-CM**2

          A =      208.1891   B =      277.4599   C =      417.0009


          ORIENTATION OF MOLECULE IN FORCE CALCULATION

    NO.       ATOM         X         Y         Z

     1          C      -0.7668   -0.8614    0.8877
     2          C       0.7670   -0.8614    0.8877
     3          C      -1.4149    0.5337    0.8877
     4          C       1.4148   -0.9039   -0.5068
     5          C      -0.6780    1.4929    0.0033
     6          C       0.6779   -0.0483   -1.4918
     7          C       0.0002    0.9414   -0.9698
     8          H      -1.1308   -1.4402    0.0159
     9          H      -1.1294   -1.4092    1.7791
    10          H       1.1297   -1.7355    1.4626
    11          H       1.1311    0.0279    1.4395
    12          H      -1.4097    0.9490    1.9146
    13          H      -2.4795    0.4587    0.5941
    14          H       2.4796   -0.6091   -0.4409
    15          H       1.4087   -1.9428   -0.8911
    16          H      -0.6306    2.5524    0.2656
    17          H       0.6293   -0.3426   -2.5428


    FIRST DERIVATIVES WILL BE USED IN THE CALCULATION OF SECOND DERIVATIVES

    FOR POINT-GROUP C1   THERE ARE   1 UNIQUE SYMMETRY FUNCTIONS.

 STEP:   1 TIME =     0.01 SECS, INTEGRAL =      0.01 TIME LEFT: 172799.99
 STEP:   2 TIME =     0.01 SECS, INTEGRAL =      0.02 TIME LEFT: 172799.98
 STEP:   3 TIME =     0.01 SECS, INTEGRAL =      0.04 TIME LEFT: 172799.96
 STEP:   4 TIME =     0.01 SECS, INTEGRAL =      0.05 TIME LEFT: 172799.95
 STEP:   5 TIME =     0.01 SECS, INTEGRAL =      0.06 TIME LEFT: 172799.94
 STEP:   6 TIME =     0.01 SECS, INTEGRAL =      0.07 TIME LEFT: 172799.93
 STEP:   7 TIME =     0.01 SECS, INTEGRAL =      0.08 TIME LEFT: 172799.92
 STEP:   8 TIME =     0.01 SECS, INTEGRAL =      0.09 TIME LEFT: 172799.91
 STEP:   9 TIME =     0.02 SECS, INTEGRAL =      0.11 TIME LEFT: 172799.89
 STEP:  10 TIME =     0.01 SECS, INTEGRAL =      0.12 TIME LEFT: 172799.88
 STEP:  11 TIME =     0.01 SECS, INTEGRAL =      0.13 TIME LEFT: 172799.87
 STEP:  12 TIME =     0.01 SECS, INTEGRAL =      0.14 TIME LEFT: 172799.86
 STEP:  13 TIME =     0.01 SECS, INTEGRAL =      0.16 TIME LEFT: 172799.84
 STEP:  14 TIME =     0.01 SECS, INTEGRAL =      0.17 TIME LEFT: 172799.83
 STEP:  15 TIME =     0.01 SECS, INTEGRAL =      0.18 TIME LEFT: 172799.82
 STEP:  16 TIME =     0.02 SECS, INTEGRAL =      0.20 TIME LEFT: 172799.80
 STEP:  17 TIME =     0.01 SECS, INTEGRAL =      0.21 TIME LEFT: 172799.79
 STEP:  18 TIME =     0.01 SECS, INTEGRAL =      0.22 TIME LEFT: 172799.78
 STEP:  19 TIME =     0.01 SECS, INTEGRAL =      0.23 TIME LEFT: 172799.77
 STEP:  20 TIME =     0.01 SECS, INTEGRAL =      0.24 TIME LEFT: 172799.76
 STEP:  21 TIME =     0.01 SECS, INTEGRAL =      0.25 TIME LEFT: 172799.75
 STEP:  22 TIME =     0.01 SECS, INTEGRAL =      0.27 TIME LEFT: 172799.73
 STEP:  23 TIME =     0.02 SECS, INTEGRAL =      0.28 TIME LEFT: 172799.72
 STEP:  24 TIME =     0.01 SECS, INTEGRAL =      0.29 TIME LEFT: 172799.71
 STEP:  25 TIME =     0.01 SECS, INTEGRAL =      0.30 TIME LEFT: 172799.70
 STEP:  26 TIME =     0.01 SECS, INTEGRAL =      0.32 TIME LEFT: 172799.68
 STEP:  27 TIME =     0.01 SECS, INTEGRAL =      0.33 TIME LEFT: 172799.67
 STEP:  28 TIME =     0.01 SECS, INTEGRAL =      0.34 TIME LEFT: 172799.66
 STEP:  29 TIME =     0.01 SECS, INTEGRAL =      0.35 TIME LEFT: 172799.65
 STEP:  30 TIME =     0.01 SECS, INTEGRAL =      0.36 TIME LEFT: 172799.64
 STEP:  31 TIME =     0.01 SECS, INTEGRAL =      0.38 TIME LEFT: 172799.62
 STEP:  32 TIME =     0.01 SECS, INTEGRAL =      0.39 TIME LEFT: 172799.61
 STEP:  33 TIME =     0.01 SECS, INTEGRAL =      0.40 TIME LEFT: 172799.60
 STEP:  34 TIME =     0.01 SECS, INTEGRAL =      0.41 TIME LEFT: 172799.59
 STEP:  35 TIME =     0.01 SECS, INTEGRAL =      0.42 TIME LEFT: 172799.58
 STEP:  36 TIME =     0.01 SECS, INTEGRAL =      0.43 TIME LEFT: 172799.57
 STEP:  37 TIME =     0.01 SECS, INTEGRAL =      0.45 TIME LEFT: 172799.55
 STEP:  38 TIME =     0.01 SECS, INTEGRAL =      0.46 TIME LEFT: 172799.54
 STEP:  39 TIME =     0.01 SECS, INTEGRAL =      0.47 TIME LEFT: 172799.53
 STEP:  40 TIME =     0.01 SECS, INTEGRAL =      0.48 TIME LEFT: 172799.52
 STEP:  41 TIME =     0.01 SECS, INTEGRAL =      0.49 TIME LEFT: 172799.51
 STEP:  42 TIME =     0.01 SECS, INTEGRAL =      0.50 TIME LEFT: 172799.50
 STEP:  43 TIME =     0.01 SECS, INTEGRAL =      0.52 TIME LEFT: 172799.48
 STEP:  44 TIME =     0.01 SECS, INTEGRAL =      0.53 TIME LEFT: 172799.47
 STEP:  45 TIME =     0.01 SECS, INTEGRAL =      0.54 TIME LEFT: 172799.46
 STEP:  46 TIME =     0.02 SECS, INTEGRAL =      0.55 TIME LEFT: 172799.45
 STEP:  47 TIME =     0.01 SECS, INTEGRAL =      0.57 TIME LEFT: 172799.43
 STEP:  48 TIME =     0.01 SECS, INTEGRAL =      0.58 TIME LEFT: 172799.42
 STEP:  49 TIME =     0.01 SECS, INTEGRAL =      0.59 TIME LEFT: 172799.41
 STEP:  50 TIME =     0.02 SECS, INTEGRAL =      0.61 TIME LEFT: 172799.39
 STEP:  51 TIME =     0.01 SECS, INTEGRAL =      0.62 TIME LEFT: 172799.38

(To convert to Hartree/Bohr^2, multiply by (10^(-21) x N x a0^2)/(4.184 x 627.51) =  0.0642)


           FORCE MATRIX IN MILLIDYNES/ANGSTROM


                  C  1       C  2       C  3       C  4       C  5       C  6
 ------------------------------------------------------------------------------
     C    1  13.836481
     C    2   3.797278  13.836765
     C    3   3.667056   0.537783  14.219055
     C    4   0.538162   3.667808   0.080357  14.219111
     C    5   0.648408   0.071913   4.491962   0.063089  17.926952
     C    6   0.072044   0.648991   0.063110   4.492111   0.865653  17.928439
     C    7   0.135167   0.135595   1.142161   1.141444  11.205647  11.206077
     H    8   4.463544   0.443217   0.443113   0.038081   0.009369   0.019026
     H    9   4.486599   0.431749   0.423955   0.042149   0.046448   0.003275
     H   10   0.431870   4.486434   0.042228   0.424000   0.003314   0.046504
     H   11   0.443259   4.463650   0.038063   0.443126   0.019068   0.009356
     H   12   0.437426   0.009596   4.465663   0.006790   0.416984   0.005770
     H   13   0.434096   0.044244   4.478567   0.009765   0.424203   0.006353
     H   14   0.044322   0.434182   0.009765   4.478468   0.006465   0.424376
     H   15   0.009495   0.437528   0.006694   4.465598   0.005791   0.416673
     H   16   0.034981   0.004503   0.431596   0.056987   4.894625   0.084854
     H   17   0.004441   0.034985   0.057000   0.431576   0.085020   4.895139


                  C  7       H  8       H  9       H 10       H 11       H 12
 ------------------------------------------------------------------------------
     C    7  23.161405
     H    8   0.021600   5.076947
     H    9   0.005201   0.574691   5.080966
     H   10   0.005353   0.014095   0.030083   5.080836
     H   11   0.021642   0.039706   0.014087   0.574627   5.077089
     H   12   0.044400   0.043083   0.036487   0.000877   0.007119   5.047450
     H   13   0.024834   0.035820   0.022225   0.007106   0.002558   0.566561
     H   14   0.025137   0.002591   0.007101   0.022262   0.035760   0.000628
     H   15   0.044549   0.007178   0.000846   0.036471   0.043073   0.001329
     H   16   0.443805   0.000859   0.005238   0.001028   0.001537   0.035695
     H   17   0.444085   0.001585   0.000978   0.005208   0.000842   0.004549


                  H 13       H 14       H 15       H 16       H 17
 ------------------------------------------------------------------
     H   13   5.090051
     H   14   0.001488   5.089775
     H   15   0.000604   0.566503   5.047616
     H   16   0.013773   0.007882   0.004462   5.284338
     H   17   0.007862   0.013660   0.035837   0.044548   5.284689


          HEAT OF FORMATION =      47.830200 KCALS/MOLE

          ZERO POINT ENERGY      93.134 KCAL/MOL


           NORMAL COORDINATE ANALYSIS (Total motion = 1 Angstrom)


   Root No.       1         2         3         4         5         6         7         8

                 1 A       2 A       3 A       4 A       5 A       6 A       7 A       8 A   

                 141.1     269.4     289.4     309.3     413.4     471.2     636.0     716.3
  
           1   -0.0102    0.0005   -0.0009   -0.0282   -0.0076   -0.0305    0.0065    0.0048
           2    0.0009   -0.0007   -0.0088   -0.0043    0.0510   -0.0269    0.0268   -0.0253
           3   -0.0256    0.0159   -0.0495    0.0223   -0.0112    0.0204    0.0085   -0.0051
           4   -0.0102   -0.0005    0.0003   -0.0283    0.0076   -0.0305    0.0065   -0.0048
           5   -0.0255   -0.0159    0.0502    0.0206    0.0096    0.0196    0.0093    0.0059
           6    0.0017    0.0012    0.0072   -0.0052   -0.0513   -0.0276    0.0266    0.0250
           7    0.0235   -0.0091    0.0030   -0.0039   -0.0583    0.0099   -0.0259    0.0335
           8    0.0153   -0.0026   -0.0085    0.0038    0.0335   -0.0102   -0.0042    0.0008
           9    0.0249   -0.0282    0.0031    0.0294    0.0183    0.0068    0.0217   -0.0307
          10    0.0235    0.0092   -0.0031   -0.0038    0.0583    0.0100   -0.0259   -0.0335
          11    0.0253    0.0283   -0.0023    0.0295   -0.0192    0.0065    0.0216    0.0306
          12    0.0145    0.0018    0.0087    0.0027   -0.0329   -0.0104   -0.0049   -0.0017
          13   -0.0089    0.0347    0.0298    0.0397   -0.0165    0.0002   -0.0033    0.0004
          14    0.0042    0.0061   -0.0028   -0.0436   -0.0038   -0.0090   -0.0467    0.0473
          15   -0.0142    0.0178    0.0272    0.0198    0.0210   -0.0074   -0.0054   -0.0045
          16   -0.0088   -0.0346   -0.0289    0.0407    0.0166    0.0002   -0.0033   -0.0004
          17   -0.0140   -0.0180   -0.0267    0.0194   -0.0209   -0.0077   -0.0067    0.0031
          18    0.0046   -0.0056    0.0027   -0.0443    0.0044   -0.0088   -0.0466   -0.0473
          19   -0.0152   -0.0001   -0.0004   -0.0345   -0.0001    0.0518    0.0600   -0.0001
          20   -0.0105    0.0043   -0.0080   -0.0381   -0.0651    0.0165    0.0083   -0.0739
          21   -0.0102   -0.0046    0.0074   -0.0373    0.0670    0.0161    0.0082    0.0761
          22   -0.0091   -0.0082    0.0451   -0.0439   -0.0343   -0.0716    0.0571    0.0258
          23    0.0466   -0.0352    0.0417   -0.0038    0.0611   -0.0668    0.0903   -0.0638
          24   -0.0564    0.0427   -0.1031    0.0297   -0.0062    0.0668   -0.0580    0.0118
          25   -0.0363    0.0102   -0.0313   -0.0088    0.0303    0.0150   -0.0312   -0.0240
          26   -0.0293    0.0345   -0.0736   -0.0030    0.0386    0.0153   -0.0485    0.0119
          27   -0.0547    0.0419   -0.1032    0.0308   -0.0041    0.0660   -0.0547    0.0068
          28   -0.0362   -0.0104    0.0311   -0.0097   -0.0303    0.0151   -0.0311    0.0241
          29   -0.0555   -0.0432    0.1060    0.0274    0.0028    0.0665   -0.0562   -0.0071
          30   -0.0275   -0.0333    0.0703   -0.0061   -0.0387    0.0133   -0.0468   -0.0117
          31   -0.0091    0.0081   -0.0460   -0.0425    0.0344   -0.0717    0.0570   -0.0260
          32   -0.0548   -0.0418    0.1023    0.0264    0.0043    0.0648   -0.0552   -0.0098
          33    0.0482    0.0367   -0.0449   -0.0034   -0.0611   -0.0688    0.0922    0.0640
          34    0.1037   -0.0971    0.0039    0.0090   -0.1039    0.0700   -0.0364    0.0524
          35    0.0097   -0.0061   -0.0443    0.0076    0.0325    0.0002    0.0232   -0.0183
          36    0.0271   -0.0271    0.0172    0.0279    0.0177    0.0039    0.0110   -0.0243
          37    0.0025    0.0143    0.0044   -0.0060   -0.0474   -0.0046   -0.0265    0.0355
          38    0.0437   -0.0145    0.0162    0.0376    0.0151    0.0244   -0.0255    0.0087
          39    0.0947   -0.1125   -0.0067    0.0304   -0.0183    0.0543    0.0260   -0.0341
          40    0.0026   -0.0142   -0.0046   -0.0059    0.0475   -0.0045   -0.0266   -0.0354
          41    0.0956    0.1133    0.0069    0.0310    0.0177    0.0551    0.0252    0.0336
          42    0.0408    0.0113   -0.0156    0.0372   -0.0156    0.0227   -0.0263   -0.0097
          43    0.1034    0.0975   -0.0037    0.0088    0.1038    0.0701   -0.0366   -0.0524
          44    0.0272    0.0273   -0.0152    0.0286   -0.0187    0.0038    0.0117    0.0249
          45    0.0088    0.0053    0.0449    0.0053   -0.0320    0.0001    0.0229    0.0176
          46   -0.0234    0.0688    0.0610    0.1574    0.0091   -0.0745   -0.0506   -0.0411
          47    0.0119   -0.0036   -0.0104   -0.0569    0.0043    0.0005   -0.0394    0.0680
          48   -0.0429    0.0489    0.0504    0.0569   -0.0185   -0.0309   -0.0242   -0.0898
          49   -0.0232   -0.0687   -0.0574    0.1598   -0.0090   -0.0748   -0.0508    0.0414
          50   -0.0423   -0.0488   -0.0487    0.0567    0.0184   -0.0308   -0.0251    0.0877
          51    0.0132    0.0050    0.0107   -0.0591   -0.0049    0.0015   -0.0386   -0.0706


   Root No.       9        10        11        12        13        14        15        16

                 9 A      10 A      11 A      12 A      13 A      14 A      15 A      16 A   

                 771.5     775.1     855.9     909.0     915.6     953.6    1000.8    1010.0
  
           1    0.0097   -0.0016   -0.0187   -0.0273   -0.0077    0.0173   -0.0063    0.0074
           2    0.0070    0.0064   -0.0243   -0.0159   -0.0219   -0.0111    0.0203    0.0211
           3   -0.0062   -0.0210    0.0214    0.0029    0.0196   -0.0349   -0.0183    0.0162
           4    0.0097    0.0017    0.0187    0.0273   -0.0080    0.0171   -0.0065   -0.0073
           5   -0.0063    0.0207   -0.0207   -0.0024    0.0189   -0.0351   -0.0180   -0.0167
           6    0.0072   -0.0069    0.0249    0.0157   -0.0227   -0.0101    0.0206   -0.0209
           7   -0.0165   -0.0092   -0.0232   -0.0227    0.0111   -0.0231    0.0313    0.0069
           8   -0.0015   -0.0092    0.0143    0.0112    0.0017    0.0254   -0.0043   -0.0093
           9   -0.0151   -0.0164   -0.0095   -0.0073    0.0152    0.0235    0.0115   -0.0293
          10   -0.0167    0.0090    0.0231    0.0227    0.0108   -0.0231    0.0312   -0.0074
          11   -0.0155    0.0165    0.0091    0.0072    0.0152    0.0242    0.0117    0.0294
          12   -0.0012    0.0087   -0.0145   -0.0114    0.0014    0.0247   -0.0045    0.0085
          13   -0.0177    0.0005   -0.0089    0.0236   -0.0163   -0.0011   -0.0207    0.0120
          14    0.0012   -0.0081    0.0094   -0.0075    0.0178   -0.0036   -0.0158   -0.0208
          15   -0.0109    0.0035   -0.0170    0.0187   -0.0257   -0.0053   -0.0055    0.0110
          16   -0.0176   -0.0008    0.0089   -0.0239   -0.0161   -0.0010   -0.0209   -0.0116
          17   -0.0108   -0.0034    0.0166   -0.0188   -0.0250   -0.0053   -0.0061   -0.0102
          18    0.0014    0.0083   -0.0099    0.0083    0.0186   -0.0035   -0.0155    0.0213
          19    0.0158    0.0001    0.0000    0.0001    0.0149    0.0148    0.0078   -0.0001
          20    0.0100   -0.0044   -0.0053    0.0113    0.0049    0.0013    0.0043   -0.0093
          21    0.0096    0.0047    0.0055   -0.0116    0.0049    0.0013    0.0043    0.0096
          22    0.0184   -0.0243    0.0242   -0.0133   -0.0166   -0.0860   -0.0609    0.0154
          23   -0.0222   -0.0751    0.0120   -0.0265    0.0452   -0.0334   -0.0032    0.0852
          24    0.0106    0.0451   -0.0202    0.0064   -0.0237    0.0269    0.0214   -0.0322
          25    0.0112    0.0514   -0.0832   -0.0479    0.0093    0.1295   -0.0464   -0.0510
          26    0.0335    0.0726   -0.0512   -0.0031   -0.1035    0.0222    0.1125    0.0031
          27    0.0111    0.0438   -0.0235    0.0016   -0.0246    0.0300    0.0240   -0.0213
          28    0.0119   -0.0513    0.0833    0.0484    0.0089    0.1291   -0.0458    0.0519
          29    0.0128   -0.0458    0.0251   -0.0017   -0.0277    0.0306    0.0278    0.0209
          30    0.0342   -0.0707    0.0505    0.0022   -0.1027    0.0213    0.1118   -0.0052
          31    0.0180    0.0245   -0.0243    0.0129   -0.0166   -0.0861   -0.0612   -0.0149
          32    0.0106   -0.0426    0.0199   -0.0057   -0.0222    0.0258    0.0217    0.0293
          33   -0.0239    0.0761   -0.0126    0.0270    0.0454   -0.0341   -0.0052   -0.0861
          34    0.0948    0.0964    0.0367    0.0312   -0.0603   -0.0691   -0.0477    0.0723
          35    0.0114   -0.0250    0.0427   -0.0030    0.0286    0.0085   -0.0060    0.0984
          36   -0.0185   -0.0081   -0.0213   -0.0006    0.0022    0.0300    0.0128   -0.0730
          37   -0.0453   -0.0346   -0.0378   -0.0337    0.0279   -0.0170    0.0495   -0.0077
          38   -0.0043    0.0295    0.0391    0.1230   -0.0538    0.0191   -0.0523   -0.0594
          39    0.0992    0.0742    0.0423    0.0069   -0.0350    0.0006   -0.0512    0.0381
          40   -0.0460    0.0340    0.0377    0.0339    0.0276   -0.0171    0.0496    0.0070
          41    0.1005   -0.0738   -0.0434   -0.0108   -0.0366    0.0012   -0.0534   -0.0354
          42   -0.0065   -0.0274   -0.0379   -0.1232   -0.0514    0.0194   -0.0498    0.0608
          43    0.0965   -0.0950   -0.0367   -0.0319   -0.0599   -0.0688   -0.0486   -0.0715
          44   -0.0184    0.0087    0.0200    0.0009    0.0031    0.0301    0.0136    0.0696
          45    0.0114    0.0249   -0.0432    0.0033    0.0284    0.0079   -0.0076   -0.0998
          46    0.1177    0.0467    0.1385   -0.1401    0.1075    0.0378    0.0106   -0.0434
          47   -0.0300   -0.0213   -0.0114    0.0243   -0.0010    0.0083   -0.0359   -0.0176
          48    0.0963    0.0489    0.0437   -0.0808    0.0299   -0.0609    0.0697    0.0064
          49    0.1190   -0.0449   -0.1379    0.1417    0.1068    0.0372    0.0116    0.0429
          50    0.0957   -0.0468   -0.0427    0.0798    0.0287   -0.0607    0.0683   -0.0073
          51   -0.0333    0.0223    0.0127   -0.0268   -0.0017    0.0101   -0.0378    0.0184


   Root No.      17        18        19        20        21        22        23        24

                17 A      18 A      19 A      20 A      21 A      22 A      23 A      24 A   

                1040.2    1062.0    1070.9    1086.2    1110.9    1134.5    1141.7    1145.5
  
           1    0.0156   -0.0117    0.0034    0.0053   -0.0013    0.0033   -0.0017    0.0396
           2   -0.0018    0.0100   -0.0017   -0.0012   -0.0009   -0.0232    0.0205    0.0089
           3    0.0096    0.0102    0.0055    0.0022    0.0090   -0.0063    0.0144    0.0171
           4   -0.0156    0.0117    0.0032    0.0053    0.0013    0.0036    0.0018   -0.0395
           5   -0.0095   -0.0104    0.0054    0.0022   -0.0090   -0.0065   -0.0151   -0.0174
           6    0.0020   -0.0098   -0.0019   -0.0012    0.0011   -0.0226   -0.0205   -0.0085
           7   -0.0309    0.0062    0.0005    0.0057   -0.0020    0.0036   -0.0032   -0.0059
           8   -0.0050   -0.0056    0.0046    0.0070   -0.0123    0.0185   -0.0170    0.0100
           9    0.0037   -0.0055    0.0059   -0.0130   -0.0123    0.0072   -0.0063   -0.0058
          10    0.0308   -0.0062    0.0005    0.0057    0.0020    0.0035    0.0033    0.0059
          11   -0.0036    0.0057    0.0061   -0.0128    0.0126    0.0075    0.0069    0.0055
          12    0.0051    0.0055    0.0045    0.0074    0.0120    0.0180    0.0171   -0.0100
          13    0.0186   -0.0134   -0.0153   -0.0058    0.0034   -0.0100    0.0028   -0.0044
          14    0.0444    0.0198   -0.0046   -0.0103    0.0013   -0.0131    0.0000   -0.0091
          15    0.0090    0.0013   -0.0115    0.0030   -0.0055    0.0097   -0.0021    0.0002
          16   -0.0186    0.0134   -0.0154   -0.0058   -0.0034   -0.0099   -0.0030    0.0043
          17   -0.0102   -0.0020   -0.0116    0.0026    0.0055    0.0093    0.0023    0.0002
          18   -0.0441   -0.0198   -0.0041   -0.0104   -0.0015   -0.0135   -0.0003    0.0090
          19    0.0000    0.0000    0.0086   -0.0058   -0.0000   -0.0021   -0.0000   -0.0000
          20    0.0097   -0.0036    0.0021   -0.0002   -0.0036    0.0068    0.0029   -0.0011
          21   -0.0100    0.0038    0.0021   -0.0002    0.0037    0.0067   -0.0028    0.0013
          22    0.0463   -0.0380    0.0734   -0.0700   -0.1086    0.1032    0.0059    0.1687
          23   -0.0052    0.0497   -0.0408    0.0667    0.0854   -0.0961    0.0496   -0.0204
          24   -0.0015   -0.0052    0.0028   -0.0102   -0.0039   -0.0012   -0.0083   -0.0164
          25    0.0535   -0.0437   -0.0142    0.0721    0.1449   -0.0633   -0.0828    0.0544
          26   -0.0446    0.0060   -0.0056   -0.0450   -0.1162    0.0178    0.0434   -0.0319
          27    0.0001   -0.0056   -0.0038   -0.0001   -0.0020   -0.0093   -0.0043   -0.0030
          28   -0.0535    0.0440   -0.0142    0.0719   -0.1449   -0.0644    0.0819   -0.0550
          29    0.0012    0.0054   -0.0039   -0.0015    0.0056   -0.0089    0.0028    0.0038
          30    0.0444   -0.0065   -0.0055   -0.0449    0.1160    0.0184   -0.0433    0.0319
          31   -0.0462    0.0381    0.0730   -0.0702    0.1086    0.1046   -0.0044   -0.1679
          32    0.0016    0.0037    0.0017   -0.0081    0.0013   -0.0045    0.0067    0.0169
          33    0.0051   -0.0498   -0.0410    0.0673   -0.0855   -0.0950   -0.0513    0.0192
          34    0.0071    0.0086   -0.0053    0.0231    0.0303   -0.0111    0.0190    0.0316
          35   -0.0199   -0.0752   -0.1239    0.0644   -0.0226    0.1622   -0.1570   -0.0356
          36    0.0112    0.0241    0.0581   -0.0369   -0.0102   -0.0520    0.0510    0.0127
          37   -0.0534    0.0052    0.0112    0.0075   -0.0051    0.0143   -0.0105   -0.0033
          38   -0.1226    0.0506    0.1745    0.0806    0.0559    0.0279   -0.0061    0.1193
          39    0.1182   -0.0188   -0.0728   -0.0369   -0.0163   -0.0309    0.0153   -0.0323
          40    0.0533   -0.0052    0.0113    0.0075    0.0051    0.0141    0.0108    0.0035
          41   -0.1143    0.0168   -0.0678   -0.0345    0.0147   -0.0299   -0.0155    0.0285
          42    0.1261   -0.0499    0.1770    0.0818   -0.0563    0.0296    0.0069   -0.1202
          43   -0.0068   -0.0087   -0.0055    0.0232   -0.0303   -0.0104   -0.0191   -0.0317
          44   -0.0106   -0.0216    0.0546   -0.0349    0.0108   -0.0461   -0.0472   -0.0121
          45    0.0202    0.0753   -0.1259    0.0650    0.0226    0.1604    0.1617    0.0376
          46   -0.0564   -0.0928    0.0223   -0.0599    0.0238    0.0029    0.0615   -0.0106
          47    0.0473   -0.0191   -0.0151   -0.0291    0.0067   -0.0098    0.0193   -0.0133
          48    0.0179    0.1818    0.0223    0.0929   -0.0346   -0.0016   -0.0991    0.0181
          49    0.0563    0.0920    0.0219   -0.0598   -0.0238    0.0040   -0.0613    0.0107
          50   -0.0198   -0.1811    0.0229    0.0924    0.0345   -0.0038    0.0988   -0.0179
          51   -0.0466    0.0244   -0.0159   -0.0319   -0.0078   -0.0095   -0.0225    0.0138


   Root No.      25        26        27        28        29        30        31        32

                25 A      26 A      27 A      28 A      29 A      30 A      31 A      32 A   

                1190.5    1279.3    1325.2    1334.6    1340.4    1384.9    1388.6    1402.5
  
           1   -0.0050   -0.0336    0.0227    0.0527    0.0083    0.0149    0.0081   -0.0088
           2   -0.0040    0.0280   -0.0080   -0.0359   -0.0143   -0.0056    0.0041   -0.0265
           3   -0.0049   -0.0096   -0.0050   -0.0053    0.0101   -0.0024   -0.0027    0.0035
           4   -0.0050   -0.0336   -0.0228   -0.0526    0.0084   -0.0148    0.0082   -0.0096
           5   -0.0051   -0.0087    0.0053    0.0064    0.0096    0.0025   -0.0026    0.0027
           6   -0.0039    0.0283    0.0079    0.0357   -0.0147    0.0056    0.0042   -0.0273
           7   -0.0069    0.0120   -0.0090   -0.0015    0.0068   -0.0253   -0.0260   -0.0066
           8    0.0160    0.0005   -0.0386    0.0383    0.0594    0.0058   -0.0046    0.0097
           9    0.0118   -0.0028    0.0159   -0.0180   -0.0267    0.0166    0.0227    0.0024
          10   -0.0068    0.0120    0.0090    0.0015    0.0068    0.0250   -0.0263   -0.0066
          11    0.0123   -0.0027   -0.0147    0.0167   -0.0250   -0.0165    0.0228    0.0027
          12    0.0156    0.0006    0.0390   -0.0385    0.0604   -0.0054   -0.0053    0.0101
          13    0.0188   -0.0066   -0.0009   -0.0014   -0.0133   -0.0043    0.0072    0.0005
          14    0.0130   -0.0070    0.0206   -0.0154   -0.0262    0.0061    0.0079   -0.0004
          15   -0.0200    0.0063    0.0011    0.0037    0.0166    0.0072   -0.0074   -0.0007
          16    0.0188   -0.0066    0.0010    0.0013   -0.0132    0.0044    0.0071    0.0005
          17   -0.0196    0.0061   -0.0017   -0.0032    0.0158   -0.0075   -0.0071   -0.0007
          18    0.0136   -0.0072   -0.0205    0.0153   -0.0268   -0.0057    0.0082   -0.0005
          19    0.0033   -0.0019    0.0000   -0.0000   -0.0015    0.0000    0.0023    0.0006
          20   -0.0169    0.0044    0.0034   -0.0005    0.0061    0.0056   -0.0038   -0.0006
          21   -0.0164    0.0042   -0.0035    0.0005    0.0059   -0.0058   -0.0036   -0.0006
          22    0.0579    0.0977   -0.0218   -0.1232   -0.0327   -0.0442   -0.0366    0.0787
          23   -0.0627   -0.0613    0.0616    0.0672   -0.0138    0.0047   -0.0226    0.1151
          24    0.0066   -0.0055   -0.0288   -0.0001    0.0235    0.0134    0.0299   -0.1105
          25    0.0118    0.1614   -0.0315   -0.0468   -0.0388   -0.0300   -0.0335    0.0479
          26   -0.0138   -0.0672    0.0909    0.0456   -0.0545    0.0099   -0.0110    0.1222
          27   -0.0035    0.0094    0.0294    0.0046   -0.0297   -0.0087   -0.0241    0.1008
          28    0.0118    0.1614    0.0316    0.0466   -0.0390    0.0296   -0.0338    0.0510
          29   -0.0039    0.0073   -0.0321   -0.0061   -0.0315    0.0081   -0.0246    0.1083
          30   -0.0137   -0.0674   -0.0899   -0.0456   -0.0536   -0.0103   -0.0102    0.1225
          31    0.0577    0.0977    0.0219    0.1230   -0.0331    0.0437   -0.0370    0.0813
          32    0.0047   -0.0073    0.0269   -0.0019    0.0232   -0.0132    0.0294   -0.1106
          33   -0.0629   -0.0611   -0.0624   -0.0672   -0.0145   -0.0046   -0.0236    0.1222
          34   -0.0483    0.0414   -0.0279   -0.0449    0.0473    0.1764    0.1583    0.0428
          35   -0.0239    0.0016    0.0864   -0.0607   -0.1082    0.0022    0.0111   -0.0207
          36    0.0307   -0.0066   -0.0323    0.0252    0.0373    0.0023    0.0020    0.0105
          37   -0.0122    0.0284   -0.0176   -0.0232    0.0165    0.0421    0.0379    0.0109
          38   -0.0531   -0.0466    0.1069   -0.0098   -0.1113   -0.0627   -0.0504   -0.0333
          39    0.0456   -0.0394    0.0017    0.0620   -0.0065   -0.1593   -0.1495   -0.0369
          40   -0.0121    0.0283    0.0175    0.0232    0.0163   -0.0414    0.0383    0.0111
          41    0.0439   -0.0408   -0.0047   -0.0616   -0.0093    0.1591   -0.1529   -0.0384
          42   -0.0545   -0.0454   -0.1066    0.0112   -0.1114    0.0574   -0.0465   -0.0335
          43   -0.0483    0.0415    0.0277    0.0451    0.0470   -0.1745    0.1605    0.0435
          44    0.0300   -0.0066    0.0296   -0.0233    0.0343   -0.0022    0.0023    0.0102
          45   -0.0247    0.0017   -0.0872    0.0610   -0.1100   -0.0019    0.0111   -0.0218
          46   -0.1114    0.0180    0.0179   -0.0160   -0.0053    0.0024   -0.0117   -0.0058
          47   -0.0230   -0.0016    0.0245   -0.0169   -0.0197    0.0091    0.0033   -0.0013
          48    0.1541   -0.0219   -0.0133    0.0110   -0.0123    0.0006    0.0171    0.0049
          49   -0.1111    0.0180   -0.0179    0.0160   -0.0056   -0.0025   -0.0117   -0.0059
          50    0.1536   -0.0219    0.0127   -0.0106   -0.0128   -0.0007    0.0172    0.0049
          51   -0.0276   -0.0009   -0.0249    0.0171   -0.0195   -0.0090    0.0029   -0.0015


   Root No.      33        34        35        36        37        38        39        40

                33 A      34 A      35 A      36 A      37 A      38 A      39 A      40 A   

                1403.8    1527.4    2190.1    2952.1    2952.7    2963.3    2963.3    3033.9
  
           1    0.0243    0.0090    0.0006    0.0000   -0.0004    0.0003    0.0003    0.0050
           2    0.0240   -0.0001    0.0003    0.0002   -0.0010    0.0005    0.0002    0.0078
           3   -0.0000   -0.0042   -0.0008    0.0161   -0.0160    0.0126   -0.0166    0.0004
           4   -0.0240   -0.0090    0.0006    0.0000    0.0004   -0.0002    0.0004    0.0050
           5   -0.0008    0.0042   -0.0008    0.0162    0.0158   -0.0167   -0.0125    0.0007
           6   -0.0230   -0.0000    0.0004   -0.0003    0.0005    0.0000    0.0007    0.0078
           7   -0.0003   -0.0246   -0.0028   -0.0077    0.0081    0.0077   -0.0104   -0.0103
           8   -0.0120   -0.0138    0.0013   -0.0043    0.0044    0.0039   -0.0052    0.0029
           9    0.0015    0.0315    0.0020   -0.0113    0.0117    0.0104   -0.0140    0.0060
          10    0.0005    0.0247   -0.0029   -0.0079   -0.0080   -0.0102   -0.0079   -0.0104
          11   -0.0012   -0.0312    0.0021   -0.0116   -0.0118   -0.0139   -0.0107    0.0061
          12    0.0117    0.0148    0.0012   -0.0040   -0.0040   -0.0048   -0.0036    0.0028
          13    0.0000    0.0943    0.0919   -0.0000    0.0001    0.0000   -0.0001   -0.0002
          14    0.0032   -0.0288   -0.0575    0.0004   -0.0005   -0.0004    0.0005   -0.0008
          15    0.0004   -0.1235   -0.1203    0.0001   -0.0001   -0.0002    0.0002    0.0000
          16   -0.0001   -0.0942    0.0919   -0.0000   -0.0001   -0.0001   -0.0001   -0.0002
          17   -0.0004    0.1244   -0.1221    0.0002    0.0001    0.0003    0.0002   -0.0000
          18   -0.0032    0.0250   -0.0538    0.0004    0.0005    0.0005    0.0004   -0.0008
          19   -0.0000   -0.0001   -0.1758   -0.0001    0.0000   -0.0000   -0.0001    0.0003
          20    0.0004   -0.0403    0.1922   -0.0001   -0.0000    0.0000   -0.0001   -0.0002
          21   -0.0004    0.0415    0.1865   -0.0001    0.0000   -0.0000   -0.0001   -0.0002
          22   -0.0816   -0.0091   -0.0014   -0.0420    0.0446   -0.0324    0.0401   -0.0323
          23   -0.1147    0.0012   -0.0010   -0.0636    0.0694   -0.0548    0.0647   -0.0501
          24    0.1174    0.0023    0.0004   -0.0948    0.1040   -0.0788    0.0919   -0.0860
          25   -0.0953   -0.0221   -0.0005    0.0398   -0.0373    0.0309   -0.0426   -0.0276
          26   -0.1118    0.0282    0.0026    0.0612   -0.0552    0.0463   -0.0668   -0.0409
          27   -0.1137    0.0010   -0.0004   -0.0976    0.0873   -0.0720    0.1051    0.0800
          28    0.0935    0.0221   -0.0005    0.0401    0.0367   -0.0416   -0.0326   -0.0279
          29    0.1132   -0.0019   -0.0003   -0.0964   -0.0842    0.0965    0.0799    0.0794
          30    0.1040   -0.0282    0.0026    0.0647    0.0569   -0.0661   -0.0541   -0.0437
          31    0.0787    0.0091   -0.0014   -0.0424   -0.0440    0.0424    0.0298   -0.0326
          32   -0.1099   -0.0023    0.0004   -0.0976   -0.1045    0.1034    0.0683   -0.0884
          33    0.1139   -0.0011   -0.0010   -0.0612   -0.0652    0.0675    0.0452   -0.0479
          34   -0.0235    0.0050   -0.0112    0.0004   -0.0003    0.0009   -0.0014   -0.0094
          35    0.0252   -0.0260   -0.0169    0.0444   -0.0465   -0.0414    0.0566   -0.0473
          36   -0.0112    0.0329    0.0035    0.1120   -0.1169   -0.0990    0.1354   -0.1165
          37   -0.0107   -0.0036    0.0021    0.0948   -0.0957   -0.0954    0.1260    0.1332
          38    0.0413   -0.0158   -0.0078    0.0059   -0.0061   -0.0054    0.0074    0.0134
          39    0.0183   -0.0250    0.0081    0.0242   -0.0243   -0.0243    0.0320    0.0453
          40    0.0103    0.0036    0.0021    0.0964    0.0950    0.1260    0.0946    0.1347
          41   -0.0183    0.0255    0.0079    0.0247    0.0243    0.0322    0.0241    0.0461
          42   -0.0397    0.0149   -0.0080    0.0053    0.0054    0.0062    0.0049    0.0121
          43    0.0221   -0.0051   -0.0112    0.0005    0.0004   -0.0011   -0.0010   -0.0096
          44    0.0101   -0.0321    0.0030    0.1151    0.1173    0.1335    0.1037   -0.1194
          45   -0.0248    0.0269   -0.0170    0.0416    0.0426    0.0511    0.0397   -0.0443
          46    0.0039   -0.0946   -0.0097   -0.0000   -0.0001   -0.0000   -0.0002   -0.0002
          47    0.0041   -0.0836   -0.1310   -0.0037    0.0038    0.0049   -0.0065    0.0085
          48   -0.0039    0.0682   -0.0380   -0.0017    0.0017    0.0018   -0.0025    0.0023
          49   -0.0037    0.0946   -0.0097   -0.0000    0.0001   -0.0001   -0.0002   -0.0002
          50    0.0037   -0.0659   -0.0419   -0.0019   -0.0018   -0.0026   -0.0021    0.0025
          51   -0.0042    0.0855   -0.1297   -0.0037   -0.0037   -0.0064   -0.0048    0.0085


   Root No.      41        42        43        44        45

                41 A      42 A      43 A      44 A      45 A   

                3034.7    3040.0    3040.7    3085.6    3085.7
  
           1    0.0040   -0.0068    0.0072    0.0003   -0.0000
           2    0.0069   -0.0099    0.0111    0.0007    0.0001
           3   -0.0002   -0.0000   -0.0019   -0.0006   -0.0001
           4   -0.0039   -0.0070   -0.0070   -0.0001    0.0003
           5   -0.0000   -0.0003    0.0015    0.0002   -0.0006
           6   -0.0069   -0.0101   -0.0110   -0.0002    0.0007
           7   -0.0114   -0.0079    0.0071    0.0011    0.0004
           8    0.0031    0.0015   -0.0013   -0.0013   -0.0002
           9    0.0065    0.0038   -0.0034   -0.0027   -0.0006
          10    0.0112   -0.0080   -0.0069   -0.0001    0.0012
          11   -0.0066    0.0039    0.0034    0.0005   -0.0028
          12   -0.0029    0.0015    0.0012    0.0003   -0.0012
          13   -0.0001   -0.0001    0.0001    0.0010    0.0004
          14   -0.0009   -0.0007    0.0006   -0.0589   -0.0124
          15   -0.0001   -0.0001    0.0001   -0.0182   -0.0044
          16    0.0001   -0.0001   -0.0001   -0.0000    0.0010
          17    0.0001   -0.0001   -0.0001    0.0037   -0.0201
          18    0.0009   -0.0007   -0.0006    0.0122   -0.0581
          19    0.0000    0.0002   -0.0000   -0.0031   -0.0047
          20    0.0001   -0.0001   -0.0001    0.0019    0.0058
          21   -0.0002   -0.0001    0.0001    0.0045    0.0039
          22   -0.0261    0.0411   -0.0398   -0.0004   -0.0002
          23   -0.0417    0.0649   -0.0645   -0.0002   -0.0002
          24   -0.0726    0.1117   -0.1137   -0.0013   -0.0004
          25   -0.0275    0.0377   -0.0484   -0.0023   -0.0002
          26   -0.0390    0.0594   -0.0736   -0.0032   -0.0004
          27    0.0750   -0.1117    0.1355    0.0058    0.0007
          28    0.0272    0.0386    0.0476    0.0008   -0.0022
          29   -0.0729   -0.1122   -0.1309   -0.0017    0.0055
          30    0.0408    0.0642    0.0764    0.0010   -0.0033
          31    0.0257    0.0419    0.0390    0.0000   -0.0004
          32    0.0729    0.1158    0.1134    0.0002   -0.0014
          33    0.0390    0.0626    0.0598   -0.0001   -0.0003
          34   -0.0106   -0.0073    0.0063   -0.0002   -0.0001
          35   -0.0518   -0.0327    0.0293    0.0109    0.0025
          36   -0.1280   -0.0804    0.0715    0.0375    0.0087
          37    0.1477    0.1042   -0.0939   -0.0116   -0.0035
          38    0.0145    0.0086   -0.0076   -0.0019   -0.0005
          39    0.0502    0.0350   -0.0315   -0.0057   -0.0016
          40   -0.1461    0.1060    0.0918    0.0013   -0.0119
          41   -0.0499    0.0357    0.0310    0.0008   -0.0059
          42   -0.0128    0.0076    0.0065    0.0003   -0.0017
          43    0.0106   -0.0075   -0.0062   -0.0000   -0.0002
          44    0.1281   -0.0828   -0.0707   -0.0070    0.0379
          45    0.0474   -0.0308   -0.0265   -0.0018    0.0098
          46   -0.0001    0.0000   -0.0001    0.0303    0.0061
          47    0.0084    0.0083   -0.0075    0.6764    0.1406
          48    0.0023    0.0021   -0.0018    0.1620    0.0334
          49    0.0001    0.0000    0.0001   -0.0067    0.0307
          50   -0.0026    0.0024    0.0020   -0.0388    0.1812
          51   -0.0082    0.0084    0.0074   -0.1415    0.6673


           MASS-WEIGHTED COORDINATE ANALYSIS (NORMAL COORDINATES)


   Root No.       1         2         3         4         5         6         7         8

                 1 A       2 A       3 A       4 A       5 A       6 A       7 A       8 A   

                 141.1     269.4     289.4     309.3     413.4     471.2     636.0     716.3
  
           1   -0.0961    0.0042   -0.0071   -0.1872   -0.0442   -0.2593    0.0498    0.0302
           2    0.0087   -0.0066   -0.0706   -0.0285    0.2982   -0.2291    0.2045   -0.1579
           3   -0.2406    0.1478   -0.3997    0.1479   -0.0652    0.1738    0.0648   -0.0321
           4   -0.0961   -0.0049    0.0024   -0.1874    0.0443   -0.2593    0.0498   -0.0302
           5   -0.2397   -0.1481    0.4053    0.1365    0.0561    0.1671    0.0712    0.0370
           6    0.0162    0.0112    0.0578   -0.0343   -0.2997   -0.2345    0.2027    0.1564
           7    0.2212   -0.0845    0.0242   -0.0256   -0.3408    0.0843   -0.1975    0.2094
           8    0.1433   -0.0243   -0.0684    0.0252    0.1960   -0.0866   -0.0323    0.0052
           9    0.2342   -0.2615    0.0254    0.1948    0.1068    0.0582    0.1653   -0.1916
          10    0.2209    0.0852   -0.0249   -0.0255    0.3408    0.0847   -0.1978   -0.2089
          11    0.2374    0.2633   -0.0183    0.1956   -0.1124    0.0554    0.1646    0.1913
          12    0.1361    0.0169    0.0698    0.0176   -0.1925   -0.0886   -0.0373   -0.0109
          13   -0.0834    0.3219    0.2406    0.2631   -0.0967    0.0014   -0.0248    0.0027
          14    0.0394    0.0567   -0.0228   -0.2890   -0.0220   -0.0766   -0.3564    0.2951
          15   -0.1338    0.1654    0.2197    0.1316    0.1228   -0.0629   -0.0411   -0.0284
          16   -0.0823   -0.3217   -0.2336    0.2701    0.0971    0.0013   -0.0249   -0.0027
          17   -0.1318   -0.1671   -0.2155    0.1286   -0.1219   -0.0651   -0.0514    0.0194
          18    0.0435   -0.0523    0.0217   -0.2936    0.0255   -0.0745   -0.3553   -0.2952
          19   -0.1432   -0.0005   -0.0032   -0.2289   -0.0005    0.4408    0.4580   -0.0005
          20   -0.0990    0.0403   -0.0644   -0.2528   -0.3803    0.1401    0.0635   -0.4612
          21   -0.0960   -0.0425    0.0595   -0.2474    0.3914    0.1366    0.0626    0.4753
          22   -0.0247   -0.0221    0.1055   -0.0844   -0.0581   -0.1765    0.1261    0.0467
          23    0.1268   -0.0948    0.0975   -0.0074    0.1034   -0.1645    0.1997   -0.1154
          24   -0.1535    0.1150   -0.2410    0.0570   -0.0105    0.1646   -0.1282    0.0214
          25   -0.0987    0.0275   -0.0732   -0.0169    0.0512    0.0370   -0.0689   -0.0435
          26   -0.0797    0.0928   -0.1719   -0.0057    0.0653    0.0377   -0.1071    0.0216
          27   -0.1490    0.1129   -0.2412    0.0592   -0.0069    0.1625   -0.1209    0.0124
          28   -0.0986   -0.0279    0.0727   -0.0187   -0.0513    0.0371   -0.0688    0.0436
          29   -0.1510   -0.1161    0.2478    0.0527    0.0047    0.1638   -0.1241   -0.0129
          30   -0.0748   -0.0896    0.1644   -0.0116   -0.0655    0.0328   -0.1034   -0.0212
          31   -0.0248    0.0219   -0.1076   -0.0817    0.0583   -0.1767    0.1260   -0.0470
          32   -0.1492   -0.1125    0.2392    0.0506    0.0072    0.1597   -0.1220   -0.0176
          33    0.1312    0.0988   -0.1049   -0.0065   -0.1034   -0.1696    0.2037    0.1157
          34    0.2824   -0.2612    0.0091    0.0174   -0.1759    0.1725   -0.0805    0.0948
          35    0.0263   -0.0164   -0.1035    0.0147    0.0550    0.0005    0.0512   -0.0332
          36    0.0738   -0.0730    0.0401    0.0536    0.0300    0.0096    0.0243   -0.0440
          37    0.0068    0.0384    0.0103   -0.0116   -0.0803   -0.0113   -0.0587    0.0642
          38    0.1191   -0.0391    0.0379    0.0723    0.0256    0.0602   -0.0563    0.0158
          39    0.2577   -0.3025   -0.0156    0.0585   -0.0310    0.1337    0.0574   -0.0616
          40    0.0071   -0.0383   -0.0106   -0.0113    0.0804   -0.0111   -0.0587   -0.0640
          41    0.2602    0.3047    0.0160    0.0596    0.0300    0.1357    0.0557    0.0608
          42    0.1110    0.0305   -0.0364    0.0715   -0.0263    0.0560   -0.0581   -0.0176
          43    0.2814    0.2622   -0.0086    0.0169    0.1756    0.1728   -0.0808   -0.0948
          44    0.0740    0.0735   -0.0356    0.0549   -0.0316    0.0094    0.0259    0.0450
          45    0.0241    0.0144    0.1050    0.0102   -0.0541    0.0002    0.0505    0.0318
          46   -0.0637    0.1851    0.1426    0.3024    0.0155   -0.1835   -0.1119   -0.0744
          47    0.0324   -0.0096   -0.0244   -0.1094    0.0073    0.0013   -0.0870    0.1230
          48   -0.1169    0.1316    0.1179    0.1094   -0.0314   -0.0763   -0.0534   -0.1624
          49   -0.0633   -0.1848   -0.1342    0.3071   -0.0152   -0.1843   -0.1124    0.0748
          50   -0.1152   -0.1313   -0.1139    0.1088    0.0311   -0.0758   -0.0555    0.1586
          51    0.0358    0.0135    0.0249   -0.1136   -0.0082    0.0038   -0.0854   -0.1278


   Root No.       9        10        11        12        13        14        15        16

                 9 A      10 A      11 A      12 A      13 A      14 A      15 A      16 A   

                 771.5     775.1     855.9     909.0     915.6     953.6    1000.8    1010.0
  
           1    0.0937   -0.0170   -0.1687   -0.2341   -0.0725    0.1482   -0.0593    0.0684
           2    0.0674    0.0682   -0.2191   -0.1367   -0.2062   -0.0957    0.1903    0.1960
           3   -0.0595   -0.2244    0.1931    0.0252    0.1839   -0.2994   -0.1713    0.1502
           4    0.0930    0.0183    0.1690    0.2340   -0.0750    0.1472   -0.0606   -0.0673
           5   -0.0607    0.2213   -0.1867   -0.0204    0.1777   -0.3016   -0.1680   -0.1548
           6    0.0692   -0.0739    0.2247    0.1350   -0.2137   -0.0868    0.1925   -0.1941
           7   -0.1585   -0.0979   -0.2093   -0.1949    0.1038   -0.1979    0.2923    0.0639
           8   -0.0146   -0.0984    0.1289    0.0964    0.0162    0.2180   -0.0404   -0.0860
           9   -0.1455   -0.1755   -0.0861   -0.0627    0.1429    0.2018    0.1073   -0.2719
          10   -0.1609    0.0957    0.2091    0.1949    0.1018   -0.1985    0.2916   -0.0683
          11   -0.1488    0.1761    0.0823    0.0618    0.1428    0.2077    0.1097    0.2730
          12   -0.0114    0.0929   -0.1312   -0.0975    0.0131    0.2122   -0.0423    0.0787
          13   -0.1700    0.0058   -0.0806    0.2026   -0.1529   -0.0094   -0.1935    0.1113
          14    0.0120   -0.0868    0.0849   -0.0646    0.1675   -0.0309   -0.1482   -0.1926
          15   -0.1051    0.0374   -0.1537    0.1607   -0.2412   -0.0456   -0.0511    0.1020
          16   -0.1696   -0.0086    0.0800   -0.2045   -0.1514   -0.0088   -0.1954   -0.1080
          17   -0.1042   -0.0366    0.1502   -0.1610   -0.2348   -0.0458   -0.0571   -0.0944
          18    0.0138    0.0881   -0.0894    0.0709    0.1743   -0.0300   -0.1446    0.1972
          19    0.1524    0.0011    0.0001    0.0012    0.1401    0.1269    0.0734   -0.0007
          20    0.0959   -0.0471   -0.0482    0.0970    0.0465    0.0112    0.0405   -0.0867
          21    0.0928    0.0500    0.0497   -0.0991    0.0459    0.0109    0.0403    0.0888
          22    0.0512   -0.0752    0.0633   -0.0331   -0.0450   -0.2139   -0.1651    0.0414
          23   -0.0618   -0.2323    0.0313   -0.0658    0.1229   -0.0831   -0.0087    0.2290
          24    0.0294    0.1394   -0.0529    0.0158   -0.0646    0.0668    0.0579   -0.0865
          25    0.0312    0.1590   -0.2176   -0.1189    0.0254    0.3220   -0.1256   -0.1370
          26    0.0933    0.2244   -0.1341   -0.0076   -0.2816    0.0553    0.3050    0.0084
          27    0.0309    0.1353   -0.0614    0.0040   -0.0670    0.0746    0.0651   -0.0571
          28    0.0332   -0.1585    0.2179    0.1201    0.0242    0.3210   -0.1241    0.1394
          29    0.0357   -0.1415    0.0656   -0.0042   -0.0754    0.0761    0.0753    0.0561
          30    0.0953   -0.2186    0.1322    0.0054   -0.2797    0.0529    0.3031   -0.0139
          31    0.0503    0.0758   -0.0635    0.0322   -0.0453   -0.2141   -0.1657   -0.0401
          32    0.0294   -0.1317    0.0520   -0.0141   -0.0605    0.0641    0.0587    0.0788
          33   -0.0667    0.2354   -0.0330    0.0669    0.1237   -0.0849   -0.0140   -0.2313
          34    0.2641    0.2980    0.0962    0.0775   -0.1641   -0.1720   -0.1294    0.1942
          35    0.0316   -0.0773    0.1118   -0.0074    0.0779    0.0212   -0.0162    0.2644
          36   -0.0517   -0.0250   -0.0557   -0.0016    0.0059    0.0745    0.0348   -0.1962
          37   -0.1261   -0.1070   -0.0989   -0.0838    0.0760   -0.0422    0.1341   -0.0207
          38   -0.0119    0.0913    0.1024    0.3054   -0.1464    0.0474   -0.1418   -0.1595
          39    0.2764    0.2293    0.1107    0.0170   -0.0953    0.0014   -0.1387    0.1023
          40   -0.1281    0.1050    0.0987    0.0841    0.0750   -0.0425    0.1344    0.0187
          41    0.2802   -0.2280   -0.1136   -0.0269   -0.0995    0.0031   -0.1446   -0.0951
          42   -0.0182   -0.0847   -0.0992   -0.3060   -0.1400    0.0483   -0.1351    0.1634
          43    0.2688   -0.2937   -0.0960   -0.0792   -0.1631   -0.1712   -0.1318   -0.1922
          44   -0.0513    0.0267    0.0524    0.0022    0.0085    0.0748    0.0369    0.1872
          45    0.0319    0.0770   -0.1131    0.0082    0.0774    0.0197   -0.0206   -0.2682
          46    0.3279    0.1442    0.3624   -0.3479    0.2927    0.0940    0.0287   -0.1166
          47   -0.0837   -0.0659   -0.0299    0.0603   -0.0028    0.0206   -0.0972   -0.0474
          48    0.2683    0.1513    0.1143   -0.2007    0.0813   -0.1514    0.1890    0.0172
          49    0.3317   -0.1389   -0.3609    0.3518    0.2907    0.0924    0.0316    0.1153
          50    0.2666   -0.1446   -0.1117    0.1982    0.0783   -0.1510    0.1851   -0.0196
          51   -0.0929    0.0690    0.0332   -0.0666   -0.0047    0.0251   -0.1025    0.0495


   Root No.      17        18        19        20        21        22        23        24

                17 A      18 A      19 A      20 A      21 A      22 A      23 A      24 A   

                1040.2    1062.0    1070.9    1086.2    1110.9    1134.5    1141.7    1145.5
  
           1    0.1267   -0.1087    0.0312    0.0586   -0.0122    0.0302   -0.0163    0.3464
           2   -0.0144    0.0931   -0.0153   -0.0133   -0.0084   -0.2119    0.1951    0.0777
           3    0.0775    0.0942    0.0507    0.0239    0.0860   -0.0575    0.1370    0.1501
           4   -0.1267    0.1090    0.0298    0.0585    0.0123    0.0328    0.0169   -0.3461
           5   -0.0768   -0.0967    0.0496    0.0242   -0.0856   -0.0596   -0.1438   -0.1528
           6    0.0165   -0.0905   -0.0175   -0.0132    0.0107   -0.2059   -0.1946   -0.0748
           7   -0.2501    0.0578    0.0044    0.0625   -0.0190    0.0332   -0.0305   -0.0516
           8   -0.0407   -0.0520    0.0425    0.0774   -0.1176    0.1687   -0.1617    0.0875
           9    0.0299   -0.0510    0.0541   -0.1430   -0.1168    0.0653   -0.0602   -0.0504
          10    0.2494   -0.0578    0.0046    0.0629    0.0189    0.0322    0.0314    0.0518
          11   -0.0291    0.0525    0.0564   -0.1413    0.1202    0.0682    0.0655    0.0480
          12    0.0416    0.0512    0.0412    0.0811    0.1142    0.1644    0.1630   -0.0878
          13    0.1508   -0.1240   -0.1414   -0.0636    0.0320   -0.0909    0.0268   -0.0384
          14    0.3601    0.1834   -0.0427   -0.1134    0.0124   -0.1193    0.0002   -0.0795
          15    0.0726    0.0124   -0.1063    0.0328   -0.0525    0.0889   -0.0198    0.0017
          16   -0.1505    0.1238   -0.1427   -0.0641   -0.0320   -0.0905   -0.0287    0.0377
          17   -0.0830   -0.0181   -0.1076    0.0291    0.0522    0.0850    0.0217    0.0017
          18   -0.3576   -0.1835   -0.0378   -0.1142   -0.0140   -0.1228   -0.0033    0.0785
          19    0.0001    0.0002    0.0791   -0.0641   -0.0001   -0.0189   -0.0004   -0.0002
          20    0.0789   -0.0338    0.0198   -0.0023   -0.0340    0.0623    0.0272   -0.0100
          21   -0.0811    0.0349    0.0193   -0.0026    0.0350    0.0607   -0.0269    0.0110
          22    0.1088   -0.1021    0.1967   -0.2235   -0.2996    0.2728    0.0162    0.4280
          23   -0.0121    0.1334   -0.1093    0.2128    0.2355   -0.2539    0.1366   -0.0519
          24   -0.0036   -0.0140    0.0076   -0.0324   -0.0109   -0.0032   -0.0230   -0.0416
          25    0.1256   -0.1174   -0.0380    0.2302    0.3998   -0.1673   -0.2282    0.1381
          26   -0.1047    0.0161   -0.0151   -0.1436   -0.3205    0.0469    0.1195   -0.0809
          27    0.0002   -0.0150   -0.0102   -0.0004   -0.0056   -0.0245   -0.0118   -0.0075
          28   -0.1256    0.1182   -0.0381    0.2295   -0.3997   -0.1701    0.2256   -0.1395
          29    0.0028    0.0144   -0.0105   -0.0049    0.0153   -0.0234    0.0077    0.0097
          30    0.1043   -0.0174   -0.0147   -0.1434    0.3200    0.0487   -0.1193    0.0809
          31   -0.1084    0.1025    0.1957   -0.2240    0.2997    0.2763   -0.0121   -0.4259
          32    0.0039    0.0099    0.0045   -0.0260    0.0035   -0.0118    0.0185    0.0430
          33    0.0120   -0.1339   -0.1100    0.2147   -0.2358   -0.2512   -0.1412    0.0488
          34    0.0166    0.0232   -0.0142    0.0736    0.0836   -0.0294    0.0524    0.0802
          35   -0.0468   -0.2019   -0.3321    0.2055   -0.0623    0.4286   -0.4324   -0.0903
          36    0.0263    0.0647    0.1558   -0.1178   -0.0282   -0.1373    0.1404    0.0321
          37   -0.1255    0.0140    0.0300    0.0239   -0.0140    0.0379   -0.0290   -0.0085
          38   -0.2878    0.1360    0.4676    0.2572    0.1542    0.0737   -0.0168    0.3027
          39    0.2776   -0.0504   -0.1952   -0.1176   -0.0451   -0.0816    0.0420   -0.0820
          40    0.1251   -0.0139    0.0302    0.0239    0.0140    0.0371    0.0296    0.0088
          41   -0.2684    0.0450   -0.1817   -0.1100    0.0404   -0.0791   -0.0428    0.0722
          42    0.2960   -0.1340    0.4744    0.2610   -0.1555    0.0783    0.0190   -0.3047
          43   -0.0160   -0.0233   -0.0148    0.0739   -0.0835   -0.0275   -0.0525   -0.0803
          44   -0.0249   -0.0580    0.1463   -0.1113    0.0299   -0.1218   -0.1301   -0.0307
          45    0.0475    0.2024   -0.3375    0.2074    0.0623    0.4237    0.4455    0.0953
          46   -0.1325   -0.2493    0.0598   -0.1913    0.0658    0.0077    0.1695   -0.0269
          47    0.1110   -0.0512   -0.0405   -0.0927    0.0185   -0.0260    0.0532   -0.0336
          48    0.0420    0.4884    0.0598    0.2967   -0.0954   -0.0043   -0.2730    0.0459
          49    0.1323    0.2473    0.0587   -0.1909   -0.0657    0.0105   -0.1690    0.0272
          50   -0.0465   -0.4865    0.0614    0.2948    0.0952   -0.0100    0.2721   -0.0453
          51   -0.1095    0.0657   -0.0426   -0.1018   -0.0215   -0.0250   -0.0621    0.0349


   Root No.      25        26        27        28        29        30        31        32

                25 A      26 A      27 A      28 A      29 A      30 A      31 A      32 A   

                1190.5    1279.3    1325.2    1334.6    1340.4    1384.9    1388.6    1402.5
  
           1   -0.0448   -0.2926    0.2077    0.3907    0.0621    0.1283    0.0717   -0.0771
           2   -0.0361    0.2436   -0.0733   -0.2663   -0.1073   -0.0485    0.0368   -0.2317
           3   -0.0444   -0.0832   -0.0461   -0.0393    0.0757   -0.0207   -0.0244    0.0307
           4   -0.0452   -0.2926   -0.2079   -0.3904    0.0634   -0.1275    0.0732   -0.0840
           5   -0.0457   -0.0756    0.0481    0.0477    0.0724    0.0218   -0.0235    0.0234
           6   -0.0349    0.2462    0.0723    0.2645   -0.1104    0.0485    0.0372   -0.2393
           7   -0.0619    0.1049   -0.0823   -0.0108    0.0508   -0.2174   -0.2313   -0.0575
           8    0.1442    0.0046   -0.3529    0.2841    0.4458    0.0500   -0.0414    0.0853
           9    0.1060   -0.0240    0.1450   -0.1337   -0.2001    0.1427    0.2022    0.0212
          10   -0.0615    0.1049    0.0822    0.0112    0.0510    0.2145   -0.2340   -0.0574
          11    0.1105   -0.0239   -0.1339    0.1240   -0.1876   -0.1414    0.2027    0.0234
          12    0.1407    0.0052    0.3559   -0.2858    0.4537   -0.0468   -0.0469    0.0881
          13    0.1693   -0.0573   -0.0086   -0.0101   -0.0996   -0.0368    0.0640    0.0047
          14    0.1169   -0.0611    0.1880   -0.1141   -0.1968    0.0524    0.0704   -0.0034
          15   -0.1799    0.0547    0.0097    0.0275    0.1249    0.0621   -0.0661   -0.0061
          16    0.1687   -0.0572    0.0088    0.0095   -0.0994    0.0376    0.0634    0.0048
          17   -0.1766    0.0528   -0.0158   -0.0234    0.1188   -0.0646   -0.0631   -0.0063
          18    0.1225   -0.0627   -0.1870    0.1138   -0.2013   -0.0494    0.0730   -0.0041
          19    0.0295   -0.0169    0.0001   -0.0000   -0.0109    0.0002    0.0206    0.0052
          20   -0.1523    0.0381    0.0312   -0.0034    0.0459    0.0479   -0.0340   -0.0055
          21   -0.1479    0.0370   -0.0323    0.0038    0.0444   -0.0498   -0.0324   -0.0055
          22    0.1509    0.2464   -0.0577   -0.2647   -0.0710   -0.1100   -0.0943    0.1996
          23   -0.1633   -0.1545    0.1630    0.1444   -0.0301    0.0118   -0.0582    0.2918
          24    0.0172   -0.0138   -0.0763   -0.0002    0.0511    0.0334    0.0770   -0.2804
          25    0.0307    0.4071   -0.0832   -0.1005   -0.0844   -0.0748   -0.0863    0.1215
          26   -0.0359   -0.1694    0.2406    0.0979   -0.1184    0.0248   -0.0283    0.3099
          27   -0.0090    0.0236    0.0778    0.0099   -0.0647   -0.0217   -0.0622    0.2557
          28    0.0307    0.4071    0.0835    0.1001   -0.0848    0.0737   -0.0873    0.1294
          29   -0.0101    0.0184   -0.0849   -0.0131   -0.0685    0.0201   -0.0636    0.2746
          30   -0.0356   -0.1700   -0.2378   -0.0980   -0.1166   -0.0257   -0.0264    0.3106
          31    0.1503    0.2465    0.0578    0.2643   -0.0720    0.1088   -0.0955    0.2063
          32    0.0123   -0.0185    0.0711   -0.0040    0.0504   -0.0328    0.0759   -0.2806
          33   -0.1637   -0.1540   -0.1651   -0.1445   -0.0315   -0.0116   -0.0608    0.3099
          34   -0.1257    0.1045   -0.0738   -0.0966    0.1029    0.4391    0.4083    0.1084
          35   -0.0622    0.0039    0.2286   -0.1303   -0.2352    0.0054    0.0288   -0.0526
          36    0.0799   -0.0166   -0.0854    0.0542    0.0812    0.0058    0.0053    0.0267
          37   -0.0317    0.0716   -0.0465   -0.0498    0.0358    0.1047    0.0978    0.0275
          38   -0.1384   -0.1175    0.2828   -0.0211   -0.2420   -0.1560   -0.1299   -0.0845
          39    0.1187   -0.0994    0.0044    0.1332   -0.0141   -0.3965   -0.3858   -0.0936
          40   -0.0316    0.0715    0.0463    0.0498    0.0354   -0.1031    0.0988    0.0282
          41    0.1143   -0.1029   -0.0125   -0.1323   -0.0203    0.3960   -0.3944   -0.0975
          42   -0.1418   -0.1145   -0.2820    0.0241   -0.2422    0.1427   -0.1200   -0.0849
          43   -0.1259    0.1046    0.0734    0.0969    0.1022   -0.4343    0.4141    0.1102
          44    0.0781   -0.0166    0.0783   -0.0501    0.0745   -0.0055    0.0058    0.0258
          45   -0.0643    0.0043   -0.2307    0.1310   -0.2391   -0.0047    0.0287   -0.0554
          46   -0.2902    0.0455    0.0473   -0.0343   -0.0116    0.0059   -0.0303   -0.0147
          47   -0.0599   -0.0039    0.0648   -0.0362   -0.0429    0.0226    0.0085   -0.0032
          48    0.4014   -0.0551   -0.0353    0.0236   -0.0267    0.0016    0.0442    0.0123
          49   -0.2894    0.0454   -0.0473    0.0343   -0.0121   -0.0063   -0.0301   -0.0150
          50    0.4001   -0.0553    0.0336   -0.0227   -0.0277   -0.0017    0.0445    0.0125
          51   -0.0719   -0.0023   -0.0658    0.0366   -0.0424   -0.0224    0.0074   -0.0039


   Root No.      33        34        35        36        37        38        39        40

                33 A      34 A      35 A      36 A      37 A      38 A      39 A      40 A   

                1403.8    1527.4    2190.1    2952.1    2952.7    2963.3    2963.3    3033.9
  
           1    0.2038    0.0363    0.0015    0.0002   -0.0044    0.0031    0.0030    0.0499
           2    0.2014   -0.0003    0.0009    0.0021   -0.0103    0.0054    0.0017    0.0779
           3   -0.0002   -0.0171   -0.0020    0.1600   -0.1592    0.1247   -0.1642    0.0043
           4   -0.2010   -0.0363    0.0015    0.0002    0.0044   -0.0021    0.0038    0.0504
           5   -0.0067    0.0172   -0.0020    0.1613    0.1570   -0.1658   -0.1238    0.0068
           6   -0.1933   -0.0002    0.0009   -0.0028    0.0054    0.0004    0.0070    0.0784
           7   -0.0023   -0.0996   -0.0071   -0.0772    0.0804    0.0761   -0.1030   -0.1031
           8   -0.1008   -0.0559    0.0032   -0.0429    0.0435    0.0389   -0.0516    0.0291
           9    0.0122    0.1275    0.0050   -0.1126    0.1166    0.1029   -0.1390    0.0599
          10    0.0040    0.0997   -0.0072   -0.0786   -0.0799   -0.1014   -0.0779   -0.1042
          11   -0.0099   -0.1260    0.0052   -0.1157   -0.1168   -0.1381   -0.1060    0.0617
          12    0.0984    0.0598    0.0030   -0.0401   -0.0396   -0.0473   -0.0356    0.0277
          13    0.0003    0.3811    0.2310   -0.0004    0.0008    0.0004   -0.0008   -0.0017
          14    0.0267   -0.1164   -0.1445    0.0041   -0.0046   -0.0037    0.0051   -0.0083
          15    0.0031   -0.4991   -0.3023    0.0013   -0.0012   -0.0019    0.0020    0.0002
          16   -0.0005   -0.3808    0.2309   -0.0004   -0.0008   -0.0006   -0.0007   -0.0018
          17   -0.0037    0.5028   -0.3067    0.0015    0.0013    0.0026    0.0015   -0.0000
          18   -0.0265    0.1012   -0.1353    0.0041    0.0045    0.0048    0.0038   -0.0083
          19   -0.0001   -0.0004   -0.4418   -0.0008    0.0000   -0.0002   -0.0012    0.0027
          20    0.0037   -0.1628    0.4831   -0.0006   -0.0004    0.0003   -0.0007   -0.0021
          21   -0.0036    0.1677    0.4686   -0.0005    0.0004   -0.0005   -0.0006   -0.0020
[...]
 EFF. MASS   3.4986

 VIBRATION   26   26A         ATOM PAIR      ENERGY CONTRIBUTION    RADIAL
 FREQ.      1279.27         C  2 -- H 10         +19.3% ( 54.7%)      0.6%
 T-DIPOLE    0.0220         C  1 -- H  9         +19.3% ( 54.7%)      0.6%
 TRAVEL      0.1135         C  2 -- H 11         +13.0% ( 44.8%)      0.1%
 RED. MASS   0.6534         C  1 -- H  8         +13.0% ( 44.8%)      0.1%
 EFF. MASS   4.0896

 VIBRATION   27   27A         ATOM PAIR      ENERGY CONTRIBUTION    RADIAL
 FREQ.      1325.24         C  3 -- H 13         +10.5% ( 43.0%)      0.4%
 T-DIPOLE    0.0736         C  4 -- H 14         +10.4% ( 42.9%)      0.4%
 TRAVEL      0.0944         C  3 -- H 12          +9.8% ( 41.5%)      0.0%
 RED. MASS   0.6807         C  4 -- H 15          +9.7% ( 41.4%)      0.0%
 EFF. MASS   5.7083

 VIBRATION   28   28A         ATOM PAIR      ENERGY CONTRIBUTION    RADIAL
 FREQ.      1334.61         C  1 -- C  2         +15.8% ( 59.1%)     76.2%
 T-DIPOLE    0.0102         C  1 -- C  3         +11.0% ( 49.2%)     94.4%
 TRAVEL      0.0792         C  1 -- H  8         +11.0% ( 49.2%)      0.2%
 RED. MASS   1.4698         C  2 -- H 11         +10.9% ( 49.2%)      0.2%
 EFF. MASS   8.0598         C  2 -- C  4         +10.9% ( 49.1%)     94.4%

 VIBRATION   29   29A         ATOM PAIR      ENERGY CONTRIBUTION    RADIAL
 FREQ.      1340.44         C  4 -- C  6         +12.7% ( 51.9%)     84.6%
 T-DIPOLE    0.2023         C  3 -- C  5         +12.6% ( 51.7%)     84.7%
 TRAVEL      0.0793         C  4 -- H 15         +11.3% ( 48.9%)      0.0%
 RED. MASS   1.5426         C  3 -- H 12         +11.2% ( 48.7%)      0.0%
 EFF. MASS   7.9904         C  4 -- H 14         +10.7% ( 47.5%)      0.0%
                            C  3 -- H 13         +10.6% ( 47.3%)      0.0%

 VIBRATION   30   30A         ATOM PAIR      ENERGY CONTRIBUTION    RADIAL
 FREQ.      1384.87         C  3 -- H 13         +16.5% ( 42.4%)      5.3%
 T-DIPOLE    0.0157         C  3 -- H 12         +16.5% ( 42.4%)      4.4%
 TRAVEL      0.1292         C  4 -- H 15         +16.1% ( 41.9%)      4.3%
 RED. MASS   0.2722         C  4 -- H 14         +16.1% ( 41.9%)      5.4%
 EFF. MASS   2.9178

 VIBRATION   31   31A         ATOM PAIR      ENERGY CONTRIBUTION    RADIAL
 FREQ.      1388.59         C  4 -- H 14         +16.3% ( 44.0%)      5.2%
 T-DIPOLE    0.0110         C  3 -- H 13         +15.9% ( 43.5%)      5.2%
 TRAVEL      0.1198         C  4 -- H 15         +15.6% ( 43.0%)      5.2%
 RED. MASS   0.3548         C  3 -- H 12         +15.2% ( 42.5%)      5.2%
 EFF. MASS   3.3814

 VIBRATION   32   32A         ATOM PAIR      ENERGY CONTRIBUTION    RADIAL
 FREQ.      1402.54         C  2 -- H 11         +20.3% ( 44.3%)      3.3%
 T-DIPOLE    0.0334         C  1 -- H  8         +19.0% ( 42.8%)      3.2%
 TRAVEL      0.1433         C  2 -- H 10         +17.3% ( 40.9%)      6.0%
 RED. MASS   0.2552         C  1 -- H  9         +16.2% ( 39.5%)      6.0%
 EFF. MASS   2.3419

 VIBRATION   33   33A         ATOM PAIR      ENERGY CONTRIBUTION    RADIAL
 FREQ.      1403.79         C  1 -- H  9         +18.4% ( 43.9%)      4.9%
 T-DIPOLE    0.0664         C  1 -- H  8         +18.3% ( 43.7%)      5.3%
 TRAVEL      0.1321         C  2 -- H 10         +17.4% ( 42.6%)      4.8%
 RED. MASS   0.3094         C  2 -- H 11         +17.1% ( 42.2%)      5.4%
 EFF. MASS   2.7531         C  1 -- C  2         +10.9% ( 33.7%)     67.0%

 VIBRATION   34   34A         ATOM PAIR      ENERGY CONTRIBUTION    RADIAL
 FREQ.      1527.39         C  6 -- C  7         +16.5% ( 64.4%)     76.7%
 T-DIPOLE    0.4371         C  5 -- C  7         +16.5% ( 64.4%)     76.8%
 TRAVEL      0.0623         C  4 -- C  6         +16.3% ( 64.0%)     51.4%
 RED. MASS   4.0561         C  3 -- C  5         +16.3% ( 64.0%)     51.3%
 EFF. MASS  11.3596         C  6 -- H 17         +15.1% ( 61.6%)      3.2%
                            C  5 -- H 16         +15.1% ( 61.6%)      3.2%

 VIBRATION   35   35A         ATOM PAIR      ENERGY CONTRIBUTION    RADIAL
 FREQ.      2190.10         C  6 -- C  7         +41.5% ( 84.8%)     97.8%
 T-DIPOLE    0.3380         C  5 -- C  7         +41.5% ( 84.8%)     97.8%
 TRAVEL      0.0509         C  4 -- C  6          +4.3% ( 27.3%)     24.1%
 RED. MASS   5.7045         C  3 -- C  5          +4.3% ( 27.3%)     24.1%
 EFF. MASS  11.8837

 VIBRATION   36   36A         ATOM PAIR      ENERGY CONTRIBUTION    RADIAL
 FREQ.      2952.08         C  2 -- H 10         +13.6% ( 38.4%)     96.3%
 T-DIPOLE    0.0179         C  2 -- H 11         +13.5% ( 38.3%)     96.3%
 TRAVEL      0.1213         C  1 -- H  9         +13.3% ( 38.0%)     96.3%
 RED. MASS   0.1327         C  1 -- H  8         +13.3% ( 37.9%)     96.3%
 EFF. MASS   1.5516         C  4 -- H 15         +13.2% ( 37.9%)     97.4%
                            C  3 -- H 12         +12.8% ( 37.3%)     97.4%

 VIBRATION   37   37A         ATOM PAIR      ENERGY CONTRIBUTION    RADIAL
 FREQ.      2952.67         C  1 -- H  8         +15.6% ( 41.1%)     97.2%
 T-DIPOLE    0.0124         C  2 -- H 11         +15.1% ( 40.5%)     97.2%
 TRAVEL      0.1210         C  3 -- H 12         +13.9% ( 38.8%)     97.4%
 RED. MASS   0.1350         C  4 -- H 15         +13.7% ( 38.5%)     97.4%
 EFF. MASS   1.5597         C  1 -- H  9         +10.9% ( 34.4%)     95.2%
                            C  2 -- H 10         +10.6% ( 33.9%)     95.2%

 VIBRATION   38   38A         ATOM PAIR      ENERGY CONTRIBUTION    RADIAL
 FREQ.      2963.26         C  4 -- H 15         +18.1% ( 44.0%)     97.2%
 T-DIPOLE    0.0362         C  4 -- H 14         +15.3% ( 40.5%)     96.0%
 TRAVEL      0.1219         C  2 -- H 11         +15.2% ( 40.3%)     96.9%
 RED. MASS   0.1405         C  2 -- H 10         +13.8% ( 38.5%)     96.3%
 EFF. MASS   1.5306         C  3 -- H 12         +10.2% ( 33.1%)     97.2%

 VIBRATION   39   39A         ATOM PAIR      ENERGY CONTRIBUTION    RADIAL
 FREQ.      2963.34         C  3 -- H 12         +18.9% ( 45.1%)     97.2%
 T-DIPOLE    0.0543         C  1 -- H  9         +15.4% ( 40.6%)     97.0%
 TRAVEL      0.1215         C  3 -- H 13         +15.2% ( 40.5%)     95.9%
 RED. MASS   0.1423         C  1 -- H  8         +12.7% ( 37.0%)     96.1%
 EFF. MASS   1.5402         C  4 -- H 15         +10.8% ( 34.1%)     97.2%

 VIBRATION   40   40A         ATOM PAIR      ENERGY CONTRIBUTION    RADIAL
 FREQ.      3033.93         C  4 -- H 14         +18.0% ( 41.8%)     98.2%
 T-DIPOLE    0.0803         C  3 -- H 13         +17.6% ( 41.4%)     98.2%
 TRAVEL      0.1318         C  4 -- H 15         +14.2% ( 37.1%)     96.9%
 RED. MASS   0.1324         C  3 -- H 12         +13.8% ( 36.7%)     96.8%
 EFF. MASS   1.2789

 VIBRATION   41   41A         ATOM PAIR      ENERGY CONTRIBUTION    RADIAL
 FREQ.      3034.66         C  3 -- H 13         +20.8% ( 44.9%)     98.3%
 T-DIPOLE    0.0218         C  4 -- H 14         +20.3% ( 44.4%)     98.3%
 TRAVEL      0.1319         C  3 -- H 12         +16.0% ( 39.4%)     96.8%
 RED. MASS   0.1498         C  4 -- H 15         +15.7% ( 39.0%)     96.8%
 EFF. MASS   1.2764

 VIBRATION   42   42A         ATOM PAIR      ENERGY CONTRIBUTION    RADIAL
 FREQ.      3039.96         C  2 -- H 11         +16.6% ( 40.1%)     97.8%
 T-DIPOLE    0.0802         C  1 -- H  8         +16.0% ( 39.4%)     97.8%
 TRAVEL      0.1323         C  2 -- H 10         +15.9% ( 39.2%)     97.7%
 RED. MASS   0.1326         C  1 -- H  9         +15.2% ( 38.3%)     97.7%
 EFF. MASS   1.2666         C  4 -- H 14         +11.1% ( 32.7%)     98.7%
                            C  3 -- H 13         +10.7% ( 32.2%)     98.7%

 VIBRATION   43   43A         ATOM PAIR      ENERGY CONTRIBUTION    RADIAL
 FREQ.      3040.66         C  1 -- H  9         +21.8% ( 45.9%)     98.6%
 T-DIPOLE    0.0299         C  2 -- H 10         +21.0% ( 45.1%)     98.6%
 TRAVEL      0.1321         C  1 -- H  8         +15.3% ( 38.5%)     96.7%
 RED. MASS   0.1528         C  2 -- H 11         +14.7% ( 37.8%)     96.7%
 EFF. MASS   1.2710

 VIBRATION   44   44A         ATOM PAIR      ENERGY CONTRIBUTION    RADIAL
 FREQ.      3085.61         C  5 -- H 16         +92.4% ( 97.6%)    100.0%
 T-DIPOLE    0.2834         C  6 -- H 17          +4.1% ( 20.6%)    100.0%
 TRAVEL      0.1192         C  5 -- C  7          +1.6% ( 12.9%)     47.1%
 RED. MASS   0.8479         C  3 -- C  5          +1.5% ( 12.2%)     21.8%
 EFF. MASS   1.5385

 VIBRATION   45   45A         ATOM PAIR      ENERGY CONTRIBUTION    RADIAL
 FREQ.      3085.72         C  6 -- H 17         +92.2% ( 97.6%)    100.0%
 T-DIPOLE    0.3845         C  5 -- H 16          +4.0% ( 20.4%)     99.9%
 TRAVEL      0.1186         C  6 -- C  7          +1.7% ( 13.4%)     49.1%
 RED. MASS   0.8471         C  4 -- C  6          +1.5% ( 12.3%)     21.6%
 EFF. MASS   1.5547

      SYMMETRY NUMBER FOR POINT-GROUP C1  =  1


          SYSTEM IS A GROUND STATE



 InChI=1S/C7H10/c1-2-4-6-7-5-3-1/h1,5H,2,4,6-7H2


          MOLECULE IS NOT LINEAR

          THERE ARE 45 GENUINE VIBRATIONS IN THIS SYSTEM
          THIS THERMODYNAMICS CALCULATION IS LIMITED TO
          MOLECULES WHICH HAVE NO INTERNAL ROTATIONS




                    CALCULATED THERMODYNAMIC PROPERTIES
                                          *
   TEMP. (K)   PARTITION FUNCTION   H.O.F.    ENTHALPY  HEAT CAPACITY ENTROPY
                                   KCAL/MOL   CAL/MOLE    CAL/K/MOL  CAL/K/MOL


 298.00  VIB.     0.7899D+01                  2195.8169    19.1147    11.4756
         ROT.     0.1751D+06                   888.2813     2.9808    26.9724
         INT.     0.1383D+07                  3084.0982    22.0955    38.4479
         TRA.     0.8833D+27                  1480.4688     4.9680    39.5363
         TOT.                       47.830    4564.5670    27.0635    77.9842

 200.00  VIB.     0.2651D+01                   774.1734    10.2207     5.8085
         ROT.     0.9626D+05                   596.1620     2.9808    25.7837
         INT.     0.2552D+06                  1370.3353    13.2015    31.5922
         TRA.     0.4856D+27                   993.6033     4.9680    37.5551
         TOT.                       45.630    2363.9386    18.1695    69.1473

 210.00  VIB.     0.2927D+01                   880.3776    11.0251     6.3265
         ROT.     0.1036D+06                   625.9700     2.9808    25.9291
         INT.     0.3032D+06                  1506.3476    14.0059    32.2556
         TRA.     0.5225D+27                  1043.2834     4.9680    37.7975
         TOT.                       45.815    2549.6310    18.9739    70.0531

 220.00  VIB.     0.3241D+01                   994.7720    11.8586     6.8585
         ROT.     0.1111D+06                   655.7781     2.9808    26.0678
         INT.     0.3600D+06                  1650.5502    14.8394    32.9263
         TRA.     0.5603D+27                  1092.9636     4.9680    38.0286
         TOT.                       46.009    2743.5137    19.8074    70.9549

 230.00  VIB.     0.3600D+01                  1117.6410    12.7197     7.4045
         ROT.     0.1187D+06                   685.5862     2.9808    26.2003
         INT.     0.4273D+06                  1803.2273    15.7005    33.6048
         TRA.     0.5989D+27                  1142.6437     4.9680    38.2495
         TOT.                       46.212    2945.8710    20.6685    71.8543

 240.00  VIB.     0.4009D+01                  1249.2523    13.6066     7.9645
         ROT.     0.1265D+06                   715.3943     2.9808    26.3271
         INT.     0.5073D+06                  1964.6466    16.5874    34.2917
         TRA.     0.6384D+27                  1192.3239     4.9680    38.4609
         TOT.                       46.423    3156.9705    21.5555    72.7526

 250.00  VIB.     0.4478D+01                  1389.8511    14.5168     8.5384
         ROT.     0.1345D+06                   745.2024     2.9808    26.4488
         INT.     0.6024D+06                  2135.0535    17.4976    34.9872
         TRA.     0.6787D+27                  1242.0041     4.9680    38.6637
         TOT.                       46.643    3377.0576    22.4656    73.6509

 260.00  VIB.     0.5015D+01                  1539.6560    15.4474     9.1258
         ROT.     0.1427D+06                   775.0105     2.9808    26.5657
         INT.     0.7155D+06                  2314.6666    18.4282    35.6915
         TRA.     0.7198D+27                  1291.6842     4.9680    38.8586
         TOT.                       46.872    3606.3508    23.3962    74.5501

 270.00  VIB.     0.5631D+01                  1698.8560    16.3953     9.7265
         ROT.     0.1510D+06                   804.8186     2.9808    26.6782
         INT.     0.8502D+06                  2503.6746    19.3761    36.4047
         TRA.     0.7618D+27                  1341.3644     4.9680    39.0461
         TOT.                       47.111    3845.0390    24.3441    75.4508

 280.00  VIB.     0.6340D+01                  1867.6085    17.3573    10.3401
         ROT.     0.1595D+06                   834.6267     2.9808    26.7866
         INT.     0.1011D+07                  2702.2352    20.3382    37.1268
         TRA.     0.8045D+27                  1391.0445     4.9680    39.2267
         TOT.                       47.359    4093.2798    25.3062    76.3535

 290.00  VIB.     0.7156D+01                  2046.0394    18.3304    10.9662
         ROT.     0.1681D+06                   864.4348     2.9808    26.8912
         INT.     0.1203D+07                  2910.4742    21.3112    37.8574
         TRA.     0.8479D+27                  1440.7247     4.9680    39.4011
         TOT.                       47.617    4351.1990    26.2792    77.2585

 300.00  VIB.     0.8099D+01                  2234.2429    19.3113    11.6041
         ROT.     0.1768D+06                   894.2429     2.9808    26.9923
         INT.     0.1432D+07                  3128.4858    22.2921    38.5964
         TRA.     0.8922D+27                  1490.4049     4.9680    39.5695
         TOT.                       47.885    4618.8907    27.2602    78.1659

 310.00  VIB.     0.9187D+01                  2432.2825    20.2972    12.2534
         ROT.     0.1858D+06                   924.0510     2.9808    27.0900
         INT.     0.1707D+07                  3356.3335    23.2780    39.3434
         TRA.     0.9372D+27                  1540.0850     4.9680    39.7324
         TOT.                       48.162    4896.4185    28.2460    79.0758

 320.00  VIB.     0.1045D+02                  2640.1928    21.2850    12.9134
         ROT.     0.1948D+06                   953.8591     2.9808    27.1847
         INT.     0.2035D+07                  3594.0519    24.2658    40.0981
         TRA.     0.9829D+27                  1589.7652     4.9680    39.8901
         TOT.                       48.449    5183.8171    29.2339    79.9882

 330.00  VIB.     0.1191D+02                  2857.9814    22.2724    13.5835
         ROT.     0.2040D+06                   983.6672     2.9808    27.2764
         INT.     0.2430D+07                  3841.6486    25.2532    40.8599
         TRA.     0.1029D+28                  1639.4454     4.9680    40.0430
         TOT.                       48.747    5481.0940    30.2212    80.9029

 340.00  VIB.     0.1361D+02                  3085.6306    23.2568    14.2630
         ROT.     0.2134D+06                  1013.4753     2.9808    27.3654
         INT.     0.2903D+07                  4099.1059    26.2376    41.6284
         TRA.     0.1076D+28                  1689.1255     4.9680    40.1913
         TOT.                       49.054    5788.2314    31.2056    81.8197

 350.00  VIB.     0.1558D+02                  3323.1002    24.2361    14.9513
         ROT.     0.2229D+06                  1043.2834     2.9808    27.4518
         INT.     0.3472D+07                  4366.3836    27.2169    42.4031
         TRA.     0.1124D+28                  1738.8057     4.9680    40.3353
         TOT.                       49.371    6105.1893    32.1849    82.7384

 360.00  VIB.     0.1788D+02                  3570.3296    25.2084    15.6477
         ROT.     0.2325D+06                  1073.0915     2.9808    27.5358
         INT.     0.4156D+07                  4643.4211    28.1893    43.1835
         TRA.     0.1173D+28                  1788.4859     4.9680    40.4753
         TOT.                       49.698    6431.9070    33.1573    83.6588

 370.00  VIB.     0.2056D+02                  3827.2402    26.1721    16.3516
         ROT.     0.2422D+06                  1102.8996     2.9808    27.6174
         INT.     0.4979D+07                  4930.1398    29.1529    43.9690
         TRA.     0.1222D+28                  1838.1660     4.9680    40.6114
         TOT.                       50.034    6768.3058    34.1209    84.5804

 380.00  VIB.     0.2369D+02                  4093.7376    27.1256    17.0622
         ROT.     0.2521D+06                  1132.7077     2.9808    27.6969
         INT.     0.5971D+07                  5226.4453    30.1064    44.7591
         TRA.     0.1272D+28                  1887.8462     4.9680    40.7439
         TOT.                       50.380    7114.2915    35.0744    85.5030

 390.00  VIB.     0.2734D+02                  4369.7140    28.0677    17.7790
         ROT.     0.2621D+06                  1162.5158     2.9808    27.7744
         INT.     0.7167D+07                  5532.2298    31.0485    45.5534
         TRA.     0.1322D+28                  1937.5263     4.9680    40.8729
         TOT.                       50.735    7469.7561    36.0165    86.4263

 400.00  VIB.     0.3163D+02                  4655.0499    28.9973    18.5014
         ROT.     0.2723D+06                  1192.3239     2.9808    27.8498
         INT.     0.8611D+07                  5847.3738    31.9782    46.3512
         TRA.     0.1374D+28                  1987.2065     4.9680    40.9987
         TOT.                       51.100    7834.5803    36.9462    87.3499

   *: NOTE: HEATS OF FORMATION ARE RELATIVE TO THE
            ELEMENTS IN THEIR STANDARD STATE AT 298K
              (=  Standard Enthalpy of Formation).

            Hvib:  Zero-point energy is not included.
                   frequencies of less than zero cm-1 are not included.
            Hrot = (3/2)RT
            Htra = (3/2)RT + pV = (5/2)RT

            Heat capacity is Cp, not Cv

          For more information, see: HTTP://OpenMOPAC.net/Manual/thermochemistry.html


           FORCE CONSTANT IN CARTESIAN COORDINATES (Millidynes/A)

    ATOM   CHEMICAL       X               Y               Z
   NUMBER   SYMBOL  FORCE CONSTANT  FORCE CONSTANT  FORCE CONSTANT

      1       C        7.647041        7.836564        8.443843
      2       C        7.646551        8.436794        7.844583
      3       C        8.451245        7.703072        8.406764
      4       C        8.452486        8.406990        7.701651
      5       C        6.379712       10.596816        9.513109
      6       C        6.373541        9.715308       10.406347
      7       C        8.081511       10.090134        9.692818
      8       H        1.179244        1.795636        3.440685
      9       H        1.135607        1.684959        3.575768
     10       H        1.135739        3.470794        1.789500
     11       H        1.179389        3.545848        1.690351
     12       H        0.650490        1.328274        4.348074
     13       H        4.617789        0.722675        1.013648
     14       H        4.619198        1.018052        0.716300
     15       H        0.651105        4.434273        1.242395
     16       H        0.447022        4.965034        0.833791
     17       H        0.446508        0.902403        4.897298

 **********************
 *                    *
 * JOB ENDED NORMALLY *
 *                    *
 **********************



 TOTAL JOB TIME:             1.01 SECONDS

 == MOPAC DONE ==
