 *******************************************************************************
 ** Site#: 14399        For non-commercial use only    Version 18.184L 64BITS **
 *******************************************************************************
 ** Cite this program as: MOPAC2016, Version: 18.184L, James J. P. Stewart,   **
 ** Stewart Computational Chemistry, web: HTTP://OpenMOPAC.net. Days left:  18**
 *******************************************************************************
 **                                                                           **
 **                                MOPAC2016                                  **
 **                                                                           **
 *******************************************************************************

                              PM3 CALCULATION RESULTS

 *******************************************************************************
 *  CALCULATION DONE:                                Sat Jun 15 15:06:58 2019  *
 *  PM3        - The PM3 Hamiltonian to be used
 *  PRECISE    - CRITERIA TO BE INCREASED BY 100 TIMES
 *  NOSYM      - POINT-GROUP SYMMETRY SET TO C1
 *  THREADS=1  - MULTI-THREADING NOT USED
 *  T=         - A TIME OF 172800.0 SECONDS REQUESTED
 *  DUMP=N     - RESTART FILE WRITTEN EVERY  7200.000 SECONDS
 *******************************************************************************
pm3  precise nosym THREADS=1
 InChI=1S/C7H10/c1-2-6(3-1)7-4-5-7/h6-7H,2-5H2/lp1

   ATOM   CHEMICAL          X               Y               Z
  NUMBER   SYMBOL      (ANGSTROMS)     (ANGSTROMS)     (ANGSTROMS)
 
     1       C          0.67800000  *  -0.11500000  *   0.46730000  *
     2       C         -0.61480000  *   0.10030000  *  -0.33730000  *
     3       C          1.92270000  *   0.50960000  *  -0.14250000  *
     4       C          1.71500000  *  -0.99550000  *  -0.21140000  *
     5       C         -1.73240000  *  -0.85000000  *   0.07530000  *
     6       C         -1.43890000  *   1.27640000  *   0.17270000  *
     7       C         -2.55250000  *   0.32580000  *   0.57780000  *
     8       H          0.66020000  *  -0.16330000  *   1.57790000  *
     9       H         -0.47760000  *   0.13200000  *  -1.44260000  *
    10       H          1.78340000  *   1.03040000  *  -1.11420000  *
    11       H          2.68830000  *   0.82510000  *   0.59740000  *
    12       H          2.35750000  *  -1.57120000  *   0.48770000  *
    13       H          1.45210000  *  -1.37000000  *  -1.22410000  *
    14       H         -2.21530000  *  -1.34490000  *  -0.79450000  *
    15       H         -1.46380000  *  -1.54560000  *   0.90020000  *
    16       H         -1.75930000  *   1.95930000  *  -0.64320000  *
    17       H         -1.00250000  *   1.79660000  *   1.05330000  *
 


          CARTESIAN COORDINATES 

    NO.       ATOM           X           Y           Z

     1         C          0.6780     -0.1150      0.4673
     2         C         -0.6148      0.1003     -0.3373
     3         C          1.9227      0.5096     -0.1425
     4         C          1.7150     -0.9955     -0.2114
     5         C         -1.7324     -0.8500      0.0753
     6         C         -1.4389      1.2764      0.1727
     7         C         -2.5525      0.3258      0.5778
     8         H          0.6602     -0.1633      1.5779
     9         H         -0.4776      0.1320     -1.4426
    10         H          1.7834      1.0304     -1.1142
    11         H          2.6883      0.8251      0.5974
    12         H          2.3575     -1.5712      0.4877
    13         H          1.4521     -1.3700     -1.2241
    14         H         -2.2153     -1.3449     -0.7945
    15         H         -1.4638     -1.5456      0.9002
    16         H         -1.7593      1.9593     -0.6432
    17         H         -1.0025      1.7966      1.0533

  H: (PM3): J. J. P. STEWART, J. COMP. CHEM. 10, 209 (1989).
  C: (PM3): J. J. P. STEWART, J. COMP. CHEM. 10, 209 (1989).

           Empirical Formula: C7 H10  =    17 atoms



      MOLECULAR POINT GROUP   :   C1  


      RHF CALCULATION, NO. OF DOUBLY OCCUPIED LEVELS = 19


          Geometry optimization using EF

          DIAGONAL MATRIX USED AS START HESSIAN

 CYCLE:     1 TIME:   0.004 TIME LEFT:  2.00D  GRAD.:    96.303 HEAT:  122.7865
 CYCLE:     2 TIME:   0.008 TIME LEFT:  2.00D  GRAD.:    96.988 HEAT:  119.5977
 CYCLE:     3 TIME:   0.004 TIME LEFT:  2.00D  GRAD.:    79.175 HEAT:  117.3997
 CYCLE:     4 TIME:   0.004 TIME LEFT:  2.00D  GRAD.:    87.119 HEAT:  116.1406
 CYCLE:     5 TIME:   0.000 TIME LEFT:  2.00D  GRAD.:    90.513 HEAT:  115.3872
 CYCLE:     6 TIME:   0.008 TIME LEFT:  2.00D  GRAD.:    35.603 HEAT:  113.5935
 CYCLE:     7 TIME:   0.004 TIME LEFT:  2.00D  GRAD.:    24.580 HEAT:  113.2076
 CYCLE:     8 TIME:   0.004 TIME LEFT:  2.00D  GRAD.:    23.162 HEAT:  112.9945
 CYCLE:     9 TIME:   0.004 TIME LEFT:  2.00D  GRAD.:    17.543 HEAT:  112.8535
 CYCLE:    10 TIME:   0.004 TIME LEFT:  2.00D  GRAD.:    16.664 HEAT:  112.7615
 CYCLE:    11 TIME:   0.004 TIME LEFT:  2.00D  GRAD.:    15.758 HEAT:  112.7071
 CYCLE:    12 TIME:   0.004 TIME LEFT:  2.00D  GRAD.:    13.380 HEAT:  112.6496
 CYCLE:    13 TIME:   0.004 TIME LEFT:  2.00D  GRAD.:    11.717 HEAT:  112.5954
 CYCLE:    14 TIME:   0.004 TIME LEFT:  2.00D  GRAD.:    10.080 HEAT:  112.5624
 CYCLE:    15 TIME:   0.004 TIME LEFT:  2.00D  GRAD.:     6.012 HEAT:  112.5208
 CYCLE:    16 TIME:   0.004 TIME LEFT:  2.00D  GRAD.:     8.681 HEAT:  112.4986
 CYCLE:    17 TIME:   0.004 TIME LEFT:  2.00D  GRAD.:     7.744 HEAT:  112.4689
 CYCLE:    18 TIME:   0.004 TIME LEFT:  2.00D  GRAD.:     8.863 HEAT:  112.4603
 CYCLE:    19 TIME:   0.004 TIME LEFT:  2.00D  GRAD.:     7.370 HEAT:  112.4444
 CYCLE:    20 TIME:   0.004 TIME LEFT:  2.00D  GRAD.:     4.195 HEAT:  112.4207
 CYCLE:    21 TIME:   0.000 TIME LEFT:  2.00D  GRAD.:     4.674 HEAT:  112.4094
 CYCLE:    22 TIME:   0.004 TIME LEFT:  2.00D  GRAD.:     5.106 HEAT:  112.3905
 CYCLE:    23 TIME:   0.004 TIME LEFT:  2.00D  GRAD.:     5.437 HEAT:  112.3838
 CYCLE:    24 TIME:   0.004 TIME LEFT:  2.00D  GRAD.:     1.870 HEAT:  112.3731
 CYCLE:    25 TIME:   0.004 TIME LEFT:  2.00D  GRAD.:     1.385 HEAT:  112.3711
 CYCLE:    26 TIME:   0.004 TIME LEFT:  2.00D  GRAD.:     0.619 HEAT:  112.3700
 CYCLE:    27 TIME:   0.004 TIME LEFT:  2.00D  GRAD.:     0.618 HEAT:  112.3693
 CYCLE:    28 TIME:   0.000 TIME LEFT:  2.00D  GRAD.:     0.696 HEAT:  112.3686
 CYCLE:    29 TIME:   0.004 TIME LEFT:  2.00D  GRAD.:     0.509 HEAT:  112.3681
 CYCLE:    30 TIME:   0.004 TIME LEFT:  2.00D  GRAD.:     0.351 HEAT:  112.3678
 CYCLE:    31 TIME:   0.004 TIME LEFT:  2.00D  GRAD.:     0.348 HEAT:  112.3675
 CYCLE:    32 TIME:   0.000 TIME LEFT:  2.00D  GRAD.:     0.343 HEAT:  112.3673
 CYCLE:    33 TIME:   0.004 TIME LEFT:  2.00D  GRAD.:     0.284 HEAT:  112.3672
 CYCLE:    34 TIME:   0.004 TIME LEFT:  2.00D  GRAD.:     0.162 HEAT:  112.3671
 CYCLE:    35 TIME:   0.004 TIME LEFT:  2.00D  GRAD.:     0.105 HEAT:  112.3670
 CYCLE:    36 TIME:   0.000 TIME LEFT:  2.00D  GRAD.:     0.070 HEAT:  112.3670
 CYCLE:    37 TIME:   0.004 TIME LEFT:  2.00D  GRAD.:     0.061 HEAT:  112.3670
 CYCLE:    38 TIME:   0.004 TIME LEFT:  2.00D  GRAD.:     0.055 HEAT:  112.3670
 CYCLE:    39 TIME:   0.004 TIME LEFT:  2.00D  GRAD.:     0.038 HEAT:  112.3670

     GRADIENT =  0.03753  IS LESS THAN CUTOFF =  0.05000



 -------------------------------------------------------------------------------
 pm3  precise nosym THREADS=1
 InChI=1S/C7H10/c1-2-6(3-1)7-4-5-7/h6-7H,2-5H2/lp1



     GEOMETRY OPTIMISED USING EIGENVECTOR FOLLOWING (EF).     
     SCF FIELD WAS ACHIEVED                                   


                              PM3 CALCULATION
                                                       MOPAC2016 (Version: 18.184L)
                                                       Sat Jun 15 15:06:58 2019
                                                       No. of days remaining =  18




          FINAL HEAT OF FORMATION =        112.36699 KCAL/MOL =     470.14349 KJ/MOL


          TOTAL ENERGY            =       -978.93700 EV
          ELECTRONIC ENERGY       =      -4534.56035 EV  POINT GROUP:     C1  
          CORE-CORE REPULSION     =       3555.62335 EV
          COSMO AREA              =        148.32 SQUARE ANGSTROMS
          COSMO VOLUME            =        143.26 CUBIC ANGSTROMS

          GRADIENT NORM           =          0.03753 = 0.00910 PER ATOM
          IONIZATION POTENTIAL    =          9.154489 EV
          HOMO LUMO ENERGIES (EV) =         -9.154 -0.509
          NO. OF FILLED LEVELS    =         19
          MOLECULAR WEIGHT        =         94.1560

          MOLECULAR DIMENSIONS (Angstroms)

            Atom       Atom       Distance
            H    16    H    12     5.59749
            H    14    H    11     5.10391
            H    10    H     8     2.82953


          SCF CALCULATIONS        =         48
 
          WALL-CLOCK TIME         =          0.148 SECONDS
          COMPUTATION TIME        =          0.131 SECONDS




   ATOM   CHEMICAL          X               Y               Z
  NUMBER   SYMBOL      (ANGSTROMS)     (ANGSTROMS)     (ANGSTROMS)
 
     1       C          0.68576707  *  -0.11247897  *   0.40031214  *
     2       C         -0.60114544  *   0.09867629  *  -0.33329100  *
     3       C          1.95220603  *   0.49301939  *  -0.14168170  *
     4       C          1.74737743  *  -0.98823646  *  -0.20816796  *
     5       C         -1.76442860  *  -0.84019352  *   0.09612159  *
     6       C         -1.47300462  *   1.27370887  *   0.19422174  *
     7       C         -2.57474477  *   0.32912067  *   0.56385021  *
     8       H          0.54726217  *  -0.14262447  *   1.49742485  *
     9       H         -0.43098894  *   0.12594484  *  -1.42966083  *
    10       H          1.92306526  *   1.08886154  *  -1.06115758  *
    11       H          2.68976067  *   0.91635760  *   0.54843568  *
    12       H          2.33427239  *  -1.65439985  *   0.43312246  *
    13       H          1.56919958  *  -1.47083067  *  -1.17598157  *
    14       H         -2.23945124  *  -1.41599109  *  -0.71378938  *
    15       H         -1.52682488  *  -1.55547624  *   0.90106485  *
    16       H         -1.76458587  *   2.02756405  *  -0.55397100  *
    17       H         -1.06119709  *   1.82203399  *   1.05782169  *

                             CARTESIAN COORDINATES

   1    C        0.685767070    -0.112478975     0.400312138
   2    C       -0.601145436     0.098676290    -0.333291004
   3    C        1.952206026     0.493019393    -0.141681698
   4    C        1.747377433    -0.988236462    -0.208167958
   5    C       -1.764428604    -0.840193518     0.096121594
   6    C       -1.473004619     1.273708868     0.194221743
   7    C       -2.574744767     0.329120667     0.563850214
   8    H        0.547262168    -0.142624469     1.497424853
   9    H       -0.430988938     0.125944838    -1.429660828
  10    H        1.923065255     1.088861544    -1.061157576
  11    H        2.689760665     0.916357603     0.548435679
  12    H        2.334272386    -1.654399850     0.433122457
  13    H        1.569199583    -1.470830669    -1.175981575
  14    H       -2.239451242    -1.415991089    -0.713789380
  15    H       -1.526824881    -1.555476242     0.901064849
  16    H       -1.764585866     2.027564045    -0.553971002
  17    H       -1.061197087     1.822033992     1.057821687


           Empirical Formula: C7 H10  =    17 atoms



      MOLECULAR POINT GROUP   :   C1  


                  EIGENVALUES  
 -41.23884 -35.93571 -25.87365 -24.33548 -22.26607 -20.50920 -17.89053 -17.50902
 -16.74379 -15.06786 -14.25878 -13.77133 -13.51117 -12.48725 -12.43005 -12.31239
 -11.87842 -11.32336  -9.15449  -0.50945   2.45591   2.83988   3.10812   3.26338
   3.32578   3.52960   3.57849   3.69129   3.82257   3.99964   4.10486   4.27908
   4.43449   4.64265   4.72837   4.77052   4.99940   5.20124


              NET ATOMIC CHARGES AND DIPOLE CONTRIBUTIONS

  ATOM NO.   TYPE          CHARGE      No. of ELECS.   s-Pop       p-Pop       
    1          C          -0.135241        4.1352     1.17353     2.96171
    2          C          -0.070211        4.0702     1.19130     2.87891
    3          C          -0.146175        4.1462     1.16064     2.98554
    4          C          -0.146157        4.1462     1.16063     2.98553
    5          C          -0.267999        4.2680     1.19913     3.06887
    6          C          -0.268005        4.2680     1.19914     3.06887
    7          C           0.110134        3.8899     1.72846     2.16141
    8          H           0.097452        0.9025     0.90255
    9          H           0.076863        0.9231     0.92314
   10          H           0.079977        0.9200     0.92002
   11          H           0.078307        0.9217     0.92169
   12          H           0.078297        0.9217     0.92170
   13          H           0.079981        0.9200     0.92002
   14          H           0.105867        0.8941     0.89413
   15          H           0.110525        0.8895     0.88948
   16          H           0.105863        0.8941     0.89414
   17          H           0.110522        0.8895     0.88948
 DIPOLE           X         Y         Z       TOTAL
 POINT-CHG.    -0.116     0.011     0.101     0.154
 HYBRID         1.994    -0.235    -0.858     2.183
 SUM            1.877    -0.224    -0.758     2.037


          ATOMIC ORBITAL ELECTRON POPULATIONS

     Atom    s        px        py        pz   
    1  C   1.17353   0.91044   1.05770   0.99357
    2  C   1.19130   0.93273   0.95100   0.99518
    3  C   1.16064   0.99355   0.96235   1.02964
    4  C   1.16063   1.02243   0.93792   1.02517
    5  C   1.19913   1.00466   1.02735   1.03686
    6  C   1.19914   1.03252   1.00338   1.03296
    7  C   1.72846   1.00406   0.84279   0.31455
    8  H   0.90255
    9  H   0.92314
   10  H   0.92002
   11  H   0.92169
   12  H   0.92170
   13  H   0.92002
   14  H   0.89413
   15  H   0.88948
   16  H   0.89414
   17  H   0.88948
 *******************************************************************************
 ** Site#: 14399        For non-commercial use only    Version 18.184L 64BITS **
 *******************************************************************************
 ** Cite this program as: MOPAC2016, Version: 18.184L, James J. P. Stewart,   **
 ** Stewart Computational Chemistry, web: HTTP://OpenMOPAC.net. Days left:  18**
 *******************************************************************************
 **                                                                           **
 **                                MOPAC2016                                  **
 **                                                                           **
 *******************************************************************************

                              PM3 CALCULATION RESULTS

 *******************************************************************************
 *  CALCULATION DONE:                                Sat Jun 15 15:06:58 2019  *
 *  PM3        - The PM3 Hamiltonian to be used
 *  OLDGEO     - PREVIOUS GEOMETRY TO BE USED
 *  PRECISE    - CRITERIA TO BE INCREASED BY 100 TIMES
 *  NOSYM      - POINT-GROUP SYMMETRY SET TO C1
 *  THREADS=1  - MULTI-THREADING NOT USED
 *  T=         - A TIME OF 172800.0 SECONDS REQUESTED
 *  DUMP=N     - RESTART FILE WRITTEN EVERY  7200.000 SECONDS
 *  THERMO     - THERMODYNAMIC QUANTITIES TO BE CALCULATED
 *******************************************************************************
oldgeo thermo nosym precise THREADS=1  pm3
 InChI=1S/C7H10/c1-2-6(3-1)7-4-5-7/h6-7H,2-5H2/lp1

   ATOM   CHEMICAL          X               Y               Z
  NUMBER   SYMBOL      (ANGSTROMS)     (ANGSTROMS)     (ANGSTROMS)
 
     1       C          0.68576707  *  -0.11247897  *   0.40031214  *
     2       C         -0.60114544  *   0.09867629  *  -0.33329100  *
     3       C          1.95220603  *   0.49301939  *  -0.14168170  *
     4       C          1.74737743  *  -0.98823646  *  -0.20816796  *
     5       C         -1.76442860  *  -0.84019352  *   0.09612159  *
     6       C         -1.47300462  *   1.27370887  *   0.19422174  *
     7       C         -2.57474477  *   0.32912067  *   0.56385021  *
     8       H          0.54726217  *  -0.14262447  *   1.49742485  *
     9       H         -0.43098894  *   0.12594484  *  -1.42966083  *
    10       H          1.92306526  *   1.08886154  *  -1.06115758  *
    11       H          2.68976067  *   0.91635760  *   0.54843568  *
    12       H          2.33427239  *  -1.65439985  *   0.43312246  *
    13       H          1.56919958  *  -1.47083067  *  -1.17598157  *
    14       H         -2.23945124  *  -1.41599109  *  -0.71378938  *
    15       H         -1.52682488  *  -1.55547624  *   0.90106485  *
    16       H         -1.76458587  *   2.02756405  *  -0.55397100  *
    17       H         -1.06119709  *   1.82203399  *   1.05782169  *
 


          CARTESIAN COORDINATES 

    NO.       ATOM           X           Y           Z

     1         C          0.6858     -0.1125      0.4003
     2         C         -0.6011      0.0987     -0.3333
     3         C          1.9522      0.4930     -0.1417
     4         C          1.7474     -0.9882     -0.2082
     5         C         -1.7644     -0.8402      0.0961
     6         C         -1.4730      1.2737      0.1942
     7         C         -2.5747      0.3291      0.5639
     8         H          0.5473     -0.1426      1.4974
     9         H         -0.4310      0.1259     -1.4297
    10         H          1.9231      1.0889     -1.0612
    11         H          2.6898      0.9164      0.5484
    12         H          2.3343     -1.6544      0.4331
    13         H          1.5692     -1.4708     -1.1760
    14         H         -2.2395     -1.4160     -0.7138
    15         H         -1.5268     -1.5555      0.9011
    16         H         -1.7646      2.0276     -0.5540
    17         H         -1.0612      1.8220      1.0578

  H: (PM3): J. J. P. STEWART, J. COMP. CHEM. 10, 209 (1989).
  C: (PM3): J. J. P. STEWART, J. COMP. CHEM. 10, 209 (1989).

           Empirical Formula: C7 H10  =    17 atoms



      MOLECULAR POINT GROUP   :   C1  


      RHF CALCULATION, NO. OF DOUBLY OCCUPIED LEVELS = 19



          HEAT OF FORMATION =     112.366992 KCALS/MOLE


          CARTESIAN COORDINATE DERIVATIVES

   NUMBER  ATOM         X            Y            Z

     1       C     -0.007575    -0.006165    -0.004785
     2       C     -0.002854     0.000573    -0.004901
     3       C     -0.001178     0.005050    -0.013007
     4       C      0.000272    -0.001444     0.000058
     5       C     -0.004006     0.004351    -0.001308
     6       C     -0.019548    -0.007792    -0.003075
     7       C      0.020259     0.005868     0.013216
     8       H      0.001531     0.010795     0.003687
     9       H     -0.002503    -0.009073     0.004263
    10       H      0.005310    -0.003483     0.006905
    11       H      0.004732     0.001305    -0.001158
    12       H      0.004465     0.002488    -0.001455
    13       H     -0.001114    -0.001800     0.005207
    14       H      0.005098    -0.000899     0.000348
    15       H      0.006110     0.003684    -0.006851
    16       H     -0.010922    -0.001420     0.000418
    17       H      0.001922    -0.002040     0.002437
 


          GRADIENT NORM =   0.04615

          MOLECULAR WEIGHT =   94.16



          ROTATIONAL CONSTANTS IN CM(-1)

          A =    0.22377650   B =    0.05958018   C =    0.05158126



           PRINCIPAL MOMENTS OF INERTIA IN UNITS OF 10**(-40)*GRAM-CM**2

          A =      125.0926   B =      469.8337   C =      542.6928


          ORIENTATION OF MOLECULE IN FORCE CALCULATION

    NO.       ATOM         X         Y         Z

     1          C      -0.9767    0.1382    0.0953
     2          C       0.5196    0.1382    0.0953
     3          C      -1.7147    1.4495    0.0953
     4          C      -1.7150    0.5951    1.3243
     5          C       1.1771   -1.2262    0.4491
     6          C       1.1766   -0.0095   -1.3067
     7          C       1.8097   -1.3062   -0.9059
     8          H      -1.3997   -0.7010   -0.4882
     9          H       0.9146    0.9906    0.6862
    10          H      -1.1548    2.3917    0.0870
    11          H      -2.6277    1.5582   -0.4998
    12          H      -2.6282    0.0752    1.6331
    13          H      -1.1554    0.9151    2.2107
    14          H       1.9014   -1.2084    1.2786
    15          H       0.4771   -2.0537    0.6526
    16          H       1.9006    0.7737   -1.5815
    17          H       0.4764   -0.1096   -2.1527


    FIRST DERIVATIVES WILL BE USED IN THE CALCULATION OF SECOND DERIVATIVES

    FOR POINT-GROUP C1   THERE ARE   1 UNIQUE SYMMETRY FUNCTIONS.

 STEP:   1 TIME =     0.01 SECS, INTEGRAL =      0.01 TIME LEFT: 172799.99
 STEP:   2 TIME =     0.01 SECS, INTEGRAL =      0.02 TIME LEFT: 172799.98
 STEP:   3 TIME =     0.02 SECS, INTEGRAL =      0.04 TIME LEFT: 172799.96
 STEP:   4 TIME =     0.01 SECS, INTEGRAL =      0.05 TIME LEFT: 172799.95
 STEP:   5 TIME =     0.01 SECS, INTEGRAL =      0.06 TIME LEFT: 172799.94
 STEP:   6 TIME =     0.01 SECS, INTEGRAL =      0.07 TIME LEFT: 172799.93
 STEP:   7 TIME =     0.01 SECS, INTEGRAL =      0.09 TIME LEFT: 172799.91
 STEP:   8 TIME =     0.02 SECS, INTEGRAL =      0.10 TIME LEFT: 172799.90
 STEP:   9 TIME =     0.01 SECS, INTEGRAL =      0.11 TIME LEFT: 172799.89
 STEP:  10 TIME =     0.01 SECS, INTEGRAL =      0.12 TIME LEFT: 172799.88
 STEP:  11 TIME =     0.01 SECS, INTEGRAL =      0.14 TIME LEFT: 172799.86
 STEP:  12 TIME =     0.01 SECS, INTEGRAL =      0.15 TIME LEFT: 172799.85
 STEP:  13 TIME =     0.02 SECS, INTEGRAL =      0.16 TIME LEFT: 172799.84
 STEP:  14 TIME =     0.01 SECS, INTEGRAL =      0.18 TIME LEFT: 172799.82
 STEP:  15 TIME =     0.01 SECS, INTEGRAL =      0.19 TIME LEFT: 172799.81
 STEP:  16 TIME =     0.02 SECS, INTEGRAL =      0.20 TIME LEFT: 172799.80
 STEP:  17 TIME =     0.01 SECS, INTEGRAL =      0.21 TIME LEFT: 172799.79
 STEP:  18 TIME =     0.01 SECS, INTEGRAL =      0.23 TIME LEFT: 172799.77
 STEP:  19 TIME =     0.02 SECS, INTEGRAL =      0.24 TIME LEFT: 172799.76
 STEP:  20 TIME =     0.01 SECS, INTEGRAL =      0.25 TIME LEFT: 172799.75
 STEP:  21 TIME =     0.01 SECS, INTEGRAL =      0.27 TIME LEFT: 172799.73
 STEP:  22 TIME =     0.02 SECS, INTEGRAL =      0.28 TIME LEFT: 172799.72
 STEP:  23 TIME =     0.01 SECS, INTEGRAL =      0.29 TIME LEFT: 172799.71
 STEP:  24 TIME =     0.01 SECS, INTEGRAL =      0.30 TIME LEFT: 172799.70
 STEP:  25 TIME =     0.01 SECS, INTEGRAL =      0.32 TIME LEFT: 172799.68
 STEP:  26 TIME =     0.02 SECS, INTEGRAL =      0.33 TIME LEFT: 172799.67
 STEP:  27 TIME =     0.01 SECS, INTEGRAL =      0.34 TIME LEFT: 172799.66
 STEP:  28 TIME =     0.01 SECS, INTEGRAL =      0.36 TIME LEFT: 172799.64
 STEP:  29 TIME =     0.01 SECS, INTEGRAL =      0.37 TIME LEFT: 172799.63
 STEP:  30 TIME =     0.01 SECS, INTEGRAL =      0.38 TIME LEFT: 172799.62
 STEP:  31 TIME =     0.01 SECS, INTEGRAL =      0.39 TIME LEFT: 172799.61
 STEP:  32 TIME =     0.01 SECS, INTEGRAL =      0.40 TIME LEFT: 172799.60
 STEP:  33 TIME =     0.01 SECS, INTEGRAL =      0.41 TIME LEFT: 172799.59
 STEP:  34 TIME =     0.01 SECS, INTEGRAL =      0.43 TIME LEFT: 172799.57
 STEP:  35 TIME =     0.02 SECS, INTEGRAL =      0.44 TIME LEFT: 172799.56
 STEP:  36 TIME =     0.01 SECS, INTEGRAL =      0.45 TIME LEFT: 172799.55
 STEP:  37 TIME =     0.01 SECS, INTEGRAL =      0.46 TIME LEFT: 172799.54
 STEP:  38 TIME =     0.01 SECS, INTEGRAL =      0.48 TIME LEFT: 172799.52
 STEP:  39 TIME =     0.02 SECS, INTEGRAL =      0.49 TIME LEFT: 172799.51
 STEP:  40 TIME =     0.01 SECS, INTEGRAL =      0.50 TIME LEFT: 172799.50
 STEP:  41 TIME =     0.01 SECS, INTEGRAL =      0.52 TIME LEFT: 172799.48
 STEP:  42 TIME =     0.02 SECS, INTEGRAL =      0.53 TIME LEFT: 172799.47
 STEP:  43 TIME =     0.01 SECS, INTEGRAL =      0.54 TIME LEFT: 172799.46
 STEP:  44 TIME =     0.01 SECS, INTEGRAL =      0.55 TIME LEFT: 172799.45
 STEP:  45 TIME =     0.01 SECS, INTEGRAL =      0.57 TIME LEFT: 172799.43
 STEP:  46 TIME =     0.01 SECS, INTEGRAL =      0.58 TIME LEFT: 172799.42
 STEP:  47 TIME =     0.01 SECS, INTEGRAL =      0.59 TIME LEFT: 172799.41
 STEP:  48 TIME =     0.01 SECS, INTEGRAL =      0.60 TIME LEFT: 172799.40
 STEP:  49 TIME =     0.02 SECS, INTEGRAL =      0.62 TIME LEFT: 172799.38
 STEP:  50 TIME =     0.01 SECS, INTEGRAL =      0.63 TIME LEFT: 172799.37
 STEP:  51 TIME =     0.01 SECS, INTEGRAL =      0.64 TIME LEFT: 172799.36

(To convert to Hartree/Bohr^2, multiply by (10^(-21) x N x a0^2)/(4.184 x 627.51) =  0.0642)


           FORCE MATRIX IN MILLIDYNES/ANGSTROM


                  C  1       C  2       C  3       C  4       C  5       C  6
 ------------------------------------------------------------------------------
     C    1  15.714250
     C    2   4.774460  14.686228
     C    3   4.815400   0.561656  15.399960
     C    4   4.815702   0.561473   5.145024  15.404206
     C    5   0.559194   3.221352   0.049176   0.018354  14.031284
     C    6   0.559231   3.219938   0.017966   0.049082   2.122884  14.028305
     C    7   0.055110   2.045208   0.009509   0.009244   4.554657   4.554004
     H    8   4.543761   0.429415   0.437961   0.437976   0.016907   0.017352
     H    9   0.440276   4.450509   0.027256   0.027024   0.420237   0.420541
     H   10   0.463598   0.024483   4.818837   0.462883   0.002858   0.003754
     H   11   0.457194   0.044140   4.848636   0.460582   0.008566   0.003718
     H   12   0.457070   0.044039   0.460728   4.848560   0.003732   0.008422
     H   13   0.464388   0.024597   0.462787   4.818957   0.003883   0.003047
     H   14   0.030876   0.431629   0.005024   0.002786   4.656897   0.051815
     H   15   0.022464   0.444629   0.003659   0.004266   4.614383   0.049814
     H   16   0.030813   0.431474   0.002782   0.004825   0.051402   4.656625
     H   17   0.022798   0.444256   0.004132   0.003620   0.048850   4.613171


                  C  7       H  8       H  9       H 10       H 11       H 12
 ------------------------------------------------------------------------------
     C    7   8.949969
     H    8   0.010651   5.068032
     H    9   0.042753   0.037848   4.944797
     H   10   0.001847   0.037335   0.017133   5.430145
     H   11   0.002116   0.020617   0.001365   0.495949   5.453190
     H   12   0.002104   0.020545   0.001343   0.042090   0.020544   5.453180
     H   13   0.001875   0.037745   0.017020   0.021388   0.041956   0.495861
     H   14   0.347994   0.001383   0.025626   0.000521   0.001074   0.000456
     H   15   0.339999   0.017752   0.028776   0.000709   0.000889   0.001053
     H   16   0.348707   0.001420   0.025606   0.000844   0.000563   0.001038
     H   17   0.338772   0.017885   0.028567   0.001117   0.001015   0.000864


                  H 13       H 14       H 15       H 16       H 17
 ------------------------------------------------------------------
     H   13   5.430052
     H   14   0.000816   5.285857
     H   15   0.001157   0.563409   5.248313
     H   16   0.000565   0.014253   0.007142   5.286332
     H   17   0.000649   0.007179   0.013346   0.563602   5.248242


          HEAT OF FORMATION =     112.366992 KCALS/MOLE

          ZERO POINT ENERGY      92.357 KCAL/MOL


           NORMAL COORDINATE ANALYSIS (Total motion = 1 Angstrom)


   Root No.       1         2         3         4         5         6         7         8

                 1 A       2 A       3 A       4 A       5 A       6 A       7 A       8 A   

                  50.7     175.3     206.2     338.2     400.4     451.1     679.5     756.7
  
           1   -0.0001   -0.0298    0.0002    0.0337   -0.0248   -0.0002    0.0001    0.0236
           2   -0.0216   -0.0038    0.0084    0.0373    0.0160   -0.0293   -0.0018    0.0166
           3    0.0312   -0.0032   -0.0121    0.0260    0.0110    0.0418    0.0027    0.0115
           4   -0.0001   -0.0307    0.0002    0.0345   -0.0150   -0.0002   -0.0000   -0.0101
           5   -0.0198   -0.0296    0.0134    0.0125   -0.0268    0.0207    0.0027   -0.0301
           6    0.0282   -0.0210   -0.0189    0.0084   -0.0186   -0.0301   -0.0040   -0.0209
           7    0.0007    0.0074   -0.0441   -0.0311   -0.0348    0.0321    0.0030    0.0101
           8   -0.0212    0.0185   -0.0177    0.0016    0.0202   -0.0197   -0.0046   -0.0013
           9   -0.0415    0.0134    0.0011    0.0018    0.0170    0.0040    0.0007   -0.0058
          10   -0.0007    0.0080    0.0441   -0.0313   -0.0345   -0.0319   -0.0029    0.0103
          11    0.0464    0.0184    0.0049    0.0021    0.0230    0.0032    0.0009   -0.0059
          12    0.0055    0.0127    0.0169    0.0009    0.0130    0.0200    0.0045    0.0008
          13    0.0056   -0.0125   -0.0424   -0.0036    0.0404   -0.0269   -0.0405   -0.0237
          14   -0.0294   -0.0184   -0.0054   -0.0170   -0.0067    0.0245   -0.0157   -0.0160
          15   -0.0196   -0.0131   -0.0073   -0.0136   -0.0102   -0.0107   -0.0168    0.0129
          16   -0.0058   -0.0120    0.0423   -0.0035    0.0407    0.0270    0.0406   -0.0237
          17    0.0284   -0.0191    0.0089   -0.0188   -0.0117    0.0015    0.0215    0.0064
          18    0.0204   -0.0128    0.0026   -0.0114   -0.0027   -0.0266    0.0085   -0.0195
          19    0.0005    0.0856   -0.0004    0.0193    0.0178    0.0000   -0.0002    0.0013
          20    0.0176    0.0411   -0.0096   -0.0041   -0.0264   -0.0037   -0.0004    0.0241
          21   -0.0249    0.0288    0.0135   -0.0028   -0.0183    0.0054    0.0008    0.0167
          22   -0.0001   -0.0588    0.0004    0.0526   -0.0452   -0.0004    0.0000    0.0066
          23   -0.0529    0.0068   -0.0065    0.0285    0.0232   -0.0525   -0.0104    0.0204
          24    0.0763    0.0038    0.0092    0.0199    0.0160    0.0754    0.0151    0.0143
          25    0.0000   -0.0221    0.0001    0.0714   -0.0214   -0.0004    0.0001    0.0225
          26   -0.0380   -0.0309    0.0060   -0.0004   -0.0237    0.0377   -0.0207   -0.0385
          27    0.0544   -0.0221   -0.0083   -0.0009   -0.0163   -0.0545    0.0297   -0.0267
          28    0.0014    0.0352   -0.0824   -0.0860   -0.0432    0.0747    0.0112   -0.0371
          29   -0.0221    0.0021    0.0040    0.0336    0.0250   -0.0436   -0.0092    0.0272
          30   -0.0930    0.0014   -0.0442    0.0287    0.0236    0.0080   -0.0013    0.0553
          31    0.0013   -0.0023   -0.0779   -0.0124   -0.0344    0.0587    0.0053    0.0550
          32   -0.0535    0.0464   -0.0663   -0.0511    0.0171    0.0122    0.0011   -0.0423
          33   -0.0484    0.0335    0.0434   -0.0376    0.0151   -0.0292   -0.0014   -0.0816
          34   -0.0014   -0.0012    0.0780   -0.0127   -0.0339   -0.0585   -0.0050    0.0553
          35    0.0641    0.0463   -0.0180   -0.0533    0.0199    0.0236    0.0005   -0.0920
          36    0.0333    0.0323    0.0770   -0.0352    0.0111   -0.0212   -0.0015   -0.0117
          37   -0.0016    0.0365    0.0823   -0.0869   -0.0429   -0.0744   -0.0115   -0.0380
          38    0.0951    0.0011    0.0398    0.0385    0.0311    0.0079    0.0049    0.0618
          39   -0.0114    0.0011   -0.0192    0.0221    0.0151    0.0436    0.0081    0.0068
          40    0.0088   -0.0848   -0.0737   -0.0330    0.0829   -0.0626    0.1095    0.0127
          41   -0.0546   -0.0284   -0.0333   -0.0729    0.0614    0.0044    0.0740    0.0722
          42   -0.0220    0.0495    0.0202    0.0119   -0.0464    0.0196   -0.1407   -0.0159
          43    0.0096   -0.0054   -0.0711   -0.0381    0.0877   -0.0557   -0.0063    0.0278
          44   -0.0390   -0.0478    0.0097   -0.0032   -0.0270    0.0393    0.0181   -0.0329
          45   -0.0445   -0.1051   -0.0419   -0.0698    0.0576   -0.0395    0.2007    0.1056
          46   -0.0098   -0.0840    0.0742   -0.0327    0.0830    0.0627   -0.1104    0.0133
          47    0.0399    0.0357   -0.0075   -0.0147   -0.0218   -0.0196    0.1067    0.0098
          48    0.0426   -0.0439    0.0383   -0.0723    0.0735    0.0033   -0.1192    0.0729
          49   -0.0099   -0.0045    0.0706   -0.0375    0.0876    0.0560    0.0072    0.0270
          50    0.0540   -0.1154    0.0367   -0.0664    0.0443    0.0234   -0.1957    0.0881
          51    0.0209   -0.0083   -0.0234    0.0209   -0.0452   -0.0507    0.0528   -0.0673


   Root No.       9        10        11        12        13        14        15        16

                 9 A      10 A      11 A      12 A      13 A      14 A      15 A      16 A   

                 827.0     861.5     874.4     894.7     949.7     959.5     963.4    1001.0
  
           1   -0.0085   -0.0070    0.0001    0.0044    0.0000    0.0095    0.0001    0.0065
           2   -0.0057   -0.0009   -0.0006    0.0156    0.0033   -0.0126   -0.0109    0.0176
           3   -0.0041   -0.0006    0.0011    0.0108   -0.0046   -0.0089    0.0165    0.0123
           4   -0.0067   -0.0019    0.0001   -0.0256    0.0000    0.0224    0.0001    0.0072
           5    0.0027    0.0322   -0.0041    0.0002   -0.0069   -0.0224    0.0028    0.0057
           6    0.0020    0.0220    0.0058    0.0003    0.0109   -0.0154   -0.0041    0.0041
           7   -0.0044   -0.0014    0.0171    0.0178    0.0027   -0.0066   -0.0146   -0.0139
           8   -0.0033   -0.0030   -0.0117    0.0049   -0.0062   -0.0051    0.0283   -0.0034
           9   -0.0026   -0.0050    0.0045   -0.0090    0.0011    0.0117   -0.0050   -0.0110
          10   -0.0043   -0.0014   -0.0175    0.0177   -0.0029   -0.0067    0.0142   -0.0142
          11   -0.0034   -0.0058   -0.0002   -0.0067    0.0010    0.0092   -0.0055   -0.0113
          12   -0.0021   -0.0010    0.0125    0.0079    0.0061   -0.0087   -0.0281    0.0008
          13    0.0110   -0.0267   -0.0029   -0.0038   -0.0173   -0.0054   -0.0038   -0.0070
          14    0.0113    0.0065    0.0071    0.0289    0.0075    0.0089   -0.0045   -0.0014
          15   -0.0021   -0.0400   -0.0016   -0.0227   -0.0084    0.0088   -0.0014   -0.0032
          16    0.0109   -0.0265    0.0028   -0.0038    0.0171   -0.0051    0.0036   -0.0072
          17    0.0020   -0.0352   -0.0009   -0.0111    0.0047    0.0114    0.0028   -0.0037
          18    0.0113    0.0204   -0.0077    0.0349   -0.0101    0.0052    0.0038   -0.0004
          19   -0.0073    0.0494   -0.0000    0.0099   -0.0001    0.0262   -0.0000   -0.0011
          20   -0.0120   -0.0032    0.0009   -0.0294    0.0000   -0.0279   -0.0009   -0.0058
          21   -0.0083   -0.0023   -0.0009   -0.0204    0.0003   -0.0194    0.0009   -0.0042
          22   -0.0266    0.0182    0.0002   -0.0159    0.0009    0.0015    0.0011    0.0773
          23    0.0002   -0.0091    0.0974    0.0217    0.0124   -0.0098   -0.1463   -0.0040
          24    0.0001   -0.0056   -0.1398    0.0134   -0.0184   -0.0073    0.2106   -0.0048
          25   -0.0310   -0.0038    0.0006   -0.0532    0.0006    0.0218    0.0011    0.0907
          26    0.0103    0.0330   -0.0016    0.0107   -0.0692   -0.0218    0.0123   -0.0182
          27    0.0074    0.0220    0.0018    0.0079    0.1006   -0.0140   -0.0184   -0.0130
          28    0.0226    0.0334   -0.1150   -0.0428    0.0123   -0.0114   -0.0921    0.0874
          29   -0.0124   -0.0212    0.0626    0.0371   -0.0121   -0.0016    0.0750   -0.0606
          30    0.1634    0.0252    0.0491   -0.0579   -0.0137    0.0463    0.1282   -0.0398
          31    0.0870    0.0178    0.0770    0.0210    0.0002   -0.0290    0.0227   -0.0080
          32    0.0754    0.0407   -0.1578   -0.0935   -0.0055    0.0250    0.0090    0.0797
          33   -0.1204   -0.0232   -0.1211   -0.0362    0.0048    0.0521   -0.0649   -0.0002
          34    0.0872    0.0176   -0.0763    0.0204   -0.0005   -0.0292   -0.0225   -0.0068
          35   -0.0871   -0.0077    0.1677   -0.0651   -0.0016    0.0577    0.0575    0.0249
          36    0.1123    0.0458    0.1074   -0.0739    0.0083    0.0055   -0.0293    0.0750
          37    0.0222    0.0332    0.1167   -0.0422   -0.0108   -0.0114    0.0945    0.0859
          38    0.1490    0.0158   -0.0677   -0.0412    0.0165    0.0430   -0.1481   -0.0557
          39   -0.0681   -0.0284   -0.0430    0.0546    0.0056   -0.0175   -0.0268   -0.0430
          40   -0.0265    0.0837    0.0003   -0.0618   -0.0836   -0.0859   -0.0127   -0.0426
          41   -0.0094    0.0174    0.0017    0.0968    0.1761    0.0591    0.0255    0.0834
          42    0.0283   -0.1329   -0.0039    0.0240    0.0488    0.0791    0.0060    0.0273
          43    0.0009   -0.0487   -0.0125    0.0189    0.1181   -0.0891    0.0248    0.0549
          44    0.0036    0.0616    0.0165    0.0012   -0.1088    0.0972   -0.0289   -0.0530
          45   -0.0589    0.0827    0.0039   -0.0568   -0.0246    0.0871   -0.0031   -0.0049
          46   -0.0263    0.0823    0.0005   -0.0614    0.0843   -0.0848    0.0109   -0.0432
          47    0.0230   -0.1168    0.0025    0.0560   -0.1086    0.0933   -0.0123    0.0558
          48   -0.0185    0.0630   -0.0032    0.0817   -0.1471    0.0255   -0.0197    0.0706
          49    0.0010   -0.0484    0.0127    0.0189   -0.1158   -0.0902   -0.0233    0.0569
          50   -0.0537    0.0977   -0.0085   -0.0529    0.0590    0.1157    0.0123   -0.0243
          51    0.0238    0.0290   -0.0149    0.0210    0.0914    0.0615    0.0248   -0.0497


   Root No.      17        18        19        20        21        22        23        24

                17 A      18 A      19 A      20 A      21 A      22 A      23 A      24 A   

                1008.2    1012.3    1054.0    1086.4    1130.0    1157.3    1163.4    1174.6
  
           1   -0.0008    0.0204    0.0000    0.0001    0.0000    0.0015   -0.0001    0.0091
           2   -0.0098   -0.0216    0.0021   -0.0321    0.0216   -0.0246   -0.0231   -0.0159
           3    0.0159   -0.0147   -0.0029    0.0459   -0.0313   -0.0171    0.0331   -0.0097
           4   -0.0000   -0.0009    0.0000   -0.0000   -0.0000    0.0033    0.0000    0.0074
           5   -0.0394    0.0097    0.0037   -0.0068    0.0123    0.0187    0.0309   -0.0332
           6    0.0558    0.0084   -0.0056    0.0097   -0.0178    0.0133   -0.0436   -0.0245
           7   -0.0069    0.0048   -0.0004    0.0127    0.0404   -0.0119   -0.0198   -0.0111
           8    0.0176   -0.0108   -0.0020    0.0385    0.0053    0.0085    0.0241   -0.0022
           9   -0.0038    0.0193   -0.0000    0.0038    0.0147    0.0416    0.0123    0.0301
          10    0.0066    0.0052    0.0003   -0.0126   -0.0406   -0.0120    0.0198   -0.0119
          11   -0.0036    0.0143    0.0006   -0.0167   -0.0151    0.0427   -0.0198    0.0296
          12   -0.0164   -0.0174    0.0019   -0.0349    0.0000   -0.0062   -0.0182   -0.0124
          13   -0.0095   -0.0109    0.0006   -0.0099    0.0093   -0.0002    0.0223   -0.0070
          14    0.0521    0.0038    0.0245    0.0011   -0.0060   -0.0183   -0.0201    0.0347
          15   -0.0016   -0.0120   -0.0235   -0.0043    0.0006    0.0022   -0.0117   -0.0067
          16    0.0103   -0.0107   -0.0006    0.0098   -0.0093    0.0001   -0.0223   -0.0080
          17   -0.0160   -0.0106    0.0135    0.0036    0.0015   -0.0046    0.0178    0.0069
          18   -0.0500    0.0057   -0.0311   -0.0025    0.0058   -0.0181    0.0137    0.0356
          19    0.0004   -0.0070    0.0001    0.0000    0.0000    0.0057    0.0002   -0.0105
          20    0.0083    0.0047   -0.0492   -0.0029   -0.0010   -0.0055   -0.0114    0.0106
          21   -0.0120    0.0030    0.0707    0.0042    0.0015   -0.0039    0.0161    0.0080
          22   -0.0030    0.0714    0.0000    0.0000    0.0005    0.0951    0.0008   -0.0027
          23   -0.0107   -0.0383   -0.0057    0.0482   -0.1014   -0.0538    0.0409   -0.0101
          24    0.0186   -0.0258    0.0084   -0.0695    0.1453   -0.0382   -0.0595   -0.0113
          25   -0.0003   -0.0074    0.0004   -0.0006   -0.0003   -0.0913   -0.0024    0.1797
          26   -0.1411    0.0104   -0.0585    0.0825   -0.0594    0.0481   -0.1092   -0.0888
          27    0.2025    0.0130    0.0840   -0.1187    0.0859    0.0316    0.1602   -0.0565
          28   -0.0157   -0.0564    0.0014   -0.0435   -0.0305    0.0345    0.0215    0.0325
          29    0.0218    0.0260   -0.0029    0.0674    0.0435   -0.0197   -0.0017   -0.0293
          30   -0.0043    0.1046    0.0053   -0.0907   -0.0822   -0.0639   -0.0623   -0.0296
          31   -0.0272   -0.0418    0.0035   -0.0532   -0.0170    0.0632    0.0284    0.0274
          32    0.0195   -0.0003   -0.0006   -0.0308   -0.1058   -0.0607    0.0036   -0.0397
          33    0.0275    0.0931   -0.0056    0.0884    0.0775   -0.0872   -0.0648   -0.0361
          34    0.0309   -0.0412   -0.0034    0.0532    0.0179    0.0641   -0.0280    0.0316
          35   -0.0403    0.0870    0.0053   -0.0721   -0.0373   -0.1046    0.0591   -0.0549
          36   -0.0067   -0.0330   -0.0009    0.0592    0.1257   -0.0276   -0.0255   -0.0254
          37    0.0196   -0.0552   -0.0008    0.0426    0.0306    0.0349   -0.0215    0.0360
          38   -0.0117    0.1059   -0.0046    0.0633    0.0617   -0.0690    0.0586   -0.0456
          39   -0.0206   -0.0127    0.0044   -0.0948   -0.0693    0.0048   -0.0197   -0.0164
          40   -0.0116   -0.0040    0.1179    0.0059   -0.0067   -0.0322   -0.0331    0.0510
          41   -0.0155    0.0555   -0.0736    0.0162   -0.0097    0.0175    0.0166   -0.0052
          42    0.0036   -0.0193   -0.1225   -0.0186    0.0148    0.0306    0.0365   -0.0590
          43   -0.0908    0.0616    0.0738    0.0244   -0.0127    0.0127   -0.0275   -0.0138
          44    0.1220   -0.0625   -0.0639   -0.0311    0.0160   -0.0216    0.0345    0.0270
          45    0.0182   -0.0387   -0.1278   -0.0176    0.0146    0.0373    0.0375   -0.0716
          46    0.0131   -0.0041   -0.1185   -0.0056    0.0066   -0.0327    0.0316    0.0528
          47    0.0005    0.0023    0.1410    0.0114   -0.0104    0.0354   -0.0383   -0.0592
          48    0.0105    0.0605    0.0260   -0.0218    0.0143    0.0058   -0.0026    0.0150
          49    0.0845    0.0657   -0.0741   -0.0246    0.0127    0.0124    0.0281   -0.0126
          50   -0.0538   -0.0604    0.1426    0.0273   -0.0192    0.0279   -0.0457   -0.0598
          51   -0.1034   -0.0499    0.0152    0.0232   -0.0100   -0.0331   -0.0208    0.0497


   Root No.      25        26        27        28        29        30        31        32

                25 A      26 A      27 A      28 A      29 A      30 A      31 A      32 A   

                1176.9    1203.3    1241.7    1278.4    1334.9    1339.6    1350.4    1399.9
  
           1    0.0001   -0.0348   -0.0406   -0.0000   -0.0098   -0.0024   -0.0000   -0.0219
           2    0.0104   -0.0233   -0.0036    0.0111   -0.0225   -0.0020    0.0014    0.0066
           3   -0.0165   -0.0160   -0.0024   -0.0161   -0.0156   -0.0013   -0.0021    0.0046
           4    0.0003    0.0237   -0.0355    0.0001    0.0478   -0.0039   -0.0000    0.0090
           5   -0.0150    0.0364    0.0070   -0.0280   -0.0128    0.0038   -0.0036    0.0045
           6    0.0198    0.0251    0.0048    0.0406   -0.0089    0.0024    0.0053    0.0031
           7   -0.0198    0.0065    0.0126   -0.0003   -0.0017    0.0005   -0.0002    0.0014
           8    0.0181    0.0025    0.0149   -0.0039    0.0204    0.0020   -0.0007    0.0052
           9    0.0339    0.0013   -0.0130    0.0020   -0.0141   -0.0014   -0.0001   -0.0049
          10    0.0190    0.0064    0.0125    0.0003   -0.0018    0.0004    0.0002    0.0017
          11   -0.0360    0.0023   -0.0068   -0.0005   -0.0060   -0.0007    0.0004   -0.0028
          12   -0.0058    0.0018    0.0185    0.0043    0.0240    0.0023    0.0007    0.0058
          13   -0.0109   -0.0018    0.0103    0.0290   -0.0133    0.0334    0.0013   -0.0112
          14    0.0109   -0.0117   -0.0002   -0.0150    0.0050   -0.0349    0.0189   -0.0124
          15    0.0064   -0.0007    0.0024   -0.0538    0.0074   -0.0276   -0.0303    0.0395
          16    0.0104   -0.0018    0.0102   -0.0291   -0.0133    0.0335   -0.0003   -0.0112
          17   -0.0095   -0.0048    0.0024    0.0555    0.0086   -0.0390    0.0205    0.0326
          18   -0.0060   -0.0107   -0.0010   -0.0050    0.0021   -0.0219   -0.0290   -0.0255
          19   -0.0003    0.0044    0.0045    0.0001    0.0016   -0.0398   -0.0006    0.0209
          20    0.0063   -0.0044   -0.0065   -0.0332   -0.0006    0.0436   -0.0064   -0.0225
          21   -0.0085   -0.0031   -0.0044    0.0481   -0.0004    0.0299    0.0108   -0.0156
          22    0.0005   -0.2138    0.2602   -0.0005    0.0335    0.0132    0.0003    0.0266
          23   -0.0474    0.0351   -0.1038   -0.0218   -0.0373   -0.0080    0.0009   -0.0093
          24    0.0664    0.0241   -0.0727    0.0316   -0.0261   -0.0055   -0.0016   -0.0065
          25    0.0064    0.2173    0.1743   -0.0000   -0.0514    0.0195    0.0002   -0.0088
          26    0.0408   -0.0220   -0.0594    0.0848    0.0173   -0.0058    0.0176    0.0106
          27   -0.0647   -0.0148   -0.0410   -0.1221    0.0121   -0.0030   -0.0255    0.0073
          28    0.0641   -0.0375   -0.0493    0.0075   -0.0934   -0.0075    0.0006    0.0535
          29   -0.0330    0.0260    0.0516   -0.0081    0.0788    0.0069   -0.0010   -0.0291
          30   -0.1270    0.0062    0.0216   -0.0020   -0.0683   -0.0032    0.0006    0.0537
          31    0.0715    0.0134    0.0061    0.0038    0.0208    0.0015   -0.0001   -0.0187
          32   -0.0412   -0.0406   -0.0143   -0.0027    0.1096    0.0058    0.0007   -0.0859
          33   -0.1172   -0.0207   -0.0094   -0.0043   -0.0416   -0.0029   -0.0001    0.0151
          34   -0.0688    0.0140    0.0064   -0.0037    0.0210    0.0014    0.0002   -0.0170
          35    0.1199   -0.0343   -0.0143    0.0049   -0.0010   -0.0007   -0.0001   -0.0146
          36   -0.0032   -0.0304   -0.0098    0.0011    0.1177    0.0063   -0.0002   -0.0799
          37   -0.0619   -0.0368   -0.0488   -0.0076   -0.0932   -0.0072   -0.0010    0.0487
          38    0.1272    0.0138    0.0373    0.0044   -0.0372   -0.0005   -0.0004    0.0379
          39   -0.0138    0.0221    0.0409    0.0070    0.0978    0.0074    0.0016   -0.0424
          40    0.0165   -0.0316   -0.0087   -0.0607    0.0232   -0.0036   -0.0980    0.0739
          41   -0.0111    0.0388   -0.0460    0.1162    0.0416    0.1861   -0.1720    0.0771
          42   -0.0172    0.0275    0.0220    0.0213   -0.0279   -0.0118    0.0791   -0.0458
          43    0.0126    0.0381   -0.0106   -0.0821    0.0020   -0.1362    0.1185   -0.0488
          44   -0.0151   -0.0363    0.0221    0.0942   -0.0177    0.1087   -0.0483   -0.0060
          45   -0.0176    0.0309    0.0310    0.0132   -0.0447   -0.0714    0.1744   -0.1020
          46   -0.0141   -0.0316   -0.0084    0.0610    0.0231   -0.0076    0.0977    0.0739
          47    0.0173    0.0395    0.0041   -0.0609   -0.0114    0.0550   -0.0120   -0.0157
          48    0.0055    0.0273   -0.0512   -0.1003    0.0487    0.1712    0.1942    0.0886
          49   -0.0130    0.0382   -0.0104    0.0816    0.0020   -0.1320   -0.1230   -0.0490
          50    0.0186    0.0160    0.0366   -0.0454   -0.0479   -0.0229   -0.1470   -0.0976
          51    0.0104   -0.0450    0.0097   -0.0835   -0.0009    0.1233    0.1106    0.0304


   Root No.      33        34        35        36        37        38        39        40

                33 A      34 A      35 A      36 A      37 A      38 A      39 A      40 A   

                1401.8    1442.1    1604.8    2957.7    2999.4    3023.8    3025.8    3083.3
  
           1    0.0005   -0.0340    0.1158    0.0019   -0.0217    0.0000    0.0002    0.0000
           2   -0.0018   -0.0012   -0.0728    0.0039   -0.0465    0.0001   -0.0004   -0.0000
           3    0.0023   -0.0009   -0.0507    0.0027   -0.0323   -0.0002   -0.0003    0.0000
           4   -0.0002    0.0557   -0.0593   -0.0205   -0.0020   -0.0000   -0.0015    0.0000
           5    0.0002   -0.0174    0.0149   -0.0452   -0.0042    0.0000   -0.0030   -0.0001
           6   -0.0004   -0.0121    0.0103   -0.0313   -0.0029   -0.0001   -0.0021    0.0002
           7   -0.0104   -0.0033   -0.0326   -0.0004    0.0028    0.0000   -0.0000   -0.0249
           8    0.0271    0.0246    0.0847   -0.0003    0.0020    0.0000    0.0000   -0.0157
           9   -0.0135   -0.0182   -0.0490    0.0001    0.0005    0.0000   -0.0000   -0.0093
          10    0.0103   -0.0033   -0.0326   -0.0004    0.0028   -0.0000   -0.0000    0.0249
          11    0.0034   -0.0085   -0.0164   -0.0000    0.0012   -0.0000    0.0000    0.0142
          12   -0.0304    0.0294    0.0965   -0.0003    0.0017   -0.0000    0.0000    0.0114
          13    0.0001   -0.0017    0.0017    0.0043    0.0005    0.0236   -0.0236    0.0000
          14    0.0001    0.0113   -0.0030    0.0017    0.0002    0.0150   -0.0151    0.0001
          15   -0.0008   -0.0241    0.0057    0.0015    0.0004    0.0091   -0.0091   -0.0001
          16    0.0004   -0.0017    0.0017    0.0043    0.0005   -0.0246   -0.0226   -0.0000
          17   -0.0007   -0.0185    0.0043    0.0020    0.0005   -0.0144   -0.0132    0.0000
          18    0.0007    0.0190   -0.0048    0.0011    0.0001   -0.0114   -0.0105   -0.0001
          19   -0.0005   -0.0161    0.0058   -0.0006   -0.0001   -0.0000   -0.0008   -0.0000
          20    0.0005    0.0185   -0.0071    0.0006    0.0001    0.0001   -0.0004    0.0000
          21    0.0003    0.0128   -0.0049    0.0004    0.0001   -0.0001   -0.0003   -0.0000
          22   -0.0006    0.0392   -0.0866   -0.0199    0.2723    0.0001    0.0020   -0.0000
          23    0.0037   -0.0251   -0.0101   -0.0490    0.5564    0.0004    0.0020    0.0015
          24   -0.0049   -0.0174   -0.0070   -0.0341    0.3869   -0.0004    0.0014   -0.0022
          25    0.0001   -0.0638    0.0596    0.2478    0.0259    0.0003    0.0135   -0.0000
          26    0.0019    0.0193   -0.0217    0.5460    0.0478   -0.0010    0.0360   -0.0003
          27   -0.0032    0.0133   -0.0151    0.3785    0.0332    0.0032    0.0249    0.0004
          28    0.1678    0.0747    0.0874    0.0013   -0.0153   -0.0002    0.0001    0.1237
          29   -0.0871   -0.0264    0.0130    0.0040   -0.0195   -0.0004    0.0003    0.2180
          30    0.1264    0.0706    0.0361   -0.0005    0.0016   -0.0000    0.0000   -0.0033
          31   -0.0606   -0.0341   -0.0713   -0.0002   -0.0227   -0.0003   -0.0001    0.1784
          32   -0.2127   -0.1147   -0.0436    0.0002    0.0012    0.0001    0.0000   -0.0271
          33    0.0356    0.0107   -0.0087    0.0002   -0.0172   -0.0002   -0.0000    0.1166
          34    0.0612   -0.0341   -0.0713   -0.0001   -0.0227    0.0003   -0.0002   -0.1784
          35    0.0415   -0.0298   -0.0234    0.0003   -0.0157    0.0001   -0.0001   -0.0999
          36    0.2154   -0.1112   -0.0379    0.0001    0.0070   -0.0001    0.0001    0.0660
          37   -0.1696    0.0745    0.0874    0.0013   -0.0154    0.0002    0.0000   -0.1234
          38   -0.0903    0.0572    0.0384    0.0009   -0.0054    0.0001    0.0001   -0.0725
          39    0.1273   -0.0492   -0.0003    0.0039   -0.0190    0.0004    0.0002   -0.2051
          40   -0.0016   -0.0379    0.0064   -0.0217   -0.0053   -0.1337    0.1329    0.0005
          41   -0.0015   -0.0146   -0.0090   -0.0038   -0.0004    0.0013   -0.0013    0.0000
          42    0.0009    0.0129   -0.0002   -0.0275   -0.0063   -0.1614    0.1602    0.0005
          43    0.0011    0.0364   -0.0122   -0.0252   -0.0034   -0.1548    0.1533   -0.0009
          44   -0.0002   -0.0095    0.0064   -0.0256   -0.0018   -0.1861    0.1845   -0.0010
          45    0.0021    0.0393   -0.0028    0.0070    0.0001    0.0508   -0.0503    0.0002
          46   -0.0017   -0.0379    0.0064   -0.0216   -0.0055    0.1393    0.1271   -0.0005
          47    0.0005    0.0069   -0.0034   -0.0270   -0.0062    0.1572    0.1432   -0.0005
          48   -0.0020   -0.0182   -0.0084    0.0061    0.0019   -0.0604   -0.0551    0.0002
          49    0.0009    0.0365   -0.0123   -0.0251   -0.0035    0.1617    0.1469    0.0009
          50    0.0023    0.0333   -0.0004   -0.0025   -0.0005    0.0186    0.0170    0.0001
          51   -0.0003   -0.0228    0.0070   -0.0264   -0.0018    0.2006    0.1825    0.0010


   Root No.      41        42        43        44        45

                41 A      42 A      43 A      44 A      45 A   

                3097.2    3097.5    3101.6    3134.1    3135.1
  
           1   -0.0000   -0.0014   -0.0001   -0.0000    0.0003
           2   -0.0000   -0.0021   -0.0003    0.0002   -0.0009
           3   -0.0000   -0.0015   -0.0002   -0.0004   -0.0006
           4    0.0000    0.0003   -0.0003   -0.0000   -0.0000
           5    0.0005   -0.0002    0.0000   -0.0000   -0.0002
           6   -0.0007   -0.0001    0.0000    0.0001   -0.0002
           7   -0.0002   -0.0236   -0.0005   -0.0080   -0.0089
           8   -0.0002   -0.0155   -0.0002    0.0170    0.0171
           9   -0.0001   -0.0087   -0.0002   -0.0113   -0.0116
          10   -0.0005   -0.0237   -0.0005    0.0078   -0.0089
          11   -0.0003   -0.0135   -0.0003    0.0047   -0.0049
          12   -0.0002   -0.0115   -0.0001   -0.0196    0.0203
          13   -0.0023    0.0001   -0.0022    0.0000    0.0000
          14    0.0117   -0.0004    0.0121    0.0000   -0.0001
          15   -0.0174    0.0006   -0.0181   -0.0000    0.0001
          16    0.0023    0.0000   -0.0022   -0.0000    0.0000
          17    0.0121    0.0001   -0.0129    0.0000    0.0001
          18   -0.0168   -0.0001    0.0179   -0.0000   -0.0001
          19    0.0000   -0.0000   -0.0001    0.0000   -0.0000
          20    0.0006   -0.0000    0.0000   -0.0000    0.0000
          21   -0.0008    0.0000    0.0000    0.0000    0.0000
          22    0.0001    0.0095    0.0011    0.0000    0.0018
          23    0.0005    0.0254    0.0030    0.0001    0.0033
          24   -0.0000    0.0177    0.0021    0.0001    0.0023
          25    0.0000    0.0010    0.0011    0.0000    0.0007
          26    0.0004   -0.0006    0.0027    0.0002    0.0022
          27   -0.0006   -0.0004    0.0018   -0.0003    0.0015
          28    0.0013    0.1203    0.0017   -0.1191   -0.1133
          29    0.0023    0.2126    0.0031   -0.1880   -0.1777
          30   -0.0001   -0.0065   -0.0002   -0.0030   -0.0038
          31    0.0015    0.1627    0.0042    0.2165    0.2160
          32   -0.0003   -0.0270   -0.0006   -0.0183   -0.0182
          33    0.0011    0.1102    0.0027    0.1383    0.1378
          34    0.0033    0.1630    0.0042   -0.2139    0.2184
          35    0.0019    0.0941    0.0023   -0.1217    0.1241
          36   -0.0013   -0.0637   -0.0015    0.0644   -0.0657
          37    0.0022    0.1204    0.0016    0.1178   -0.1149
          38    0.0012    0.0679    0.0009    0.0674   -0.0662
          39    0.0036    0.2018    0.0029    0.1733   -0.1675
          40    0.1730   -0.0056    0.1687    0.0001   -0.0009
          41    0.0142   -0.0004    0.0138    0.0000   -0.0001
          42    0.1872   -0.0060    0.1824    0.0002   -0.0010
          43   -0.1445    0.0044   -0.1413   -0.0001    0.0007
          44   -0.1606    0.0050   -0.1571   -0.0001    0.0009
          45    0.0295   -0.0009    0.0288    0.0000   -0.0002
          46   -0.1710   -0.0009    0.1708   -0.0001   -0.0009
          47   -0.1784   -0.0009    0.1779   -0.0001   -0.0009
          48    0.0519    0.0003   -0.0519    0.0000    0.0002
          49    0.1428    0.0005   -0.1429    0.0001    0.0007
          50    0.0284    0.0001   -0.0285    0.0000    0.0002
          51    0.1587    0.0007   -0.1590    0.0001    0.0009


           MASS-WEIGHTED COORDINATE ANALYSIS (NORMAL COORDINATES)


   Root No.       1         2         3         4         5         6         7         8

                 1 A       2 A       3 A       4 A       5 A       6 A       7 A       8 A   

                  50.7     175.3     206.2     338.2     400.4     451.1     679.5     756.7
  
           1   -0.0005   -0.2069    0.0015    0.2935   -0.1944   -0.0016    0.0007    0.2177
           2   -0.1754   -0.0267    0.0684    0.3250    0.1254   -0.2425   -0.0138    0.1535
           3    0.2534   -0.0225   -0.0986    0.2266    0.0863    0.3463    0.0204    0.1059
           4   -0.0006   -0.2134    0.0015    0.3011   -0.1174   -0.0016   -0.0001   -0.0929
           5   -0.1605   -0.2058    0.1086    0.1087   -0.2103    0.1715    0.0199   -0.2775
           6    0.2294   -0.1457   -0.1532    0.0730   -0.1458   -0.2495   -0.0300   -0.1933
           7    0.0056    0.0515   -0.3578   -0.2714   -0.2726    0.2658    0.0225    0.0936
           8   -0.1719    0.1286   -0.1439    0.0136    0.1581   -0.1635   -0.0342   -0.0120
           9   -0.3371    0.0929    0.0091    0.0160    0.1335    0.0333    0.0054   -0.0532
          10   -0.0060    0.0558    0.3583   -0.2728   -0.2705   -0.2640   -0.0219    0.0948
          11    0.3773    0.1277    0.0399    0.0182    0.1807    0.0268    0.0066   -0.0541
          12    0.0447    0.0883    0.1370    0.0082    0.1018    0.1653    0.0338    0.0077
          13    0.0454   -0.0868   -0.3438   -0.0313    0.3171   -0.2228   -0.3040   -0.2188
          14   -0.2391   -0.1281   -0.0435   -0.1478   -0.0528    0.2030   -0.1176   -0.1479
          15   -0.1596   -0.0910   -0.0591   -0.1182   -0.0797   -0.0886   -0.1260    0.1187
          16   -0.0471   -0.0833    0.3433   -0.0302    0.3189    0.2238    0.3042   -0.2187
          17    0.2310   -0.1327    0.0722   -0.1640   -0.0921    0.0126    0.1615    0.0587
          18    0.1661   -0.0887    0.0208   -0.0993   -0.0210   -0.2202    0.0641   -0.1797
          19    0.0043    0.5949   -0.0033    0.1686    0.1397    0.0003   -0.0015    0.0117
          20    0.1433    0.2859   -0.0775   -0.0357   -0.2073   -0.0308   -0.0033    0.2221
          21   -0.2027    0.2004    0.1092   -0.0241   -0.1435    0.0449    0.0059    0.1540
          22   -0.0003   -0.1183    0.0009    0.1329   -0.1026   -0.0009    0.0001    0.0178
          23   -0.1246    0.0138   -0.0154    0.0720    0.0526   -0.1260   -0.0227    0.0545
          24    0.1797    0.0077    0.0217    0.0503    0.0363    0.1809    0.0328    0.0381
          25    0.0001   -0.0445    0.0003    0.1803   -0.0487   -0.0010    0.0003    0.0602
          26   -0.0893   -0.0622    0.0142   -0.0011   -0.0539    0.0904   -0.0450   -0.1030
          27    0.1281   -0.0444   -0.0195   -0.0023   -0.0371   -0.1306    0.0644   -0.0715
          28    0.0033    0.0709   -0.1937   -0.2172   -0.0982    0.1793    0.0243   -0.0991
          29   -0.0520    0.0042    0.0095    0.0848    0.0568   -0.1046   -0.0199    0.0726
          30   -0.2189    0.0029   -0.1039    0.0726    0.0536    0.0193   -0.0028    0.1478
          31    0.0031   -0.0046   -0.1831   -0.0313   -0.0781    0.1408    0.0115    0.1471
          32   -0.1259    0.0934   -0.1559   -0.1290    0.0389    0.0294    0.0024   -0.1131
          33   -0.1139    0.0674    0.1020   -0.0949    0.0342   -0.0700   -0.0030   -0.2181
          34   -0.0033   -0.0023    0.1833   -0.0321   -0.0770   -0.1404   -0.0109    0.1480
          35    0.1509    0.0933   -0.0423   -0.1346    0.0453    0.0565    0.0011   -0.2459
          36    0.0785    0.0650    0.1810   -0.0890    0.0252   -0.0509   -0.0033   -0.0314
          37   -0.0037    0.0736    0.1935   -0.2194   -0.0974   -0.1784   -0.0250   -0.1017
          38    0.2238    0.0022    0.0935    0.0972    0.0708    0.0189    0.0107    0.1653
          39   -0.0269    0.0022   -0.0451    0.0557    0.0343    0.1046    0.0177    0.0182
          40    0.0208   -0.1708   -0.1732   -0.0833    0.1883   -0.1502    0.2378    0.0340
          41   -0.1286   -0.0573   -0.0783   -0.1840    0.1395    0.0105    0.1608    0.1931
          42   -0.0517    0.0997    0.0475    0.0301   -0.1055    0.0470   -0.3056   -0.0425
          43    0.0225   -0.0110   -0.1672   -0.0962    0.1993   -0.1337   -0.0138    0.0744
          44   -0.0918   -0.0962    0.0227   -0.0080   -0.0614    0.0943    0.0394   -0.0879
          45   -0.1047   -0.2117   -0.0984   -0.1762    0.1308   -0.0947    0.4359    0.2823
          46   -0.0230   -0.1692    0.1744   -0.0825    0.1887    0.1505   -0.2398    0.0356
          47    0.0939    0.0720   -0.0177   -0.0371   -0.0496   -0.0470    0.2317    0.0262
          48    0.1004   -0.0885    0.0900   -0.1826    0.1671    0.0079   -0.2588    0.1948
          49   -0.0233   -0.0091    0.1661   -0.0948    0.1991    0.1343    0.0155    0.0723
          50    0.1271   -0.2324    0.0864   -0.1677    0.1007    0.0562   -0.4251    0.2355
          51    0.0492   -0.0167   -0.0550    0.0528   -0.1026   -0.1216    0.1146   -0.1798


   Root No.       9        10        11        12        13        14        15        16

                 9 A      10 A      11 A      12 A      13 A      14 A      15 A      16 A   

                 827.0     861.5     874.4     894.7     949.7     959.5     963.4    1001.0
  
           1   -0.0802   -0.0554    0.0005    0.0398    0.0000    0.0852    0.0012    0.0702
           2   -0.0536   -0.0067   -0.0047    0.1424    0.0282   -0.1134   -0.0909    0.1903
           3   -0.0382   -0.0047    0.0093    0.0987   -0.0397   -0.0798    0.1372    0.1329
           4   -0.0632   -0.0150    0.0011   -0.2331    0.0002    0.2006    0.0005    0.0786
           5    0.0254    0.2538   -0.0340    0.0022   -0.0587   -0.2009    0.0232    0.0621
           6    0.0184    0.1737    0.0479    0.0031    0.0937   -0.1381   -0.0337    0.0446
           7   -0.0418   -0.0112    0.1419    0.1627    0.0232   -0.0594   -0.1213   -0.1502
           8   -0.0308   -0.0233   -0.0968    0.0449   -0.0529   -0.0459    0.2349   -0.0367
           9   -0.0242   -0.0398    0.0373   -0.0821    0.0092    0.1048   -0.0419   -0.1189
          10   -0.0401   -0.0113   -0.1452    0.1612   -0.0250   -0.0601    0.1179   -0.1538
          11   -0.0323   -0.0456   -0.0016   -0.0614    0.0084    0.0828   -0.0454   -0.1230
          12   -0.0202   -0.0081    0.1034    0.0725    0.0522   -0.0780   -0.2338    0.0091
          13    0.1040   -0.2105   -0.0237   -0.0350   -0.1485   -0.0481   -0.0314   -0.0760
          14    0.1066    0.0509    0.0590    0.2635    0.0645    0.0801   -0.0372   -0.0157
          15   -0.0196   -0.3157   -0.0131   -0.2070   -0.0721    0.0790   -0.0113   -0.0347
          16    0.1026   -0.2087    0.0228   -0.0343    0.1466   -0.0460    0.0300   -0.0779
          17    0.0191   -0.2777   -0.0078   -0.1012    0.0405    0.1026    0.0234   -0.0397
          18    0.1068    0.1612   -0.0638    0.3181   -0.0862    0.0469    0.0315   -0.0038
          19   -0.0685    0.3895   -0.0001    0.0903   -0.0005    0.2346   -0.0001   -0.0115
          20   -0.1126   -0.0252    0.0076   -0.2681    0.0001   -0.2499   -0.0075   -0.0629
          21   -0.0781   -0.0179   -0.0071   -0.1862    0.0029   -0.1744    0.0075   -0.0451
          22   -0.0726    0.0416    0.0005   -0.0421    0.0023    0.0038    0.0027    0.2427
          23    0.0007   -0.0208    0.2337    0.0574    0.0308   -0.0254   -0.3524   -0.0124
          24    0.0004   -0.0127   -0.3356    0.0353   -0.0456   -0.0190    0.5071   -0.0150
          25   -0.0847   -0.0088    0.0015   -0.1405    0.0014    0.0567    0.0027    0.2848
          26    0.0281    0.0754   -0.0037    0.0283   -0.1717   -0.0565    0.0296   -0.0571
          27    0.0203    0.0504    0.0042    0.0208    0.2495   -0.0364   -0.0442   -0.0409
          28    0.0616    0.0763   -0.2761   -0.1132    0.0306   -0.0296   -0.2218    0.2744
          29   -0.0339   -0.0484    0.1502    0.0981   -0.0299   -0.0041    0.1805   -0.1903
          30    0.4460    0.0576    0.1179   -0.1530   -0.0341    0.1204    0.3086   -0.1251
          31    0.2373    0.0406    0.1849    0.0554    0.0006   -0.0754    0.0546   -0.0253
          32    0.2058    0.0930   -0.3787   -0.2470   -0.0137    0.0649    0.0216    0.2504
          33   -0.3286   -0.0529   -0.2907   -0.0956    0.0120    0.1352   -0.1564   -0.0006
          34    0.2380    0.0403   -0.1832    0.0539   -0.0013   -0.0757   -0.0541   -0.0212
          35   -0.2376   -0.0175    0.4024   -0.1719   -0.0039    0.1499    0.1384    0.0781
          36    0.3064    0.1047    0.2578   -0.1951    0.0206    0.0144   -0.0705    0.2357
          37    0.0606    0.0760    0.2801   -0.1115   -0.0268   -0.0297    0.2276    0.2696
          38    0.4064    0.0362   -0.1624   -0.1087    0.0409    0.1118   -0.3565   -0.1750
          39   -0.1857   -0.0650   -0.1032    0.1444    0.0138   -0.0454   -0.0644   -0.1350
          40   -0.0724    0.1914    0.0006   -0.1633   -0.2074   -0.2231   -0.0307   -0.1338
          41   -0.0256    0.0399    0.0040    0.2558    0.4367    0.1536    0.0614    0.2620
          42    0.0773   -0.3038   -0.0094    0.0634    0.1209    0.2054    0.0144    0.0856
          43    0.0024   -0.1113   -0.0301    0.0500    0.2928   -0.2315    0.0597    0.1725
          44    0.0098    0.1409    0.0396    0.0031   -0.2699    0.2525   -0.0697   -0.1664
          45   -0.1608    0.1890    0.0093   -0.1502   -0.0611    0.2263   -0.0075   -0.0154
          46   -0.0718    0.1880    0.0012   -0.1623    0.2092   -0.2205    0.0261   -0.1355
          47    0.0627   -0.2669    0.0061    0.1479   -0.2693    0.2423   -0.0296    0.1751
          48   -0.0503    0.1440   -0.0076    0.2158   -0.3649    0.0661   -0.0474    0.2216
          49    0.0028   -0.1105    0.0304    0.0498   -0.2873   -0.2345   -0.0561    0.1788
          50   -0.1465    0.2232   -0.0204   -0.1397    0.1463    0.3006    0.0297   -0.0762
          51    0.0650    0.0663   -0.0356    0.0556    0.2267    0.1597    0.0596   -0.1560


   Root No.      17        18        19        20        21        22        23        24

                17 A      18 A      19 A      20 A      21 A      22 A      23 A      24 A   

                1008.2    1012.3    1054.0    1086.4    1130.0    1157.3    1163.4    1174.6
  
           1   -0.0057    0.2041    0.0000    0.0008    0.0004    0.0135   -0.0004    0.0759
           2   -0.0676   -0.2157    0.0146   -0.2710    0.1812   -0.2197   -0.1867   -0.1324
           3    0.1096   -0.1469   -0.0199    0.3875   -0.2632   -0.1529    0.2675   -0.0813
           4   -0.0003   -0.0089    0.0003   -0.0000   -0.0001    0.0295    0.0001    0.0620
           5   -0.2717    0.0973    0.0258   -0.0570    0.1035    0.1664    0.2501   -0.2771
           6    0.3846    0.0837   -0.0385    0.0819   -0.1491    0.1184   -0.3522   -0.2049
           7   -0.0475    0.0483   -0.0028    0.1072    0.3397   -0.1065   -0.1602   -0.0930
           8    0.1212   -0.1078   -0.0136    0.3247    0.0443    0.0758    0.1951   -0.0180
           9   -0.0265    0.1931   -0.0001    0.0317    0.1233    0.3710    0.0995    0.2511
          10    0.0454    0.0520    0.0020   -0.1065   -0.3407   -0.1072    0.1600   -0.0996
          11   -0.0246    0.1426    0.0043   -0.1412   -0.1265    0.3806   -0.1603    0.2472
          12   -0.1129   -0.1740    0.0130   -0.2945    0.0003   -0.0552   -0.1471   -0.1039
          13   -0.0658   -0.1091    0.0040   -0.0833    0.0783   -0.0014    0.1805   -0.0581
          14    0.3593    0.0377    0.1697    0.0091   -0.0503   -0.1633   -0.1622    0.2901
          15   -0.0113   -0.1197   -0.1632   -0.0362    0.0049    0.0194   -0.0947   -0.0560
          16    0.0712   -0.1068   -0.0045    0.0829   -0.0783    0.0008   -0.1800   -0.0670
          17   -0.1105   -0.1060    0.0937    0.0306    0.0129   -0.0409    0.1437    0.0578
          18   -0.3448    0.0572   -0.2154   -0.0207    0.0483   -0.1611    0.1108    0.2975
          19    0.0029   -0.0701    0.0008    0.0000    0.0000    0.0509    0.0014   -0.0877
          20    0.0570    0.0465   -0.3406   -0.0242   -0.0087   -0.0489   -0.0921    0.0885
          21   -0.0830    0.0296    0.4900    0.0351    0.0124   -0.0349    0.1305    0.0666
          22   -0.0059    0.2067    0.0000    0.0001    0.0011    0.2457    0.0019   -0.0065
          23   -0.0214   -0.1110   -0.0115    0.1178   -0.2468   -0.1389    0.0958   -0.0244
          24    0.0373   -0.0748    0.0169   -0.1700    0.3535   -0.0987   -0.1394   -0.0274
          25   -0.0005   -0.0215    0.0007   -0.0014   -0.0008   -0.2359   -0.0055    0.4345
          26   -0.2818    0.0300   -0.1173    0.2017   -0.1445    0.1243   -0.2558   -0.2148
          27    0.4046    0.0375    0.1685   -0.2902    0.2090    0.0817    0.3752   -0.1367
          28   -0.0313   -0.1634    0.0029   -0.1063   -0.0741    0.0892    0.0503    0.0786
          29    0.0436    0.0752   -0.0059    0.1648    0.1058   -0.0508   -0.0040   -0.0710
          30   -0.0087    0.3030    0.0107   -0.2217   -0.2001   -0.1652   -0.1458   -0.0717
          31   -0.0544   -0.1210    0.0070   -0.1302   -0.0415    0.1634    0.0664    0.0663
          32    0.0390   -0.0009   -0.0012   -0.0754   -0.2574   -0.1569    0.0085   -0.0960
          33    0.0550    0.2698   -0.0112    0.2161    0.1887   -0.2252   -0.1517   -0.0874
          34    0.0617   -0.1194   -0.0068    0.1301    0.0435    0.1656   -0.0655    0.0765
          35   -0.0805    0.2520    0.0106   -0.1762   -0.0909   -0.2703    0.1383   -0.1329
          36   -0.0133   -0.0956   -0.0017    0.1448    0.3059   -0.0713   -0.0597   -0.0615
          37    0.0391   -0.1599   -0.0016    0.1042    0.0744    0.0902   -0.0503    0.0871
          38   -0.0233    0.3066   -0.0092    0.1547    0.1501   -0.1782    0.1373   -0.1102
          39   -0.0413   -0.0368    0.0089   -0.2319   -0.1687    0.0124   -0.0462   -0.0396
          40   -0.0231   -0.0115    0.2366    0.0143   -0.0162   -0.0831   -0.0775    0.1233
          41   -0.0309    0.1606   -0.1477    0.0395   -0.0237    0.0453    0.0389   -0.0125
          42    0.0072   -0.0559   -0.2459   -0.0454    0.0360    0.0790    0.0854   -0.1426
          43   -0.1813    0.1784    0.1481    0.0597   -0.0309    0.0328   -0.0645   -0.0334
          44    0.2437   -0.1810   -0.1283   -0.0760    0.0390   -0.0558    0.0808    0.0652
          45    0.0364   -0.1121   -0.2566   -0.0430    0.0355    0.0963    0.0878   -0.1732
          46    0.0262   -0.0119   -0.2378   -0.0138    0.0160   -0.0845    0.0741    0.1277
          47    0.0010    0.0068    0.2831    0.0278   -0.0252    0.0915   -0.0898   -0.1432
          48    0.0209    0.1753    0.0523   -0.0533    0.0349    0.0150   -0.0061    0.0363
          49    0.1688    0.1904   -0.1487   -0.0602    0.0310    0.0320    0.0658   -0.0305
          50   -0.1076   -0.1749    0.2863    0.0667   -0.0467    0.0721   -0.1071   -0.1446
          51   -0.2066   -0.1444    0.0305    0.0566   -0.0244   -0.0855   -0.0486    0.1201


   Root No.      25        26        27        28        29        30        31        32

                25 A      26 A      27 A      28 A      29 A      30 A      31 A      32 A   

                1176.9    1203.3    1241.7    1278.4    1334.9    1339.6    1350.4    1399.9
  
           1    0.0005   -0.2851   -0.3202   -0.0001   -0.0889   -0.0164   -0.0001   -0.1963
           2    0.0907   -0.1912   -0.0282    0.0755   -0.2035   -0.0137    0.0102    0.0591
           3   -0.1432   -0.1314   -0.0190   -0.1091   -0.1413   -0.0090   -0.0154    0.0413
           4    0.0026    0.1943   -0.2798    0.0006    0.4322   -0.0260   -0.0003    0.0810
           5   -0.1303    0.2981    0.0550   -0.1899   -0.1158    0.0257   -0.0266    0.0401
           6    0.1723    0.2060    0.0377    0.2752   -0.0805    0.0163    0.0390    0.0274
           7   -0.1717    0.0535    0.0990   -0.0022   -0.0153    0.0032   -0.0012    0.0127
           8    0.1570    0.0203    0.1174   -0.0261    0.1841    0.0132   -0.0049    0.0465
           9    0.2944    0.0110   -0.1025    0.0133   -0.1276   -0.0097   -0.0010   -0.0443
          10    0.1647    0.0522    0.0981    0.0022   -0.0161    0.0030    0.0013    0.0154
          11   -0.3127    0.0193   -0.0536   -0.0031   -0.0545   -0.0045    0.0026   -0.0247
          12   -0.0504    0.0146    0.1458    0.0290    0.2169    0.0156    0.0048    0.0517
          13   -0.0942   -0.0150    0.0815    0.1966   -0.1205    0.2244    0.0097   -0.1010
          14    0.0947   -0.0956   -0.0013   -0.1018    0.0452   -0.2347    0.1382   -0.1115
          15    0.0560   -0.0060    0.0191   -0.3645    0.0668   -0.1856   -0.2222    0.3546
          16    0.0905   -0.0152    0.0804   -0.1974   -0.1204    0.2253   -0.0022   -0.1009
          17   -0.0824   -0.0397    0.0190    0.3763    0.0777   -0.2622    0.1500    0.2924
          18   -0.0522   -0.0878   -0.0075   -0.0342    0.0191   -0.1471   -0.2123   -0.2291
          19   -0.0025    0.0362    0.0354    0.0006    0.0141   -0.2676   -0.0044    0.1880
          20    0.0547   -0.0359   -0.0514   -0.2250   -0.0051    0.2931   -0.0472   -0.2018
          21   -0.0740   -0.0250   -0.0347    0.3257   -0.0039    0.2009    0.0794   -0.1402
          22    0.0012   -0.5080    0.5939   -0.0010    0.0878    0.0258    0.0006    0.0693
          23   -0.1193    0.0833   -0.2369   -0.0428   -0.0978   -0.0155    0.0018   -0.0243
          24    0.1670    0.0573   -0.1659    0.0620   -0.0684   -0.0108   -0.0033   -0.0170
          25    0.0160    0.5162    0.3978   -0.0000   -0.1346    0.0379    0.0003   -0.0230
          26    0.1027   -0.0523   -0.1355    0.1664    0.0454   -0.0113    0.0373    0.0275
          27   -0.1627   -0.0351   -0.0937   -0.2396    0.0317   -0.0059   -0.0541    0.0191
          28    0.1613   -0.0892   -0.1125    0.0147   -0.2447   -0.0146    0.0013    0.1391
          29   -0.0830    0.0617    0.1177   -0.0158    0.2066    0.0135   -0.0022   -0.0756
          30   -0.3194    0.0147    0.0493   -0.0039   -0.1789   -0.0061    0.0013    0.1397
          31    0.1799    0.0319    0.0138    0.0075    0.0545    0.0028   -0.0001   -0.0486
          32   -0.1036   -0.0963   -0.0327   -0.0053    0.2872    0.0113    0.0015   -0.2235
          33   -0.2948   -0.0491   -0.0216   -0.0084   -0.1091   -0.0056   -0.0002    0.0392
          34   -0.1731    0.0333    0.0147   -0.0073    0.0549    0.0027    0.0004   -0.0442
          35    0.3015   -0.0815   -0.0327    0.0096   -0.0026   -0.0014   -0.0003   -0.0380
          36   -0.0081   -0.0723   -0.0224    0.0022    0.3082    0.0123   -0.0004   -0.2080
          37   -0.1557   -0.0875   -0.1114   -0.0149   -0.2440   -0.0141   -0.0022    0.1266
          38    0.3199    0.0327    0.0851    0.0087   -0.0976   -0.0010   -0.0008    0.0986
          39   -0.0348    0.0525    0.0933    0.0137    0.2561    0.0144    0.0034   -0.1102
          40    0.0416   -0.0751   -0.0198   -0.1190    0.0609   -0.0070   -0.2078    0.1921
          41   -0.0280    0.0922   -0.1051    0.2280    0.1090    0.3623   -0.3647    0.2007
          42   -0.0433    0.0652    0.0502    0.0418   -0.0730   -0.0231    0.1678   -0.1192
          43    0.0316    0.0905   -0.0241   -0.1611    0.0052   -0.2651    0.2514   -0.1268
          44   -0.0379   -0.0863    0.0505    0.1849   -0.0464    0.2117   -0.1024   -0.0157
          45   -0.0443    0.0735    0.0709    0.0259   -0.1172   -0.1390    0.3699   -0.2653
          46   -0.0354   -0.0751   -0.0192    0.1197    0.0606   -0.0149    0.2073    0.1924
          47    0.0435    0.0937    0.0094   -0.1195   -0.0299    0.1072   -0.0255   -0.0410
          48    0.0138    0.0648   -0.1168   -0.1969    0.1275    0.3332    0.4118    0.2306
          49   -0.0327    0.0908   -0.0238    0.1602    0.0053   -0.2570   -0.2608   -0.1275
          50    0.0468    0.0381    0.0836   -0.0891   -0.1256   -0.0446   -0.3118   -0.2539
          51    0.0263   -0.1069    0.0221   -0.1639   -0.0024    0.2400    0.2346    0.0791


   Root No.      33        34        35        36        37        38        39        40

                33 A      34 A      35 A      36 A      37 A      38 A      39 A      40 A   

                1401.8    1442.1    1604.8    2957.7    2999.4    3023.8    3025.8    3083.3
  
           1    0.0037   -0.2821    0.5160    0.0086   -0.0979    0.0000    0.0014    0.0000
           2   -0.0132   -0.0101   -0.3244    0.0182   -0.2097    0.0009   -0.0028   -0.0001
           3    0.0168   -0.0072   -0.2257    0.0126   -0.1458   -0.0016   -0.0019    0.0003
           4   -0.0017    0.4625   -0.2640   -0.0949   -0.0090   -0.0002   -0.0109    0.0000
           5    0.0012   -0.1449    0.0662   -0.2096   -0.0188    0.0001   -0.0219   -0.0009
           6   -0.0029   -0.1003    0.0459   -0.1453   -0.0130   -0.0010   -0.0152    0.0013
           7   -0.0749   -0.0277   -0.1452   -0.0018    0.0126    0.0002   -0.0001   -0.1752
           8    0.1941    0.2043    0.3775   -0.0012    0.0091    0.0001    0.0001   -0.1103
           9   -0.0966   -0.1511   -0.2184    0.0003    0.0022    0.0001   -0.0001   -0.0655
          10    0.0741   -0.0276   -0.1454   -0.0018    0.0126   -0.0002   -0.0001    0.1751
          11    0.0243   -0.0706   -0.0732   -0.0001    0.0052   -0.0001    0.0000    0.0997
          12   -0.2179    0.2443    0.4301   -0.0012    0.0079   -0.0001    0.0002    0.0804
          13    0.0009   -0.0145    0.0076    0.0198    0.0023    0.1658   -0.1734    0.0003
          14    0.0006    0.0938   -0.0135    0.0081    0.0010    0.1055   -0.1108    0.0006
          15   -0.0059   -0.2000    0.0255    0.0070    0.0018    0.0640   -0.0667   -0.0004
          16    0.0029   -0.0145    0.0075    0.0198    0.0024   -0.1730   -0.1661   -0.0003
          17   -0.0051   -0.1539    0.0192    0.0094    0.0021   -0.1011   -0.0971    0.0002
          18    0.0051    0.1580   -0.0216    0.0051    0.0003   -0.0798   -0.0771   -0.0007
          19   -0.0033   -0.1334    0.0260   -0.0029   -0.0005   -0.0001   -0.0060   -0.0000
          20    0.0039    0.1535   -0.0315    0.0026    0.0005    0.0004   -0.0030    0.0000
          21    0.0020    0.1067   -0.0219    0.0018    0.0003   -0.0007   -0.0020   -0.0000
          22   -0.0011    0.0944   -0.1118   -0.0268    0.3560    0.0002    0.0042   -0.0001
          23    0.0077   -0.0604   -0.0131   -0.0659    0.7275    0.0009    0.0042    0.0031
          24   -0.0101   -0.0419   -0.0091   -0.0458    0.5058   -0.0008    0.0029   -0.0046
          25    0.0003   -0.1536    0.0769    0.3330    0.0339    0.0006    0.0287   -0.0000
          26    0.0040    0.0464   -0.0280    0.7337    0.0625   -0.0021    0.0768   -0.0007
          27   -0.0067    0.0321   -0.0195    0.5085    0.0433    0.0064    0.0531    0.0009
          28    0.3486    0.1798    0.1128    0.0018   -0.0200   -0.0004    0.0001    0.2522
          29   -0.1810   -0.0635    0.0168    0.0054   -0.0255   -0.0008    0.0006    0.4446
          30    0.2626    0.1700    0.0465   -0.0007    0.0021   -0.0000    0.0000   -0.0067
          31   -0.1259   -0.0821   -0.0920   -0.0002   -0.0297   -0.0007   -0.0002    0.3639
          32   -0.4419   -0.2761   -0.0563    0.0003    0.0015    0.0001    0.0001   -0.0554
          33    0.0739    0.0259   -0.0113    0.0003   -0.0224   -0.0004   -0.0001    0.2378
          34    0.1272   -0.0820   -0.0920   -0.0002   -0.0297    0.0006   -0.0004   -0.3640
          35    0.0862   -0.0718   -0.0302    0.0004   -0.0205    0.0003   -0.0001   -0.2037
[...]
 FREQ.      1174.64         C  2 -- H  9         +12.3% ( 54.0%)     31.9%
 T-DIPOLE    0.0456         C  2 -- C  6         +10.2% ( 49.3%)     76.3%
 TRAVEL      0.0905         C  2 -- C  5          +9.9% ( 48.6%)     73.9%
 RED. MASS   0.6211         C  5 -- C  6          +7.1% ( 41.1%)     99.9%
 EFF. MASS   7.0025

 VIBRATION   25   25A         ATOM PAIR      ENERGY CONTRIBUTION    RADIAL
 FREQ.      1176.94         C  3 -- H 10         +14.0% ( 46.3%)      0.2%
 T-DIPOLE    0.2300         C  3 -- H 11         +13.8% ( 45.9%)      0.0%
 TRAVEL      0.1169         C  4 -- H 13         +13.0% ( 44.5%)      0.2%
 RED. MASS   0.5491         C  4 -- H 12         +12.7% ( 44.0%)      0.0%
 EFF. MASS   4.1920

 VIBRATION   26   26A         ATOM PAIR      ENERGY CONTRIBUTION    RADIAL
 FREQ.      1203.33         C  1 -- C  2         +18.5% ( 58.4%)     39.4%
 T-DIPOLE    0.0428         C  2 -- H  9         +16.7% ( 55.4%)     28.1%
 TRAVEL      0.1051         C  1 -- H  8         +15.1% ( 52.8%)     30.8%
 RED. MASS   0.7135         C  2 -- C  6          +9.1% ( 41.0%)     17.8%
 EFF. MASS   5.0726

 VIBRATION   27   27A         ATOM PAIR      ENERGY CONTRIBUTION    RADIAL
 FREQ.      1241.68         C  1 -- H  8         +32.3% ( 74.1%)      1.4%
 T-DIPOLE    0.0316         C  2 -- H  9         +16.5% ( 52.9%)      0.1%
 TRAVEL      0.1236         C  1 -- C  3          +7.0% ( 34.4%)      3.0%
 RED. MASS   0.4691         C  1 -- C  4          +7.0% ( 34.4%)      3.0%
 EFF. MASS   3.5523

 VIBRATION   28   28A         ATOM PAIR      ENERGY CONTRIBUTION    RADIAL
 FREQ.      1278.43         C  5 -- C  7         +12.3% ( 53.1%)     92.7%
 T-DIPOLE    0.7832         C  6 -- C  7         +12.3% ( 53.0%)     92.6%
 TRAVEL      0.0831         C  5 -- C  6          +9.7% ( 47.2%)      0.0%
 RED. MASS   1.2666         C  5 -- H 14          +8.3% ( 43.5%)      2.9%
 EFF. MASS   7.6417

 VIBRATION   29   29A         ATOM PAIR      ENERGY CONTRIBUTION    RADIAL
 FREQ.      1334.86         C  1 -- C  2         +12.2% ( 49.0%)     96.0%
 T-DIPOLE    0.1968         C  2 -- H  9         +10.1% ( 44.5%)      0.1%
 TRAVEL      0.0926         C  2 -- C  5          +9.5% ( 43.1%)     33.0%
 RED. MASS   0.7004         C  2 -- C  6          +9.5% ( 43.1%)     33.1%
 EFF. MASS   5.8872

 VIBRATION   30   30A         ATOM PAIR      ENERGY CONTRIBUTION    RADIAL
 FREQ.      1339.57         C  6 -- C  7         +15.7% ( 50.8%)     52.8%
 T-DIPOLE    0.6605         C  5 -- C  7         +15.5% ( 50.5%)     51.2%
 TRAVEL      0.0927         C  5 -- H 15         +11.3% ( 43.1%)      0.1%
 RED. MASS   1.0114         C  5 -- H 14         +11.1% ( 42.8%)      0.1%
 EFF. MASS   5.8614         C  6 -- H 17         +11.0% ( 42.5%)      0.0%
                            C  6 -- H 16         +10.8% ( 42.2%)      0.1%

 VIBRATION   31   31A         ATOM PAIR      ENERGY CONTRIBUTION    RADIAL
 FREQ.      1350.43         C  6 -- H 17         +18.1% ( 45.4%)      3.9%
 T-DIPOLE    0.7130         C  5 -- H 15         +17.6% ( 44.7%)      4.0%
 TRAVEL      0.1436         C  6 -- H 16         +17.4% ( 44.4%)      4.4%
 RED. MASS   0.2937         C  5 -- H 14         +16.9% ( 43.8%)      4.5%
 EFF. MASS   2.4229

 VIBRATION   32   32A         ATOM PAIR      ENERGY CONTRIBUTION    RADIAL
 FREQ.      1399.85         C  5 -- C  6         +13.0% ( 49.5%)    100.0%
 T-DIPOLE    0.6405         C  5 -- C  7         +10.7% ( 44.8%)     98.1%
 TRAVEL      0.0902         C  6 -- C  7         +10.6% ( 44.8%)     98.1%
 RED. MASS   0.7031         C  6 -- H 16          +8.7% ( 40.5%)      6.2%
 EFF. MASS   5.9157

 VIBRATION   33   33A         ATOM PAIR      ENERGY CONTRIBUTION    RADIAL
 FREQ.      1401.77         C  4 -- H 13         +21.7% ( 46.4%)      2.7%
 T-DIPOLE    0.0880         C  3 -- H 10         +21.2% ( 45.8%)      2.6%
 TRAVEL      0.1580         C  4 -- H 12         +21.1% ( 45.7%)      2.9%
 RED. MASS   0.2687         C  3 -- H 11         +20.4% ( 45.0%)      2.9%
 EFF. MASS   1.9272

 VIBRATION   34   34A         ATOM PAIR      ENERGY CONTRIBUTION    RADIAL
 FREQ.      1442.09         C  1 -- C  2         +12.7% ( 54.4%)     95.4%
 T-DIPOLE    0.1639         C  2 -- C  7          +9.3% ( 46.5%)     85.5%
 TRAVEL      0.0783         C  2 -- C  5          +9.1% ( 45.9%)     63.9%
 RED. MASS   1.0149         C  2 -- C  6          +9.0% ( 45.9%)     63.9%
 EFF. MASS   7.6262

 VIBRATION   35   35A         ATOM PAIR      ENERGY CONTRIBUTION    RADIAL
 FREQ.      1604.80         C  1 -- C  4         +18.8% ( 72.5%)     94.2%
 T-DIPOLE    0.1007         C  1 -- C  3         +18.8% ( 72.5%)     94.2%
 TRAVEL      0.0604         C  1 -- C  2         +13.6% ( 61.6%)     72.9%
 RED. MASS   3.2869         C  3 -- C  4         +13.1% ( 60.5%)    100.0%
 EFF. MASS  11.5260         C  1 -- H  8         +10.1% ( 53.2%)      2.3%

 VIBRATION   36   36A         ATOM PAIR      ENERGY CONTRIBUTION    RADIAL
 FREQ.      2957.68         C  2 -- H  9         +93.8% ( 99.1%)    100.0%
 T-DIPOLE    0.0684         C  1 -- C  2          +1.1% ( 10.7%)     12.2%
 TRAVEL      0.1252         C  2 -- C  5          +1.1% ( 10.6%)     13.9%
 RED. MASS   0.8966         C  2 -- C  6          +1.1% ( 10.6%)     13.9%
 EFF. MASS   1.4542

 VIBRATION   37   37A         ATOM PAIR      ENERGY CONTRIBUTION    RADIAL
 FREQ.      2999.43         C  1 -- H  8         +95.3% ( 99.3%)    100.0%
 T-DIPOLE    0.1999         C  1 -- C  4          +1.1% ( 10.8%)     22.7%
 TRAVEL      0.1243         C  1 -- C  3          +1.1% ( 10.8%)     22.7%
 RED. MASS   0.9055         C  1 -- C  2          +1.1% ( 10.6%)     12.8%
 EFF. MASS   1.4539

 VIBRATION   38   38A         ATOM PAIR      ENERGY CONTRIBUTION    RADIAL
 FREQ.      3023.83         C  6 -- H 17         +29.2% ( 56.2%)     97.8%
 T-DIPOLE    0.0529         C  5 -- H 15         +26.8% ( 53.8%)     97.8%
 TRAVEL      0.1215         C  6 -- H 16         +21.4% ( 48.1%)     96.1%
 RED. MASS   0.2630         C  5 -- H 14         +19.7% ( 46.2%)     96.1%
 EFF. MASS   1.5094

 VIBRATION   39   39A         ATOM PAIR      ENERGY CONTRIBUTION    RADIAL
 FREQ.      3025.76         C  5 -- H 15         +28.8% ( 55.8%)     97.7%
 T-DIPOLE    0.4731         C  6 -- H 17         +26.5% ( 53.4%)     97.8%
 TRAVEL      0.1210         C  5 -- H 14         +21.3% ( 48.0%)     96.0%
 RED. MASS   0.2583         C  6 -- H 16         +19.5% ( 45.9%)     96.0%
 EFF. MASS   1.5214

 VIBRATION   40   40A         ATOM PAIR      ENERGY CONTRIBUTION    RADIAL
 FREQ.      3083.32         C  3 -- H 10         +27.9% ( 54.7%)     97.7%
 T-DIPOLE    0.0163         C  4 -- H 13         +27.8% ( 54.6%)     97.7%
 TRAVEL      0.1186         C  4 -- H 12         +21.0% ( 47.5%)     96.1%
 RED. MASS   0.2648         C  3 -- H 11         +21.0% ( 47.5%)     96.1%
 EFF. MASS   1.5561

 VIBRATION   41   41A         ATOM PAIR      ENERGY CONTRIBUTION    RADIAL
 FREQ.      3097.18         C  5 -- H 14         +28.9% ( 53.3%)     98.2%
 T-DIPOLE    0.6077         C  6 -- H 16         +28.3% ( 52.7%)     98.3%
 TRAVEL      0.1314         C  5 -- H 15         +20.7% ( 45.1%)     96.2%
 RED. MASS   0.2475         C  6 -- H 17         +20.2% ( 44.5%)     96.2%
 EFF. MASS   1.2607

 VIBRATION   42   42A         ATOM PAIR      ENERGY CONTRIBUTION    RADIAL
 FREQ.      3097.50         C  4 -- H 13         +29.0% ( 55.5%)     98.1%
 T-DIPOLE    0.2574         C  3 -- H 10         +28.9% ( 55.4%)     98.1%
 TRAVEL      0.1188         C  4 -- H 12         +19.7% ( 45.8%)     96.0%
 RED. MASS   0.2662         C  3 -- H 11         +19.7% ( 45.7%)     96.0%
 EFF. MASS   1.5424

 VIBRATION   43   43A         ATOM PAIR      ENERGY CONTRIBUTION    RADIAL
 FREQ.      3101.58         C  6 -- H 16         +28.7% ( 53.2%)     97.9%
 T-DIPOLE    0.0952         C  5 -- H 14         +28.0% ( 52.5%)     97.9%
 TRAVEL      0.1287         C  6 -- H 17         +20.7% ( 45.1%)     95.7%
 RED. MASS   0.2477         C  5 -- H 15         +20.2% ( 44.6%)     95.8%
 EFF. MASS   1.3123

 VIBRATION   44   44A         ATOM PAIR      ENERGY CONTRIBUTION    RADIAL
 FREQ.      3134.07         C  3 -- H 11         +28.7% ( 53.2%)     97.5%
 T-DIPOLE    0.2365         C  4 -- H 12         +28.0% ( 52.5%)     97.5%
 TRAVEL      0.1300         C  3 -- H 10         +21.2% ( 45.7%)     95.2%
 RED. MASS   0.2469         C  4 -- H 13         +20.7% ( 45.1%)     95.2%
 EFF. MASS   1.2722

 VIBRATION   45   45A         ATOM PAIR      ENERGY CONTRIBUTION    RADIAL
 FREQ.      3135.08         C  4 -- H 12         +29.7% ( 54.3%)     97.5%
 T-DIPOLE    0.1693         C  3 -- H 11         +29.1% ( 53.7%)     97.6%
 TRAVEL      0.1268         C  4 -- H 13         +19.8% ( 44.3%)     94.3%
 RED. MASS   0.2511         C  3 -- H 10         +19.3% ( 43.7%)     94.3%
 EFF. MASS   1.3367

      SYMMETRY NUMBER FOR POINT-GROUP C1  =  1


          SYSTEM IS A GROUND STATE



 InChI=1S/C7H10/c1-2-6(3-1)7-4-5-7/h6-7H,2-5H2/lp1


          MOLECULE IS NOT LINEAR

          THERE ARE 45 GENUINE VIBRATIONS IN THIS SYSTEM
          THIS THERMODYNAMICS CALCULATION IS LIMITED TO
          MOLECULES WHICH HAVE NO INTERNAL ROTATIONS




                    CALCULATED THERMODYNAMIC PROPERTIES
                                          *
   TEMP. (K)   PARTITION FUNCTION   H.O.F.    ENTHALPY  HEAT CAPACITY ENTROPY
                                   KCAL/MOL   CAL/MOLE    CAL/K/MOL  CAL/K/MOL


 298.00  VIB.     0.2626D+02                  2431.7719    19.3385    14.6543
         ROT.     0.2015D+06                   888.2813     2.9808    27.2513
         INT.     0.5290D+07                  3320.0532    22.3193    41.9056
         TRA.     0.8833D+27                  1480.4688     4.9680    39.5363
         TOT.                      112.367    4800.5220    27.2873    81.4419

 200.00  VIB.     0.7335D+01                   981.9211    10.6800     8.8693
         ROT.     0.1108D+06                   596.1620     2.9808    26.0626
         INT.     0.8125D+06                  1578.0831    13.6608    34.9320
         TRA.     0.4856D+27                   993.6033     4.9680    37.5551
         TOT.                      110.138    2571.6863    18.6288    72.4871

 210.00  VIB.     0.8304D+01                  1092.4272    11.4276     9.4083
         ROT.     0.1192D+06                   625.9700     2.9808    26.2081
         INT.     0.9896D+06                  1718.3972    14.4084    35.6164
         TRA.     0.5225D+27                  1043.2834     4.9680    37.7975
         TOT.                      110.328    2761.6806    19.3764    73.4140

 220.00  VIB.     0.9412D+01                  1210.5989    12.2130     9.9579
         ROT.     0.1278D+06                   655.7781     2.9808    26.3468
         INT.     0.1203D+07                  1866.3770    15.1938    36.3047
         TRA.     0.5603D+27                  1092.9636     4.9680    38.0286
         TOT.                      110.526    2959.3406    20.1618    74.3333

 230.00  VIB.     0.1068D+02                  1336.8069    13.0345    10.5188
         ROT.     0.1366D+06                   685.5862     2.9808    26.4793
         INT.     0.1459D+07                  2022.3931    16.0153    36.9981
         TRA.     0.5989D+27                  1142.6437     4.9680    38.2495
         TOT.                      110.732    3165.0368    20.9833    75.2475

 240.00  VIB.     0.1214D+02                  1471.4007    13.8897    11.0915
         ROT.     0.1456D+06                   715.3943     2.9808    26.6061
         INT.     0.1767D+07                  2186.7950    16.8705    37.6976
         TRA.     0.6384D+27                  1192.3239     4.9680    38.4609
         TOT.                      110.946    3379.1189    21.8385    76.1585

 250.00  VIB.     0.1381D+02                  1614.7022    14.7755    11.6764
         ROT.     0.1548D+06                   745.2024     2.9808    26.7278
         INT.     0.2138D+07                  2359.9046    17.7563    38.4042
         TRA.     0.6787D+27                  1242.0041     4.9680    38.6637
         TOT.                      111.168    3601.9087    22.7243    77.0679

 260.00  VIB.     0.1574D+02                  1767.0003    15.6884    12.2736
         ROT.     0.1642D+06                   775.0105     2.9808    26.8447
         INT.     0.2585D+07                  2542.0108    18.6692    39.1183
         TRA.     0.7198D+27                  1291.6842     4.9680    38.8586
         TOT.                      111.400    3833.6951    23.6372    77.9769

 270.00  VIB.     0.1797D+02                  1928.5480    16.6247    12.8832
         ROT.     0.1738D+06                   804.8186     2.9808    26.9572
         INT.     0.3122D+07                  2733.3666    19.6055    39.8404
         TRA.     0.7618D+27                  1341.3644     4.9680    39.0461
         TOT.                      111.641    4074.7310    24.5736    78.8864

 280.00  VIB.     0.2054D+02                  2099.5601    17.5806    13.5050
         ROT.     0.1835D+06                   834.6267     2.9808    27.0656
         INT.     0.3770D+07                  2934.1869    20.5615    40.5706
         TRA.     0.8045D+27                  1391.0445     4.9680    39.2267
         TOT.                      111.892    4325.2314    25.5295    79.7973

 290.00  VIB.     0.2353D+02                  2280.2133    18.5523    14.1388
         ROT.     0.1934D+06                   864.4348     2.9808    27.1702
         INT.     0.4551D+07                  3144.6482    21.5331    41.3090
         TRA.     0.8479D+27                  1440.7247     4.9680    39.4011
         TOT.                      112.152    4585.3729    26.5011    80.7101

 300.00  VIB.     0.2699D+02                  2470.6462    19.5360    14.7843
         ROT.     0.2035D+06                   894.2429     2.9808    27.2713
         INT.     0.5493D+07                  3364.8892    22.5168    42.0556
         TRA.     0.8922D+27                  1490.4049     4.9680    39.5695
         TOT.                      112.422    4855.2940    27.4848    81.6251

 310.00  VIB.     0.3102D+02                  2670.9608    20.5281    15.4411
         ROT.     0.2138D+06                   924.0510     2.9808    27.3690
         INT.     0.6630D+07                  3595.0118    23.5089    42.8101
         TRA.     0.9372D+27                  1540.0850     4.9680    39.7324
         TOT.                      112.702    5135.0969    28.4769    82.5425

 320.00  VIB.     0.3570D+02                  2881.2242    21.5252    16.1085
         ROT.     0.2242D+06                   953.8591     2.9808    27.4636
         INT.     0.8004D+07                  3835.0834    24.5060    43.5722
         TRA.     0.9829D+27                  1589.7652     4.9680    39.8901
         TOT.                      112.991    5424.8486    29.4740    83.4623

 330.00  VIB.     0.4117D+02                  3101.4713    22.5243    16.7862
         ROT.     0.2348D+06                   983.6672     2.9808    27.5554
         INT.     0.9665D+07                  4085.1385    25.5051    44.3416
         TRA.     0.1029D+28                  1639.4454     4.9680    40.0430
         TOT.                      113.291    5724.5838    30.4731    84.3846

 340.00  VIB.     0.4755D+02                  3331.7067    23.5224    17.4734
         ROT.     0.2455D+06                  1013.4753     2.9808    27.6444
         INT.     0.1168D+08                  4345.1820    26.5032    45.1178
         TRA.     0.1076D+28                  1689.1255     4.9680    40.1913
         TOT.                      113.601    6034.3075    31.4713    85.3091

 350.00  VIB.     0.5502D+02                  3571.9081    24.5171    18.1697
         ROT.     0.2564D+06                  1043.2834     2.9808    27.7308
         INT.     0.1411D+08                  4615.1915    27.4979    45.9004
         TRA.     0.1124D+28                  1738.8057     4.9680    40.3353
         TOT.                      113.920    6353.9972    32.4659    86.2357

 360.00  VIB.     0.6377D+02                  3822.0287    25.5059    18.8742
         ROT.     0.2675D+06                  1073.0915     2.9808    27.8147
         INT.     0.1706D+08                  4895.1202    28.4867    46.6889
         TRA.     0.1173D+28                  1788.4859     4.9680    40.4753
         TOT.                      114.250    6683.6060    33.4547    87.1642

 370.00  VIB.     0.7403D+02                  4082.0000    26.4869    19.5864
         ROT.     0.2787D+06                  1102.8996     2.9808    27.8964
         INT.     0.2064D+08                  5184.8996    29.4677    47.4828
         TRA.     0.1222D+28                  1838.1660     4.9680    40.6114
         TOT.                      114.590    7023.0656    34.4357    88.0942

 380.00  VIB.     0.8609D+02                  4351.7345    27.4583    20.3057
         ROT.     0.2901D+06                  1132.7077     2.9808    27.9759
         INT.     0.2498D+08                  5484.4422    30.4391    48.2816
         TRA.     0.1272D+28                  1887.8462     4.9680    40.7439
         TOT.                      114.939    7372.2884    35.4071    89.0255

 390.00  VIB.     0.1003D+03                  4631.1284    28.4185    21.0314
         ROT.     0.3016D+06                  1162.5158     2.9808    28.0533
         INT.     0.3024D+08                  5793.6442    31.3993    49.0847
         TRA.     0.1322D+28                  1937.5263     4.9680    40.8729
         TOT.                      115.298    7731.1705    36.3674    89.9577

 400.00  VIB.     0.1170D+03                  4920.0638    29.3664    21.7629
         ROT.     0.3133D+06                  1192.3239     2.9808    28.1288
         INT.     0.3664D+08                  6112.3877    32.3472    49.8917
         TRA.     0.1374D+28                  1987.2065     4.9680    40.9987
         TOT.                      115.666    8099.5942    37.3152    90.8904

   *: NOTE: HEATS OF FORMATION ARE RELATIVE TO THE
            ELEMENTS IN THEIR STANDARD STATE AT 298K
              (=  Standard Enthalpy of Formation).

            Hvib:  Zero-point energy is not included.
                   frequencies of less than zero cm-1 are not included.
            Hrot = (3/2)RT
            Htra = (3/2)RT + pV = (5/2)RT

            Heat capacity is Cp, not Cv

          For more information, see: HTTP://OpenMOPAC.net/Manual/thermochemistry.html


           FORCE CONSTANT IN CARTESIAN COORDINATES (Millidynes/A)

    ATOM   CHEMICAL       X               Y               Z
   NUMBER   SYMBOL  FORCE CONSTANT  FORCE CONSTANT  FORCE CONSTANT

      1       C       10.048814        8.926738        6.837340
      2       C        9.498500        8.332373        7.028209
      3       C        8.005114       10.401506        6.727357
      4       C        8.005833        5.658809       11.473211
      5       C        7.158846        7.387434        9.264144
      6       C        7.160161        8.066462        8.579234
      7       C        3.182608        5.022930        5.094097
      8       H        1.388242        3.141202        1.792552
      9       H        1.285710        3.146452        1.849427
     10       H        1.897554        4.144588        0.606521
     11       H        3.911703        0.786502        1.966997
     12       H        3.913218        1.624483        1.127884
     13       H        1.896286        0.976782        3.773726
     14       H        2.584294        0.672849        3.156634
     15       H        2.512715        3.167455        0.695204
     16       H        2.582383        2.907047        0.925823
     17       H        2.514154        0.571777        3.290518

 **********************
 *                    *
 * JOB ENDED NORMALLY *
 *                    *
 **********************



 TOTAL JOB TIME:             0.96 SECONDS

 == MOPAC DONE ==
