 *******************************************************************************
 ** Site#: 14399        For non-commercial use only    Version 18.184L 64BITS **
 *******************************************************************************
 ** Cite this program as: MOPAC2016, Version: 18.184L, James J. P. Stewart,   **
 ** Stewart Computational Chemistry, web: HTTP://OpenMOPAC.net. Days left:  18**
 *******************************************************************************
 **                                                                           **
 **                                MOPAC2016                                  **
 **                                                                           **
 *******************************************************************************

                              PM3 CALCULATION RESULTS

 *******************************************************************************
 *  CALCULATION DONE:                                Sat Jun 15 10:12:47 2019  *
 *  PM3        - The PM3 Hamiltonian to be used
 *  PRECISE    - CRITERIA TO BE INCREASED BY 100 TIMES
 *  NOSYM      - POINT-GROUP SYMMETRY SET TO C1
 *  THREADS=1  - MULTI-THREADING NOT USED
 *  T=         - A TIME OF 172800.0 SECONDS REQUESTED
 *  DUMP=N     - RESTART FILE WRITTEN EVERY  7200.000 SECONDS
 *******************************************************************************
pm3  precise nosym THREADS=1
 InChI=1S/C6H10/c1-6-4-2-3-5-6/h2,4,6H,3,5H2,1H3

   ATOM   CHEMICAL          X               Y               Z
  NUMBER   SYMBOL      (ANGSTROMS)     (ANGSTROMS)     (ANGSTROMS)
 
     1       C         -0.63390000  *  -0.18400000  *   0.52610000  *
     2       C          0.54660000  *  -1.03470000  *   0.02090000  *
     3       C          1.68270000  *  -0.05250000  *  -0.28390000  *
     4       C         -1.86750000  *  -0.30620000  *  -0.37190000  *
     5       C         -0.11090000  *   1.21060000  *   0.51620000  *
     6       C          1.13460000  *   1.27900000  *   0.08090000  *
     7       H         -0.90040000  *  -0.46970000  *   1.56730000  *
     8       H          0.28850000  *  -1.61700000  *  -0.89160000  *
     9       H          0.86460000  *  -1.74970000  *   0.81140000  *
    10       H          1.94620000  *  -0.06910000  *  -1.36320000  *
    11       H          2.58050000  *  -0.27590000  *   0.33140000  *
    12       H         -2.22900000  *  -1.35640000  *  -0.37460000  *
    13       H         -2.68290000  *   0.34340000  *   0.01220000  *
    14       H         -1.62790000  *  -0.00440000  *  -1.41470000  *
    15       H         -0.68020000  *   2.07850000  *   0.83380000  *
    16       H          1.68910000  *   2.20810000  *  -0.00050000  *
 


          CARTESIAN COORDINATES 

    NO.       ATOM           X           Y           Z

     1         C         -0.6339     -0.1840      0.5261
     2         C          0.5466     -1.0347      0.0209
     3         C          1.6827     -0.0525     -0.2839
     4         C         -1.8675     -0.3062     -0.3719
     5         C         -0.1109      1.2106      0.5162
     6         C          1.1346      1.2790      0.0809
     7         H         -0.9004     -0.4697      1.5673
     8         H          0.2885     -1.6170     -0.8916
     9         H          0.8646     -1.7497      0.8114
    10         H          1.9462     -0.0691     -1.3632
    11         H          2.5805     -0.2759      0.3314
    12         H         -2.2290     -1.3564     -0.3746
    13         H         -2.6829      0.3434      0.0122
    14         H         -1.6279     -0.0044     -1.4147
    15         H         -0.6802      2.0785      0.8338
    16         H          1.6891      2.2081     -0.0005

  H: (PM3): J. J. P. STEWART, J. COMP. CHEM. 10, 209 (1989).
  C: (PM3): J. J. P. STEWART, J. COMP. CHEM. 10, 209 (1989).

           Empirical Formula: C6 H10  =    16 atoms



      MOLECULAR POINT GROUP   :   C1  


      RHF CALCULATION, NO. OF DOUBLY OCCUPIED LEVELS = 17


          Geometry optimization using EF

          DIAGONAL MATRIX USED AS START HESSIAN

 CYCLE:     1 TIME:   0.004 TIME LEFT:  2.00D  GRAD.:    50.007 HEAT:-0.9006196
 CYCLE:     2 TIME:   0.008 TIME LEFT:  2.00D  GRAD.:    43.807 HEAT: -1.511278
 CYCLE:     3 TIME:   0.004 TIME LEFT:  2.00D  GRAD.:    25.001 HEAT: -1.959481
 CYCLE:     4 TIME:   0.000 TIME LEFT:  2.00D  GRAD.:    34.298 HEAT: -2.036809
 CYCLE:     5 TIME:   0.004 TIME LEFT:  2.00D  GRAD.:    36.195 HEAT: -2.143934
 CYCLE:     6 TIME:   0.004 TIME LEFT:  2.00D  GRAD.:    16.269 HEAT: -2.456798
 CYCLE:     7 TIME:   0.004 TIME LEFT:  2.00D  GRAD.:     9.163 HEAT: -2.538341
 CYCLE:     8 TIME:   0.004 TIME LEFT:  2.00D  GRAD.:     8.792 HEAT: -2.561434
 CYCLE:     9 TIME:   0.004 TIME LEFT:  2.00D  GRAD.:     7.307 HEAT: -2.592044
 CYCLE:    10 TIME:   0.004 TIME LEFT:  2.00D  GRAD.:     5.394 HEAT: -2.610444
 CYCLE:    11 TIME:   0.004 TIME LEFT:  2.00D  GRAD.:     4.398 HEAT: -2.629274
 CYCLE:    12 TIME:   0.004 TIME LEFT:  2.00D  GRAD.:     4.746 HEAT: -2.639498
 CYCLE:    13 TIME:   0.004 TIME LEFT:  2.00D  GRAD.:     2.829 HEAT: -2.644652
 CYCLE:    14 TIME:   0.000 TIME LEFT:  2.00D  GRAD.:     2.883 HEAT: -2.646077
 CYCLE:    15 TIME:   0.004 TIME LEFT:  2.00D  GRAD.:     2.686 HEAT: -2.648157
 CYCLE:    16 TIME:   0.000 TIME LEFT:  2.00D  GRAD.:     2.487 HEAT: -2.649154
 CYCLE:    17 TIME:   0.004 TIME LEFT:  2.00D  GRAD.:     2.029 HEAT: -2.650924
 CYCLE:    18 TIME:   0.004 TIME LEFT:  2.00D  GRAD.:     1.609 HEAT: -2.652474
 CYCLE:    19 TIME:   0.000 TIME LEFT:  2.00D  GRAD.:     1.079 HEAT: -2.654303
 CYCLE:    20 TIME:   0.004 TIME LEFT:  2.00D  GRAD.:     1.695 HEAT: -2.656706
 CYCLE:    21 TIME:   0.004 TIME LEFT:  2.00D  GRAD.:     2.241 HEAT: -2.658309
 CYCLE:    22 TIME:   0.000 TIME LEFT:  2.00D  GRAD.:     1.580 HEAT: -2.660347
 CYCLE:    23 TIME:   0.004 TIME LEFT:  2.00D  GRAD.:     0.926 HEAT: -2.661947
 CYCLE:    24 TIME:   0.000 TIME LEFT:  2.00D  GRAD.:     1.144 HEAT: -2.663894
 CYCLE:    25 TIME:   0.004 TIME LEFT:  2.00D  GRAD.:     1.365 HEAT: -2.666072
 CYCLE:    26 TIME:   0.004 TIME LEFT:  2.00D  GRAD.:     0.967 HEAT: -2.668243
 CYCLE:    27 TIME:   0.004 TIME LEFT:  2.00D  GRAD.:     0.843 HEAT: -2.669975
 CYCLE:    28 TIME:   0.000 TIME LEFT:  2.00D  GRAD.:     1.174 HEAT: -2.671809
 CYCLE:    29 TIME:   0.004 TIME LEFT:  2.00D  GRAD.:     1.216 HEAT: -2.673850
 CYCLE:    30 TIME:   0.000 TIME LEFT:  2.00D  GRAD.:     1.030 HEAT: -2.675600
 CYCLE:    31 TIME:   0.004 TIME LEFT:  2.00D  GRAD.:     0.849 HEAT: -2.677507
 CYCLE:    32 TIME:   0.004 TIME LEFT:  2.00D  GRAD.:     1.150 HEAT: -2.679563
 CYCLE:    33 TIME:   0.000 TIME LEFT:  2.00D  GRAD.:     1.467 HEAT: -2.682818
 CYCLE:    34 TIME:   0.004 TIME LEFT:  2.00D  GRAD.:     1.510 HEAT: -2.687378
 CYCLE:    35 TIME:   0.004 TIME LEFT:  2.00D  GRAD.:     1.193 HEAT: -2.690638
 CYCLE:    36 TIME:   0.000 TIME LEFT:  2.00D  GRAD.:     1.091 HEAT: -2.693092
 CYCLE:    37 TIME:   0.004 TIME LEFT:  2.00D  GRAD.:     1.126 HEAT: -2.695123
 CYCLE:    38 TIME:   0.000 TIME LEFT:  2.00D  GRAD.:     1.072 HEAT: -2.697436
 CYCLE:    39 TIME:   0.004 TIME LEFT:  2.00D  GRAD.:     0.764 HEAT: -2.699260
 CYCLE:    40 TIME:   0.004 TIME LEFT:  2.00D  GRAD.:     0.509 HEAT: -2.700053
 CYCLE:    41 TIME:   0.004 TIME LEFT:  2.00D  GRAD.:     0.434 HEAT: -2.700472
 CYCLE:    42 TIME:   0.000 TIME LEFT:  2.00D  GRAD.:     0.381 HEAT: -2.700818
 CYCLE:    43 TIME:   0.004 TIME LEFT:  2.00D  GRAD.:     0.267 HEAT: -2.701074
 CYCLE:    44 TIME:   0.000 TIME LEFT:  2.00D  GRAD.:     0.207 HEAT: -2.701198
 CYCLE:    45 TIME:   0.004 TIME LEFT:  2.00D  GRAD.:     0.188 HEAT: -2.701270
 CYCLE:    46 TIME:   0.004 TIME LEFT:  2.00D  GRAD.:     0.171 HEAT: -2.701343
 CYCLE:    47 TIME:   0.000 TIME LEFT:  2.00D  GRAD.:     0.185 HEAT: -2.701427
 CYCLE:    48 TIME:   0.004 TIME LEFT:  2.00D  GRAD.:     0.170 HEAT: -2.701481
 CYCLE:    49 TIME:   0.004 TIME LEFT:  2.00D  GRAD.:     0.189 HEAT: -2.701559
 CYCLE:    50 TIME:   0.000 TIME LEFT:  2.00D  GRAD.:     0.242 HEAT: -2.701661
 CYCLE:    51 TIME:   0.004 TIME LEFT:  2.00D  GRAD.:     0.269 HEAT: -2.701810
 CYCLE:    52 TIME:   0.000 TIME LEFT:  2.00D  GRAD.:     0.255 HEAT: -2.702053
 CYCLE:    53 TIME:   0.004 TIME LEFT:  2.00D  GRAD.:     0.182 HEAT: -2.702136
 CYCLE:    54 TIME:   0.004 TIME LEFT:  2.00D  GRAD.:     0.397 HEAT: -2.702141
 CYCLE:    55 TIME:   0.000 TIME LEFT:  2.00D  GRAD.:     0.176 HEAT: -2.702287
 CYCLE:    56 TIME:   0.004 TIME LEFT:  2.00D  GRAD.:     0.134 HEAT: -2.702327
 CYCLE:    57 TIME:   0.004 TIME LEFT:  2.00D  GRAD.:     0.206 HEAT: -2.702381
 CYCLE:    58 TIME:   0.000 TIME LEFT:  2.00D  GRAD.:     0.098 HEAT: -2.702447
 CYCLE:    59 TIME:   0.004 TIME LEFT:  2.00D  GRAD.:     0.079 HEAT: -2.702477
 CYCLE:    60 TIME:   0.004 TIME LEFT:  2.00D  GRAD.:     0.077 HEAT: -2.702521
 CYCLE:    61 TIME:   0.000 TIME LEFT:  2.00D  GRAD.:     0.057 HEAT: -2.702538
 CYCLE:    62 TIME:   0.004 TIME LEFT:  2.00D  GRAD.:     0.085 HEAT: -2.702550
 CYCLE:    63 TIME:   0.004 TIME LEFT:  2.00D  GRAD.:     0.039 HEAT: -2.702560

     GRADIENT =  0.03911  IS LESS THAN CUTOFF =  0.05000



 -------------------------------------------------------------------------------
 pm3  precise nosym THREADS=1
 InChI=1S/C6H10/c1-6-4-2-3-5-6/h2,4,6H,3,5H2,1H3



     GEOMETRY OPTIMISED USING EIGENVECTOR FOLLOWING (EF).     
     SCF FIELD WAS ACHIEVED                                   


                              PM3 CALCULATION
                                                       MOPAC2016 (Version: 18.184L)
                                                       Sat Jun 15 10:12:47 2019
                                                       No. of days remaining =  18




          FINAL HEAT OF FORMATION =         -2.70256 KCAL/MOL =     -11.30751 KJ/MOL


          TOTAL ENERGY            =       -865.28648 EV
          ELECTRONIC ENERGY       =      -3855.23375 EV  POINT GROUP:     C1  
          CORE-CORE REPULSION     =       2989.94727 EV
          COSMO AREA              =        131.74 SQUARE ANGSTROMS
          COSMO VOLUME            =        123.17 CUBIC ANGSTROMS

          GRADIENT NORM           =          0.03911 = 0.00978 PER ATOM
          IONIZATION POTENTIAL    =          9.614980 EV
          HOMO LUMO ENERGIES (EV) =         -9.615  1.140
          NO. OF FILLED LEVELS    =         17
          MOLECULAR WEIGHT        =         82.1450

          MOLECULAR DIMENSIONS (Angstroms)

            Atom       Atom       Distance
            H    16    H    12     5.37206
            H    15    H    10     4.07406
            H    14    H     9     3.29230


          SCF CALCULATIONS        =         71
 
          WALL-CLOCK TIME         =          0.180 SECONDS
          COMPUTATION TIME        =          0.157 SECONDS




   ATOM   CHEMICAL          X               Y               Z
  NUMBER   SYMBOL      (ANGSTROMS)     (ANGSTROMS)     (ANGSTROMS)
 
     1       C         -0.63560845  *  -0.17739835  *   0.50896221  *
     2       C          0.54115963  *  -1.02668182  *  -0.01855466  *
     3       C          1.70637375  *  -0.05285736  *  -0.24716014  *
     4       C         -1.88761272  *  -0.32642662  *  -0.33139237  *
     5       C         -0.11809872  *   1.23331453  *   0.48830151  *
     6       C          1.15430748  *   1.29657379  *   0.08250483  *
     7       H         -0.87055356  *  -0.45716372  *   1.56305170  *
     8       H          0.27000432  *  -1.55140306  *  -0.95322941  *
     9       H          0.81376926  *  -1.81860698  *   0.70114644  *
    10       H          2.07747800  *  -0.08289876  *  -1.28793837  *
    11       H          2.57549253  *  -0.28652359  *   0.39504455  *
    12       H         -2.25053197  *  -1.36225174  *  -0.32148316  *
    13       H         -2.69599651  *   0.31342606  *   0.04533995  *
    14       H         -1.71107111  *  -0.04938280  *  -1.37912689  *
    15       H         -0.75368360  *   2.06872331  *   0.78070491  *
    16       H          1.76279670  *   2.19539151  *  -0.01254474  *

                             CARTESIAN COORDINATES

   1    C       -0.635608448    -0.177398347     0.508962210
   2    C        0.541159633    -1.026681823    -0.018554660
   3    C        1.706373753    -0.052857363    -0.247160143
   4    C       -1.887612724    -0.326426624    -0.331392371
   5    C       -0.118098720     1.233314531     0.488301509
   6    C        1.154307485     1.296573793     0.082504831
   7    H       -0.870553556    -0.457163722     1.563051696
   8    H        0.270004323    -1.551403064    -0.953229407
   9    H        0.813769260    -1.818606980     0.701146445
  10    H        2.077478000    -0.082898759    -1.287938374
  11    H        2.575492530    -0.286523589     0.395044549
  12    H       -2.250531974    -1.362251739    -0.321483160
  13    H       -2.695996514     0.313426064     0.045339955
  14    H       -1.711071105    -0.049382797    -1.379126887
  15    H       -0.753683599     2.068723306     0.780704910
  16    H        1.762796703     2.195391511    -0.012544741


           Empirical Formula: C6 H10  =    16 atoms



      MOLECULAR POINT GROUP   :   C1  


                  EIGENVALUES  
 -40.43205 -31.33246 -28.01401 -24.23507 -19.84597 -18.48336 -17.42753 -16.11672
 -14.41473 -14.10764 -13.54478 -13.07307 -12.84124 -12.27802 -12.00818 -11.81828
  -9.61498   1.13997   3.42906   3.53211   3.72025   3.79333   3.87117   4.08906
   4.17568   4.26365   4.32203   4.57890   4.65602   4.74491   5.15967   5.26096
   5.63848   6.01441


              NET ATOMIC CHARGES AND DIPOLE CONTRIBUTIONS

  ATOM NO.   TYPE          CHARGE      No. of ELECS.   s-Pop       p-Pop       
    1          C          -0.045834        4.0458     1.17031     2.87553
    2          C          -0.100972        4.1010     1.16934     2.93163
    3          C          -0.065069        4.0651     1.15384     2.91123
    4          C          -0.103048        4.1030     1.13921     2.96384
    5          C          -0.154968        4.1550     1.20469     2.95028
    6          C          -0.151428        4.1514     1.20200     2.94943
    7          H           0.066283        0.9337     0.93372
    8          H           0.054381        0.9456     0.94562
    9          H           0.049506        0.9505     0.95049
   10          H           0.054907        0.9451     0.94509
   11          H           0.055007        0.9450     0.94499
   12          H           0.037970        0.9620     0.96203
   13          H           0.038671        0.9613     0.96133
   14          H           0.042472        0.9575     0.95753
   15          H           0.112100        0.8879     0.88790
   16          H           0.110024        0.8900     0.88998
 DIPOLE           X         Y         Z       TOTAL
 POINT-CHG.     0.008    -0.153    -0.023     0.155
 HYBRID         0.004     0.022    -0.014     0.027
 SUM            0.012    -0.131    -0.037     0.136


          ATOMIC ORBITAL ELECTRON POPULATIONS

     Atom    s        px        py        pz   
    1  C   1.17031   0.94962   0.93639   0.98951
    2  C   1.16934   0.95278   0.96879   1.01007
    3  C   1.15384   0.96998   0.93555   1.00570
    4  C   1.13921   0.96405   1.00556   0.99423
    5  C   1.20469   0.96783   0.97268   1.00976
    6  C   1.20200   0.96790   0.97637   1.00517
    7  H   0.93372
    8  H   0.94562
    9  H   0.95049
   10  H   0.94509
   11  H   0.94499
   12  H   0.96203
   13  H   0.96133
   14  H   0.95753
   15  H   0.88790
   16  H   0.88998
 *******************************************************************************
 ** Site#: 14399        For non-commercial use only    Version 18.184L 64BITS **
 *******************************************************************************
 ** Cite this program as: MOPAC2016, Version: 18.184L, James J. P. Stewart,   **
 ** Stewart Computational Chemistry, web: HTTP://OpenMOPAC.net. Days left:  18**
 *******************************************************************************
 **                                                                           **
 **                                MOPAC2016                                  **
 **                                                                           **
 *******************************************************************************

                              PM3 CALCULATION RESULTS

 *******************************************************************************
 *  CALCULATION DONE:                                Sat Jun 15 10:12:47 2019  *
 *  PM3        - The PM3 Hamiltonian to be used
 *  OLDGEO     - PREVIOUS GEOMETRY TO BE USED
 *  PRECISE    - CRITERIA TO BE INCREASED BY 100 TIMES
 *  NOSYM      - POINT-GROUP SYMMETRY SET TO C1
 *  THREADS=1  - MULTI-THREADING NOT USED
 *  T=         - A TIME OF 172800.0 SECONDS REQUESTED
 *  DUMP=N     - RESTART FILE WRITTEN EVERY  7200.000 SECONDS
 *  THERMO     - THERMODYNAMIC QUANTITIES TO BE CALCULATED
 *******************************************************************************
oldgeo thermo nosym precise THREADS=1  pm3
 InChI=1S/C6H10/c1-6-4-2-3-5-6/h2,4,6H,3,5H2,1H3

   ATOM   CHEMICAL          X               Y               Z
  NUMBER   SYMBOL      (ANGSTROMS)     (ANGSTROMS)     (ANGSTROMS)
 
     1       C         -0.63560845  *  -0.17739835  *   0.50896221  *
     2       C          0.54115963  *  -1.02668182  *  -0.01855466  *
     3       C          1.70637375  *  -0.05285736  *  -0.24716014  *
     4       C         -1.88761272  *  -0.32642662  *  -0.33139237  *
     5       C         -0.11809872  *   1.23331453  *   0.48830151  *
     6       C          1.15430748  *   1.29657379  *   0.08250483  *
     7       H         -0.87055356  *  -0.45716372  *   1.56305170  *
     8       H          0.27000432  *  -1.55140306  *  -0.95322941  *
     9       H          0.81376926  *  -1.81860698  *   0.70114644  *
    10       H          2.07747800  *  -0.08289876  *  -1.28793837  *
    11       H          2.57549253  *  -0.28652359  *   0.39504455  *
    12       H         -2.25053197  *  -1.36225174  *  -0.32148316  *
    13       H         -2.69599651  *   0.31342606  *   0.04533995  *
    14       H         -1.71107111  *  -0.04938280  *  -1.37912689  *
    15       H         -0.75368360  *   2.06872331  *   0.78070491  *
    16       H          1.76279670  *   2.19539151  *  -0.01254474  *
 


          CARTESIAN COORDINATES 

    NO.       ATOM           X           Y           Z

     1         C         -0.6356     -0.1774      0.5090
     2         C          0.5412     -1.0267     -0.0186
     3         C          1.7064     -0.0529     -0.2472
     4         C         -1.8876     -0.3264     -0.3314
     5         C         -0.1181      1.2333      0.4883
     6         C          1.1543      1.2966      0.0825
     7         H         -0.8706     -0.4572      1.5631
     8         H          0.2700     -1.5514     -0.9532
     9         H          0.8138     -1.8186      0.7011
    10         H          2.0775     -0.0829     -1.2879
    11         H          2.5755     -0.2865      0.3950
    12         H         -2.2505     -1.3623     -0.3215
    13         H         -2.6960      0.3134      0.0453
    14         H         -1.7111     -0.0494     -1.3791
    15         H         -0.7537      2.0687      0.7807
    16         H          1.7628      2.1954     -0.0125

  H: (PM3): J. J. P. STEWART, J. COMP. CHEM. 10, 209 (1989).
  C: (PM3): J. J. P. STEWART, J. COMP. CHEM. 10, 209 (1989).

           Empirical Formula: C6 H10  =    16 atoms



      MOLECULAR POINT GROUP   :   C1  


      RHF CALCULATION, NO. OF DOUBLY OCCUPIED LEVELS = 17



          HEAT OF FORMATION =      -2.702560 KCALS/MOLE


          CARTESIAN COORDINATE DERIVATIVES

   NUMBER  ATOM         X            Y            Z

     1       C      0.000576    -0.001304    -0.000852
     2       C      0.005848     0.007881     0.001724
     3       C      0.000703     0.005805     0.000389
     4       C      0.001580    -0.003114    -0.002111
     5       C     -0.005250    -0.002583    -0.003872
     6       C     -0.009245    -0.002192    -0.007850
     7       H      0.008861    -0.003040     0.000163
     8       H      0.007009     0.006060     0.006556
     9       H     -0.002167     0.009734     0.001810
    10       H      0.002073    -0.005678     0.001554
    11       H     -0.009868    -0.017590    -0.006888
    12       H     -0.009862    -0.003356    -0.002111
    13       H     -0.000277    -0.003301    -0.000065
    14       H     -0.001623     0.001979     0.001159
    15       H      0.001043     0.001395     0.004798
    16       H      0.010599     0.009303     0.005595
 


          GRADIENT NORM =   0.03943


          TIME FOR SCF CALCULATION =    0.00

          TIME FOR DERIVATIVES     =    0.00

          MOLECULAR WEIGHT =   82.14



          ROTATIONAL CONSTANTS IN CM(-1)

          A =    0.21089043   B =    0.11091659   C =    0.08267223



           PRINCIPAL MOMENTS OF INERTIA IN UNITS OF 10**(-40)*GRAM-CM**2

          A =      132.7361   B =      252.3768   C =      338.5995


          ORIENTATION OF MOLECULE IN FORCE CALCULATION

    NO.       ATOM         X         Y         Z

     1          C      -0.5468   -0.6922    0.2335
     2          C       0.9973   -0.6922    0.2335
     3          C       1.4278    0.7819    0.2335
     4          C      -1.1319   -1.4791   -0.9217
     5          C      -0.9213    0.7614    0.1608
     6          C       0.1523    1.5584    0.1662
     7          H      -0.9321   -1.1137    1.1918
     8          H       1.3986   -1.2254   -0.6481
     9          H       1.3948   -1.2275    1.1137
    10          H       2.0827    1.0256   -0.6230
    11          H       1.9993    1.0481    1.1418
    12          H      -0.8422   -2.5364   -0.8679
    13          H      -2.2286   -1.4335   -0.9168
    14          H      -0.7918   -1.0934   -1.8918
    15          H      -1.9650    1.0703    0.1106
    16          H       0.1541    2.6473    0.1297


    FIRST DERIVATIVES WILL BE USED IN THE CALCULATION OF SECOND DERIVATIVES

          ESTIMATED TIME TO COMPLETE CALCULATION =        0.75 SECONDS

    FOR POINT-GROUP C1   THERE ARE   1 UNIQUE SYMMETRY FUNCTIONS.

 STEP:   1 TIME =     0.01 SECS, INTEGRAL =      0.01 TIME LEFT: 172799.98
 STEP:   2 TIME =     0.01 SECS, INTEGRAL =      0.02 TIME LEFT: 172799.97
 STEP:   3 TIME =     0.01 SECS, INTEGRAL =      0.03 TIME LEFT: 172799.96
 STEP:   4 TIME =     0.01 SECS, INTEGRAL =      0.04 TIME LEFT: 172799.95
 STEP:   5 TIME =     0.01 SECS, INTEGRAL =      0.05 TIME LEFT: 172799.94
 STEP:   6 TIME =     0.01 SECS, INTEGRAL =      0.06 TIME LEFT: 172799.93
 STEP:   7 TIME =     0.01 SECS, INTEGRAL =      0.07 TIME LEFT: 172799.92
 STEP:   8 TIME =     0.01 SECS, INTEGRAL =      0.09 TIME LEFT: 172799.91
 STEP:   9 TIME =     0.01 SECS, INTEGRAL =      0.09 TIME LEFT: 172799.90
 STEP:  10 TIME =     0.01 SECS, INTEGRAL =      0.11 TIME LEFT: 172799.89
 STEP:  11 TIME =     0.01 SECS, INTEGRAL =      0.12 TIME LEFT: 172799.88
 STEP:  12 TIME =     0.01 SECS, INTEGRAL =      0.12 TIME LEFT: 172799.87
 STEP:  13 TIME =     0.01 SECS, INTEGRAL =      0.14 TIME LEFT: 172799.86
 STEP:  14 TIME =     0.01 SECS, INTEGRAL =      0.15 TIME LEFT: 172799.85
 STEP:  15 TIME =     0.01 SECS, INTEGRAL =      0.16 TIME LEFT: 172799.84
 STEP:  16 TIME =     0.01 SECS, INTEGRAL =      0.17 TIME LEFT: 172799.83
 STEP:  17 TIME =     0.01 SECS, INTEGRAL =      0.18 TIME LEFT: 172799.82
 STEP:  18 TIME =     0.01 SECS, INTEGRAL =      0.19 TIME LEFT: 172799.81
 STEP:  19 TIME =     0.01 SECS, INTEGRAL =      0.20 TIME LEFT: 172799.80
 STEP:  20 TIME =     0.01 SECS, INTEGRAL =      0.21 TIME LEFT: 172799.79
 STEP:  21 TIME =     0.01 SECS, INTEGRAL =      0.21 TIME LEFT: 172799.78
 STEP:  22 TIME =     0.01 SECS, INTEGRAL =      0.23 TIME LEFT: 172799.77
 STEP:  23 TIME =     0.01 SECS, INTEGRAL =      0.24 TIME LEFT: 172799.76
 STEP:  24 TIME =     0.01 SECS, INTEGRAL =      0.25 TIME LEFT: 172799.75
 STEP:  25 TIME =     0.01 SECS, INTEGRAL =      0.25 TIME LEFT: 172799.74
 STEP:  26 TIME =     0.01 SECS, INTEGRAL =      0.27 TIME LEFT: 172799.73
 STEP:  27 TIME =     0.01 SECS, INTEGRAL =      0.28 TIME LEFT: 172799.72
 STEP:  28 TIME =     0.01 SECS, INTEGRAL =      0.29 TIME LEFT: 172799.71
 STEP:  29 TIME =     0.01 SECS, INTEGRAL =      0.30 TIME LEFT: 172799.70
 STEP:  30 TIME =     0.01 SECS, INTEGRAL =      0.31 TIME LEFT: 172799.69
 STEP:  31 TIME =     0.01 SECS, INTEGRAL =      0.32 TIME LEFT: 172799.68
 STEP:  32 TIME =     0.01 SECS, INTEGRAL =      0.33 TIME LEFT: 172799.67
 STEP:  33 TIME =     0.01 SECS, INTEGRAL =      0.34 TIME LEFT: 172799.66
 STEP:  34 TIME =     0.01 SECS, INTEGRAL =      0.35 TIME LEFT: 172799.65
 STEP:  35 TIME =     0.01 SECS, INTEGRAL =      0.36 TIME LEFT: 172799.64
 STEP:  36 TIME =     0.01 SECS, INTEGRAL =      0.37 TIME LEFT: 172799.63
 STEP:  37 TIME =     0.01 SECS, INTEGRAL =      0.38 TIME LEFT: 172799.62
 STEP:  38 TIME =     0.01 SECS, INTEGRAL =      0.39 TIME LEFT: 172799.61
 STEP:  39 TIME =     0.01 SECS, INTEGRAL =      0.40 TIME LEFT: 172799.60
 STEP:  40 TIME =     0.01 SECS, INTEGRAL =      0.41 TIME LEFT: 172799.59
 STEP:  41 TIME =     0.01 SECS, INTEGRAL =      0.42 TIME LEFT: 172799.58
 STEP:  42 TIME =     0.01 SECS, INTEGRAL =      0.43 TIME LEFT: 172799.57
 STEP:  43 TIME =     0.01 SECS, INTEGRAL =      0.44 TIME LEFT: 172799.56
 STEP:  44 TIME =     0.01 SECS, INTEGRAL =      0.45 TIME LEFT: 172799.55
 STEP:  45 TIME =     0.01 SECS, INTEGRAL =      0.46 TIME LEFT: 172799.54
 STEP:  46 TIME =     0.01 SECS, INTEGRAL =      0.47 TIME LEFT: 172799.52
 STEP:  47 TIME =     0.01 SECS, INTEGRAL =      0.48 TIME LEFT: 172799.52
 STEP:  48 TIME =     0.01 SECS, INTEGRAL =      0.49 TIME LEFT: 172799.50

(To convert to Hartree/Bohr^2, multiply by (10^(-21) x N x a0^2)/(4.184 x 627.51) =  0.0642)


           FORCE MATRIX IN MILLIDYNES/ANGSTROM


                  C  1       C  2       C  3       C  4       C  5       C  6
 ------------------------------------------------------------------------------
     C    1  14.698707
     C    2   3.503533  14.205413
     C    3   0.724157   3.772843  14.678746
     C    4   4.319756   0.585150   0.035755  14.410537
     C    5   4.473149   0.862705   1.184084   0.666852  18.380053
     C    6   1.142209   0.886693   4.744434   0.043603  10.610093  18.397220
     H    7   4.260916   0.421406   0.024424   0.428148   0.403373   0.037269
     H    8   0.452791   4.537282   0.439955   0.062300   0.023684   0.025861
     H    9   0.438735   4.582499   0.440374   0.026183   0.030184   0.029699
     H   10   0.030943   0.435879   4.526498   0.001448   0.038811   0.430550
     H   11   0.026409   0.436299   4.516713   0.005289   0.037703   0.429516
     H   12   0.453755   0.017719   0.002626   4.744210   0.050497   0.007484
     H   13   0.453078   0.047126   0.004969   4.744756   0.021709   0.002749
     H   14   0.465894   0.020880   0.001412   4.734401   0.015161   0.002610
     H   15   0.415422   0.040928   0.114100   0.011122   5.016549   0.448280
     H   16   0.115007   0.043110   0.412765   0.017041   0.449265   5.019444


                  H  7       H  8       H  9       H 10       H 11       H 12
 ------------------------------------------------------------------------------
     H    7   4.724649
     H    8   0.027777   5.158036
     H    9   0.028836   0.582003   5.187014
     H   10   0.003703   0.029360   0.026027   5.132770
     H   11   0.001248   0.028326   0.029172   0.573664   5.123603
     H   12   0.028653   0.015939   0.001590   0.000301   0.000479   5.477388
     H   13   0.030458   0.002725   0.004235   0.000420   0.001006   0.567455
     H   14   0.045726   0.023838   0.001433   0.000449   0.000484   0.571296
     H   15   0.014113   0.002511   0.003101   0.015623   0.016065   0.001770
     H   16   0.014901   0.002763   0.003353   0.015074   0.014129   0.002816


                  H 13       H 14       H 15       H 16
 ------------------------------------------------------
     H   13   5.477670
     H   14   0.573432   5.472808
     H   15   0.007968   0.002350   5.414063
     H   16   0.000634   0.000775   0.048089   5.416206


          HEAT OF FORMATION =      -2.702560 KCALS/MOLE

          ZERO POINT ENERGY      90.006 KCAL/MOL


           NORMAL COORDINATE ANALYSIS (Total motion = 1 Angstrom)


   Root No.       1         2         3         4         5         6         7         8

                 1 A       2 A       3 A       4 A       5 A       6 A       7 A       8 A   

                  90.4     194.8     276.9     379.1     496.0     657.8     754.8     771.1
  
           1    0.0059   -0.0055   -0.0136   -0.0267   -0.0053    0.0439    0.0192   -0.0050
           2    0.0063    0.0025    0.0171    0.0182   -0.0020    0.0343   -0.0266   -0.0224
           3   -0.0112    0.0041   -0.0267    0.0199   -0.0437   -0.0342    0.0046    0.0200
           4    0.0057   -0.0055   -0.0141   -0.0284   -0.0024    0.0307   -0.0109   -0.0162
           5    0.0059   -0.0040    0.0034   -0.0074    0.0162   -0.0437   -0.0360   -0.0048
           6   -0.0439    0.0119    0.0003   -0.0300    0.0115   -0.0042    0.0083   -0.0029
           7    0.0034    0.0017    0.0044   -0.0070    0.0127   -0.0387   -0.0574   -0.0135
           8    0.0066   -0.0067   -0.0027   -0.0189    0.0154   -0.0357   -0.0019    0.0075
           9    0.0480    0.0034   -0.0214   -0.0027    0.0080   -0.0041    0.0126   -0.0234
          10   -0.0234    0.0018    0.0085    0.0522   -0.0251    0.0151   -0.0024    0.0007
          11   -0.0271    0.0058   -0.0429   -0.0124   -0.0383    0.0179   -0.0177   -0.0040
          12    0.0275   -0.0022    0.0046    0.0015   -0.0213    0.0168   -0.0132    0.0044
          13    0.0061    0.0013    0.0027   -0.0108    0.0120   -0.0265    0.0583    0.0331
          14    0.0053    0.0040    0.0219    0.0252    0.0078    0.0235    0.0082   -0.0107
          15   -0.0315   -0.0053   -0.0193    0.0334    0.0481   -0.0006    0.0187   -0.0242
          16    0.0054    0.0056    0.0099    0.0067    0.0137   -0.0236   -0.0002    0.0048
          17    0.0063   -0.0015    0.0131    0.0039    0.0097    0.0113    0.0856    0.0277
          18    0.0048   -0.0121    0.0599   -0.0168   -0.0225   -0.0061    0.0060   -0.0131
          19    0.0287   -0.0099   -0.0280   -0.0292   -0.0074    0.0565   -0.0057   -0.0220
          20    0.0333    0.0014    0.0452    0.0151   -0.0328    0.0571   -0.0395    0.0096
          21    0.0104    0.0016   -0.0185    0.0163   -0.0558   -0.0168   -0.0112    0.0268
          22   -0.0163   -0.0048   -0.0001   -0.0668    0.0406    0.0774   -0.0129   -0.0217
          23    0.0714   -0.0114   -0.0234    0.0244   -0.0107   -0.0930    0.0148   -0.0369
          24   -0.0939    0.0167    0.0230   -0.0691    0.0496    0.0474   -0.0262    0.0149
          25    0.0282   -0.0126   -0.0404    0.0000   -0.0504   -0.0195    0.0345    0.0070
          26   -0.0589   -0.0003    0.0205   -0.0540    0.0462   -0.0133   -0.0666    0.0412
          27   -0.0938    0.0173    0.0229   -0.0719    0.0523    0.0406   -0.0313    0.0153
          28    0.0598    0.0102   -0.0662    0.0279    0.0645   -0.0062   -0.1246    0.0854
          29    0.0454   -0.0170   -0.0061   -0.0195    0.0035   -0.0183   -0.0421    0.0076
          30    0.1024    0.0071   -0.0775    0.0244    0.0457    0.0283   -0.0510    0.0566
          31   -0.0574   -0.0048    0.0865   -0.0351   -0.0383   -0.0908    0.0155   -0.1153
          32   -0.0323   -0.0018   -0.0157   -0.0408    0.0230   -0.0376   -0.0104   -0.0140
          33    0.0979    0.0062   -0.0704    0.0220    0.0396    0.0301   -0.0354    0.0500
          34   -0.0117    0.2262    0.0506    0.0965   -0.0163    0.0098   -0.0253   -0.0124
          35   -0.0230    0.0588   -0.0299    0.0004   -0.0349    0.0181   -0.0255   -0.0094
          36    0.0450   -0.1555    0.0489    0.0395    0.0200    0.0552   -0.0391   -0.0490
          37   -0.0237   -0.0067    0.0070    0.0514   -0.0258    0.0153   -0.0018    0.0015
          38   -0.0373   -0.2215   -0.0873   -0.0612   -0.0502    0.0275    0.0027    0.0117
          39    0.0617    0.1479    0.0071   -0.0705    0.0066    0.0752    0.0060   -0.0210
          40   -0.0584   -0.2048   -0.0097    0.0983   -0.0542   -0.0294   -0.0151    0.0280
          41   -0.0485    0.1823   -0.0718   -0.0167   -0.0842   -0.0286   -0.0112    0.0488
          42    0.0067   -0.0040   -0.0127    0.0151   -0.0480   -0.0160   -0.0149    0.0336
          43    0.0074    0.0032    0.0077   -0.0064    0.0113   -0.0418    0.0491    0.0256
          44    0.0040    0.0089    0.0354    0.0461    0.0252   -0.0148   -0.0412   -0.0153
          45   -0.0663   -0.0101   -0.0374    0.0777    0.1714    0.0882   -0.0855    0.1098
          46    0.0060    0.0114    0.0199    0.0313    0.0094    0.0190    0.0078   -0.0231
          47    0.0064   -0.0019    0.0160    0.0029    0.0093    0.0128    0.0808    0.0360
          48    0.0067   -0.0254    0.1467   -0.0467   -0.0439    0.0533   -0.1523    0.2312


   Root No.       9        10        11        12        13        14        15        16

                 9 A      10 A      11 A      12 A      13 A      14 A      15 A      16 A   

                 821.6     924.1     936.6     956.2     996.3    1021.2    1044.2    1058.2
  
           1    0.0041   -0.0160   -0.0083   -0.0122    0.0025    0.0081   -0.0142   -0.0059
           2    0.0040   -0.0013   -0.0045    0.0122   -0.0049    0.0144   -0.0030   -0.0077
           3   -0.0046    0.0166    0.0021   -0.0041   -0.0054   -0.0124    0.0041   -0.0193
           4    0.0072    0.0577    0.0122    0.0141   -0.0042   -0.0027    0.0069   -0.0060
           5   -0.0024   -0.0180   -0.0068   -0.0256    0.0107   -0.0157   -0.0298    0.0004
           6    0.0308    0.0175   -0.0188    0.0005   -0.0162    0.0026   -0.0098   -0.0069
           7   -0.0001   -0.0078   -0.0024    0.0069   -0.0072    0.0272    0.0029   -0.0246
           8   -0.0008   -0.0015    0.0039    0.0138   -0.0068    0.0099    0.0221    0.0043
           9    0.0210   -0.0148    0.0187   -0.0002    0.0247   -0.0060    0.0110   -0.0140
          10   -0.0003   -0.0295   -0.0132   -0.0242   -0.0093   -0.0011    0.0193    0.0072
          11   -0.0016   -0.0234   -0.0085    0.0327    0.0006   -0.0213   -0.0026    0.0076
          12   -0.0056   -0.0181    0.0102   -0.0003    0.0110    0.0041    0.0006    0.0198
          13   -0.0047   -0.0215    0.0019    0.0242   -0.0019   -0.0068    0.0034    0.0168
          14    0.0017    0.0326    0.0016   -0.0269    0.0040    0.0008    0.0026   -0.0120
          15   -0.0198    0.0139   -0.0249    0.0055    0.0214    0.0199    0.0145   -0.0017
          16   -0.0018    0.0015    0.0005   -0.0055    0.0036   -0.0124    0.0045    0.0147
          17   -0.0038   -0.0004    0.0012    0.0041    0.0014    0.0104   -0.0101   -0.0227
          18   -0.0209    0.0002    0.0080   -0.0040   -0.0375    0.0011   -0.0241    0.0245
          19   -0.0274   -0.0090    0.0213   -0.0657    0.0999   -0.0104   -0.1037   -0.0328
          20    0.0275    0.0105    0.0579    0.0501   -0.0699    0.1423    0.0181    0.0212
          21   -0.0073    0.0200    0.0404   -0.0079    0.0055    0.0361   -0.0220   -0.0161
          22   -0.0446    0.0227    0.0733    0.0147    0.0915   -0.0083    0.0206    0.0867
          23    0.1185    0.0011   -0.0364   -0.0197    0.0303   -0.0111   -0.0484    0.0774
          24   -0.0707   -0.0107    0.0294   -0.0025    0.0166   -0.0041    0.0094   -0.0107
          25    0.0642    0.1610   -0.0376   -0.0066   -0.0941   -0.0751   -0.0434   -0.0821
          26   -0.1212   -0.0019    0.0290   -0.0489   -0.0014   -0.0893   -0.0400   -0.0409
          27   -0.0716   -0.0198    0.0272   -0.0056    0.0183   -0.0098    0.0063   -0.0008
          28   -0.0692    0.0194   -0.0725   -0.0014   -0.0565    0.0768   -0.0847    0.0004
          29   -0.0738    0.0291    0.0643    0.0250   -0.0580   -0.0690    0.1704   -0.0568
          30   -0.0566    0.0154   -0.0190   -0.0024   -0.0302    0.0095   -0.0133   -0.0114
          31    0.0713   -0.0798    0.0597   -0.0028    0.0559    0.0116    0.0271   -0.1425
          32    0.0830    0.0683   -0.0321    0.0369    0.0199    0.0420    0.0072    0.2138
          33   -0.0522    0.0120   -0.0110   -0.0021   -0.0249   -0.0058   -0.0016   -0.0029
          34   -0.0134   -0.0034    0.0065    0.1205    0.0240   -0.0434   -0.0379    0.0093
          35   -0.0048   -0.0186   -0.0051    0.0774    0.0089   -0.0358   -0.0185    0.0088
          36   -0.0055   -0.0544   -0.0530    0.1720    0.0022   -0.1061   -0.0230    0.0085
          37   -0.0003   -0.0309   -0.0126   -0.0281   -0.0092    0.0007    0.0202    0.0085
          38    0.0112   -0.0668   -0.0250   -0.1214   -0.0299    0.0258    0.0592    0.0253
          39    0.0175   -0.1169   -0.0858   -0.1071   -0.0557   -0.0222    0.0882    0.0226
          40   -0.0200    0.0317    0.0676    0.0267    0.0475    0.0322   -0.0393    0.0242
          41   -0.0113    0.0210    0.0787   -0.0553    0.0340    0.0734   -0.0119    0.0387
          42   -0.0161    0.0190    0.0703   -0.0164    0.0431    0.0506   -0.0221    0.0381
          43   -0.0120    0.0028    0.0009    0.0114    0.0025   -0.0257    0.0406    0.0509
          44    0.0069    0.0981    0.0264   -0.0710   -0.0010   -0.0695    0.1182    0.0959
          45    0.1641   -0.0912    0.1497   -0.0124   -0.0945   -0.0555   -0.0403   -0.0024
          46   -0.0007    0.0716    0.0042   -0.1072    0.0366   -0.1061   -0.0689    0.0490
          47   -0.0003    0.0025   -0.0018    0.0041    0.0076    0.0100   -0.0066   -0.0256
          48    0.0873    0.0448   -0.0915    0.0152    0.1438   -0.0032    0.0628   -0.0540


   Root No.      17        18        19        20        21        22        23        24

                17 A      18 A      19 A      20 A      21 A      22 A      23 A      24 A   

                1082.2    1100.6    1115.6    1129.4    1153.0    1234.9    1260.7    1305.9
  
           1    0.0057    0.0002    0.0010    0.0212   -0.0180    0.0218   -0.0295    0.0830
           2    0.0079    0.0050   -0.0005    0.0087   -0.0166   -0.0275   -0.0201   -0.0124
           3   -0.0061    0.0101    0.0089    0.0051    0.0485   -0.0140   -0.0291    0.0276
           4   -0.0035   -0.0051   -0.0079   -0.0253    0.0158   -0.0057   -0.0345   -0.0526
           5    0.0241   -0.0005   -0.0243   -0.0049   -0.0018   -0.0074   -0.0420   -0.0246
           6    0.0064   -0.0309   -0.0087    0.0240   -0.0155    0.0025    0.0088   -0.0084
           7   -0.0225   -0.0061    0.0190   -0.0053    0.0077    0.0008    0.0098    0.0028
           8   -0.0126    0.0003    0.0242    0.0083    0.0014    0.0358    0.0186    0.0078
           9   -0.0025    0.0329    0.0056   -0.0123   -0.0059    0.0003   -0.0015    0.0001
          10   -0.0018    0.0043    0.0008   -0.0074    0.0056   -0.0038    0.0085   -0.0148
          11   -0.0034   -0.0009   -0.0012   -0.0017    0.0037    0.0093    0.0060    0.0041
          12   -0.0076   -0.0181    0.0008   -0.0218   -0.0341    0.0043    0.0035    0.0004
          13    0.0136    0.0063   -0.0119    0.0060   -0.0089   -0.0118   -0.0069   -0.0197
          14   -0.0175   -0.0058    0.0107   -0.0035    0.0054   -0.0212    0.0105    0.0323
          15    0.0213    0.0051   -0.0077   -0.0014   -0.0094    0.0049    0.0038   -0.0038
          16    0.0109    0.0036    0.0015    0.0084   -0.0089   -0.0278    0.0061    0.0132
          17   -0.0170   -0.0081    0.0052   -0.0150    0.0147    0.0075    0.0023   -0.0172
          18   -0.0126   -0.0031    0.0028    0.0019    0.0063   -0.0027   -0.0013    0.0016
          19   -0.0910    0.0324   -0.0028    0.2567    0.0146   -0.0387    0.1088   -0.1286
          20    0.2143    0.1090   -0.0824    0.0499    0.0644    0.0767    0.0371    0.0082
          21    0.0457    0.0679   -0.0277    0.1179    0.0991    0.0080    0.0527   -0.0487
          22    0.0186   -0.0791   -0.0708   -0.0861    0.1723   -0.0570    0.1258    0.0768
          23    0.0714   -0.1360   -0.0944   -0.0037    0.0638   -0.0497    0.0857    0.0977
          24   -0.0102    0.0173    0.0048   -0.0039    0.0185    0.0025    0.0049   -0.0206
          25    0.0167    0.0852   -0.0570   -0.0609   -0.1178   -0.0081    0.1700    0.0118
          26    0.0402    0.1443   -0.0450   -0.0832   -0.0530   -0.0316    0.0793    0.0909
          27    0.0054    0.0166    0.0004   -0.0060    0.0150   -0.0103   -0.0089    0.0299
          28   -0.0705   -0.0335   -0.0117   -0.0396    0.0536    0.0733    0.0488    0.0120
          29    0.0979   -0.1201    0.0823    0.1241   -0.0609   -0.0708    0.0351    0.0248
          30   -0.0076   -0.0217   -0.0018   -0.0029    0.0088    0.0228    0.0288    0.0105
          31   -0.0214    0.0073   -0.0153   -0.0513    0.0180    0.0788    0.0519    0.0110
          32   -0.0598    0.1419    0.1478    0.0077   -0.0035   -0.0770    0.0136    0.0330
          33    0.0107   -0.0177   -0.0088    0.0152   -0.0103   -0.0130   -0.0224   -0.0113
          34   -0.0090   -0.0088   -0.0031    0.0107   -0.0150    0.0327    0.0287   -0.0066
          35   -0.0043   -0.0036   -0.0035    0.0039    0.0001    0.0217    0.0171   -0.0019
          36   -0.0167    0.0016   -0.0029    0.0064    0.0251    0.0455    0.0495   -0.0410
          37   -0.0017    0.0046    0.0002   -0.0067    0.0042   -0.0027    0.0134   -0.0207
          38    0.0060    0.0044   -0.0054   -0.0304    0.0007   -0.0083    0.0468   -0.0840
          39   -0.0026    0.0176   -0.0032   -0.0348    0.0468   -0.0070    0.0710   -0.1026
          40   -0.0072   -0.0320   -0.0016   -0.0076   -0.0760    0.0192    0.0247   -0.0138
          41    0.0057   -0.0363   -0.0054   -0.0345   -0.0968    0.0123    0.0297   -0.0593
          42   -0.0064   -0.0448   -0.0016   -0.0361   -0.1002    0.0141    0.0217   -0.0289
          43   -0.0176    0.0158   -0.0674    0.0319   -0.0166    0.0428   -0.0262   -0.0210
          44   -0.1334    0.0232   -0.1680    0.0774   -0.0110    0.1592   -0.0515    0.0273
          45   -0.0331   -0.0028    0.0184    0.0007    0.0211   -0.0119   -0.0081    0.0033
          46    0.1539   -0.0306    0.1979   -0.0175    0.0433    0.1769    0.0063   -0.0630
          47   -0.0168   -0.0081    0.0072   -0.0155    0.0154    0.0090    0.0034   -0.0179
          48    0.0288    0.0137    0.0037   -0.0026   -0.0041    0.0045   -0.0018    0.0012


   Root No.      25        26        27        28        29        30        31        32

                25 A      26 A      27 A      28 A      29 A      30 A      31 A      32 A   

                1350.9    1375.8    1403.4    1407.2    1411.6    1421.7    1424.1    1831.4
  
           1   -0.0096   -0.0108    0.0009   -0.0048    0.0017    0.0158    0.0109    0.0074
           2    0.0401    0.0407    0.0039   -0.0079    0.0008    0.0198    0.0513    0.0185
           3    0.0078    0.0009    0.0037   -0.0093    0.0035    0.0134    0.0227    0.0002
           4   -0.0024   -0.0029   -0.0022   -0.0157    0.0082   -0.0296   -0.0088    0.0049
           5   -0.0159   -0.0140    0.0005    0.0092    0.0054    0.0294   -0.0227   -0.0065
           6   -0.0008    0.0001   -0.0004    0.0009   -0.0003   -0.0028   -0.0034    0.0001
           7   -0.0314   -0.0064    0.0055    0.0389   -0.0309   -0.0064    0.0243   -0.0198
           8    0.0670   -0.0166   -0.0009   -0.0112    0.0017   -0.0172    0.0023   -0.0013
           9   -0.0026   -0.0003    0.0003    0.0017   -0.0013   -0.0002    0.0010   -0.0005
          10    0.0055    0.0110   -0.0267    0.0010   -0.0229   -0.0063   -0.0190   -0.0012
          11   -0.0011    0.0062   -0.0223    0.0243    0.0108   -0.0161   -0.0246    0.0026
          12    0.0073    0.0191    0.0204    0.0170   -0.0123   -0.0161   -0.0350    0.0006
          13    0.0091    0.0138   -0.0000   -0.0029    0.0027    0.0047    0.0062   -0.1755
          14   -0.0054   -0.0337   -0.0027   -0.0100    0.0079   -0.0103   -0.0281   -0.1622
          15   -0.0015    0.0004   -0.0001    0.0011   -0.0006   -0.0009   -0.0017   -0.0007
          16    0.0256   -0.0219   -0.0031   -0.0174    0.0130   -0.0047   -0.0225    0.2066
          17   -0.0350    0.0084    0.0017    0.0155   -0.0106   -0.0005    0.0056    0.1205
          18    0.0024   -0.0006   -0.0001   -0.0013    0.0009    0.0003   -0.0001    0.0024
          19    0.0208    0.0281   -0.0048    0.0016   -0.0101   -0.0293   -0.0093   -0.0205
          20   -0.0493   -0.0335   -0.0040    0.0175   -0.0012   -0.0177   -0.0492    0.0214
          21   -0.0199   -0.0164   -0.0012    0.0049   -0.0025   -0.0212   -0.0297   -0.0042
          22    0.0679    0.0157    0.0114    0.0596   -0.0256    0.1398    0.0268    0.0009
          23   -0.0406    0.0533   -0.0061   -0.0329   -0.0206   -0.1288    0.0752   -0.0020
          24    0.0419   -0.0270    0.0084    0.0525   -0.0006    0.1481   -0.0395   -0.0058
          25    0.0452    0.0104    0.0082    0.0664   -0.0225    0.1100   -0.0014    0.0010
          26   -0.0509    0.0505   -0.0046   -0.0326   -0.0193   -0.1343    0.0719   -0.0023
          27   -0.0382    0.0289   -0.0069   -0.0533   -0.0017   -0.1426    0.0445    0.0055
          28   -0.0141    0.0848   -0.0132   -0.0893    0.0765    0.0436   -0.0502   -0.0247
          29   -0.1393    0.0592   -0.0032   -0.0065    0.0217    0.0530   -0.0260    0.0261
          30   -0.0413    0.0796   -0.0127   -0.0829    0.0754    0.0504   -0.0552   -0.0021
          31   -0.0201    0.0913   -0.0144   -0.0964    0.0834    0.0470   -0.0565   -0.0223
          32   -0.1336    0.0573   -0.0021   -0.0071    0.0211    0.0540   -0.0205    0.0258
          33    0.0426   -0.0727    0.0114    0.0743   -0.0683   -0.0476    0.0501   -0.0014
          34   -0.0462   -0.0588    0.3379   -0.0327    0.0460    0.0057    0.0278   -0.0012
          35   -0.0236   -0.0255    0.0789   -0.0062    0.0125   -0.0016   -0.0012    0.0041
          36   -0.0801   -0.1095   -0.1460   -0.1223   -0.0998    0.0635    0.0514   -0.0008
          37    0.0000    0.0016    0.0036   -0.0028   -0.0089   -0.0038   -0.0063   -0.0019
          38   -0.0254   -0.0384    0.3142   -0.0911   -0.0571    0.0296    0.0304   -0.0005
          39   -0.0386   -0.0779   -0.0813    0.0302    0.1859    0.0015    0.1145   -0.0004
          40   -0.0309   -0.0568   -0.0310    0.0705    0.2261   -0.0152    0.0977    0.0017
          41   -0.0398   -0.0634   -0.1439   -0.1230   -0.1161    0.0697    0.0663   -0.0001
          42   -0.0252   -0.0413   -0.0566   -0.0214    0.0302    0.0205    0.0540   -0.0000
          43   -0.0039    0.0368    0.0017    0.0076   -0.0054    0.0140    0.0271   -0.1447
          44   -0.0525    0.0394    0.0044    0.0274   -0.0215    0.0174    0.0409    0.1001
          45    0.0049    0.0014    0.0003   -0.0019    0.0015    0.0019    0.0035   -0.0074
          46    0.0180    0.0518    0.0057    0.0256   -0.0231    0.0036    0.0494   -0.0562
          47   -0.0370    0.0079    0.0018    0.0168   -0.0116   -0.0015    0.0053    0.1652
          48    0.0034    0.0012    0.0006   -0.0009    0.0000    0.0012    0.0035   -0.0079


   Root No.      33        34        35        36        37        38        39        40

                33 A      34 A      35 A      36 A      37 A      38 A      39 A      40 A   

                2891.8    2972.3    2989.4    3055.3    3067.6    3081.6    3084.8    3115.0
  
           1    0.0230   -0.0005    0.0007    0.0004   -0.0006    0.0005    0.0002   -0.0001
           2    0.0255   -0.0004    0.0006    0.0002    0.0003    0.0006   -0.0002    0.0003
           3   -0.0567    0.0010   -0.0017    0.0000   -0.0003   -0.0013    0.0001    0.0001
           4    0.0009   -0.0006    0.0013    0.0032   -0.0213   -0.0007   -0.0000    0.0001
           5   -0.0001    0.0008   -0.0016   -0.0052    0.0285    0.0007   -0.0005    0.0001
           6    0.0044    0.0218   -0.0381    0.0007   -0.0038   -0.0004   -0.0004   -0.0000
           7   -0.0002    0.0014    0.0007   -0.0338   -0.0051   -0.0001   -0.0000   -0.0001
           8   -0.0001   -0.0006   -0.0004   -0.0139   -0.0016   -0.0000   -0.0000   -0.0002
           9   -0.0002   -0.0386   -0.0214   -0.0005   -0.0003   -0.0000    0.0000    0.0000
          10   -0.0014    0.0000   -0.0000   -0.0001   -0.0004    0.0253    0.0437    0.0000
          11   -0.0016   -0.0000    0.0000    0.0001   -0.0009    0.0279   -0.0366    0.0002
          12    0.0010   -0.0001    0.0001   -0.0001    0.0009   -0.0323    0.0027   -0.0003
          13   -0.0003    0.0000   -0.0000   -0.0003   -0.0004    0.0002    0.0001   -0.0372
          14    0.0009   -0.0000    0.0000    0.0003    0.0000   -0.0002    0.0004    0.0109
          15   -0.0001   -0.0002   -0.0002   -0.0000   -0.0000   -0.0001    0.0002   -0.0017
          16   -0.0003   -0.0000   -0.0000   -0.0005    0.0001   -0.0000   -0.0000    0.0001
          17   -0.0004   -0.0000   -0.0000    0.0017    0.0006    0.0001    0.0000   -0.0374
          18   -0.0003   -0.0000   -0.0001   -0.0001   -0.0000   -0.0000   -0.0000    0.0013
          19   -0.2775    0.0065   -0.0102    0.0004   -0.0027   -0.0039    0.0012   -0.0005
          20   -0.3037    0.0053   -0.0085   -0.0000   -0.0014   -0.0039   -0.0008    0.0014
          21    0.6912   -0.0120    0.0185   -0.0001    0.0041    0.0167   -0.0004   -0.0010
          22    0.0080    0.0668   -0.1159   -0.0198    0.1202    0.0016   -0.0033    0.0002
          23   -0.0145   -0.0836    0.1537    0.0242   -0.1574   -0.0032    0.0021    0.0000
          24   -0.0241   -0.1404    0.2471    0.0484   -0.3043   -0.0075    0.0046   -0.0002
          25   -0.0079   -0.0581    0.0985   -0.0233    0.1380    0.0041   -0.0008    0.0002
          26    0.0181    0.0744   -0.1345    0.0296   -0.1865   -0.0054    0.0007    0.0001
          27   -0.0290   -0.1217    0.2088   -0.0568    0.3493    0.0101   -0.0016    0.0001
          28   -0.0017   -0.1751   -0.0977    0.2218    0.0330    0.0005    0.0003    0.0035
          29   -0.0004   -0.0640   -0.0387    0.0813    0.0130    0.0002    0.0001   -0.0003
          30    0.0022    0.2215    0.1219   -0.3310   -0.0499   -0.0008   -0.0004   -0.0039
          31    0.0005    0.1581    0.0890    0.1822    0.0290    0.0007    0.0002    0.0027
          32   -0.0004    0.0720    0.0435    0.0864    0.0150    0.0004    0.0001   -0.0003
          33    0.0005    0.2440    0.1355    0.3366    0.0535    0.0012    0.0003    0.0037
          34   -0.0050   -0.0001    0.0001    0.0003   -0.0026    0.0743   -0.1103    0.0001
          35    0.0101    0.0001    0.0003   -0.0008    0.0065   -0.1994    0.4427   -0.0001
          36   -0.0037    0.0000   -0.0000    0.0000   -0.0001   -0.0010   -0.0326   -0.0000
          37    0.0111   -0.0019    0.0036    0.0009    0.0014   -0.2359   -0.4389   -0.0001
          38   -0.0028    0.0001   -0.0001   -0.0000   -0.0005    0.0279    0.0067    0.0005
          39   -0.0034    0.0000    0.0000   -0.0000    0.0005   -0.0105    0.0131    0.0000
          40    0.0080   -0.0004    0.0008   -0.0002    0.0041   -0.1404    0.0277   -0.0012
          41    0.0097   -0.0002    0.0005   -0.0003    0.0048   -0.1616   -0.0125   -0.0013
          42   -0.0143    0.0002   -0.0006    0.0007   -0.0120    0.3987   -0.0131    0.0031
          43    0.0055   -0.0001    0.0002    0.0092    0.0097   -0.0023    0.0009    0.4397
          44   -0.0000   -0.0000   -0.0000   -0.0024   -0.0032    0.0009    0.0004   -0.1338
          45   -0.0012   -0.0003   -0.0003    0.0004    0.0005   -0.0002    0.0003    0.0209
          46   -0.0003    0.0001    0.0000   -0.0017    0.0001    0.0000   -0.0000   -0.0025
          47   -0.0040    0.0003    0.0001   -0.0172   -0.0119   -0.0013   -0.0005    0.4459
          48   -0.0006   -0.0008   -0.0006    0.0005    0.0004    0.0001   -0.0001   -0.0150


   Root No.      41        42

                41 A      42 A   

                3134.0    3180.3
  
           1    0.0006   -0.0003
           2    0.0008   -0.0004
           3   -0.0003   -0.0003
           4   -0.0011   -0.0001
           5    0.0014    0.0002
           6   -0.0001    0.0002
           7   -0.0022    0.0000
           8   -0.0007    0.0000
           9   -0.0000    0.0000
          10    0.0000   -0.0098
          11   -0.0002   -0.0129
          12    0.0001   -0.0184
          13    0.0398    0.0002
          14   -0.0064    0.0000
          15    0.0017    0.0000
          16   -0.0052   -0.0000
          17   -0.0411   -0.0000
          18    0.0012   -0.0000
          19   -0.0007    0.0002
          20   -0.0023    0.0002
          21    0.0037   -0.0022
          22    0.0027    0.0003
          23   -0.0036   -0.0017
          24   -0.0070   -0.0030
          25    0.0031    0.0003
          26   -0.0042   -0.0004
          27    0.0080    0.0009
          28    0.0096    0.0000
          29    0.0022    0.0000
          30   -0.0130   -0.0001
          31    0.0077   -0.0000
          32    0.0024   -0.0000
          33    0.0131   -0.0000
          34   -0.0000   -0.0937
          35   -0.0001    0.3062
          36   -0.0000   -0.0312
          37   -0.0012    0.3222
          38   -0.0005   -0.0235
          39   -0.0001   -0.0165
          40    0.0009   -0.1086
          41    0.0009   -0.1249
          42   -0.0020    0.2738
          43   -0.4030   -0.0023
          44    0.1199    0.0004
          45   -0.0191   -0.0002
          46    0.0002    0.0000
          47    0.4339    0.0001
          48   -0.0145   -0.0000


           MASS-WEIGHTED COORDINATE ANALYSIS (NORMAL COORDINATES)


   Root No.       1         2         3         4         5         6         7         8

                 1 A       2 A       3 A       4 A       5 A       6 A       7 A       8 A   

                  90.4     194.8     276.9     379.1     496.0     657.8     754.8     771.1
  
           1    0.0490   -0.0393   -0.1121   -0.2223   -0.0432    0.3272    0.1240   -0.0427
           2    0.0526    0.0182    0.1408    0.1518   -0.0163    0.2553   -0.1715   -0.1905
           3   -0.0935    0.0294   -0.2202    0.1653   -0.3566   -0.2548    0.0299    0.1697
           4    0.0479   -0.0395   -0.1160   -0.2366   -0.0198    0.2292   -0.0706   -0.1375
           5    0.0493   -0.0283    0.0278   -0.0618    0.1326   -0.3255   -0.2323   -0.0406
           6   -0.3673    0.0848    0.0021   -0.2499    0.0936   -0.0313    0.0534   -0.0246
           7    0.0288    0.0122    0.0361   -0.0585    0.1036   -0.2884   -0.3700   -0.1146
           8    0.0551   -0.0476   -0.0223   -0.1570    0.1258   -0.2660   -0.0123    0.0638
           9    0.4009    0.0246   -0.1764   -0.0227    0.0655   -0.0304    0.0811   -0.1993
          10   -0.1958    0.0129    0.0699    0.4344   -0.2051    0.1122   -0.0157    0.0055
          11   -0.2270    0.0414   -0.3536   -0.1034   -0.3127    0.1331   -0.1142   -0.0344
          12    0.2297   -0.0154    0.0379    0.0126   -0.1743    0.1251   -0.0851    0.0370
          13    0.0514    0.0091    0.0220   -0.0900    0.0982   -0.1979    0.3758    0.2818
          14    0.0447    0.0286    0.1806    0.2101    0.0639    0.1752    0.0531   -0.0906
          15   -0.2636   -0.0380   -0.1589    0.2784    0.3930   -0.0043    0.1205   -0.2058
          16    0.0450    0.0402    0.0812    0.0556    0.1121   -0.1762   -0.0011    0.0410
          17    0.0531   -0.0108    0.1077    0.0324    0.0792    0.0843    0.5520    0.2357
          18    0.0400   -0.0864    0.4934   -0.1396   -0.1838   -0.0455    0.0388   -0.1111
          19    0.0694   -0.0204   -0.0668   -0.0705   -0.0174    0.1219   -0.0106   -0.0541
          20    0.0807    0.0030    0.1079    0.0363   -0.0777    0.1232   -0.0738    0.0235
          21    0.0251    0.0034   -0.0443    0.0392   -0.1320   -0.0363   -0.0210    0.0661
          22   -0.0396   -0.0099   -0.0004   -0.1611    0.0960    0.1671   -0.0241   -0.0536
          23    0.1730   -0.0236   -0.0560    0.0588   -0.0253   -0.2009    0.0277   -0.0908
          24   -0.2274    0.0346    0.0550   -0.1667    0.1174    0.1023   -0.0489    0.0367
          25    0.0682   -0.0260   -0.0964    0.0001   -0.1194   -0.0420    0.0645    0.0172
          26   -0.1427   -0.0007    0.0490   -0.1301    0.1092   -0.0287   -0.1245    0.1014
          27   -0.2272    0.0357    0.0547   -0.1734    0.1238    0.0877   -0.0585    0.0378
          28    0.1447    0.0212   -0.1580    0.0674    0.1525   -0.0135   -0.2328    0.2103
          29    0.1100   -0.0351   -0.0146   -0.0471    0.0082   -0.0395   -0.0787    0.0186
          30    0.2480    0.0146   -0.1851    0.0589    0.1080    0.0611   -0.0952    0.1395
          31   -0.1390   -0.0099    0.2066   -0.0845   -0.0906   -0.1961    0.0290   -0.2841
          32   -0.0783   -0.0037   -0.0374   -0.0983    0.0545   -0.0812   -0.0194   -0.0346
          33    0.2372    0.0127   -0.1679    0.0529    0.0936    0.0651   -0.0661    0.1231
          34   -0.0283    0.4673    0.1208    0.2327   -0.0385    0.0211   -0.0473   -0.0306
          35   -0.0558    0.1216   -0.0715    0.0010   -0.0825    0.0390   -0.0476   -0.0230
          36    0.1090   -0.3213    0.1166    0.0953    0.0473    0.1191   -0.0731   -0.1208
          37   -0.0574   -0.0138    0.0166    0.1239   -0.0610    0.0330   -0.0034    0.0038
          38   -0.0905   -0.4576   -0.2085   -0.1477   -0.1188    0.0595    0.0051    0.0288
          39    0.1494    0.3056    0.0169   -0.1700    0.0156    0.1624    0.0113   -0.0518
          40   -0.1416   -0.4231   -0.0232    0.2371   -0.1283   -0.0634   -0.0281    0.0690
          41   -0.1176    0.3768   -0.1714   -0.0402   -0.1993   -0.0619   -0.0209    0.1202
          42    0.0163   -0.0084   -0.0304    0.0365   -0.1136   -0.0345   -0.0278    0.0827
          43    0.0180    0.0065    0.0183   -0.0155    0.0267   -0.0903    0.0917    0.0630
          44    0.0098    0.0184    0.0845    0.1111    0.0597   -0.0320   -0.0770   -0.0376
          45   -0.1605   -0.0210   -0.0893    0.1874    0.4055    0.1904   -0.1598    0.2705
          46    0.0145    0.0236    0.0474    0.0754    0.0223    0.0409    0.0146   -0.0568
          47    0.0155   -0.0040    0.0383    0.0071    0.0219    0.0276    0.1510    0.0888
          48    0.0161   -0.0525    0.3503   -0.1126   -0.1040    0.1151   -0.2845    0.5694


   Root No.       9        10        11        12        13        14        15        16

                 9 A      10 A      11 A      12 A      13 A      14 A      15 A      16 A   

                 821.6     924.1     936.6     956.2     996.3    1021.2    1044.2    1058.2
  
           1    0.0380   -0.1276   -0.0848   -0.1041    0.0248    0.0793   -0.1337   -0.0506
           2    0.0370   -0.0105   -0.0465    0.1043   -0.0473    0.1405   -0.0281   -0.0668
           3   -0.0421    0.1326    0.0220   -0.0353   -0.0528   -0.1210    0.0388   -0.1666
           4    0.0665    0.4598    0.1254    0.1203   -0.0414   -0.0259    0.0644   -0.0516
           5   -0.0223   -0.1430   -0.0698   -0.2185    0.1040   -0.1535   -0.2798    0.0037
           6    0.2846    0.1395   -0.1933    0.0041   -0.1584    0.0251   -0.0918   -0.0594
           7   -0.0012   -0.0625   -0.0245    0.0586   -0.0707    0.2652    0.0268   -0.2127
           8   -0.0072   -0.0122    0.0402    0.1180   -0.0667    0.0968    0.2077    0.0375
           9    0.1938   -0.1183    0.1918   -0.0013    0.2409   -0.0584    0.1031   -0.1209
          10   -0.0028   -0.2351   -0.1358   -0.2070   -0.0911   -0.0106    0.1808    0.0627
          11   -0.0152   -0.1864   -0.0868    0.2792    0.0054   -0.2078   -0.0242    0.0657
          12   -0.0519   -0.1444    0.1045   -0.0021    0.1077    0.0404    0.0056    0.1709
          13   -0.0430   -0.1710    0.0192    0.2065   -0.0190   -0.0664    0.0322    0.1453
          14    0.0155    0.2597    0.0165   -0.2297    0.0393    0.0075    0.0246   -0.1036
          15   -0.1826    0.1106   -0.2555    0.0467    0.2087    0.1939    0.1357   -0.0150
          16   -0.0169    0.0119    0.0050   -0.0466    0.0352   -0.1208    0.0418    0.1276
          17   -0.0355   -0.0033    0.0123    0.0346    0.0140    0.1013   -0.0952   -0.1964
          18   -0.1932    0.0017    0.0817   -0.0341   -0.3660    0.0103   -0.2265    0.2122
          19   -0.0734   -0.0207    0.0634   -0.1626    0.2822   -0.0295   -0.2820   -0.0821
          20    0.0737    0.0242    0.1721    0.1241   -0.1974    0.4017    0.0491    0.0533
          21   -0.0195    0.0461    0.1201   -0.0196    0.0155    0.1020   -0.0598   -0.0403
          22   -0.1193    0.0524    0.2177    0.0364    0.2584   -0.0235    0.0560    0.2174
          23    0.3172    0.0025   -0.1083   -0.0487    0.0857   -0.0314   -0.1316    0.1939
          24   -0.1893   -0.0248    0.0875   -0.0063    0.0470   -0.0115    0.0256   -0.0269
          25    0.1719    0.3716   -0.1116   -0.0164   -0.2658   -0.2121   -0.1179   -0.2057
          26   -0.3246   -0.0045    0.0863   -0.1209   -0.0039   -0.2522   -0.1086   -0.1025
          27   -0.1916   -0.0458    0.0809   -0.0138    0.0517   -0.0277    0.0171   -0.0021
          28   -0.1853    0.0447   -0.2154   -0.0036   -0.1597    0.2169   -0.2304    0.0009
          29   -0.1977    0.0671    0.1912    0.0619   -0.1638   -0.1949    0.4632   -0.1423
          30   -0.1515    0.0355   -0.0564   -0.0060   -0.0852    0.0268   -0.0361   -0.0287
          31    0.1908   -0.1843    0.1773   -0.0070    0.1578    0.0327    0.0737   -0.3572
          32    0.2222    0.1577   -0.0955    0.0914    0.0562    0.1185    0.0196    0.5359
          33   -0.1398    0.0278   -0.0328   -0.0051   -0.0703   -0.0165   -0.0043   -0.0072
          34   -0.0358   -0.0079    0.0193    0.2981    0.0679   -0.1224   -0.1030    0.0233
          35   -0.0129   -0.0429   -0.0152    0.1915    0.0251   -0.1012   -0.0503    0.0222
          36   -0.0147   -0.1257   -0.1574    0.4256    0.0063   -0.2994   -0.0625    0.0212
          37   -0.0009   -0.0713   -0.0374   -0.0696   -0.0259    0.0021    0.0548    0.0214
          38    0.0300   -0.1541   -0.0744   -0.3004   -0.0844    0.0728    0.1611    0.0634
          39    0.0470   -0.2698   -0.2550   -0.2650   -0.1573   -0.0626    0.2398    0.0566
          40   -0.0536    0.0733    0.2010    0.0660    0.1342    0.0908   -0.1068    0.0607
          41   -0.0301    0.0486    0.2340   -0.1369    0.0960    0.2072   -0.0324    0.0970
          42   -0.0432    0.0439    0.2090   -0.0405    0.1217    0.1428   -0.0602    0.0955
          43   -0.0320    0.0065    0.0027    0.0283    0.0071   -0.0725    0.1103    0.1274
          44    0.0185    0.2266    0.0783   -0.1757   -0.0029   -0.1962    0.3215    0.2403
          45    0.4394   -0.2105    0.4449   -0.0308   -0.2669   -0.1566   -0.1096   -0.0061
          46   -0.0020    0.1653    0.0125   -0.2654    0.1034   -0.2996   -0.1873    0.1227
          47   -0.0007    0.0059   -0.0053    0.0101    0.0215    0.0283   -0.0178   -0.0641
          48    0.2337    0.1035   -0.2720    0.0377    0.4062   -0.0089    0.1708   -0.1354


   Root No.      17        18        19        20        21        22        23        24

                17 A      18 A      19 A      20 A      21 A      22 A      23 A      24 A   

                1082.2    1100.6    1115.6    1129.4    1153.0    1234.9    1260.7    1305.9
  
           1    0.0492    0.0014    0.0091    0.1786   -0.1526    0.1921   -0.2471    0.5888
           2    0.0671    0.0448   -0.0046    0.0737   -0.1406   -0.2430   -0.1688   -0.0879
           3   -0.0524    0.0911    0.0783    0.0432    0.4104   -0.1236   -0.2439    0.1959
           4   -0.0296   -0.0454   -0.0692   -0.2136    0.1341   -0.0506   -0.2890   -0.3732
           5    0.2061   -0.0043   -0.2139   -0.0409   -0.0155   -0.0653   -0.3527   -0.1749
           6    0.0549   -0.2780   -0.0770    0.2022   -0.1311    0.0224    0.0741   -0.0597
           7   -0.1921   -0.0551    0.1674   -0.0449    0.0649    0.0072    0.0823    0.0201
           8   -0.1073    0.0031    0.2127    0.0696    0.0118    0.3163    0.1557    0.0556
           9   -0.0215    0.2964    0.0490   -0.1036   -0.0501    0.0028   -0.0128    0.0006
          10   -0.0158    0.0391    0.0070   -0.0622    0.0474   -0.0339    0.0712   -0.1049
          11   -0.0295   -0.0082   -0.0108   -0.0143    0.0317    0.0822    0.0505    0.0288
          12   -0.0652   -0.1632    0.0075   -0.1840   -0.2886    0.0383    0.0297    0.0025
          13    0.1160    0.0566   -0.1046    0.0503   -0.0756   -0.1045   -0.0575   -0.1397
          14   -0.1495   -0.0524    0.0943   -0.0297    0.0457   -0.1871    0.0879    0.2295
          15    0.1820    0.0455   -0.0682   -0.0118   -0.0793    0.0433    0.0320   -0.0269
          16    0.0933    0.0326    0.0136    0.0709   -0.0753   -0.2454    0.0515    0.0935
          17   -0.1456   -0.0727    0.0455   -0.1262    0.1243    0.0661    0.0189   -0.1218
          18   -0.1079   -0.0279    0.0243    0.0159    0.0537   -0.0241   -0.0109    0.0117
          19   -0.2253    0.0845   -0.0070    0.6272    0.0357   -0.0989    0.2645   -0.2643
          20    0.5306    0.2840   -0.2102    0.1220    0.1578    0.1962    0.0901    0.0169
          21    0.1131    0.1770   -0.0706    0.2879    0.2428    0.0203    0.1279   -0.1001
          22    0.0460   -0.2062   -0.1806   -0.2103    0.4223   -0.1458    0.3056    0.1578
          23    0.1768   -0.3545   -0.2406   -0.0090    0.1563   -0.1271    0.2083    0.2009
          24   -0.0252    0.0452    0.0123   -0.0095    0.0453    0.0065    0.0119   -0.0424
          25    0.0413    0.2222   -0.1453   -0.1488   -0.2886   -0.0207    0.4132    0.0243
          26    0.0995    0.3761   -0.1147   -0.2033   -0.1299   -0.0807    0.1926    0.1870
          27    0.0134    0.0434    0.0010   -0.0146    0.0367   -0.0262   -0.0215    0.0614
          28   -0.1747   -0.0872   -0.0298   -0.0968    0.1315    0.1876    0.1186    0.0246
          29    0.2425   -0.3130    0.2099    0.3031   -0.1493   -0.1811    0.0853    0.0511
          30   -0.0188   -0.0566   -0.0047   -0.0070    0.0216    0.0584    0.0699    0.0216
          31   -0.0529    0.0190   -0.0389   -0.1253    0.0442    0.2016    0.1260    0.0226
          32   -0.1481    0.3698    0.3768    0.0187   -0.0086   -0.1969    0.0329    0.0678
          33    0.0264   -0.0460   -0.0225    0.0370   -0.0252   -0.0332   -0.0544   -0.0233
          34   -0.0223   -0.0230   -0.0080    0.0260   -0.0369    0.0835    0.0698   -0.0136
          35   -0.0106   -0.0093   -0.0089    0.0096    0.0003    0.0555    0.0415   -0.0038
          36   -0.0414    0.0043   -0.0074    0.0157    0.0614    0.1164    0.1204   -0.0843
          37   -0.0043    0.0119    0.0005   -0.0164    0.0102   -0.0070    0.0326   -0.0425
          38    0.0148    0.0115   -0.0136   -0.0743    0.0017   -0.0213    0.1137   -0.1727
          39   -0.0065    0.0459   -0.0080   -0.0850    0.1146   -0.0180    0.1725   -0.2110
          40   -0.0177   -0.0834   -0.0040   -0.0186   -0.1863    0.0491    0.0600   -0.0284
          41    0.0142   -0.0945   -0.0137   -0.0842   -0.2372    0.0315    0.0721   -0.1220
          42   -0.0159   -0.1167   -0.0042   -0.0881   -0.2456    0.0361    0.0526   -0.0594
          43   -0.0436    0.0412   -0.1719    0.0779   -0.0406    0.1095   -0.0637   -0.0431
          44   -0.3303    0.0605   -0.4284    0.1891   -0.0269    0.4072   -0.1251    0.0562
          45   -0.0819   -0.0072    0.0468    0.0016    0.0518   -0.0304   -0.0197    0.0067
          46    0.3812   -0.0797    0.5046   -0.0427    0.1060    0.4525    0.0153   -0.1294
          47   -0.0415   -0.0212    0.0183   -0.0378    0.0377    0.0230    0.0083   -0.0368
          48    0.0714    0.0356    0.0094   -0.0064   -0.0100    0.0114   -0.0044    0.0024


   Root No.      25        26        27        28        29        30        31        32

                25 A      26 A      27 A      28 A      29 A      30 A      31 A      32 A   

                1350.9    1375.8    1403.4    1407.2    1411.6    1421.7    1424.1    1831.4
  
           1   -0.0755   -0.1007    0.0058   -0.0446    0.0140    0.1286    0.0923    0.0214
           2    0.3159    0.3790    0.0248   -0.0738    0.0069    0.1615    0.4351    0.0533
           3    0.0612    0.0083    0.0234   -0.0871    0.0294    0.1090    0.1928    0.0005
           4   -0.0187   -0.0266   -0.0139   -0.1460    0.0690   -0.2413   -0.0743    0.0140
           5   -0.1253   -0.1298    0.0034    0.0857    0.0456    0.2402   -0.1923   -0.0187
           6   -0.0061    0.0009   -0.0028    0.0087   -0.0028   -0.0228   -0.0290    0.0003
           7   -0.2474   -0.0591    0.0350    0.3626   -0.2590   -0.0520    0.2059   -0.0570
           8    0.5277   -0.1545   -0.0056   -0.1039    0.0145   -0.1403    0.0194   -0.0036
           9   -0.0205   -0.0027    0.0021    0.0163   -0.0105   -0.0017    0.0088   -0.0014
          10    0.0432    0.1019   -0.1702    0.0094   -0.1925   -0.0511   -0.1610   -0.0033
          11   -0.0088    0.0574   -0.1419    0.2263    0.0905   -0.1317   -0.2087    0.0074
          12    0.0578    0.1777    0.1302    0.1583   -0.1029   -0.1316   -0.2971    0.0016
          13    0.0721    0.1284   -0.0002   -0.0268    0.0228    0.0385    0.0529   -0.5053
          14   -0.0422   -0.3138   -0.0173   -0.0932    0.0664   -0.0844   -0.2381   -0.4669
          15   -0.0115    0.0042   -0.0005    0.0105   -0.0052   -0.0072   -0.0148   -0.0020
          16    0.2021   -0.2039   -0.0196   -0.1625    0.1088   -0.0387   -0.1905    0.5950
          17   -0.2756    0.0783    0.0109    0.1448   -0.0887   -0.0040    0.0471    0.3469
          18    0.0187   -0.0059   -0.0005   -0.0124    0.0075    0.0024   -0.0010    0.0069
          19    0.0474    0.0756   -0.0089    0.0042   -0.0246   -0.0694   -0.0230   -0.0171
          20   -0.1126   -0.0903   -0.0074    0.0473   -0.0029   -0.0418   -0.1208    0.0178
          21   -0.0455   -0.0442   -0.0022    0.0131   -0.0060   -0.0501   -0.0729   -0.0035
          22    0.1551    0.0424    0.0211    0.1609   -0.0623    0.3306    0.0658    0.0007
          23   -0.0927    0.1437   -0.0112   -0.0888   -0.0502   -0.3046    0.1847   -0.0016
          24    0.0956   -0.0728    0.0155    0.1418   -0.0014    0.3502   -0.0970   -0.0048
          25    0.1032    0.0280    0.0151    0.1793   -0.0548    0.2601   -0.0035    0.0008
          26   -0.1161    0.1361   -0.0085   -0.0879   -0.0470   -0.3175    0.1767   -0.0019
          27   -0.0872    0.0778   -0.0127   -0.1437   -0.0041   -0.3372    0.1094    0.0046
          28   -0.0322    0.2285   -0.0244   -0.2409    0.1859    0.1030   -0.1234   -0.0206
          29   -0.3181    0.1597   -0.0059   -0.0176    0.0528    0.1252   -0.0638    0.0217
          30   -0.0943    0.2145   -0.0235   -0.2236    0.1832    0.1192   -0.1356   -0.0017
          31   -0.0460    0.2461   -0.0266   -0.2603    0.2028    0.1111   -0.1387   -0.0186
          32   -0.3051    0.1544   -0.0038   -0.0192    0.0512    0.1276   -0.0504    0.0215
          33    0.0973   -0.1958    0.0211    0.2005   -0.1659   -0.1125    0.1230   -0.0012
          34   -0.1056   -0.1584    0.6237   -0.0884    0.1118    0.0136    0.0683   -0.0010
          35   -0.0538   -0.0687    0.1457   -0.0168    0.0304   -0.0039   -0.0029    0.0034
          36   -0.1830   -0.2951   -0.2695   -0.3301   -0.2426    0.1502    0.1263   -0.0006
          37    0.0001    0.0044    0.0066   -0.0075   -0.0217   -0.0090   -0.0155   -0.0015
          38   -0.0580   -0.1036    0.5799   -0.2460   -0.1387    0.0701    0.0746   -0.0005
          39   -0.0882   -0.2100   -0.1500    0.0815    0.4517    0.0036    0.2813   -0.0003
          40   -0.0705   -0.1531   -0.0572    0.1903    0.5494   -0.0360    0.2401    0.0014
          41   -0.0910   -0.1708   -0.2657   -0.3320   -0.2820    0.1648    0.1627   -0.0001
          42   -0.0576   -0.1113   -0.1045   -0.0576    0.0734    0.0484    0.1325   -0.0000
          43   -0.0089    0.0991    0.0032    0.0206   -0.0132    0.0332    0.0664   -0.1207
          44   -0.1200    0.1063    0.0081    0.0739   -0.0523    0.0411    0.1005    0.0835
          45    0.0112    0.0036    0.0005   -0.0052    0.0037    0.0046    0.0087   -0.0062
          46    0.0411    0.1397    0.0106    0.0691   -0.0560    0.0086    0.1213   -0.0469
          47   -0.0846    0.0213    0.0033    0.0453   -0.0282   -0.0035    0.0130    0.1378
          48    0.0077    0.0032    0.0011   -0.0024    0.0000    0.0028    0.0087   -0.0066


   Root No.      33        34        35        36        37        38        39        40

                33 A      34 A      35 A      36 A      37 A      38 A      39 A      40 A   

                2891.8    2972.3    2989.4    3055.3    3067.6    3081.6    3084.8    3115.0
  
           1    0.0948   -0.0032    0.0050    0.0021   -0.0034    0.0032    0.0013   -0.0003
           2    0.1051   -0.0030    0.0045    0.0014    0.0017    0.0036   -0.0011    0.0014
           3   -0.2336    0.0072   -0.0115    0.0001   -0.0018   -0.0077    0.0003    0.0003
           4    0.0039   -0.0044    0.0091    0.0189   -0.1278   -0.0040   -0.0001    0.0004
           5   -0.0006    0.0052   -0.0112   -0.0305    0.1710    0.0040   -0.0024    0.0004
           6    0.0183    0.1502   -0.2648    0.0041   -0.0227   -0.0022   -0.0022   -0.0000
           7   -0.0009    0.0099    0.0049   -0.1990   -0.0307   -0.0007   -0.0003   -0.0008
           8   -0.0006   -0.0044   -0.0030   -0.0818   -0.0094   -0.0002   -0.0000   -0.0010
           9   -0.0009   -0.2655   -0.1488   -0.0027   -0.0019   -0.0003    0.0002    0.0002
          10   -0.0057    0.0001   -0.0003   -0.0003   -0.0021    0.1508    0.2268    0.0002
          11   -0.0066   -0.0002    0.0002    0.0005   -0.0054    0.1658   -0.1899    0.0009
          12    0.0041   -0.0005    0.0010   -0.0004    0.0056   -0.1923    0.0140   -0.0013
          13   -0.0011    0.0001   -0.0001   -0.0015   -0.0025    0.0012    0.0004   -0.1922
          14    0.0037   -0.0000    0.0002    0.0015    0.0001   -0.0012    0.0019    0.0565
          15   -0.0003   -0.0011   -0.0011   -0.0001   -0.0001   -0.0006    0.0009   -0.0090
          16   -0.0014   -0.0002   -0.0001   -0.0028    0.0004   -0.0000   -0.0002    0.0008
          17   -0.0015   -0.0002   -0.0001    0.0097    0.0038    0.0004    0.0002   -0.1936
          18   -0.0011   -0.0002   -0.0006   -0.0004   -0.0002   -0.0001   -0.0000    0.0065
          19   -0.3310    0.0129   -0.0206    0.0006   -0.0047   -0.0066    0.0017   -0.0008
          20   -0.3623    0.0106   -0.0171   -0.0001   -0.0025   -0.0067   -0.0012    0.0021
          21    0.8247   -0.0239    0.0372   -0.0002    0.0071    0.0288   -0.0006   -0.0015
          22    0.0096    0.1331   -0.2332   -0.0337    0.2087    0.0027   -0.0050    0.0004
          23   -0.0173   -0.1665    0.3091    0.0412   -0.2734   -0.0054    0.0031    0.0001
          24   -0.0288   -0.2795    0.4972    0.0826   -0.5285   -0.0130    0.0069   -0.0003
          25   -0.0094   -0.1156    0.1981   -0.0397    0.2397    0.0070   -0.0012    0.0003
          26    0.0216    0.1482   -0.2706    0.0505   -0.3239   -0.0093    0.0011    0.0001
          27   -0.0346   -0.2423    0.4202   -0.0969    0.6066    0.0175   -0.0025    0.0002
          28   -0.0021   -0.3487   -0.1966    0.3782    0.0573    0.0008    0.0004    0.0053
          29   -0.0005   -0.1275   -0.0779    0.1387    0.0226    0.0003    0.0001   -0.0004
          30    0.0027    0.4410    0.2453   -0.5642   -0.0867   -0.0014   -0.0006   -0.0059
          31    0.0006    0.3149    0.1791    0.3106    0.0504    0.0012    0.0002    0.0041
          32   -0.0005    0.1435    0.0875    0.1474    0.0261    0.0007    0.0002   -0.0004
          33    0.0005    0.4859    0.2727    0.5738    0.0930    0.0022    0.0004    0.0056
          34   -0.0059   -0.0003    0.0003    0.0005   -0.0046    0.1280   -0.1659    0.0002
          35    0.0121    0.0002    0.0006   -0.0014    0.0113   -0.3437    0.6659   -0.0001
          36   -0.0044    0.0001   -0.0001    0.0001   -0.0003   -0.0018   -0.0491   -0.0000
          37    0.0133   -0.0038    0.0073    0.0016    0.0024   -0.4067   -0.6602   -0.0001
          38   -0.0033    0.0001   -0.0003   -0.0000   -0.0009    0.0482    0.0101    0.0008
          39   -0.0041    0.0000    0.0001   -0.0001    0.0008   -0.0181    0.0197    0.0001
          40    0.0095   -0.0008    0.0017   -0.0004    0.0071   -0.2420    0.0417   -0.0018
          41    0.0116   -0.0004    0.0011   -0.0004    0.0084   -0.2786   -0.0187   -0.0020
          42   -0.0170    0.0003   -0.0011    0.0012   -0.0209    0.6873   -0.0197    0.0047
          43    0.0066   -0.0001    0.0003    0.0157    0.0169   -0.0039    0.0014    0.6589
          44   -0.0000   -0.0001   -0.0000   -0.0041   -0.0055    0.0016    0.0006   -0.2004
          45   -0.0014   -0.0007   -0.0006    0.0007    0.0008   -0.0003    0.0004    0.0314
          46   -0.0003    0.0002    0.0001   -0.0029    0.0001    0.0000   -0.0000   -0.0038
          47   -0.0047    0.0007    0.0002   -0.0292   -0.0206   -0.0022   -0.0007    0.6680
          48   -0.0007   -0.0016   -0.0012    0.0009    0.0007    0.0001   -0.0001   -0.0224


   Root No.      41        42

                41 A      42 A   

                3134.0    3180.3
  
           1    0.0032   -0.0018
           2    0.0046   -0.0024
           3   -0.0015   -0.0020
           4   -0.0057   -0.0003
           5    0.0076    0.0010
           6   -0.0005    0.0010
           7   -0.0120    0.0000
           8   -0.0038    0.0000
           9   -0.0002    0.0001
          10    0.0002   -0.0599
          11   -0.0008   -0.0790
          12    0.0006   -0.1129
          13    0.2154    0.0012
          14   -0.0344    0.0002
          15    0.0090    0.0001
          16   -0.0281   -0.0001
          17   -0.2224   -0.0001
          18    0.0066   -0.0000
          19   -0.0010    0.0004
          20   -0.0036    0.0003
          21    0.0058   -0.0040
          22    0.0043    0.0006
          23   -0.0057   -0.0030
          24   -0.0111   -0.0053
          25    0.0049    0.0005
          26   -0.0066   -0.0007
          27    0.0126    0.0016
          28    0.0151    0.0001
          29    0.0034    0.0001
          30   -0.0204   -0.0001
          31    0.0121   -0.0000
          32    0.0038   -0.0000
          33    0.0206   -0.0001
          34   -0.0001   -0.1662
          35   -0.0001    0.5432
          36   -0.0001   -0.0553
          37   -0.0018    0.5716
          38   -0.0007   -0.0418
          39   -0.0002   -0.0292
          40    0.0014   -0.1926
          41    0.0014   -0.2217
          42   -0.0032    0.4858
          43   -0.6323   -0.0041
          44    0.1881    0.0007
          45   -0.0300   -0.0004
          46    0.0003    0.0000
          47    0.6807    0.0002
          48   -0.0227   -0.0001


          DESCRIPTION OF VIBRATIONS


 VIBRATION    1    1A         ATOM PAIR      ENERGY CONTRIBUTION    RADIAL
 FREQ.        90.39         C  2 -- C  3         +18.2% (698.8%)      0.0%
 T-DIPOLE    0.0398         C  1 -- C  4          +9.0% (491.2%)      0.0%
 TRAVEL      0.0415         C  3 -- H 10          +9.0% (490.5%)     99.7%
 RED. MASS   0.9047         C  3 -- C  6          +8.8% (485.7%)      0.0%
 EFF. MASS 433.6981

[...]
 EFF. MASS   3.5906

 VIBRATION   21   21A         ATOM PAIR      ENERGY CONTRIBUTION    RADIAL
 FREQ.      1153.04         C  1 -- C  4         +17.5% ( 56.4%)     24.0%
 T-DIPOLE    0.0968         C  1 -- C  2         +13.6% ( 49.7%)     21.0%
 TRAVEL      0.1024         C  1 -- C  5         +11.7% ( 46.2%)     12.2%
 RED. MASS   0.7373         C  2 -- H  8         +11.0% ( 44.6%)      9.8%
 EFF. MASS   5.5741

 VIBRATION   22   22A         ATOM PAIR      ENERGY CONTRIBUTION    RADIAL
 FREQ.      1234.94         C  6 -- H 16         +17.0% ( 51.9%)      0.4%
 T-DIPOLE    0.0396         C  5 -- H 15         +14.6% ( 48.1%)      0.3%
 TRAVEL      0.1180         C  3 -- H 11          +9.5% ( 38.7%)      0.9%
 RED. MASS   0.4400         C  1 -- H  7          +9.0% ( 37.8%)      1.1%
 EFF. MASS   3.9212

 VIBRATION   23   23A         ATOM PAIR      ENERGY CONTRIBUTION    RADIAL
 FREQ.      1260.72         C  2 -- H  9         +20.3% ( 59.9%)      1.0%
 T-DIPOLE    0.0407         C  2 -- H  8         +17.3% ( 55.3%)      0.0%
 TRAVEL      0.1028         C  1 -- H  7         +12.8% ( 47.6%)      0.4%
 RED. MASS   0.9040         C  1 -- C  2         +11.6% ( 45.3%)      1.3%
 EFF. MASS   5.0619         C  2 -- C  3         +11.5% ( 45.1%)     86.8%

 VIBRATION   24   24A         ATOM PAIR      ENERGY CONTRIBUTION    RADIAL
 FREQ.      1305.85         C  1 -- C  2         +21.1% ( 68.0%)     92.7%
 T-DIPOLE    0.0713         C  1 -- H  7         +16.8% ( 60.7%)      0.0%
 TRAVEL      0.0793         C  1 -- C  5         +16.6% ( 60.2%)     36.6%
 RED. MASS   2.3065         C  1 -- C  4         +12.6% ( 52.4%)     23.6%
 EFF. MASS   8.2086

 VIBRATION   25   25A         ATOM PAIR      ENERGY CONTRIBUTION    RADIAL
 FREQ.      1350.90         C  3 -- C  6         +20.9% ( 64.0%)     75.9%
 T-DIPOLE    0.0557         C  3 -- H 10         +16.8% ( 57.5%)      0.0%
 TRAVEL      0.0827         C  3 -- H 11         +16.5% ( 56.8%)      0.0%
 RED. MASS   1.7310         C  2 -- C  3         +12.4% ( 49.4%)     66.1%
 EFF. MASS   7.2993

 VIBRATION   26   26A         ATOM PAIR      ENERGY CONTRIBUTION    RADIAL
 FREQ.      1375.80         C  1 -- C  5         +17.6% ( 51.5%)     99.3%
 T-DIPOLE    0.0738         C  4 -- H 12          +8.4% ( 35.5%)      0.3%
 TRAVEL      0.0978         C  1 -- H  7          +8.1% ( 34.9%)      2.0%
 RED. MASS   0.5618         C  1 -- C  2          +7.9% ( 34.5%)      2.1%
 EFF. MASS   5.1224

 VIBRATION   27   27A         ATOM PAIR      ENERGY CONTRIBUTION    RADIAL
 FREQ.      1403.41         C  4 -- H 12         +48.0% ( 60.4%)      0.9%
 T-DIPOLE    0.0421         C  4 -- H 13         +35.7% ( 52.1%)      3.5%
 TRAVEL      0.1727         C  4 -- H 14          +9.5% ( 26.8%)     47.6%
 RED. MASS   0.4245         C  1 -- C  4          +5.4% ( 20.2%)      7.6%
 EFF. MASS   1.6116

 VIBRATION   28   28A         ATOM PAIR      ENERGY CONTRIBUTION    RADIAL
 FREQ.      1407.20         C  3 -- C  6         +13.0% ( 42.1%)     98.9%
 T-DIPOLE    0.0219         C  3 -- H 11         +12.9% ( 41.9%)      5.3%
 TRAVEL      0.1055         C  3 -- H 10         +12.9% ( 41.8%)      5.4%
 RED. MASS   0.4262         C  4 -- H 14         +11.5% ( 39.6%)      0.7%
 EFF. MASS   4.3071

 VIBRATION   29   29A         ATOM PAIR      ENERGY CONTRIBUTION    RADIAL
 FREQ.      1411.61         C  4 -- H 14         +30.8% ( 54.5%)      0.4%
 T-DIPOLE    0.0654         C  4 -- H 13         +17.9% ( 41.6%)      8.1%
 TRAVEL      0.1369         C  3 -- H 11         +10.0% ( 31.1%)      6.0%
 RED. MASS   0.3143         C  3 -- H 10          +9.9% ( 31.0%)      6.3%
 EFF. MASS   2.5488

 VIBRATION   30   30A         ATOM PAIR      ENERGY CONTRIBUTION    RADIAL
 FREQ.      1421.75         C  2 -- H  8         +26.1% ( 55.8%)      3.9%
 T-DIPOLE    0.0484         C  2 -- H  9         +22.5% ( 51.7%)      6.1%
 TRAVEL      0.1178         C  1 -- C  2          +9.8% ( 34.1%)     85.3%
 RED. MASS   0.4136         C  2 -- C  3          +8.2% ( 31.2%)     53.8%
 EFF. MASS   3.4152

 VIBRATION   31   31A         ATOM PAIR      ENERGY CONTRIBUTION    RADIAL
 FREQ.      1424.06         C  1 -- C  4         +17.2% ( 57.7%)     90.3%
 T-DIPOLE    0.0660         C  1 -- C  5         +12.8% ( 49.8%)     80.1%
 TRAVEL      0.0819         C  1 -- C  2          +9.9% ( 43.8%)      5.9%
 RED. MASS   1.0934         C  1 -- H  7          +9.5% ( 42.8%)      0.1%
 EFF. MASS   7.0582

 VIBRATION   32   32A         ATOM PAIR      ENERGY CONTRIBUTION    RADIAL
 FREQ.      1831.44         C  5 -- C  6         +45.8% (100.2%)    100.0%
 T-DIPOLE    0.1070         C  1 -- C  5         +13.9% ( 55.2%)     25.2%
 TRAVEL      0.0557         C  3 -- C  6         +13.9% ( 55.2%)     25.6%
 RED. MASS   5.3942         C  5 -- H 15         +13.0% ( 53.3%)     10.0%
 EFF. MASS  11.8852         C  6 -- H 16         +13.0% ( 53.3%)      9.6%

 VIBRATION   33   33A         ATOM PAIR      ENERGY CONTRIBUTION    RADIAL
 FREQ.      2891.80         C  1 -- H  7         +96.4% ( 99.8%)    100.0%
 T-DIPOLE    0.0528         C  1 -- C  2          +1.1% ( 10.4%)     10.0%
 TRAVEL      0.1270         C  1 -- C  4          +1.0% ( 10.4%)      9.0%
 RED. MASS   0.9217         C  1 -- C  5          +1.0% ( 10.3%)      9.9%
 EFF. MASS   1.4453

 VIBRATION   34   34A         ATOM PAIR      ENERGY CONTRIBUTION    RADIAL
 FREQ.      2972.32         C  3 -- H 11         +38.1% ( 64.3%)     96.7%
 T-DIPOLE    0.0071         C  3 -- H 10         +35.8% ( 62.3%)     96.3%
 TRAVEL      0.1209         C  2 -- H  8         +13.2% ( 37.9%)     96.9%
 RED. MASS   0.3293         C  2 -- H  9         +10.3% ( 33.5%)     95.4%
 EFF. MASS   1.5518

 VIBRATION   35   35A         ATOM PAIR      ENERGY CONTRIBUTION    RADIAL
 FREQ.      2989.36         C  2 -- H  8         +42.5% ( 67.4%)     97.4%
 T-DIPOLE    0.0482         C  2 -- H  9         +31.7% ( 58.3%)     95.7%
 TRAVEL      0.1214         C  3 -- H 11         +12.2% ( 36.1%)     97.1%
 RED. MASS   0.3327         C  3 -- H 10         +11.3% ( 34.8%)     96.6%
 EFF. MASS   1.5302

 VIBRATION   36   36A         ATOM PAIR      ENERGY CONTRIBUTION    RADIAL
 FREQ.      3055.31         C  3 -- H 10         +49.8% ( 69.6%)     97.8%
 T-DIPOLE    0.0750         C  3 -- H 11         +46.2% ( 67.1%)     97.4%
 TRAVEL      0.1311         C  2 -- H  9          +1.4% ( 11.8%)     98.3%
 RED. MASS   0.4606         C  2 -- H  8          +1.0% (  9.9%)     96.0%
 EFF. MASS   1.2838

 VIBRATION   37   37A         ATOM PAIR      ENERGY CONTRIBUTION    RADIAL
 FREQ.      3067.63         C  2 -- H  9         +55.4% ( 73.3%)     98.4%
 T-DIPOLE    0.0650         C  2 -- H  8         +40.8% ( 62.9%)     96.6%
 TRAVEL      0.1310         C  3 -- H 11          +1.2% ( 10.9%)     97.9%
 RED. MASS   0.4687         C  3 -- H 10          +1.2% ( 10.6%)     97.7%
 EFF. MASS   1.2805

 VIBRATION   38   38A         ATOM PAIR      ENERGY CONTRIBUTION    RADIAL
 FREQ.      3081.58         C  4 -- H 14         +65.2% ( 83.3%)     98.9%
 T-DIPOLE    0.0156         C  4 -- H 13         +18.6% ( 44.5%)     86.1%
 TRAVEL      0.1206         C  4 -- H 12         +15.0% ( 40.0%)     82.4%
 RED. MASS   0.5113         C  1 -- C  4          +1.0% ( 10.3%)      0.0%
 EFF. MASS   1.5043

 VIBRATION   39   39A         ATOM PAIR      ENERGY CONTRIBUTION    RADIAL
 FREQ.      3084.82         C  4 -- H 12         +50.9% ( 73.6%)     97.4%
 T-DIPOLE    0.0099         C  4 -- H 13         +47.0% ( 70.8%)     96.8%
 TRAVEL      0.1204         C  4 -- H 14          +1.0% ( 10.5%)      1.6%
 RED. MASS   0.5101         C  1 -- C  4          +1.0% ( 10.5%)      0.0%
 EFF. MASS   1.5079

 VIBRATION   40   40A         ATOM PAIR      ENERGY CONTRIBUTION    RADIAL
 FREQ.      3115.01         C  5 -- H 15         +50.2% ( 72.0%)    100.0%
 T-DIPOLE    0.3633         C  6 -- H 16         +47.2% ( 69.8%)    100.0%
 TRAVEL      0.1217         C  5 -- C  6          +1.1% ( 10.7%)      0.0%
 RED. MASS   0.4652         C  1 -- C  5          +0.7% (  8.7%)     25.8%
 EFF. MASS   1.4614

 VIBRATION   41   41A         ATOM PAIR      ENERGY CONTRIBUTION    RADIAL
 FREQ.      3134.05         C  6 -- H 16         +49.2% ( 71.4%)     99.9%
 T-DIPOLE    0.3340         C  5 -- H 15         +46.3% ( 69.3%)     99.9%
 TRAVEL      0.1141         C  5 -- C  6          +2.5% ( 16.1%)    100.0%
 RED. MASS   0.4663         C  3 -- C  6          +1.0% ( 10.0%)     20.8%
 EFF. MASS   1.6521

 VIBRATION   42   42A         ATOM PAIR      ENERGY CONTRIBUTION    RADIAL
 FREQ.      3180.25         C  4 -- H 13         +33.6% ( 55.8%)     97.2%
 T-DIPOLE    0.0302         C  4 -- H 12         +33.3% ( 55.5%)     97.1%
 TRAVEL      0.1367         C  4 -- H 14         +32.8% ( 55.1%)     97.0%
 RED. MASS   0.3271         C  1 -- C  4          +0.3% (  5.1%)    100.0%
 EFF. MASS   1.1351

      SYMMETRY NUMBER FOR POINT-GROUP C1  =  1


          SYSTEM IS A GROUND STATE



 InChI=1S/C6H10/c1-6-4-2-3-5-6/h2,4,6H,3,5H2,1H3


          MOLECULE IS NOT LINEAR

          THERE ARE 42 GENUINE VIBRATIONS IN THIS SYSTEM
          THIS THERMODYNAMICS CALCULATION IS LIMITED TO
          MOLECULES WHICH HAVE NO INTERNAL ROTATIONS




                    CALCULATED THERMODYNAMIC PROPERTIES
                                          *
   TEMP. (K)   PARTITION FUNCTION   H.O.F.    ENTHALPY  HEAT CAPACITY ENTROPY
                                   KCAL/MOL   CAL/MOLE    CAL/K/MOL  CAL/K/MOL


 298.00  VIB.     0.1018D+02                  2001.4946    16.5690    11.3283
         ROT.     0.1201D+06                   888.2813     2.9808    26.2241
         INT.     0.1224D+07                  2889.7759    19.5498    37.5524
         TRA.     0.7198D+27                  1480.4688     4.9680    39.1295
         TOT.                       -2.703    4370.2448    24.5179    76.6819

 200.00  VIB.     0.3639D+01                   771.7269     8.9141     6.4255
         ROT.     0.6606D+05                   596.1620     2.9808    25.0354
         INT.     0.2404D+06                  1367.8889    11.8949    31.4609
         TRA.     0.3957D+27                   993.6033     4.9680    37.1484
         TOT.                       -4.711    2361.4921    16.8629    68.6093

 210.00  VIB.     0.4013D+01                   864.1421     9.5746     6.8763
         ROT.     0.7107D+05                   625.9700     2.9808    25.1808
         INT.     0.2852D+06                  1490.1122    12.5554    32.0571
         TRA.     0.4258D+27                  1043.2834     4.9680    37.3907
         TOT.                       -4.539    2533.3956    17.5234    69.4479

 220.00  VIB.     0.4432D+01                   963.3283    10.2681     7.3376
         ROT.     0.7621D+05                   655.7781     2.9808    25.3195
         INT.     0.3378D+06                  1619.1065    13.2489    32.6571
         TRA.     0.4566D+27                  1092.9636     4.9680    37.6219
         TOT.                       -4.361    2712.0701    18.2169    70.2789

 230.00  VIB.     0.4903D+01                  1069.6099    10.9933     7.8099
         ROT.     0.8146D+05                   685.5862     2.9808    25.4520
         INT.     0.3994D+06                  1755.1962    13.9742    33.2619
         TRA.     0.4880D+27                  1142.6437     4.9680    37.8427
         TOT.                       -4.175    2897.8399    18.9422    71.1046

 240.00  VIB.     0.5433D+01                  1183.2942    11.7483     8.2936
         ROT.     0.8684D+05                   715.3943     2.9808    25.5789
         INT.     0.4718D+06                  1898.6885    14.7291    33.8725
         TRA.     0.5202D+27                  1192.3239     4.9680    38.0541
         TOT.                       -3.982    3091.0124    19.6971    71.9266

 250.00  VIB.     0.6029D+01                  1304.6659    12.5304     8.7890
         ROT.     0.9232D+05                   745.2024     2.9808    25.7005
         INT.     0.5566D+06                  2049.8683    15.5112    34.4895
         TRA.     0.5531D+27                  1242.0041     4.9680    38.2569
         TOT.                       -3.781    3291.8724    20.4792    72.7465

 260.00  VIB.     0.6703D+01                  1433.9830    13.3369     9.2961
         ROT.     0.9791D+05                   775.0105     2.9808    25.8174
         INT.     0.6563D+06                  2208.9935    16.3177    35.1135
         TRA.     0.5866D+27                  1291.6842     4.9680    38.4518
         TOT.                       -3.572    3500.6777    21.2857    73.5653

 270.00  VIB.     0.7464D+01                  1571.4742    14.1647     9.8149
         ROT.     0.1036D+06                   804.8186     2.9808    25.9299
         INT.     0.7734D+06                  2376.2928    17.1455    35.7448
         TRA.     0.6208D+27                  1341.3644     4.9680    38.6393
         TOT.                       -3.355    3717.6572    22.1135    74.3841

 280.00  VIB.     0.8327D+01                  1717.3368    15.0106    10.3452
         ROT.     0.1094D+06                   834.6267     2.9808    26.0384
         INT.     0.9112D+06                  2551.9636    17.9914    36.3836
         TRA.     0.6556D+27                  1391.0445     4.9680    38.8200
         TOT.                       -3.130    3943.0081    22.9595    75.2036

 290.00  VIB.     0.9306D+01                  1871.7367    15.8716    10.8870
         ROT.     0.1153D+06                   864.4348     2.9808    26.1430
         INT.     0.1073D+07                  2736.1716    18.8524    37.0299
         TRA.     0.6910D+27                  1440.7247     4.9680    38.9943
         TOT.                       -2.896    4176.8963    23.8204    76.0242

 300.00  VIB.     0.1042D+02                  2034.8080    16.7444    11.4397
         ROT.     0.1214D+06                   894.2429     2.9808    26.2440
         INT.     0.1264D+07                  2929.0509    19.7252    37.6837
         TRA.     0.7270D+27                  1490.4049     4.9680    39.1627
         TOT.                       -2.653    4419.4558    24.6932    76.8464

 310.00  VIB.     0.1168D+02                  2206.6540    17.6260    12.0031
         ROT.     0.1275D+06                   924.0510     2.9808    26.3417
         INT.     0.1489D+07                  3130.7050    20.6069    38.3449
         TRA.     0.7637D+27                  1540.0850     4.9680    39.3256
         TOT.                       -2.402    4670.7900    25.5749    77.6705

 320.00  VIB.     0.1313D+02                  2387.3487    18.5137    12.5767
         ROT.     0.1337D+06                   953.8591     2.9808    26.4364
         INT.     0.1755D+07                  3341.2078    21.4945    39.0131
         TRA.     0.8009D+27                  1589.7652     4.9680    39.4834
         TOT.                       -2.142    4930.9730    26.4625    78.4965

 330.00  VIB.     0.1477D+02                  2576.9385    19.4046    13.1601
         ROT.     0.1400D+06                   983.6672     2.9808    26.5281
         INT.     0.2068D+07                  3560.6058    22.3854    39.6882
         TRA.     0.8388D+27                  1639.4454     4.9680    39.6362
         TOT.                       -1.873    5200.0511    27.3535    79.3244

 340.00  VIB.     0.1666D+02                  2775.4441    20.2964    13.7526
         ROT.     0.1464D+06                  1013.4753     2.9808    26.6171
         INT.     0.2439D+07                  3788.9194    23.2772    40.3697
         TRA.     0.8772D+27                  1689.1255     4.9680    39.7845
         TOT.                       -1.595    5478.0449    28.2453    80.1542

 350.00  VIB.     0.1881D+02                  2982.8624    21.1868    14.3538
         ROT.     0.1529D+06                  1043.2834     2.9808    26.7035
         INT.     0.2877D+07                  4026.1458    24.1676    41.0573
         TRA.     0.9162D+27                  1738.8057     4.9680    39.9285
         TOT.                       -1.308    5764.9515    29.1356    80.9858

 360.00  VIB.     0.2128D+02                  3199.1691    22.0738    14.9631
         ROT.     0.1595D+06                  1073.0915     2.9808    26.7875
         INT.     0.3395D+07                  4272.2606    25.0546    41.7505
         TRA.     0.9557D+27                  1788.4859     4.9680    40.0685
         TOT.                       -1.012    6060.7464    30.0226    81.8190

 370.00  VIB.     0.2412D+02                  3424.3208    22.9555    15.5799
         ROT.     0.1662D+06                  1102.8996     2.9808    26.8691
         INT.     0.4008D+07                  4527.2204    25.9363    42.4491
         TRA.     0.9958D+27                  1838.1660     4.9680    40.2046
         TOT.                       -0.707    6365.3864    30.9044    82.6537

 380.00  VIB.     0.2737D+02                  3658.2570    23.8305    16.2037
         ROT.     0.1730D+06                  1132.7077     2.9808    26.9486
         INT.     0.4736D+07                  4790.9647    26.8113    43.1524
         TRA.     0.1036D+28                  1887.8462     4.9680    40.3371
         TOT.                       -0.394    6678.8109    31.7793    83.4895

 390.00  VIB.     0.3112D+02                  3900.9025    24.6972    16.8340
         ROT.     0.1799D+06                  1162.5158     2.9808    27.0261
         INT.     0.5598D+07                  5063.4183    27.6780    43.8600
         TRA.     0.1078D+28                  1937.5263     4.9680    40.4662
         TOT.                       -0.072    7000.9447    32.6460    84.3262

 400.00  VIB.     0.3543D+02                  4152.1693    25.5545    17.4701
         ROT.     0.1868D+06                  1192.3239     2.9808    27.1015
         INT.     0.6620D+07                  5344.4932    28.5353    44.5716
         TRA.     0.1119D+28                  1987.2065     4.9680    40.5919
         TOT.                        0.259    7331.6997    33.5033    85.1635

   *: NOTE: HEATS OF FORMATION ARE RELATIVE TO THE
            ELEMENTS IN THEIR STANDARD STATE AT 298K
              (=  Standard Enthalpy of Formation).

            Hvib:  Zero-point energy is not included.
                   frequencies of less than zero cm-1 are not included.
            Hrot = (3/2)RT
            Htra = (3/2)RT + pV = (5/2)RT

            Heat capacity is Cp, not Cv

          For more information, see: HTTP://OpenMOPAC.net/Manual/thermochemistry.html


           FORCE CONSTANT IN CARTESIAN COORDINATES (Millidynes/A)

    ATOM   CHEMICAL       X               Y               Z
   NUMBER   SYMBOL  FORCE CONSTANT  FORCE CONSTANT  FORCE CONSTANT

      1       C        7.829773        9.254824        8.257248
      2       C        7.603484        8.440158        8.414770
      3       C        9.632058        7.571006        8.076682
      4       C        8.400542        8.375440        8.181955
      5       C       14.614830       10.401393        2.434621
      6       C       12.008553       13.107076        2.363309
      7       H        1.177344        1.220591        3.601476
      8       H        1.312929        1.652886        3.560789
      9       H        1.240996        1.673021        3.590657
     10       H        2.107351        0.897672        3.392340
     11       H        1.742122        0.934347        3.707954
     12       H        1.032746        5.017870        0.725285
     13       H        5.374516        0.690205        0.707629
     14       H        1.176449        1.321868        4.282829
     15       H        4.960766        1.094201        0.361160
     16       H        0.711138        5.351984        0.359772

 **********************
 *                    *
 * JOB ENDED NORMALLY *
 *                    *
 **********************



 TOTAL JOB TIME:             0.87 SECONDS

 == MOPAC DONE ==
