 *******************************************************************************
 ** Site#: 14399        For non-commercial use only    Version 18.184L 64BITS **
 *******************************************************************************
 ** Cite this program as: MOPAC2016, Version: 18.184L, James J. P. Stewart,   **
 ** Stewart Computational Chemistry, web: HTTP://OpenMOPAC.net. Days left:  18**
 *******************************************************************************
 **                                                                           **
 **                                MOPAC2016                                  **
 **                                                                           **
 *******************************************************************************

                              PM3 CALCULATION RESULTS

 *******************************************************************************
 *  CALCULATION DONE:                                Sat Jun 15 10:30:32 2019  *
 *  PM3        - The PM3 Hamiltonian to be used
 *  PRECISE    - CRITERIA TO BE INCREASED BY 100 TIMES
 *  NOSYM      - POINT-GROUP SYMMETRY SET TO C1
 *  THREADS=1  - MULTI-THREADING NOT USED
 *  T=         - A TIME OF 172800.0 SECONDS REQUESTED
 *  DUMP=N     - RESTART FILE WRITTEN EVERY  7200.000 SECONDS
 *******************************************************************************
pm3  precise nosym THREADS=1
 InChI=1S/C7H10O3/c1-2-4-6-7(5-3-1)9-10-8-6/h2,4,6-7H,1,3,5H2

   ATOM   CHEMICAL          X               Y               Z
  NUMBER   SYMBOL      (ANGSTROMS)     (ANGSTROMS)     (ANGSTROMS)
 
     1       O          2.30010000  *  -1.24370000  *  -0.36190000  *
     2       O          2.51550000  *   0.87370000  *  -0.73960000  *
     3       O          3.15880000  *  -0.22450000  *  -0.32070000  *
     4       C          1.13250000  *  -0.68890000  *   0.11920000  *
     5       C          1.15410000  *   0.61830000  *  -0.57680000  *
     6       C         -0.11160000  *  -1.51670000  *  -0.22060000  *
     7       C         -1.37320000  *  -0.92540000  *   0.44160000  *
     8       C         -1.74920000  *   0.47900000  *  -0.07420000  *
     9       C          0.44880000  *   1.67040000  *   0.22860000  *
    10       C         -0.86920000  *   1.58090000  *   0.48310000  *
    11       H          1.22240000  *  -0.57880000  *   1.22700000  *
    12       H          0.70110000  *   0.55810000  *  -1.59190000  *
    13       H          0.03540000  *  -2.54830000  *   0.16620000  *
    14       H         -0.25320000  *  -1.59150000  *  -1.32130000  *
    15       H         -2.22110000  *  -1.61100000  *   0.22550000  *
    16       H         -1.24830000  *  -0.90110000  *   1.54660000  *
    17       H         -2.79580000  *   0.69070000  *   0.23350000  *
    18       H         -1.72800000  *   0.50040000  *  -1.18510000  *
    19       H          1.01500000  *   2.50400000  *   0.63360000  *
    20       H         -1.33400000  *   2.35450000  *   1.08710000  *
 


          CARTESIAN COORDINATES 

    NO.       ATOM           X           Y           Z

     1         O          2.3001     -1.2437     -0.3619
     2         O          2.5155      0.8737     -0.7396
     3         O          3.1588     -0.2245     -0.3207
     4         C          1.1325     -0.6889      0.1192
     5         C          1.1541      0.6183     -0.5768
     6         C         -0.1116     -1.5167     -0.2206
     7         C         -1.3732     -0.9254      0.4416
     8         C         -1.7492      0.4790     -0.0742
     9         C          0.4488      1.6704      0.2286
    10         C         -0.8692      1.5809      0.4831
    11         H          1.2224     -0.5788      1.2270
    12         H          0.7011      0.5581     -1.5919
    13         H          0.0354     -2.5483      0.1662
    14         H         -0.2532     -1.5915     -1.3213
    15         H         -2.2211     -1.6110      0.2255
    16         H         -1.2483     -0.9011      1.5466
    17         H         -2.7958      0.6907      0.2335
    18         H         -1.7280      0.5004     -1.1851
    19         H          1.0150      2.5040      0.6336
    20         H         -1.3340      2.3545      1.0871

  H: (PM3): J. J. P. STEWART, J. COMP. CHEM. 10, 209 (1989).
  C: (PM3): J. J. P. STEWART, J. COMP. CHEM. 10, 209 (1989).
  O: (PM3): J. J. P. STEWART, J. COMP. CHEM. 10, 209 (1989).

           Empirical Formula: C7 H10 O3  =    20 atoms



      MOLECULAR POINT GROUP   :   C1  


      RHF CALCULATION, NO. OF DOUBLY OCCUPIED LEVELS = 28


          Geometry optimization using EF

          DIAGONAL MATRIX USED AS START HESSIAN

 CYCLE:     1 TIME:   0.008 TIME LEFT:  2.00D  GRAD.:   244.419 HEAT:  27.90300
 CYCLE:     2 TIME:   0.004 TIME LEFT:  2.00D  GRAD.:   119.699 HEAT:  12.02750
 CYCLE:     3 TIME:   0.008 TIME LEFT:  2.00D  GRAD.:    64.727 HEAT:  8.833202
 CYCLE:     4 TIME:   0.008 TIME LEFT:  2.00D  GRAD.:    40.367 HEAT:  7.879317
 CYCLE:     5 TIME:   0.008 TIME LEFT:  2.00D  GRAD.:    18.613 HEAT:  7.449319
 CYCLE:     6 TIME:   0.008 TIME LEFT:  2.00D  GRAD.:    15.157 HEAT:  7.320286
 CYCLE:     7 TIME:   0.008 TIME LEFT:  2.00D  GRAD.:    17.275 HEAT:  7.202457
 CYCLE:     8 TIME:   0.004 TIME LEFT:  2.00D  GRAD.:    17.659 HEAT:  7.061971
 CYCLE:     9 TIME:   0.008 TIME LEFT:  2.00D  GRAD.:    23.527 HEAT:  7.057619
 CYCLE:    10 TIME:   0.004 TIME LEFT:  2.00D  GRAD.:    19.493 HEAT:  6.997787
 CYCLE:    11 TIME:   0.008 TIME LEFT:  2.00D  GRAD.:    13.077 HEAT:  6.913705
 CYCLE:    12 TIME:   0.008 TIME LEFT:  2.00D  GRAD.:     8.003 HEAT:  6.889221
 CYCLE:    13 TIME:   0.004 TIME LEFT:  2.00D  GRAD.:     4.527 HEAT:  6.869642
 CYCLE:    14 TIME:   0.004 TIME LEFT:  2.00D  GRAD.:     5.674 HEAT:  6.858001
 CYCLE:    15 TIME:   0.008 TIME LEFT:  2.00D  GRAD.:     6.665 HEAT:  6.853407
 CYCLE:    16 TIME:   0.004 TIME LEFT:  2.00D  GRAD.:     6.536 HEAT:  6.849070
 CYCLE:    17 TIME:   0.004 TIME LEFT:  2.00D  GRAD.:     6.379 HEAT:  6.845169
 CYCLE:    18 TIME:   0.004 TIME LEFT:  2.00D  GRAD.:     2.986 HEAT:  6.833135
 CYCLE:    19 TIME:   0.004 TIME LEFT:  2.00D  GRAD.:     6.216 HEAT:  6.837061
 CYCLE:    20 TIME:   0.004 TIME LEFT:  2.00D  GRAD.:     2.722 HEAT:  6.826449
 CYCLE:    21 TIME:   0.004 TIME LEFT:  2.00D  GRAD.:     5.710 HEAT:  6.830301
 CYCLE:    22 TIME:   0.004 TIME LEFT:  2.00D  GRAD.:     1.523 HEAT:  6.819457
 CYCLE:    23 TIME:   0.008 TIME LEFT:  2.00D  GRAD.:     1.701 HEAT:  6.816563
 CYCLE:    24 TIME:   0.004 TIME LEFT:  2.00D  GRAD.:     1.730 HEAT:  6.812468
 CYCLE:    25 TIME:   0.004 TIME LEFT:  2.00D  GRAD.:     1.547 HEAT:  6.810344
 CYCLE:    26 TIME:   0.004 TIME LEFT:  2.00D  GRAD.:     0.963 HEAT:  6.808922
 CYCLE:    27 TIME:   0.004 TIME LEFT:  2.00D  GRAD.:     0.865 HEAT:  6.807981
 CYCLE:    28 TIME:   0.004 TIME LEFT:  2.00D  GRAD.:     0.660 HEAT:  6.807019
 CYCLE:    29 TIME:   0.004 TIME LEFT:  2.00D  GRAD.:     0.453 HEAT:  6.806629
 CYCLE:    30 TIME:   0.004 TIME LEFT:  2.00D  GRAD.:     0.426 HEAT:  6.806272
 CYCLE:    31 TIME:   0.004 TIME LEFT:  2.00D  GRAD.:     0.383 HEAT:  6.805876
 CYCLE:    32 TIME:   0.004 TIME LEFT:  2.00D  GRAD.:     0.254 HEAT:  6.805733
 CYCLE:    33 TIME:   0.008 TIME LEFT:  2.00D  GRAD.:     0.215 HEAT:  6.805629
 CYCLE:    34 TIME:   0.004 TIME LEFT:  2.00D  GRAD.:     0.168 HEAT:  6.805556
 CYCLE:    35 TIME:   0.004 TIME LEFT:  2.00D  GRAD.:     0.114 HEAT:  6.805528
 CYCLE:    36 TIME:   0.004 TIME LEFT:  2.00D  GRAD.:     0.071 HEAT:  6.805512
 CYCLE:    37 TIME:   0.004 TIME LEFT:  2.00D  GRAD.:     0.054 HEAT:  6.805504
 CYCLE:    38 TIME:   0.004 TIME LEFT:  2.00D  GRAD.:     0.040 HEAT:  6.805499

     GRADIENT =  0.04033  IS LESS THAN CUTOFF =  0.05000



 -------------------------------------------------------------------------------
 pm3  precise nosym THREADS=1
 InChI=1S/C7H10O3/c1-2-4-6-7(5-3-1)9-10-8-6/h2,4,6-7H,1,3,5H2



     GEOMETRY OPTIMISED USING EIGENVECTOR FOLLOWING (EF).     
     SCF FIELD WAS ACHIEVED                                   


                              PM3 CALCULATION
                                                       MOPAC2016 (Version: 18.184L)
                                                       Sat Jun 15 10:30:32 2019
                                                       No. of days remaining =  18




          FINAL HEAT OF FORMATION =          6.80550 KCAL/MOL =      28.47421 KJ/MOL


          TOTAL ENERGY            =      -1859.28938 EV
          ELECTRONIC ENERGY       =      -9216.65274 EV  POINT GROUP:     C1  
          CORE-CORE REPULSION     =       7357.36336 EV
          COSMO AREA              =        162.43 SQUARE ANGSTROMS
          COSMO VOLUME            =        166.83 CUBIC ANGSTROMS

          GRADIENT NORM           =          0.04033 = 0.00902 PER ATOM
          IONIZATION POTENTIAL    =         10.335879 EV
          HOMO LUMO ENERGIES (EV) =        -10.336  0.476
          NO. OF FILLED LEVELS    =         28
          MOLECULAR WEIGHT        =        142.1542

          MOLECULAR DIMENSIONS (Angstroms)

            Atom       Atom       Distance
            H    17    O     3     6.17326
            H    19    H    13     5.21881
            H    16    H    12     3.16878


          SCF CALCULATIONS        =         47
 
          WALL-CLOCK TIME         =          0.203 SECONDS
          COMPUTATION TIME        =          0.187 SECONDS




   ATOM   CHEMICAL          X               Y               Z
  NUMBER   SYMBOL      (ANGSTROMS)     (ANGSTROMS)     (ANGSTROMS)
 
     1       O          2.29541813  *  -1.33982235  *  -0.30519482  *
     2       O          2.49420651  *   0.95285613  *  -0.82792908  *
     3       O          3.29124474  *  -0.25138852  *  -0.30197734  *
     4       C          1.10261818  *  -0.70800586  *   0.13643424  *
     5       C          1.13418809  *   0.66613095  *  -0.58653449  *
     6       C         -0.13332435  *  -1.52015705  *  -0.22973524  *
     7       C         -1.36735285  *  -0.92076125  *   0.43648340  *
     8       C         -1.73502020  *   0.47477688  *  -0.05938290  *
     9       C          0.43022693  *   1.68893195  *   0.24414931  *
    10       C         -0.87848196  *   1.56908405  *   0.48510562  *
    11       H          1.15627996  *  -0.57493684  *   1.24564168  *
    12       H          0.67394022  *   0.62560509  *  -1.60465842  *
    13       H         -0.00573242  *  -2.57013416  *   0.10049759  *
    14       H         -0.26663472  *  -1.56483814  *  -1.32955001  *
    15       H         -2.22446277  *  -1.59838200  *   0.25125798  *
    16       H         -1.23285534  *  -0.90209540  *   1.53650307  *
    17       H         -2.78997793  *   0.67895941  *   0.21015705  *
    18       H         -1.70118498  *   0.50403378  *  -1.16896825  *
    19       H          1.02053818  *   2.52192679  *   0.64188404  *
    20       H         -1.38669813  *   2.31974205  *   1.10139454  *

                             CARTESIAN COORDINATES

   1    O        2.295418133    -1.339822347    -0.305194816
   2    O        2.494206505     0.952856133    -0.827929077
   3    O        3.291244740    -0.251388521    -0.301977343
   4    C        1.102618180    -0.708005861     0.136434241
   5    C        1.134188087     0.666130954    -0.586534491
   6    C       -0.133324353    -1.520157046    -0.229735235
   7    C       -1.367352855    -0.920761251     0.436483403
   8    C       -1.735020197     0.474776878    -0.059382904
   9    C        0.430226931     1.688931947     0.244149307
  10    C       -0.878481957     1.569084051     0.485105621
  11    H        1.156279961    -0.574936841     1.245641675
  12    H        0.673940216     0.625605095    -1.604658425
  13    H       -0.005732420    -2.570134160     0.100497590
  14    H       -0.266634720    -1.564838139    -1.329550012
  15    H       -2.224462771    -1.598382004     0.251257982
  16    H       -1.232855344    -0.902095395     1.536503068
  17    H       -2.789977932     0.678959406     0.210157046
  18    H       -1.701184975     0.504033780    -1.168968254
  19    H        1.020538177     2.521926786     0.641884036
  20    H       -1.386698127     2.319742051     1.101394543


           Empirical Formula: C7 H10 O3  =    20 atoms



      MOLECULAR POINT GROUP   :   C1  


                  EIGENVALUES  
 -41.71651 -35.92335 -34.62593 -31.67225 -31.01556 -28.90502 -24.07160 -23.34404
 -21.18209 -18.95932 -18.34224 -18.10516 -17.45384 -16.40116 -16.34659 -15.54645
 -15.13340 -15.01347 -14.52821 -14.04919 -13.72696 -12.94237 -12.70655 -12.48728
 -12.21740 -11.66892 -11.22033 -10.33588   0.47650   0.51748   1.10982   2.49509
   2.89449   2.98633   3.07452   3.15300   3.25758   3.39108   3.42077   3.68814
   3.74549   3.83343   4.01252   4.13847   4.25472   4.47043   4.50063   4.79367
   5.19636   5.42862


              NET ATOMIC CHARGES AND DIPOLE CONTRIBUTIONS

  ATOM NO.   TYPE          CHARGE      No. of ELECS.   s-Pop       p-Pop       
    1          O          -0.128312        6.1283     1.90844     4.21987
    2          O          -0.136207        6.1362     1.91197     4.22424
    3          O          -0.018202        6.0182     1.96454     4.05366
    4          C           0.034561        3.9654     1.19332     2.77212
    5          C           0.056062        3.9439     1.17704     2.76690
    6          C          -0.103822        4.1038     1.16257     2.94125
    7          C          -0.091133        4.0911     1.16056     2.93058
    8          C          -0.069977        4.0700     1.14991     2.92006
    9          C          -0.168468        4.1685     1.20146     2.96700
   10          C          -0.129305        4.1293     1.19643     2.93288
   11          H           0.080076        0.9199     0.91992
   12          H           0.084743        0.9153     0.91526
   13          H           0.067461        0.9325     0.93254
   14          H           0.067402        0.9326     0.93260
   15          H           0.054816        0.9452     0.94518
   16          H           0.058947        0.9411     0.94105
   17          H           0.055405        0.9446     0.94459
   18          H           0.061045        0.9390     0.93895
   19          H           0.122921        0.8771     0.87708
   20          H           0.101988        0.8980     0.89801
 DIPOLE           X         Y         Z       TOTAL
 POINT-CHG.    -3.022    -0.082     0.626     3.087
 HYBRID        -0.382     0.123     0.141     0.425
 SUM           -3.404     0.041     0.768     3.490


          ATOMIC ORBITAL ELECTRON POPULATIONS

     Atom    s        px        py        pz   
    1  O   1.90844   1.17428   1.15371   1.89188
    2  O   1.91197   1.16909   1.25631   1.79884
    3  O   1.96454   1.13082   1.04780   1.87504
    4  C   1.19332   0.87013   0.90934   0.99265
    5  C   1.17704   0.84954   0.93872   0.97864
    6  C   1.16257   0.93254   0.99201   1.01670
    7  C   1.16056   0.97039   0.95753   1.00265
    8  C   1.14991   0.98426   0.93305   1.00276
    9  C   1.20146   0.96534   0.99799   1.00367
   10  C   1.19643   0.95248   0.98561   0.99479
   11  H   0.91992
   12  H   0.91526
   13  H   0.93254
   14  H   0.93260
   15  H   0.94518
   16  H   0.94105
   17  H   0.94459
   18  H   0.93895
   19  H   0.87708
   20  H   0.89801
 *******************************************************************************
 ** Site#: 14399        For non-commercial use only    Version 18.184L 64BITS **
 *******************************************************************************
 ** Cite this program as: MOPAC2016, Version: 18.184L, James J. P. Stewart,   **
 ** Stewart Computational Chemistry, web: HTTP://OpenMOPAC.net. Days left:  18**
 *******************************************************************************
 **                                                                           **
 **                                MOPAC2016                                  **
 **                                                                           **
 *******************************************************************************

                              PM3 CALCULATION RESULTS

 *******************************************************************************
 *  CALCULATION DONE:                                Sat Jun 15 10:30:32 2019  *
 *  PM3        - The PM3 Hamiltonian to be used
 *  OLDGEO     - PREVIOUS GEOMETRY TO BE USED
 *  PRECISE    - CRITERIA TO BE INCREASED BY 100 TIMES
 *  NOSYM      - POINT-GROUP SYMMETRY SET TO C1
 *  THREADS=1  - MULTI-THREADING NOT USED
 *  T=         - A TIME OF 172800.0 SECONDS REQUESTED
 *  DUMP=N     - RESTART FILE WRITTEN EVERY  7200.000 SECONDS
 *  THERMO     - THERMODYNAMIC QUANTITIES TO BE CALCULATED
 *******************************************************************************
oldgeo thermo nosym precise THREADS=1  pm3
 InChI=1S/C7H10O3/c1-2-4-6-7(5-3-1)9-10-8-6/h2,4,6-7H,1,3,5H2

   ATOM   CHEMICAL          X               Y               Z
  NUMBER   SYMBOL      (ANGSTROMS)     (ANGSTROMS)     (ANGSTROMS)
 
     1       O          2.29541813  *  -1.33982235  *  -0.30519482  *
     2       O          2.49420651  *   0.95285613  *  -0.82792908  *
     3       O          3.29124474  *  -0.25138852  *  -0.30197734  *
     4       C          1.10261818  *  -0.70800586  *   0.13643424  *
     5       C          1.13418809  *   0.66613095  *  -0.58653449  *
     6       C         -0.13332435  *  -1.52015705  *  -0.22973524  *
     7       C         -1.36735285  *  -0.92076125  *   0.43648340  *
     8       C         -1.73502020  *   0.47477688  *  -0.05938290  *
     9       C          0.43022693  *   1.68893195  *   0.24414931  *
    10       C         -0.87848196  *   1.56908405  *   0.48510562  *
    11       H          1.15627996  *  -0.57493684  *   1.24564168  *
    12       H          0.67394022  *   0.62560509  *  -1.60465842  *
    13       H         -0.00573242  *  -2.57013416  *   0.10049759  *
    14       H         -0.26663472  *  -1.56483814  *  -1.32955001  *
    15       H         -2.22446277  *  -1.59838200  *   0.25125798  *
    16       H         -1.23285534  *  -0.90209540  *   1.53650307  *
    17       H         -2.78997793  *   0.67895941  *   0.21015705  *
    18       H         -1.70118498  *   0.50403378  *  -1.16896825  *
    19       H          1.02053818  *   2.52192679  *   0.64188404  *
    20       H         -1.38669813  *   2.31974205  *   1.10139454  *
 


          CARTESIAN COORDINATES 

    NO.       ATOM           X           Y           Z

     1         O          2.2954     -1.3398     -0.3052
     2         O          2.4942      0.9529     -0.8279
     3         O          3.2912     -0.2514     -0.3020
     4         C          1.1026     -0.7080      0.1364
     5         C          1.1342      0.6661     -0.5865
     6         C         -0.1333     -1.5202     -0.2297
     7         C         -1.3674     -0.9208      0.4365
     8         C         -1.7350      0.4748     -0.0594
     9         C          0.4302      1.6889      0.2441
    10         C         -0.8785      1.5691      0.4851
    11         H          1.1563     -0.5749      1.2456
    12         H          0.6739      0.6256     -1.6047
    13         H         -0.0057     -2.5701      0.1005
    14         H         -0.2666     -1.5648     -1.3296
    15         H         -2.2245     -1.5984      0.2513
    16         H         -1.2329     -0.9021      1.5365
    17         H         -2.7900      0.6790      0.2102
    18         H         -1.7012      0.5040     -1.1690
    19         H          1.0205      2.5219      0.6419
    20         H         -1.3867      2.3197      1.1014

  H: (PM3): J. J. P. STEWART, J. COMP. CHEM. 10, 209 (1989).
  C: (PM3): J. J. P. STEWART, J. COMP. CHEM. 10, 209 (1989).
  O: (PM3): J. J. P. STEWART, J. COMP. CHEM. 10, 209 (1989).

           Empirical Formula: C7 H10 O3  =    20 atoms



      MOLECULAR POINT GROUP   :   C1  


      RHF CALCULATION, NO. OF DOUBLY OCCUPIED LEVELS = 28



          HEAT OF FORMATION =       6.805499 KCALS/MOLE


          CARTESIAN COORDINATE DERIVATIVES

   NUMBER  ATOM         X            Y            Z

     1       O      0.003878     0.008661     0.006451
     2       O     -0.001024    -0.015781    -0.000700
     3       O     -0.006552    -0.004779    -0.007469
     4       C      0.001484     0.000361    -0.001160
     5       C     -0.003414    -0.002395    -0.006477
     6       C     -0.000505     0.009462     0.002734
     7       C     -0.009489    -0.000467     0.002381
     8       C     -0.002736     0.010757     0.002145
     9       C      0.002832     0.000336    -0.000159
    10       C     -0.000671     0.010958    -0.005561
    11       H      0.004144     0.000123     0.003609
    12       H     -0.003300     0.000512    -0.000029
    13       H     -0.006365    -0.003921    -0.001197
    14       H      0.002353    -0.008906    -0.010057
    15       H      0.005022    -0.003468     0.003844
    16       H     -0.000638    -0.003804     0.005562
    17       H      0.005439     0.003024     0.001387
    18       H     -0.001566     0.004431     0.002198
    19       H      0.010689    -0.007746    -0.001434
    20       H      0.000420     0.002642     0.003934
 


          GRADIENT NORM =   0.04119


          TIME FOR SCF CALCULATION =    0.00

          TIME FOR DERIVATIVES     =    0.00

          MOLECULAR WEIGHT =  142.15



          ROTATIONAL CONSTANTS IN CM(-1)

          A =    0.08189474   B =    0.03836839   C =    0.02815615



           PRINCIPAL MOMENTS OF INERTIA IN UNITS OF 10**(-40)*GRAM-CM**2

          A =      341.8141   B =      729.5791   C =      994.1976


          ORIENTATION OF MOLECULE IN FORCE CALCULATION

    NO.       ATOM         X         Y         Z

     1          O      -1.1582    1.4742    0.9042
     2          O       1.2017    1.4742    0.9042
     3          O      -0.0176    2.4098    0.9042
     4          C      -0.7427    0.4346    0.0304
     5          C       0.7551    0.2384    0.3910
     6          C      -1.5547   -0.8370    0.2422
     7          C      -1.2239   -1.8541   -0.8450
     8          C       0.2108   -2.3726   -0.8062
     9          C       1.5055   -0.2330   -0.8118
    10          C       1.2255   -1.4231   -1.3506
    11          H      -0.8546    0.7867   -1.0253
    12          H       0.9025   -0.4818    1.2334
    13          H      -2.6371   -0.6019    0.2142
    14          H      -1.3657   -1.2650    1.2474
    15          H      -1.9134   -2.7148   -0.7354
    16          H      -1.4381   -1.4243   -1.8439
    17          H       0.2606   -3.3177   -1.3821
    18          H       0.4878   -2.6442    0.2343
    19          H       2.2764    0.4260   -1.2266
    20          H       1.7754   -1.7590   -2.2373


    FIRST DERIVATIVES WILL BE USED IN THE CALCULATION OF SECOND DERIVATIVES

          ESTIMATED TIME TO COMPLETE CALCULATION =        0.94 SECONDS

    FOR POINT-GROUP C1   THERE ARE   1 UNIQUE SYMMETRY FUNCTIONS.

 STEP:   1 TIME =     0.02 SECS, INTEGRAL =      0.02 TIME LEFT: 172799.98
 STEP:   2 TIME =     0.02 SECS, INTEGRAL =      0.04 TIME LEFT: 172799.96
 STEP:   3 TIME =     0.02 SECS, INTEGRAL =      0.05 TIME LEFT: 172799.94
 STEP:   4 TIME =     0.02 SECS, INTEGRAL =      0.07 TIME LEFT: 172799.93
 STEP:   5 TIME =     0.02 SECS, INTEGRAL =      0.09 TIME LEFT: 172799.91
 STEP:   6 TIME =     0.02 SECS, INTEGRAL =      0.11 TIME LEFT: 172799.89
 STEP:   7 TIME =     0.02 SECS, INTEGRAL =      0.13 TIME LEFT: 172799.86
 STEP:   8 TIME =     0.02 SECS, INTEGRAL =      0.15 TIME LEFT: 172799.84
 STEP:   9 TIME =     0.02 SECS, INTEGRAL =      0.17 TIME LEFT: 172799.82
 STEP:  10 TIME =     0.02 SECS, INTEGRAL =      0.19 TIME LEFT: 172799.80
 STEP:  11 TIME =     0.02 SECS, INTEGRAL =      0.21 TIME LEFT: 172799.79
 STEP:  12 TIME =     0.02 SECS, INTEGRAL =      0.23 TIME LEFT: 172799.77
 STEP:  13 TIME =     0.02 SECS, INTEGRAL =      0.25 TIME LEFT: 172799.75
 STEP:  14 TIME =     0.02 SECS, INTEGRAL =      0.27 TIME LEFT: 172799.73
 STEP:  15 TIME =     0.02 SECS, INTEGRAL =      0.29 TIME LEFT: 172799.71
 STEP:  16 TIME =     0.02 SECS, INTEGRAL =      0.30 TIME LEFT: 172799.69
 STEP:  17 TIME =     0.02 SECS, INTEGRAL =      0.32 TIME LEFT: 172799.67
 STEP:  18 TIME =     0.02 SECS, INTEGRAL =      0.34 TIME LEFT: 172799.65
 STEP:  19 TIME =     0.02 SECS, INTEGRAL =      0.36 TIME LEFT: 172799.64
 STEP:  20 TIME =     0.02 SECS, INTEGRAL =      0.38 TIME LEFT: 172799.62
 STEP:  21 TIME =     0.02 SECS, INTEGRAL =      0.40 TIME LEFT: 172799.60
 STEP:  22 TIME =     0.02 SECS, INTEGRAL =      0.42 TIME LEFT: 172799.58
 STEP:  23 TIME =     0.02 SECS, INTEGRAL =      0.43 TIME LEFT: 172799.56
 STEP:  24 TIME =     0.02 SECS, INTEGRAL =      0.45 TIME LEFT: 172799.54
 STEP:  25 TIME =     0.02 SECS, INTEGRAL =      0.47 TIME LEFT: 172799.52
 STEP:  26 TIME =     0.02 SECS, INTEGRAL =      0.49 TIME LEFT: 172799.50
 STEP:  27 TIME =     0.02 SECS, INTEGRAL =      0.51 TIME LEFT: 172799.48
 STEP:  28 TIME =     0.02 SECS, INTEGRAL =      0.53 TIME LEFT: 172799.47
 STEP:  29 TIME =     0.02 SECS, INTEGRAL =      0.55 TIME LEFT: 172799.45
 STEP:  30 TIME =     0.02 SECS, INTEGRAL =      0.57 TIME LEFT: 172799.43
 STEP:  31 TIME =     0.02 SECS, INTEGRAL =      0.59 TIME LEFT: 172799.41
 STEP:  32 TIME =     0.02 SECS, INTEGRAL =      0.61 TIME LEFT: 172799.39
 STEP:  33 TIME =     0.02 SECS, INTEGRAL =      0.62 TIME LEFT: 172799.38
 STEP:  34 TIME =     0.02 SECS, INTEGRAL =      0.64 TIME LEFT: 172799.36
 STEP:  35 TIME =     0.02 SECS, INTEGRAL =      0.65 TIME LEFT: 172799.34
 STEP:  36 TIME =     0.02 SECS, INTEGRAL =      0.67 TIME LEFT: 172799.32
 STEP:  37 TIME =     0.02 SECS, INTEGRAL =      0.69 TIME LEFT: 172799.30
 STEP:  38 TIME =     0.02 SECS, INTEGRAL =      0.71 TIME LEFT: 172799.29
 STEP:  39 TIME =     0.02 SECS, INTEGRAL =      0.73 TIME LEFT: 172799.27
 STEP:  40 TIME =     0.02 SECS, INTEGRAL =      0.75 TIME LEFT: 172799.25
 STEP:  41 TIME =     0.02 SECS, INTEGRAL =      0.77 TIME LEFT: 172799.23
 STEP:  42 TIME =     0.02 SECS, INTEGRAL =      0.79 TIME LEFT: 172799.21
 STEP:  43 TIME =     0.02 SECS, INTEGRAL =      0.80 TIME LEFT: 172799.19
 STEP:  44 TIME =     0.02 SECS, INTEGRAL =      0.82 TIME LEFT: 172799.17
 STEP:  45 TIME =     0.02 SECS, INTEGRAL =      0.84 TIME LEFT: 172799.15
 STEP:  46 TIME =     0.02 SECS, INTEGRAL =      0.86 TIME LEFT: 172799.14
 STEP:  47 TIME =     0.02 SECS, INTEGRAL =      0.88 TIME LEFT: 172799.12
 STEP:  48 TIME =     0.02 SECS, INTEGRAL =      0.90 TIME LEFT: 172799.10
 STEP:  49 TIME =     0.02 SECS, INTEGRAL =      0.92 TIME LEFT: 172799.08
 STEP:  50 TIME =     0.02 SECS, INTEGRAL =      0.94 TIME LEFT: 172799.06
 STEP:  51 TIME =     0.02 SECS, INTEGRAL =      0.96 TIME LEFT: 172799.04
 STEP:  52 TIME =     0.02 SECS, INTEGRAL =      0.97 TIME LEFT: 172799.02
 STEP:  53 TIME =     0.02 SECS, INTEGRAL =      0.99 TIME LEFT: 172799.00
 STEP:  54 TIME =     0.02 SECS, INTEGRAL =      1.01 TIME LEFT: 172798.98
 STEP:  55 TIME =     0.02 SECS, INTEGRAL =      1.03 TIME LEFT: 172798.96
 STEP:  56 TIME =     0.02 SECS, INTEGRAL =      1.05 TIME LEFT: 172798.95
 STEP:  57 TIME =     0.02 SECS, INTEGRAL =      1.07 TIME LEFT: 172798.93
 STEP:  58 TIME =     0.02 SECS, INTEGRAL =      1.09 TIME LEFT: 172798.91
 STEP:  59 TIME =     0.02 SECS, INTEGRAL =      1.11 TIME LEFT: 172798.89
 STEP:  60 TIME =     0.02 SECS, INTEGRAL =      1.12 TIME LEFT: 172798.87

(To convert to Hartree/Bohr^2, multiply by (10^(-21) x N x a0^2)/(4.184 x 627.51) =  0.0642)


           FORCE MATRIX IN MILLIDYNES/ANGSTROM


                  O  1       O  2       O  3       C  4       C  5       C  6
 ------------------------------------------------------------------------------
     O    1   7.197830
     O    2   0.694704   7.508675
     O    3   1.468250   1.687099   4.374142
     C    4   4.867415   0.961006   1.307675  14.564123
     C    5   1.019933   4.982299   1.233296   2.995671  14.869799
     C    6   0.740051   0.068461   0.111621   4.014639   0.552319  14.242848
     C    7   0.066887   0.006858   0.019888   0.672620   0.044199   4.026240
     C    8   0.005200   0.004224   0.001585   0.046364   0.119999   0.584270
     C    9   0.064369   0.791136   0.080647   0.640091   4.678399   0.026995
     C   10   0.004451   0.058807   0.012578   0.058874   0.874480   0.022550
     H   11   0.410195   0.037423   0.067577   4.150284   0.444080   0.420280
     H   12   0.026328   0.417260   0.087938   0.444349   4.129117   0.036792
     H   13   0.052226   0.009049   0.003998   0.450414   0.043479   4.486756
     H   14   0.027287   0.003959   0.002162   0.462328   0.033808   4.449339
     H   15   0.011819   0.001482   0.003865   0.052649   0.004532   0.424771
     H   16   0.003232   0.000589   0.001104   0.035442   0.003730   0.445011
     H   17   0.000744   0.001193   0.000414   0.004016   0.003354   0.048589
     H   18   0.000987   0.001875   0.000966   0.007816   0.033011   0.026266
     H   19   0.006711   0.050154   0.002550   0.022723   0.463629   0.000926
     H   20   0.003016   0.009637   0.003634   0.012587   0.123580   0.000813


                  C  7       C  8       C  9       C 10       H 11       H 12
 ------------------------------------------------------------------------------
     C    7  14.121101
     C    8   3.970123  14.419737
     C    9   0.032328   0.777786  18.046519
     C   10   0.615006   4.791184  10.565561  17.935714
     H   11   0.041774   0.004344   0.049129   0.007240   4.580896
     H   12   0.006923   0.027790   0.406119   0.036021   0.036594   4.589333
     H   13   0.433229   0.049736   0.002822   0.002830   0.021048   0.002228
     H   14   0.443691   0.019164   0.001694   0.002386   0.041115   0.029660
     H   15   4.471304   0.430778   0.003423   0.047301   0.001942   0.000678
     H   16   4.456857   0.440401   0.004096   0.020395   0.029549   0.001020
     H   17   0.429664   4.485234   0.051458   0.434566   0.000509   0.000682
     H   18   0.451329   4.367124   0.028433   0.423410   0.000895   0.024891
     H   19   0.015233   0.120305   4.855937   0.440115   0.002604   0.023138
     H   20   0.025739   0.432289   0.438268   4.826408   0.000731   0.011556


                  H 13       H 14       H 15       H 16       H 17       H 18
 ------------------------------------------------------------------------------
     H   13   5.095720
     H   14   0.562109   5.073102
     H   15   0.038564   0.028556   5.061583
     H   16   0.027821   0.044483   0.567007   5.071675
     H   17   0.007858   0.002311   0.037608   0.021304   5.053597
     H   18   0.002592   0.022156   0.020117   0.044492   0.569154   4.977612
     H   19   0.000474   0.000515   0.002371   0.000929   0.005846   0.012018
     H   20   0.000401   0.000440   0.003781   0.002701   0.033116   0.024938


                  H 19       H 20
 ------------------------------
     H   19   5.233443
     H   20   0.072356   5.174570


          HEAT OF FORMATION =       6.805499 KCALS/MOLE

          ZERO POINT ENERGY     100.408 KCAL/MOL


           NORMAL COORDINATE ANALYSIS (Total motion = 1 Angstrom)


   Root No.       1         2         3         4         5         6         7         8

                 1 A       2 A       3 A       4 A       5 A       6 A       7 A       8 A   

                 106.4     144.2     195.7     266.5     305.0     339.4     357.5     437.5
  
           1    0.0048   -0.0038    0.0328   -0.0138    0.0106   -0.0157   -0.0108   -0.0003
           2    0.0217    0.0100   -0.0217    0.0264    0.0070    0.0232   -0.0052   -0.0296
           3   -0.0381   -0.0178    0.0744   -0.0002    0.0314   -0.0053   -0.0090   -0.0023
           4   -0.0169    0.0014   -0.0096   -0.0104   -0.0067    0.0216    0.0006    0.0016
           5   -0.0356   -0.0287   -0.0120   -0.0193   -0.0043    0.0132   -0.0236    0.0257
           6    0.0808    0.0219    0.0140    0.0090   -0.0037   -0.0352   -0.0444    0.0193
           7    0.0190    0.0185   -0.0021    0.0216    0.0052    0.0546    0.0208    0.0534
           8    0.0040   -0.0120    0.0027    0.0060    0.0080    0.0142   -0.0252    0.0016
           9   -0.0746    0.0356   -0.0740    0.0019   -0.0057   -0.0001   -0.0022    0.0012
          10    0.0035   -0.0072   -0.0117   -0.0299   -0.0162   -0.0177   -0.0281   -0.0055
          11   -0.0162    0.0130   -0.0014    0.0154    0.0214   -0.0089   -0.0194   -0.0180
          12    0.0069   -0.0224    0.0223    0.0054   -0.0074    0.0352    0.0068   -0.0079
          13    0.0012   -0.0096   -0.0028   -0.0280   -0.0199   -0.0216   -0.0203    0.0030
          14   -0.0167   -0.0045   -0.0073    0.0019    0.0021   -0.0090   -0.0253    0.0343
          15    0.0230   -0.0217   -0.0043   -0.0240   -0.0108    0.0454   -0.0118   -0.0234
          16    0.0067   -0.0154   -0.0268    0.0184   -0.0132   -0.0157   -0.0443   -0.0075
          17   -0.0129    0.0169    0.0032   -0.0135    0.0192   -0.0273   -0.0049   -0.0307
          18    0.0328   -0.0217   -0.0269    0.0283   -0.0155   -0.0192    0.0310   -0.0123
          19   -0.0078    0.0147    0.0139    0.0228    0.0040    0.0194   -0.0086   -0.0443
          20   -0.0127   -0.0200    0.0166    0.0262   -0.0253   -0.0250    0.0247   -0.0336
          21    0.0267    0.0215   -0.0290   -0.0110    0.0297   -0.0206    0.0156   -0.0202
          22    0.0042    0.0242    0.0108    0.0091    0.0103    0.0206    0.0079   -0.0269
          23    0.0154    0.0060    0.0101   -0.0174   -0.0138   -0.0186    0.0614    0.0148
          24   -0.0291    0.0439    0.0368   -0.0056   -0.0355   -0.0065    0.0061    0.0021
          25   -0.0028   -0.0183   -0.0116   -0.0228    0.0031   -0.0396    0.0423    0.0029
          26    0.0213    0.0199    0.0108    0.0010   -0.0043    0.0050    0.0055    0.0410
          27    0.0055   -0.0374   -0.0165   -0.0202    0.0090    0.0317    0.0174   -0.0157
          28   -0.0148   -0.0056    0.0052    0.0277    0.0230   -0.0196    0.0375    0.0105
          29    0.0384    0.0060   -0.0023   -0.0266   -0.0059    0.0198    0.0219    0.0088
          30   -0.0267   -0.0138    0.0040    0.0144    0.0042   -0.0052   -0.0089    0.0508
          31    0.0133   -0.0056   -0.0214   -0.0602   -0.0250   -0.0003   -0.0383   -0.0302
          32   -0.0498    0.0165    0.0367    0.0109    0.0399   -0.0137   -0.0338   -0.0206
          33   -0.0057   -0.0209    0.0353    0.0078    0.0007    0.0307    0.0031   -0.0059
          34    0.0052   -0.0166    0.0101   -0.0254   -0.0386   -0.0191   -0.0295    0.0293
          35   -0.0374   -0.0283   -0.0129   -0.0121   -0.0029    0.0156   -0.0218    0.0290
          36    0.0038   -0.0403   -0.0117   -0.0348   -0.0110    0.0638   -0.0062   -0.0320
          37    0.0055   -0.0139   -0.0235    0.0085   -0.0129   -0.0154   -0.0445   -0.0064
          38   -0.0167    0.0187    0.0131   -0.0568    0.0177   -0.0324   -0.0071   -0.0227
          39    0.0527   -0.0665   -0.0706    0.0792   -0.0606   -0.0629    0.0223    0.0247
          40    0.0273   -0.0518   -0.0722    0.0769   -0.0478   -0.0549   -0.0521    0.0206
          41   -0.0091    0.0454   -0.0127   -0.0260    0.0486   -0.0421   -0.0058   -0.0454
          42    0.0303   -0.0026   -0.0255    0.0121    0.0034   -0.0192    0.0314   -0.0234
          43    0.0156    0.0295    0.0009   -0.0030    0.0325    0.0212    0.0221   -0.0200
          44   -0.0277   -0.0280    0.0215    0.0395   -0.0398   -0.0288   -0.0021   -0.0501
          45    0.0573    0.0521   -0.0773   -0.0716    0.1069   -0.0392   -0.0021    0.0113
          46   -0.0555    0.0125    0.0678    0.0591   -0.0534    0.0374   -0.0240   -0.0773
          47   -0.0229   -0.0623    0.0343    0.0798   -0.0813   -0.0208    0.0363   -0.0586
          48    0.0325    0.0039   -0.0331    0.0037    0.0183   -0.0229    0.0239   -0.0224
          49    0.0020    0.0414    0.0293   -0.0126   -0.0127    0.0449    0.0071    0.0088
          50    0.0321   -0.0224   -0.0201   -0.0071    0.0218   -0.0165    0.0460    0.0240
          51   -0.0569    0.0921    0.0889   -0.0245   -0.0976   -0.0075    0.0319   -0.0103
          52    0.0353    0.0342   -0.0135   -0.0036    0.0327    0.0217    0.0137   -0.0632
          53   -0.0100    0.0629    0.0650   -0.0450   -0.0787   -0.0120    0.0880    0.0016
          54   -0.0439    0.0561    0.0576   -0.0098   -0.0589   -0.0057    0.0127    0.0093
          55   -0.0087   -0.0500   -0.0340   -0.0367    0.0210   -0.0690    0.0833    0.0065
          56    0.0351    0.0408    0.0262    0.0117   -0.0098    0.0360   -0.0006    0.0270
          57    0.0174   -0.0617   -0.0327   -0.0290    0.0325    0.0233    0.0836   -0.0302
          58   -0.0325   -0.0313   -0.0053    0.0707    0.0652   -0.0425    0.0575    0.0718
          59    0.0658    0.0005   -0.0126   -0.0472   -0.0079    0.0748   -0.0026   -0.0433
          60   -0.0481   -0.0270    0.0019    0.0488    0.0307   -0.0400    0.0139    0.1078


   Root No.       9        10        11        12        13        14        15        16

                 9 A      10 A      11 A      12 A      13 A      14 A      15 A      16 A   

                 459.9     526.7     558.2     595.2     627.0     703.0     743.6     771.6
  
           1    0.0033   -0.0243    0.0299    0.1125   -0.0076    0.0253   -0.0113   -0.0000
           2    0.0007    0.0190    0.0641    0.0202    0.0220   -0.0197   -0.0613   -0.0096
           3    0.0188    0.0006    0.0033   -0.0180    0.0028   -0.0103   -0.0005   -0.0038
           4   -0.0125   -0.0215    0.0184   -0.0698    0.0422    0.0632    0.0248   -0.0026
           5   -0.0014    0.0248   -0.0279    0.0213   -0.0189    0.0194   -0.0571   -0.0164
           6    0.0030    0.0291   -0.0108   -0.0070    0.0036    0.0304   -0.0095   -0.0086
           7    0.0151    0.0145   -0.0475   -0.0003   -0.0219   -0.0198   -0.0086   -0.0010
           8    0.0075    0.0371    0.0150    0.0110   -0.0106    0.0026    0.1529    0.0134
           9   -0.0005    0.0121    0.0103    0.0338   -0.0054   -0.0006    0.0170    0.0007
          10   -0.0180    0.0002    0.0011    0.0038   -0.0220   -0.0239    0.0124    0.0197
          11    0.0231   -0.0151   -0.0023   -0.0360    0.0046   -0.0022   -0.0097   -0.0063
          12   -0.0263    0.0462    0.0268   -0.0275    0.0051   -0.0352   -0.0282    0.0077
          13   -0.0216    0.0205    0.0032   -0.0223    0.0128   -0.0094   -0.0123   -0.0117
          14    0.0066    0.0152   -0.0146   -0.0065    0.0234    0.0406   -0.0348   -0.0048
          15   -0.0140   -0.0256    0.0099   -0.0146   -0.0280    0.0064   -0.0003   -0.0012
          16    0.0315   -0.0277    0.0070   -0.0329   -0.0168   -0.0343   -0.0152    0.0251
          17   -0.0107   -0.0156   -0.0232   -0.0245   -0.0160   -0.0149   -0.0129    0.0004
          18   -0.0079    0.0035   -0.0105    0.0202    0.0018    0.0179    0.0069   -0.0005
          19   -0.0039    0.0016   -0.0291    0.0085    0.0080    0.0023   -0.0103    0.0129
          20   -0.0176   -0.0097   -0.0330   -0.0042   -0.0125    0.0012   -0.0030   -0.0034
          21   -0.0134   -0.0026   -0.0303    0.0017    0.0015    0.0062    0.0063    0.0080
          22   -0.0004    0.0028   -0.0058    0.0055   -0.0021    0.0093    0.0003   -0.0065
          23    0.0047   -0.0048    0.0216   -0.0192   -0.0237    0.0062    0.0059   -0.0020
          24    0.0116   -0.0084   -0.0047    0.0044    0.0107   -0.0154    0.0111   -0.0002
          25    0.0213    0.0327   -0.0055    0.0051    0.0399   -0.0417    0.0211   -0.0318
          26   -0.0208   -0.0368    0.0063    0.0096    0.0189   -0.0204    0.0042    0.0199
          27    0.0268   -0.0220   -0.0098    0.0079   -0.0016    0.0148   -0.0013   -0.0113
          28   -0.0230    0.0065    0.0236   -0.0161   -0.0320    0.0108    0.0122   -0.0373
          29    0.0096   -0.0271   -0.0054    0.0138    0.0242   -0.0140    0.0031    0.0216
          30   -0.0185   -0.0433    0.0029    0.0097    0.0263   -0.0301    0.0107   -0.0067
          31   -0.0422   -0.0135    0.0033   -0.0304   -0.0531   -0.0505    0.0348    0.0313
          32    0.0397   -0.0260   -0.0148   -0.0707   -0.0012   -0.0283   -0.0091   -0.0056
          33   -0.0159    0.0433    0.0230   -0.0353    0.0076   -0.0400   -0.0295    0.0048
          34   -0.0594    0.0699    0.0121   -0.0148   -0.0123   -0.0722   -0.0621    0.0222
          35    0.0123    0.0228   -0.0273    0.0086   -0.0113    0.0492   -0.0614   -0.0210
          36   -0.0003   -0.0280   -0.0019   -0.0030   -0.0517    0.0248   -0.0122   -0.0188
          37    0.0220   -0.0212    0.0070   -0.0290   -0.0187   -0.0396   -0.0157    0.0326
          38   -0.0513    0.0099   -0.0252   -0.0139   -0.0275   -0.0391   -0.0147    0.0312
          39    0.0697   -0.0676    0.0379   -0.0106   -0.0298    0.0176    0.0324   -0.0665
          40    0.1133   -0.1016    0.0432   -0.0611   -0.0398   -0.0260    0.0072   -0.0389
          41   -0.0093   -0.0315   -0.0597   -0.0188   -0.0140    0.0068   -0.0042    0.0115
          42   -0.0205    0.0081   -0.0319    0.0254    0.0053    0.0246    0.0069    0.0149
          43   -0.0010    0.0074    0.0097   -0.0151   -0.0186    0.0151   -0.0130   -0.0165
          44   -0.0174   -0.0164   -0.0578    0.0040    0.0010   -0.0141   -0.0065    0.0176
          45    0.0066   -0.0177    0.0308   -0.0984   -0.0664   -0.0411   -0.0430   -0.0207
          46   -0.0132    0.0061   -0.0865    0.0750    0.0681    0.0088    0.0145    0.0470
          47   -0.0327   -0.0017   -0.0800    0.0631    0.0278    0.0390    0.0304    0.0224
          48   -0.0167   -0.0003   -0.0352    0.0139    0.0040    0.0203    0.0144    0.0101
          49    0.0332   -0.0031    0.0393    0.0065    0.0078    0.0026   -0.0088    0.0061
          50   -0.0286   -0.0354   -0.0122    0.0066    0.0201   -0.0312    0.0370   -0.0123
          51    0.0707    0.0417    0.0562   -0.0391   -0.0632    0.0475   -0.0418    0.0183
          52    0.0025    0.0187   -0.0360    0.0108    0.0002    0.0350   -0.0090    0.0300
          53    0.0720    0.0498    0.0876   -0.0633   -0.1004    0.0793   -0.0553    0.0269
          54    0.0299    0.0023    0.0230   -0.0104   -0.0120   -0.0019   -0.0040   -0.0011
          55    0.0787    0.0944   -0.0140    0.0063    0.0904   -0.0104   -0.0571    0.1471
          56   -0.0557   -0.0873    0.0190    0.0116   -0.0335   -0.0379    0.0657   -0.0904
          57    0.0783    0.0141   -0.0059    0.0144    0.0091    0.0439   -0.0491    0.1466
          58   -0.0560    0.0020    0.0721   -0.0449   -0.0776    0.0850   -0.0660    0.1493
          59    0.0259   -0.0505   -0.0392    0.0386    0.0337   -0.0186    0.0323   -0.0820
          60   -0.0447   -0.0378    0.0459   -0.0176   -0.0062    0.0179   -0.0487    0.1490


   Root No.      17        18        19        20        21        22        23        24

                17 A      18 A      19 A      20 A      21 A      22 A      23 A      24 A   

                 869.3     878.2     917.9     961.0     990.7    1025.0    1038.0    1073.6
  
           1    0.0077   -0.0050   -0.0029    0.0006    0.0016   -0.0053    0.0035    0.0024
           2   -0.0032    0.0037    0.0105   -0.0020   -0.0016   -0.0008   -0.0009   -0.0025
           3   -0.0058    0.0050    0.0061   -0.0028   -0.0028    0.0020   -0.0036   -0.0017
           4    0.0026   -0.0039   -0.0003    0.0067    0.0035   -0.0058   -0.0049    0.0007
           5    0.0026    0.0080    0.0077    0.0011    0.0001   -0.0138   -0.0258   -0.0091
           6    0.0031   -0.0007    0.0027    0.0022    0.0015   -0.0024   -0.0049    0.0006
           7   -0.0017    0.0031    0.0007   -0.0024   -0.0013    0.0008   -0.0008   -0.0008
           8    0.0045   -0.0017   -0.0053   -0.0038    0.0003   -0.0022    0.0025    0.0036
           9    0.0024   -0.0003   -0.0012   -0.0015    0.0000   -0.0010    0.0016    0.0020
          10   -0.0088   -0.0035    0.0034    0.0160    0.0019    0.0199   -0.0032   -0.0205
          11   -0.0103    0.0102    0.0081   -0.0096   -0.0116    0.0006   -0.0088   -0.0047
          12    0.0068   -0.0068   -0.0098    0.0139    0.0115    0.0062    0.0068   -0.0044
          13    0.0026    0.0167   -0.0014   -0.0224   -0.0106   -0.0024    0.0025    0.0071
          14   -0.0004   -0.0155   -0.0033    0.0126    0.0072    0.0175    0.0215    0.0005
          15    0.0023    0.0196    0.0080   -0.0131   -0.0097   -0.0239   -0.0208    0.0012
          16   -0.0156   -0.0384    0.0252    0.0101    0.0045   -0.0104    0.0022    0.0097
          17   -0.0034    0.0160   -0.0260    0.0080    0.0039    0.0196   -0.0021    0.0081
          18   -0.0197   -0.0130   -0.0122   -0.0023   -0.0071    0.0155   -0.0229    0.0065
          19    0.0275   -0.0214   -0.0075   -0.0273   -0.0049   -0.0068   -0.0005   -0.0038
          20    0.0291   -0.0211   -0.0253   -0.0063    0.0092   -0.0116   -0.0026   -0.0012
          21   -0.0075    0.0093    0.0190   -0.0030    0.0007   -0.0160    0.0205   -0.0098
          22    0.0030    0.0130   -0.0149    0.0128    0.0011    0.0272   -0.0086    0.0008
          23    0.0242   -0.0159    0.0480   -0.0002   -0.0128    0.0190    0.0129   -0.0032
          24    0.0240    0.0099    0.0246    0.0236    0.0077    0.0013   -0.0146    0.0170
          25   -0.0139    0.0046    0.0014   -0.0291    0.0223   -0.0107   -0.0149    0.0015
          26   -0.0090    0.0081   -0.0166    0.0069   -0.0042   -0.0293   -0.0069   -0.0071
          27   -0.0067   -0.0119    0.0005   -0.0067    0.0148    0.0220    0.0239    0.0075
          28   -0.0164    0.0050    0.0035    0.0386   -0.0105   -0.0268    0.0053    0.0038
          29   -0.0064    0.0070   -0.0056   -0.0102    0.0130   -0.0007   -0.0042    0.0078
          30    0.0006   -0.0183   -0.0183   -0.0056   -0.0174    0.0080    0.0218   -0.0254
          31   -0.0020    0.0645    0.0034   -0.0047   -0.0496    0.0221   -0.0002   -0.0897
          32   -0.0182    0.0373    0.0352   -0.0240   -0.0384   -0.0122    0.0109   -0.0350
          33    0.0033   -0.0043   -0.0000    0.0096    0.0078    0.0002    0.0122   -0.0065
          34    0.0337    0.0574   -0.0435   -0.0306   -0.0757    0.0146    0.1897    0.1371
          35    0.0046   -0.0094    0.0065   -0.0038    0.0038    0.0339    0.0892    0.0871
          36    0.0005    0.0151    0.0234   -0.0242    0.0006   -0.0115    0.0014    0.0480
          37   -0.0286   -0.0491    0.0281    0.0324    0.0170    0.0122   -0.0050    0.0050
          38   -0.0631   -0.0287   -0.0218    0.1168    0.0679    0.1279   -0.0377   -0.0131
          39    0.0570    0.1426   -0.0869    0.0283    0.0245    0.0763   -0.0182   -0.0350
          40    0.0690    0.1181   -0.0293   -0.0095   -0.0034   -0.0034    0.0435   -0.0038
          41   -0.0570    0.0204    0.0021   -0.0575   -0.0869   -0.0102    0.0107    0.0752
          42   -0.0556   -0.0376    0.0080   -0.0265   -0.0434    0.0008   -0.0255    0.0367
          43    0.0951   -0.0630   -0.0242   -0.0728   -0.0648    0.0622   -0.0403   -0.0580
          44   -0.0144    0.0037   -0.0275    0.0296    0.0636   -0.0705    0.0259    0.0473
          45    0.1004   -0.0778   -0.1031   -0.0097    0.0552   -0.0728   -0.0086    0.0319
          46   -0.0268    0.0805    0.0702    0.0175    0.0432   -0.0167    0.0567    0.0218
          47   -0.0841    0.0152    0.0529   -0.0194   -0.0572    0.0115    0.0174   -0.0428
          48   -0.0426    0.0023    0.0317   -0.0181   -0.0378   -0.0031    0.0148   -0.0330
          49   -0.0611    0.0054   -0.0763   -0.0095   -0.0637    0.1741   -0.0880    0.0662
          50    0.0768   -0.0031    0.1106    0.0347   -0.0232    0.0714   -0.0147    0.0344
          51   -0.0722   -0.0126   -0.0851   -0.0353    0.0188   -0.0710    0.0269   -0.0384
          52    0.0241    0.0700    0.0399    0.0107    0.0885    0.0324    0.1204   -0.1259
          53   -0.0854   -0.0366   -0.0587   -0.0729   -0.0062   -0.0114    0.0846   -0.0705
          54   -0.0116   -0.0124   -0.0208    0.0028   -0.0146   -0.0088   -0.0307    0.0320
          55    0.0433    0.0303   -0.0506    0.0732   -0.0759   -0.0533   -0.0270   -0.0277
          56   -0.0605    0.0024    0.0191   -0.0243    0.0716   -0.0547   -0.0159    0.0440
          57    0.0209    0.0254   -0.0373    0.1324   -0.0495   -0.0916   -0.0127    0.0316
          58   -0.0267    0.0624    0.0064   -0.0685    0.0774    0.0374   -0.0099    0.0544
          59   -0.0437   -0.0266   -0.0770    0.0820   -0.0306    0.0028    0.0965   -0.0016
          60    0.0082    0.0295    0.0099   -0.1071    0.0541    0.0459   -0.0239    0.0087


   Root No.      25        26        27        28        29        30        31        32

                25 A      26 A      27 A      28 A      29 A      30 A      31 A      32 A   

                1085.6    1101.9    1109.2    1116.5    1134.3    1148.5    1159.5    1169.7
  
           1    0.0132   -0.0024   -0.0019    0.0086    0.0022    0.0058    0.0007   -0.0031
           2   -0.0170    0.0042    0.0014   -0.0106    0.0018   -0.0059   -0.0041    0.0037
           3   -0.0312    0.0051    0.0061   -0.0157    0.0009   -0.0080   -0.0044    0.0039
           4    0.0023    0.0051    0.0033    0.0009   -0.0015    0.0051   -0.0084   -0.0033
           5    0.0187    0.0064    0.0139   -0.0061    0.0002    0.0026   -0.0082   -0.0015
           6    0.0025    0.0013    0.0015    0.0013    0.0000    0.0025   -0.0037   -0.0010
           7   -0.0052   -0.0008    0.0011   -0.0031    0.0005   -0.0025    0.0009    0.0017
           8    0.0032   -0.0032    0.0021   -0.0022   -0.0002   -0.0005   -0.0021    0.0024
           9    0.0001   -0.0015    0.0005   -0.0004    0.0003    0.0000   -0.0008    0.0009
          10   -0.0017    0.0171   -0.0115    0.0141   -0.0034    0.0020    0.0127    0.0023
          11    0.0102   -0.0054   -0.0060   -0.0094   -0.0037   -0.0152    0.0184   -0.0192
          12    0.0217    0.0107   -0.0013    0.0355    0.0040    0.0282    0.0011    0.0085
          13    0.0150   -0.0161    0.0026   -0.0192   -0.0012   -0.0187    0.0128    0.0113
          14   -0.0221    0.0122   -0.0102    0.0108    0.0041    0.0041    0.0069   -0.0015
          15   -0.0053   -0.0282    0.0068   -0.0086    0.0001   -0.0075   -0.0030    0.0047
          16    0.0018   -0.0071    0.0048   -0.0083    0.0032    0.0071   -0.0078    0.0045
          17    0.0020   -0.0023    0.0137    0.0152   -0.0150    0.0128   -0.0104    0.0135
          18   -0.0086   -0.0072    0.0077   -0.0119   -0.0190    0.0003    0.0318   -0.0224
          19   -0.0071    0.0091    0.0068    0.0188   -0.0160   -0.0180   -0.0049    0.0014
          20   -0.0009   -0.0006   -0.0114   -0.0149    0.0179    0.0022   -0.0018   -0.0038
          21    0.0066    0.0068   -0.0032    0.0190    0.0171   -0.0306   -0.0228    0.0071
          22    0.0040   -0.0108   -0.0082   -0.0169    0.0160    0.0140   -0.0031   -0.0009
          23    0.0039   -0.0031    0.0205    0.0104   -0.0002   -0.0061    0.0011   -0.0012
          24    0.0032    0.0082   -0.0161   -0.0204    0.0038    0.0115    0.0109    0.0073
          25   -0.0099   -0.0006   -0.0067    0.0058   -0.0020    0.0068   -0.0055   -0.0021
          26   -0.0112   -0.0101   -0.0042    0.0029   -0.0061    0.0013   -0.0009    0.0014
          27    0.0175    0.0224    0.0018   -0.0092   -0.0035   -0.0003   -0.0014   -0.0047
          28   -0.0039   -0.0008    0.0007    0.0027   -0.0013   -0.0028    0.0033    0.0014
          29    0.0005    0.0059   -0.0064   -0.0019   -0.0002   -0.0014    0.0022    0.0033
          30    0.0016   -0.0167    0.0140    0.0016    0.0002    0.0030   -0.0029   -0.0038
          31   -0.2180    0.1517   -0.0197    0.0018    0.0825    0.0042    0.0680   -0.1125
          32    0.2389   -0.0379   -0.1300    0.0738   -0.0079   -0.0105    0.1011   -0.1001
          33    0.1312   -0.0185   -0.0440    0.0677   -0.0081    0.0309    0.0255   -0.0055
          34    0.0378    0.0221   -0.0044   -0.1130   -0.0554   -0.0381   -0.0689   -0.0907
          35   -0.1794   -0.0934   -0.1312    0.0928   -0.0027    0.0074    0.0268   -0.0010
          36   -0.1400   -0.1244   -0.0925    0.0795    0.0048   -0.0000    0.0294    0.0268
          37   -0.0034   -0.0197   -0.0001   -0.0186   -0.0174   -0.0144   -0.0188    0.0027
          38   -0.0187   -0.0668   -0.0108   -0.0342   -0.1088   -0.0912   -0.0678    0.0085
          39   -0.0055    0.0045   -0.0003    0.0424   -0.0537   -0.0421   -0.0148    0.0125
          40    0.0064    0.0359    0.0143    0.0632    0.0072    0.0473   -0.0487    0.0582
          41   -0.0119    0.0370    0.0656    0.0333   -0.0342    0.2212    0.0303    0.0748
          42   -0.0149    0.0028    0.0288   -0.0145   -0.0270    0.0813    0.0578   -0.0062
          43   -0.0121    0.0349   -0.0676   -0.0123   -0.1236   -0.0100   -0.0127    0.0418
          44    0.0027   -0.0239    0.0520    0.0096    0.1114   -0.0024    0.0074   -0.0426
          45    0.0015   -0.0079    0.0160    0.0025    0.0770   -0.0173    0.0176   -0.0452
          46   -0.0159   -0.0008    0.1410    0.1206   -0.0556   -0.0957    0.0552   -0.0311
          47    0.0300    0.0139   -0.0969   -0.0251    0.0617    0.0168   -0.1129    0.0519
          48    0.0228    0.0153   -0.0698   -0.0063    0.0443   -0.0098   -0.0828    0.0368
          49    0.0499   -0.0317    0.0444    0.0581    0.1464   -0.0128   -0.0728   -0.0733
          50    0.0131   -0.0061    0.0244    0.0073    0.0298    0.0025    0.0058   -0.0085
          51   -0.0060    0.0108   -0.0164   -0.0087   -0.0285   -0.0068   -0.0023    0.0142
          52   -0.0039   -0.1104    0.0198   -0.1189   -0.0009    0.1587    0.0135   -0.0508
          53   -0.0024   -0.0336    0.0531    0.0357   -0.0032   -0.0158   -0.0165   -0.0163
          54    0.0050    0.0283   -0.0156    0.0136    0.0075   -0.0312    0.0005    0.0174
          55   -0.0266   -0.0626    0.0082    0.0027    0.0184   -0.0102    0.0185    0.0303
          56    0.0041    0.0826   -0.0526    0.0111   -0.0768    0.0368   -0.0606   -0.0802
          57    0.0125    0.0516   -0.0424   -0.0022   -0.0743    0.0242   -0.0515   -0.0733
          58    0.0428    0.0600   -0.0339   -0.0505    0.0325   -0.0493    0.0826    0.0862
          59    0.0569    0.0516   -0.0026   -0.0602    0.0420   -0.0786    0.1315    0.1294
          60    0.0102    0.0048   -0.0090   -0.0103    0.0040    0.0032   -0.0021    0.0015


   Root No.      33        34        35        36        37        38        39        40

                33 A      34 A      35 A      36 A      37 A      38 A      39 A      40 A   

                1214.0    1236.6    1257.2    1299.7    1317.0    1360.0    1389.0    1394.0
  
           1   -0.0102    0.0149   -0.0139    0.0094    0.0037    0.0002    0.0053    0.0010
           2    0.0084   -0.0272    0.0126   -0.0108    0.0010    0.0033   -0.0112   -0.0000
           3    0.0092   -0.0191    0.0135   -0.0102   -0.0007    0.0003   -0.0088    0.0004
           4   -0.0013   -0.0139   -0.0165   -0.0109   -0.0135    0.0023    0.0018   -0.0031
           5    0.0048   -0.0165   -0.0214   -0.0070   -0.0185    0.0087    0.0056   -0.0081
           6    0.0030   -0.0091   -0.0116   -0.0039   -0.0101    0.0051    0.0025   -0.0047
           7    0.0008   -0.0002    0.0059    0.0010    0.0043   -0.0007   -0.0037    0.0016
           8    0.0004   -0.0026   -0.0008    0.0024    0.0024    0.0042   -0.0041   -0.0013
           9   -0.0003    0.0002   -0.0010    0.0020    0.0017    0.0018   -0.0015   -0.0004
          10    0.0248   -0.0094    0.0494   -0.0409   -0.0270   -0.0307    0.0224    0.0046
          11    0.0017    0.0586   -0.0062    0.0189   -0.0186   -0.0203    0.0680   -0.0050
          12   -0.0087    0.0346   -0.0197    0.0189   -0.0010    0.0008    0.0235   -0.0031
          13    0.0260    0.0141    0.0376    0.0448    0.0309    0.0296   -0.0133   -0.0150
          14   -0.0185    0.0243    0.0317    0.0089    0.0417   -0.0261   -0.0201    0.0285
          15   -0.0202    0.0116   -0.0002   -0.0051    0.0213   -0.0316   -0.0086    0.0292
          16   -0.0050    0.0098   -0.0207   -0.0027    0.0065    0.0126   -0.0117    0.0044
          17    0.0025    0.0377   -0.0134   -0.0078   -0.0214    0.0084   -0.0634   -0.0045
          18   -0.0002    0.0101   -0.0020   -0.0052   -0.0117    0.0039   -0.0235   -0.0059
          19   -0.0037   -0.0164    0.0032    0.0279   -0.0206   -0.0346   -0.0348   -0.0136
          20    0.0103   -0.0075   -0.0024   -0.0262    0.0304    0.0190    0.0218    0.0174
          21    0.0055    0.0045   -0.0028   -0.0147    0.0140    0.0191    0.0062    0.0149
          22   -0.0146   -0.0014    0.0230    0.0066   -0.0279    0.0536    0.0270    0.0318
          23    0.0010   -0.0057    0.0032    0.0122   -0.0122    0.0080   -0.0007   -0.0278
          24   -0.0001    0.0028   -0.0071    0.0004    0.0041   -0.0181   -0.0084    0.0040
          25   -0.0055   -0.0018   -0.0256   -0.0057   -0.0021   -0.0153    0.0021    0.0166
          26   -0.0092    0.0040    0.0053   -0.0089    0.0046   -0.0043   -0.0022   -0.0042
          27   -0.0135    0.0078    0.0279   -0.0049    0.0034    0.0110   -0.0019   -0.0179
          28   -0.0116    0.0101    0.0086   -0.0114    0.0129   -0.0119   -0.0073   -0.0149
          29   -0.0153    0.0031    0.0120   -0.0098   -0.0038    0.0080    0.0024   -0.0151
          30    0.0135   -0.0100   -0.0058    0.0082   -0.0137    0.0133    0.0064    0.0014
          31   -0.0747   -0.0231   -0.1137    0.0728    0.0370    0.0685   -0.0449   -0.0191
          32   -0.0530   -0.1497   -0.0029   -0.0259    0.0383    0.0309   -0.1089    0.0126
          33   -0.0159   -0.0373    0.0018   -0.0087    0.0129    0.0074   -0.0304    0.0064
          34   -0.0679   -0.0105   -0.0551   -0.0803   -0.0571   -0.0527    0.0317    0.0174
          35    0.0419   -0.0220   -0.0357   -0.0106   -0.0494    0.0260    0.0232   -0.0376
          36    0.0486   -0.0224   -0.0360    0.0010   -0.0383    0.0275    0.0193   -0.0317
          37   -0.0235   -0.0272   -0.0339    0.0171    0.0302    0.0182    0.0158    0.0007
          38   -0.0866   -0.1495   -0.0600    0.1007    0.0779    0.0036    0.0758   -0.0138
          39   -0.0199   -0.0757    0.0365    0.0567   -0.0275   -0.0901    0.0371    0.0094
          40   -0.0028   -0.0195   -0.0159   -0.0068    0.0472    0.0566    0.0053   -0.0135
          41   -0.0263   -0.1369    0.0275    0.0368    0.0604   -0.0187    0.1061    0.0084
          42   -0.0129   -0.0614    0.0164    0.0155    0.0140   -0.0196    0.0456    0.0052
          43    0.0257    0.0339   -0.0668   -0.0782    0.1042    0.0098    0.0615   -0.0005
          44   -0.0140   -0.0633    0.0567    0.0665   -0.0645   -0.0328   -0.0304   -0.0110
          45   -0.0039   -0.0859    0.0314    0.0425    0.0143   -0.0792    0.1105   -0.0749
          46    0.0245   -0.0141   -0.0229   -0.0600    0.0832    0.0323    0.1260   -0.0193
          47   -0.0169   -0.0115    0.0045    0.0634   -0.0216   -0.0775    0.0480   -0.0728
          48   -0.0127    0.0005    0.0053    0.0426   -0.0277   -0.0396   -0.0074   -0.0277
          49    0.0949    0.0035   -0.0561   -0.0546    0.1158   -0.0747   -0.0215   -0.0758
          50    0.0256   -0.0147   -0.0190    0.0328   -0.0174   -0.0355   -0.0152    0.1065
          51   -0.0284    0.0141    0.0206   -0.0322    0.0183    0.0398    0.0115   -0.1894
          52    0.0716    0.0060   -0.0536   -0.0119    0.0518   -0.0836   -0.0363   -0.0613
          53    0.0344   -0.0269   -0.0184    0.0398   -0.0336   -0.0222   -0.0034    0.2293
          54   -0.0150   -0.0039    0.0082    0.0104   -0.0201    0.0120    0.0073    0.0762
          55   -0.0319   -0.0004   -0.0152   -0.0210   -0.0033   -0.0123    0.0019    0.0034
          56    0.1283   -0.0046   -0.0156    0.0683    0.0202   -0.0006   -0.0051    0.0410
          57    0.1500   -0.0041    0.0172    0.0859    0.0223    0.0259   -0.0056    0.0261
          58    0.0321   -0.0198   -0.0777    0.0079    0.0028   -0.0314   -0.0071    0.0113
          59    0.0808   -0.0504   -0.1438    0.0244   -0.0159   -0.0419   -0.0062    0.0141
          60    0.0062   -0.0096   -0.0010    0.0087   -0.0174    0.0222    0.0104    0.0054


   Root No.      41        42        43        44        45        46        47        48

                41 A      42 A      43 A      44 A      45 A      46 A      47 A      48 A   

                1403.0    1408.7    1423.8    1866.0    2841.0    2851.4    2937.4    2953.3
  
           1   -0.0011   -0.0025    0.0004    0.0009   -0.0003   -0.0001    0.0000    0.0000
           2    0.0031    0.0010    0.0005   -0.0005    0.0000    0.0000   -0.0000    0.0000
           3    0.0021    0.0021    0.0016   -0.0000    0.0005    0.0002   -0.0000    0.0000
           4    0.0009   -0.0004   -0.0035   -0.0027   -0.0001    0.0003   -0.0000    0.0000
           5    0.0014   -0.0008   -0.0100    0.0010   -0.0001    0.0005   -0.0000    0.0000
           6    0.0010   -0.0007   -0.0052    0.0023   -0.0002    0.0002   -0.0000    0.0000
           7    0.0005    0.0004    0.0023    0.0008    0.0001    0.0001   -0.0000   -0.0000
           8    0.0020   -0.0007   -0.0016   -0.0005   -0.0000   -0.0003    0.0000   -0.0000
           9    0.0008   -0.0005   -0.0004    0.0003   -0.0001   -0.0002    0.0000    0.0000
          10   -0.0131    0.0102    0.0051   -0.0020   -0.0042   -0.0033    0.0000    0.0001
          11   -0.0215    0.0007   -0.0120   -0.0019    0.0147    0.0087    0.0001   -0.0006
          12   -0.0048   -0.0055   -0.0076   -0.0016   -0.0434   -0.0250    0.0000    0.0006
          13    0.0085   -0.0021   -0.0217   -0.0076    0.0029   -0.0069    0.0002   -0.0001
          14   -0.0037    0.0026    0.0387    0.0207   -0.0165    0.0294   -0.0008   -0.0001
          15   -0.0077    0.0032    0.0417    0.0241    0.0192   -0.0350    0.0011    0.0000
          16    0.0209   -0.0289    0.0023    0.0002    0.0015    0.0006   -0.0009    0.0119
          17    0.0283    0.0041    0.0112    0.0002   -0.0005   -0.0002    0.0008   -0.0070
          18   -0.0025    0.0361    0.0046   -0.0001    0.0014    0.0004   -0.0011    0.0118
          19   -0.0263   -0.0015   -0.0140   -0.0003   -0.0001   -0.0000   -0.0011    0.0100
          20   -0.0134   -0.0171   -0.0088    0.0027    0.0003    0.0002   -0.0046    0.0271
          21   -0.0222   -0.0229   -0.0056    0.0002   -0.0002   -0.0002    0.0050   -0.0232
          22    0.0074    0.0010    0.0390   -0.0213    0.0002   -0.0004   -0.0079   -0.0006
          23   -0.0106   -0.0067    0.0407   -0.0292    0.0000   -0.0001   -0.0147   -0.0029
          24    0.0055    0.0059   -0.0205    0.0054    0.0007   -0.0014   -0.0482   -0.0049
          25   -0.0051    0.0007    0.0245   -0.0254   -0.0002   -0.0005    0.0001    0.0000
          26    0.0028    0.0011   -0.0192   -0.2116    0.0006   -0.0006   -0.0001    0.0000
          27    0.0074   -0.0002   -0.0382   -0.1221    0.0002   -0.0003   -0.0003   -0.0000
          28    0.0034    0.0008   -0.0339    0.0770   -0.0001    0.0001   -0.0007   -0.0004
          29    0.0049   -0.0001   -0.0298    0.2264   -0.0002    0.0004    0.0012    0.0001
          30   -0.0021   -0.0017    0.0155    0.0735    0.0000   -0.0001    0.0017    0.0002
          31    0.0240   -0.0152   -0.0234   -0.0043    0.0632    0.0403   -0.0002   -0.0003
          32    0.0181    0.0057    0.0202    0.0010   -0.1869   -0.1056    0.0001    0.0027
          33    0.0038   -0.0010    0.0070    0.0003    0.5212    0.2950   -0.0000   -0.0084
          34   -0.0110   -0.0044    0.0239   -0.0035   -0.0433    0.0848   -0.0021   -0.0006
          35    0.0030   -0.0081   -0.0336   -0.0207    0.2001   -0.3551    0.0109    0.0002
          36    0.0013   -0.0041   -0.0283   -0.0181   -0.2397    0.4252   -0.0113   -0.0003
          37   -0.0145    0.0104   -0.0076    0.0001   -0.0097   -0.0077    0.0044   -0.1164
          38   -0.0850    0.0640   -0.0324   -0.0001    0.0036    0.0024   -0.0007    0.0246
          39    0.0773   -0.2381   -0.0083    0.0005   -0.0010   -0.0008    0.0000   -0.0000
          40   -0.1244    0.2465   -0.0112    0.0001   -0.0044   -0.0035    0.0023   -0.0259
          41   -0.0313   -0.0444   -0.0161    0.0000    0.0051    0.0000   -0.0062    0.0633
          42    0.0084   -0.0568   -0.0043   -0.0002   -0.0186   -0.0058    0.0148   -0.1419
          43    0.0827    0.0172   -0.0121    0.0110    0.0009    0.0005    0.0243   -0.1745
          44   -0.0561   -0.0039    0.0029   -0.0075    0.0013    0.0007    0.0276   -0.2168
          45    0.1675    0.1178    0.0470    0.0007   -0.0001   -0.0001   -0.0030    0.0240
          46    0.1404    0.0521    0.0549   -0.0037    0.0011    0.0006   -0.0103    0.0583
          47    0.1529    0.0962    0.0401    0.0005   -0.0003   -0.0000    0.0250   -0.1078
          48    0.0310    0.0242    0.0056    0.0005    0.0040    0.0020   -0.0616    0.2552
          49   -0.0384   -0.0303   -0.0230   -0.0371    0.0002   -0.0003   -0.0183   -0.0016
          50    0.0276    0.0313   -0.0642   -0.0346   -0.0013    0.0035    0.2783    0.0456
          51   -0.0523   -0.0504    0.1252    0.0177   -0.0004    0.0015    0.1600    0.0275
          52   -0.0049   -0.0038   -0.0325    0.0105   -0.0020    0.0041    0.1137    0.0105
          53    0.0550    0.0550   -0.1391    0.0250    0.0026   -0.0052   -0.1107   -0.0093
          54    0.0198    0.0186   -0.0359    0.0047   -0.0080    0.0161    0.4199    0.0307
          55   -0.0005    0.0017   -0.0044   -0.1095   -0.0020    0.0020   -0.0003    0.0001
          56   -0.0103   -0.0012    0.0773   -0.0429   -0.0036    0.0054    0.0005    0.0001
          57   -0.0042   -0.0022    0.0577    0.0946    0.0014   -0.0014   -0.0001   -0.0000
          58   -0.0085    0.0010    0.0311   -0.0938    0.0003   -0.0005    0.0097    0.0006
          59   -0.0193   -0.0015    0.0733   -0.0062   -0.0001    0.0001   -0.0096   -0.0010
          60   -0.0004   -0.0013    0.0176    0.1047    0.0005   -0.0006   -0.0204   -0.0016


   Root No.      49        50        51        52        53        54

                49 A      50 A      51 A      52 A      53 A      54 A   

                2960.7    3021.5    3032.4    3038.3    3044.8    3070.2
  
           1   -0.0001   -0.0000    0.0001   -0.0001    0.0000    0.0000
           2   -0.0000   -0.0000    0.0001   -0.0002   -0.0000   -0.0000
           3   -0.0000   -0.0000   -0.0000    0.0000   -0.0000    0.0000
           4    0.0000    0.0000   -0.0000    0.0000   -0.0001   -0.0002
           5   -0.0000    0.0000   -0.0000   -0.0000    0.0000    0.0002
           6   -0.0000    0.0000   -0.0000    0.0000    0.0001    0.0003
           7    0.0000    0.0000   -0.0000   -0.0000    0.0000   -0.0000
           8   -0.0000   -0.0000    0.0000   -0.0000    0.0000    0.0000
           9   -0.0000   -0.0000    0.0000   -0.0000    0.0000    0.0000
          10   -0.0003   -0.0000    0.0001   -0.0003    0.0001    0.0002
          11    0.0003   -0.0000    0.0003   -0.0004   -0.0000   -0.0001
          12   -0.0013   -0.0000    0.0001    0.0003   -0.0000   -0.0002
          13    0.0002   -0.0000   -0.0000    0.0001   -0.0000   -0.0000
          14    0.0001    0.0003   -0.0001    0.0002    0.0002   -0.0006
          15    0.0001   -0.0005    0.0000   -0.0002    0.0004    0.0002
          16   -0.0279   -0.0012    0.0079   -0.0203   -0.0006    0.0002
          17    0.0150   -0.0000    0.0018   -0.0030   -0.0000   -0.0000
          18   -0.0237    0.0011   -0.0098    0.0180    0.0003   -0.0001
          19    0.0062    0.0041   -0.0162   -0.0096   -0.0013    0.0003
          20    0.0147   -0.0000   -0.0076   -0.0051   -0.0008    0.0003
          21   -0.0111    0.0059   -0.0168   -0.0077   -0.0008    0.0001
          22    0.0001    0.0070    0.0005   -0.0000    0.0005   -0.0000
          23   -0.0010   -0.0324   -0.0052   -0.0015   -0.0043    0.0023
          24   -0.0014    0.0050   -0.0002   -0.0007   -0.0016    0.0009
          25   -0.0000    0.0002    0.0002    0.0002   -0.0147   -0.0363
          26   -0.0000    0.0001    0.0001    0.0001   -0.0111   -0.0350
          27    0.0000   -0.0001   -0.0002   -0.0002    0.0090    0.0165
          28   -0.0002   -0.0023   -0.0008   -0.0007    0.0225   -0.0102
          29    0.0000    0.0013    0.0006    0.0005   -0.0155    0.0124
          30    0.0001    0.0036    0.0014    0.0012   -0.0375    0.0210
          31   -0.0004    0.0002   -0.0003   -0.0004    0.0000    0.0002
          32   -0.0070    0.0000   -0.0006    0.0015   -0.0001   -0.0004
          33    0.0137    0.0007   -0.0011   -0.0027    0.0001    0.0007
          34    0.0009    0.0009    0.0002   -0.0001   -0.0002   -0.0005
          35    0.0015   -0.0045    0.0004   -0.0018    0.0012    0.0024
          36   -0.0013    0.0047   -0.0005    0.0021   -0.0020   -0.0062
          37    0.2856    0.0158   -0.1282    0.3136    0.0086   -0.0020
          38   -0.0587   -0.0033    0.0291   -0.0749   -0.0021    0.0005
          39    0.0026    0.0020   -0.0137    0.0250    0.0005   -0.0001
          40    0.0481   -0.0031    0.0322   -0.0659   -0.0014    0.0003
          41   -0.1185    0.0055   -0.0563    0.1100    0.0022   -0.0004
          42    0.2831   -0.0138    0.1286   -0.2483   -0.0050    0.0009
          43   -0.1025   -0.0264    0.1585    0.0952    0.0121   -0.0026
          44   -0.1264   -0.0410    0.2083    0.1280    0.0156   -0.0034
          45    0.0150    0.0099   -0.0435   -0.0225   -0.0029    0.0006
          46    0.0262   -0.0150    0.0410    0.0194    0.0021   -0.0003
          47   -0.0458    0.0373   -0.1191   -0.0606   -0.0066    0.0011
          48    0.1193   -0.0804    0.2468    0.1226    0.0130   -0.0020
          49    0.0003   -0.0129   -0.0047   -0.0019    0.0003   -0.0002
          50    0.0126    0.3375    0.0596    0.0180    0.0527   -0.0239
          51    0.0077    0.2348    0.0397    0.0115    0.0319   -0.0143
          52    0.0037   -0.0760   -0.0084   -0.0008   -0.0043    0.0019
          53   -0.0028    0.0524    0.0050   -0.0001   -0.0002    0.0009
          54    0.0065   -0.2977   -0.0372   -0.0033   -0.0151    0.0054
          55    0.0001   -0.0010   -0.0026   -0.0029    0.1811    0.4174
          56    0.0001   -0.0009   -0.0021   -0.0023    0.1501    0.3531
          57    0.0000    0.0012    0.0015    0.0016   -0.1008   -0.2270
          58    0.0001    0.0247    0.0102    0.0090   -0.2729    0.1358
          59   -0.0003   -0.0163   -0.0064   -0.0055    0.1627   -0.0857
          60   -0.0004   -0.0392   -0.0165   -0.0145    0.4375   -0.2211


           MASS-WEIGHTED COORDINATE ANALYSIS (NORMAL COORDINATES)


   Root No.       1         2         3         4         5         6         7         8

                 1 A       2 A       3 A       4 A       5 A       6 A       7 A       8 A   

                 106.4     144.2     195.7     266.5     305.0     339.4     357.5     437.5
  
           1    0.0311   -0.0335    0.2307   -0.1286    0.1070   -0.1209   -0.0822   -0.0022
           2    0.1411    0.0879   -0.1521    0.2461    0.0709    0.1790   -0.0399   -0.2267
           3   -0.2478   -0.1569    0.5224   -0.0015    0.3174   -0.0409   -0.0690   -0.0179
           4   -0.1099    0.0126   -0.0675   -0.0970   -0.0676    0.1667    0.0047    0.0121
           5   -0.2316   -0.2529   -0.0845   -0.1802   -0.0435    0.1015   -0.1799    0.1966
           6    0.5249    0.1926    0.0985    0.0838   -0.0377   -0.2715   -0.3393    0.1476
           7    0.1235    0.1633   -0.0149    0.2017    0.0523    0.4206    0.1587    0.4090
           8    0.0259   -0.1060    0.0187    0.0556    0.0809    0.1091   -0.1923    0.0125
           9   -0.4845    0.3136   -0.5195    0.0173   -0.0572   -0.0004   -0.0166    0.0095
          10    0.0200   -0.0551   -0.0710   -0.2418   -0.1417   -0.1180   -0.1859   -0.0367
          11   -0.0915    0.0990   -0.0084    0.1247    0.1870   -0.0592   -0.1281   -0.1196
          12    0.0390   -0.1711    0.1360    0.0440   -0.0652    0.2351    0.0447   -0.0524
          13    0.0065   -0.0730   -0.0170   -0.2264   -0.1740   -0.1444   -0.1345    0.0201
          14   -0.0940   -0.0343   -0.0446    0.0157    0.0185   -0.0602   -0.1677    0.2275
          15    0.1295   -0.1656   -0.0262   -0.1938   -0.0947    0.3032   -0.0782   -0.1550
          16    0.0377   -0.1174   -0.1633    0.1487   -0.1152   -0.1047   -0.2933   -0.0498
          17   -0.0724    0.1289    0.0194   -0.1092    0.1679   -0.1820   -0.0327   -0.2040
          18    0.1847   -0.1654   -0.1634    0.2287   -0.1359   -0.1285    0.2049   -0.0818
          19   -0.0442    0.1122    0.0849    0.1841    0.0347    0.1298   -0.0570   -0.2940
          20   -0.0715   -0.1524    0.1012    0.2115   -0.2214   -0.1671    0.1631   -0.2233
          21    0.1506    0.1640   -0.1766   -0.0892    0.2600   -0.1378    0.1033   -0.1343
          22    0.0235    0.1847    0.0657    0.0738    0.0903    0.1372    0.0520   -0.1786
          23    0.0866    0.0457    0.0617   -0.1408   -0.1205   -0.1245    0.4064    0.0984
          24   -0.1637    0.3347    0.2238   -0.0456   -0.3111   -0.0433    0.0402    0.0142
          25   -0.0155   -0.1396   -0.0705   -0.1846    0.0273   -0.2645    0.2796    0.0190
          26    0.1202    0.1520    0.0657    0.0082   -0.0372    0.0333    0.0363    0.2720
          27    0.0311   -0.2851   -0.1002   -0.1630    0.0791    0.2118    0.1154   -0.1045
          28   -0.0831   -0.0431    0.0317    0.2238    0.2013   -0.1310    0.2478    0.0700
          29    0.2164    0.0456   -0.0142   -0.2152   -0.0515    0.1325    0.1448    0.0582
          30   -0.1504   -0.1051    0.0242    0.1162    0.0370   -0.0349   -0.0590    0.3371
          31    0.0216   -0.0125   -0.0378   -0.1411   -0.0634   -0.0006   -0.0733   -0.0580
          32   -0.0812    0.0366    0.0647    0.0254    0.1013   -0.0265   -0.0647   -0.0397
          33   -0.0094   -0.0461    0.0622    0.0183    0.0018    0.0595    0.0060   -0.0113
          34    0.0085   -0.0366    0.0179   -0.0594   -0.0979   -0.0369   -0.0565    0.0563
          35   -0.0610   -0.0625   -0.0227   -0.0283   -0.0074    0.0302   -0.0417    0.0557
          36    0.0062   -0.0891   -0.0207   -0.0816   -0.0280    0.1234   -0.0119   -0.0615
          37    0.0090   -0.0308   -0.0414    0.0199   -0.0328   -0.0299   -0.0852   -0.0123
          38   -0.0273    0.0414    0.0232   -0.1330    0.0449   -0.0626   -0.0135   -0.0436
          39    0.0860   -0.1470   -0.1245    0.1855   -0.1537   -0.1217    0.0428    0.0475
          40    0.0446   -0.1146   -0.1273    0.1801   -0.1212   -0.1062   -0.0997    0.0396
          41   -0.0149    0.1003   -0.0224   -0.0609    0.1232   -0.0815   -0.0111   -0.0874
          42    0.0495   -0.0058   -0.0450    0.0285    0.0087   -0.0372    0.0603   -0.0451
          43    0.0254    0.0653    0.0015   -0.0070    0.0825    0.0411    0.0423   -0.0385
          44   -0.0452   -0.0618    0.0379    0.0927   -0.1010   -0.0556   -0.0040   -0.0963
          45    0.0935    0.1152   -0.1363   -0.1677    0.2712   -0.0758   -0.0040    0.0218
          46   -0.0905    0.0276    0.1195    0.1385   -0.1355    0.0723   -0.0460   -0.1486
          47   -0.0373   -0.1377    0.0604    0.1870   -0.2062   -0.0402    0.0696   -0.1128
          48    0.0531    0.0086   -0.0583    0.0087    0.0464   -0.0442    0.0458   -0.0430
          49    0.0033    0.0914    0.0516   -0.0296   -0.0323    0.0868    0.0136    0.0169
          50    0.0523   -0.0494   -0.0355   -0.0166    0.0552   -0.0320    0.0880    0.0461
          51   -0.0929    0.2037    0.1566   -0.0574   -0.2475   -0.0145    0.0612   -0.0198
          52    0.0576    0.0755   -0.0238   -0.0084    0.0828    0.0419    0.0263   -0.1216
          53   -0.0163    0.1390    0.1146   -0.1055   -0.1995   -0.0233    0.1687    0.0031
          54   -0.0716    0.1241    0.1016   -0.0229   -0.1495   -0.0110    0.0243    0.0178
          55   -0.0141   -0.1106   -0.0599   -0.0859    0.0533   -0.1335    0.1596    0.0124
          56    0.0573    0.0902    0.0462    0.0274   -0.0249    0.0696   -0.0012    0.0518
          57    0.0283   -0.1363   -0.0577   -0.0679    0.0825    0.0451    0.1602   -0.0581
          58   -0.0531   -0.0691   -0.0093    0.1656    0.1652   -0.0821    0.1101    0.1381
          59    0.1074    0.0012   -0.0221   -0.1106   -0.0200    0.1446   -0.0050   -0.0832
          60   -0.0784   -0.0597    0.0034    0.1143    0.0778   -0.0773    0.0266    0.2073


   Root No.       9        10        11        12        13        14        15        16

                 9 A      10 A      11 A      12 A      13 A      14 A      15 A      16 A   

                 459.9     526.7     558.2     595.2     627.0     703.0     743.6     771.6
  
           1    0.0331   -0.1932    0.2323    0.6803   -0.0687    0.1962   -0.0590   -0.0003
           2    0.0068    0.1511    0.4972    0.1219    0.1978   -0.1528   -0.3186   -0.0879
           3    0.1890    0.0051    0.0255   -0.1089    0.0249   -0.0798   -0.0024   -0.0346
           4   -0.1259   -0.1714    0.1430   -0.4219    0.3796    0.4904    0.1292   -0.0239
           5   -0.0145    0.1978   -0.2164    0.1289   -0.1705    0.1507   -0.2970   -0.1506
           6    0.0305    0.2314   -0.0835   -0.0423    0.0323    0.2359   -0.0496   -0.0792
           7    0.1514    0.1155   -0.3684   -0.0018   -0.1975   -0.1540   -0.0447   -0.0091
           8    0.0753    0.2958    0.1165    0.0665   -0.0950    0.0198    0.7951    0.1224
           9   -0.0047    0.0961    0.0799    0.2041   -0.0489   -0.0045    0.0884    0.0065
          10   -0.1571    0.0015    0.0077    0.0199   -0.1716   -0.1610    0.0558    0.1567
          11    0.2015   -0.1045   -0.0156   -0.1887    0.0356   -0.0146   -0.0437   -0.0501
          12   -0.2294    0.3188    0.1804   -0.1438    0.0395   -0.2368   -0.1268    0.0613
          13   -0.1885    0.1417    0.0212   -0.1170    0.0996   -0.0632   -0.0552   -0.0929
          14    0.0571    0.1051   -0.0982   -0.0340    0.1825    0.2731   -0.1567   -0.0383
          15   -0.1221   -0.1766    0.0666   -0.0765   -0.2183    0.0428   -0.0014   -0.0092
          16    0.2744   -0.1911    0.0470   -0.1725   -0.1313   -0.2306   -0.0684    0.1995
          17   -0.0931   -0.1074   -0.1558   -0.1285   -0.1248   -0.0999   -0.0581    0.0033
          18   -0.0686    0.0239   -0.0707    0.1056    0.0137    0.1201    0.0310   -0.0040
          19   -0.0342    0.0112   -0.1955    0.0447    0.0621    0.0152   -0.0464    0.1027
          20   -0.1536   -0.0666   -0.2216   -0.0221   -0.0977    0.0078   -0.0134   -0.0267
          21   -0.1163   -0.0180   -0.2034    0.0089    0.0118    0.0416    0.0286    0.0636
          22   -0.0039    0.0196   -0.0387    0.0286   -0.0161    0.0627    0.0012   -0.0520
          23    0.0413   -0.0334    0.1451   -0.1007   -0.1850    0.0415    0.0266   -0.0161
          24    0.1014   -0.0577   -0.0316    0.0229    0.0836   -0.1039    0.0502   -0.0019
          25    0.1852    0.2253   -0.0367    0.0269    0.3110   -0.2808    0.0951   -0.2527
          26   -0.1815   -0.2538    0.0422    0.0504    0.1477   -0.1372    0.0189    0.1582
          27    0.2333   -0.1515   -0.0658    0.0416   -0.0123    0.0994   -0.0059   -0.0900
[...]
 TRAVEL      0.1171         C  4 -- C  5          +8.2% ( 36.5%)      0.2%
 RED. MASS   0.3900         O  2 -- C  5          +7.4% ( 34.6%)     23.2%
 EFF. MASS   4.0516

 VIBRATION   34   34A         ATOM PAIR      ENERGY CONTRIBUTION    RADIAL
 FREQ.      1236.61         O  1 -- C  4         +17.7% ( 60.3%)     98.0%
 T-DIPOLE    0.2413         C  4 -- H 11         +17.4% ( 59.9%)      0.9%
 TRAVEL      0.0856         C  4 -- C  5         +11.6% ( 48.8%)     20.9%
 RED. MASS   1.1404         C  4 -- C  6         +10.7% ( 46.9%)      1.0%
 EFF. MASS   7.4346         C  6 -- H 13         +10.4% ( 46.3%)      0.0%

 VIBRATION   35   35A         ATOM PAIR      ENERGY CONTRIBUTION    RADIAL
 FREQ.      1257.23         C  5 -- C  9         +10.7% ( 46.1%)     38.7%
 T-DIPOLE    0.0800         C  4 -- H 11         +10.6% ( 46.0%)      1.2%
 TRAVEL      0.0812         O  2 -- C  5         +10.4% ( 45.5%)     79.2%
 RED. MASS   0.9417         C  4 -- C  5          +9.6% ( 43.8%)      6.9%
 EFF. MASS   8.1319

 VIBRATION   36   36A         ATOM PAIR      ENERGY CONTRIBUTION    RADIAL
 FREQ.      1299.73         C  4 -- C  5         +13.7% ( 51.4%)     76.4%
 T-DIPOLE    0.1317         C  7 -- H 15          +8.9% ( 41.6%)      0.0%
 TRAVEL      0.0874         O  1 -- C  4          +8.8% ( 41.2%)     70.6%
 RED. MASS   0.9221         C  4 -- H 11          +8.5% ( 40.6%)      0.7%
 EFF. MASS   6.7941

 VIBRATION   37   37A         ATOM PAIR      ENERGY CONTRIBUTION    RADIAL
 FREQ.      1317.03         O  2 -- C  5         +12.3% ( 50.1%)     93.0%
 T-DIPOLE    0.2312         C  4 -- C  5         +11.5% ( 48.5%)     38.1%
 TRAVEL      0.0826         C  5 -- H 12         +10.1% ( 45.5%)      0.5%
 RED. MASS   0.9537         C  7 -- H 15          +7.7% ( 39.7%)      0.6%
 EFF. MASS   7.4971

 VIBRATION   38   38A         ATOM PAIR      ENERGY CONTRIBUTION    RADIAL
 FREQ.      1360.02         C  7 -- C  8         +12.6% ( 53.0%)     79.1%
 T-DIPOLE    0.1767         C  4 -- C  5          +8.9% ( 44.5%)     55.9%
 TRAVEL      0.0779         C  8 -- H 17          +8.8% ( 44.4%)      0.1%
 RED. MASS   1.2143         C  8 -- H 18          +8.6% ( 43.9%)      0.3%
 EFF. MASS   8.1732

 VIBRATION   39   39A         ATOM PAIR      ENERGY CONTRIBUTION    RADIAL
 FREQ.      1388.95         C  4 -- C  6         +19.0% ( 65.2%)     71.3%
 T-DIPOLE    0.2017         C  4 -- H 11         +12.1% ( 52.1%)      0.1%
 TRAVEL      0.0764         C  4 -- C  5         +10.2% ( 47.6%)      9.4%
 RED. MASS   1.7114         O  1 -- C  4          +9.9% ( 47.1%)     71.2%
 EFF. MASS   8.3244

 VIBRATION   40   40A         ATOM PAIR      ENERGY CONTRIBUTION    RADIAL
 FREQ.      1394.04         C  8 -- H 18         +20.7% ( 53.7%)      2.9%
 T-DIPOLE    0.2164         C  8 -- H 17         +17.3% ( 49.1%)      4.9%
 TRAVEL      0.1037         C  5 -- C  9         +10.1% ( 37.5%)     95.9%
 RED. MASS   0.4971         C  7 -- C  8          +7.8% ( 32.9%)     79.1%
 EFF. MASS   4.4989

 VIBRATION   41   41A         ATOM PAIR      ENERGY CONTRIBUTION    RADIAL
 FREQ.      1402.99         C  7 -- H 16         +20.2% ( 50.3%)      4.0%
 T-DIPOLE    0.0297         C  7 -- H 15         +17.1% ( 46.3%)      6.5%
 TRAVEL      0.1140         C  6 -- H 14         +10.7% ( 36.6%)      1.8%
 RED. MASS   0.3794         C  6 -- C  7          +9.9% ( 35.3%)     22.9%
 EFF. MASS   3.7000

 VIBRATION   42   42A         ATOM PAIR      ENERGY CONTRIBUTION    RADIAL
 FREQ.      1408.68         C  6 -- H 14         +29.6% ( 56.4%)      4.4%
 T-DIPOLE    0.1203         C  6 -- H 13         +27.0% ( 53.9%)      5.3%
 TRAVEL      0.1286         C  6 -- C  7         +12.4% ( 36.6%)     82.5%
 RED. MASS   0.4397         C  4 -- C  6          +8.3% ( 29.9%)     17.3%
 EFF. MASS   2.8963

 VIBRATION   43   43A         ATOM PAIR      ENERGY CONTRIBUTION    RADIAL
 FREQ.      1423.78         C  5 -- C  9         +15.1% ( 56.8%)     94.3%
 T-DIPOLE    0.2227         C  8 -- C 10         +14.4% ( 55.3%)     99.9%
 TRAVEL      0.0752         C  8 -- H 18          +9.3% ( 44.6%)      3.3%
 RED. MASS   1.3160         C  8 -- H 17          +8.9% ( 43.6%)      4.1%
 EFF. MASS   8.3743

 VIBRATION   44   44A         ATOM PAIR      ENERGY CONTRIBUTION    RADIAL
 FREQ.      1866.03         C  9 -- C 10         +44.5% ( 98.4%)    100.0%
 T-DIPOLE    0.2835         C  8 -- C 10         +14.5% ( 56.1%)     52.6%
 TRAVEL      0.0552         C  5 -- C  9         +13.8% ( 54.7%)     43.8%
 RED. MASS   5.4294         C 10 -- H 20         +13.4% ( 53.9%)      4.3%
 EFF. MASS  11.8618         C  9 -- H 19         +12.8% ( 52.8%)      5.5%

 VIBRATION   45   45A         ATOM PAIR      ENERGY CONTRIBUTION    RADIAL
 FREQ.      2841.05         C  4 -- H 11         +73.2% ( 87.1%)    100.0%
 T-DIPOLE    0.0320         C  5 -- H 12         +23.4% ( 49.3%)    100.0%
 TRAVEL      0.1279         C  4 -- C  5          +1.2% ( 11.0%)     13.0%
 RED. MASS   0.5871         C  4 -- C  6          +0.8% (  9.1%)     11.1%
 EFF. MASS   1.4509

 VIBRATION   46   46A         ATOM PAIR      ENERGY CONTRIBUTION    RADIAL
 FREQ.      2851.42         C  5 -- H 12         +73.5% ( 86.9%)    100.0%
 T-DIPOLE    0.1660         C  4 -- H 11         +23.4% ( 49.0%)     99.9%
 TRAVEL      0.1282         C  4 -- C  5          +0.9% (  9.6%)     13.1%
 RED. MASS   0.5876         C  5 -- C  9          +0.8% (  8.9%)     10.8%
 EFF. MASS   1.4378

 VIBRATION   47   47A         ATOM PAIR      ENERGY CONTRIBUTION    RADIAL
 FREQ.      2937.38         C  8 -- H 18         +61.8% ( 81.6%)     97.8%
 T-DIPOLE    0.0464         C  8 -- H 17         +33.6% ( 60.2%)     94.2%
 TRAVEL      0.1220         C  7 -- H 16          +1.4% ( 12.2%)     98.1%
 RED. MASS   0.5360         C  7 -- C  8          +1.2% ( 11.3%)      0.6%
 EFF. MASS   1.5421

 VIBRATION   48   48A         ATOM PAIR      ENERGY CONTRIBUTION    RADIAL
 FREQ.      2953.28         C  7 -- H 16         +38.9% ( 64.8%)     96.5%
 T-DIPOLE    0.0514         C  7 -- H 15         +37.9% ( 64.0%)     96.4%
 TRAVEL      0.1214         C  6 -- H 14         +11.9% ( 35.8%)     97.6%
 RED. MASS   0.3422         C  6 -- H 13          +7.0% ( 27.6%)     94.6%
 EFF. MASS   1.5499

 VIBRATION   49   49A         ATOM PAIR      ENERGY CONTRIBUTION    RADIAL
 FREQ.      2960.75         C  6 -- H 14         +41.5% ( 66.9%)     96.9%
 T-DIPOLE    0.1206         C  6 -- H 13         +37.1% ( 63.2%)     96.2%
 TRAVEL      0.1216         C  7 -- H 15         +11.4% ( 35.0%)     97.6%
 RED. MASS   0.3565         C  7 -- H 16          +7.5% ( 28.3%)     95.3%
 EFF. MASS   1.5414

 VIBRATION   50   50A         ATOM PAIR      ENERGY CONTRIBUTION    RADIAL
 FREQ.      3021.55         C  8 -- H 17         +60.4% ( 76.7%)     99.0%
 T-DIPOLE    0.0738         C  8 -- H 18         +33.4% ( 57.0%)     95.3%
 TRAVEL      0.1318         C  7 -- H 16          +2.9% ( 16.8%)     99.2%
 RED. MASS   0.4694         C 10 -- H 20          +0.9% (  9.6%)    100.0%
 EFF. MASS   1.2840

 VIBRATION   51   51A         ATOM PAIR      ENERGY CONTRIBUTION    RADIAL
 FREQ.      3032.40         C  7 -- H 16         +39.4% ( 61.9%)     97.9%
 T-DIPOLE    0.0723         C  7 -- H 15         +36.1% ( 59.2%)     97.5%
 TRAVEL      0.1322         C  6 -- H 14         +10.7% ( 32.2%)     97.8%
 RED. MASS   0.3035         C  6 -- H 13          +9.0% ( 29.5%)     97.2%
 EFF. MASS   1.2728

 VIBRATION   52   52A         ATOM PAIR      ENERGY CONTRIBUTION    RADIAL
 FREQ.      3038.29         C  6 -- H 13         +45.6% ( 66.5%)     98.3%
 T-DIPOLE    0.1445         C  6 -- H 14         +33.5% ( 57.0%)     96.6%
 TRAVEL      0.1320         C  7 -- H 15         +11.2% ( 33.0%)     98.4%
 RED. MASS   0.3348         C  7 -- H 16          +8.2% ( 28.1%)     96.8%
 EFF. MASS   1.2729

 VIBRATION   53   53A         ATOM PAIR      ENERGY CONTRIBUTION    RADIAL
 FREQ.      3044.81         C 10 -- H 20         +78.8% ( 90.0%)    100.0%
 T-DIPOLE    0.3295         C  9 -- H 19         +17.6% ( 42.6%)     99.9%
 TRAVEL      0.1228         C  9 -- C 10          +1.1% ( 10.9%)      6.2%
 RED. MASS   0.6372         C  8 -- C 10          +1.1% ( 10.5%)     22.9%
 EFF. MASS   1.4686

 VIBRATION   54   54A         ATOM PAIR      ENERGY CONTRIBUTION    RADIAL
 FREQ.      3070.17         C  9 -- H 19         +79.4% ( 90.4%)    100.0%
 T-DIPOLE    0.4324         C 10 -- H 20         +16.9% ( 41.8%)     99.7%
 TRAVEL      0.1183         C  9 -- C 10          +1.9% ( 14.0%)     83.1%
 RED. MASS   0.6565         C  5 -- C  9          +1.2% ( 11.3%)     15.2%
 EFF. MASS   1.5705

      SYMMETRY NUMBER FOR POINT-GROUP C1  =  1


          SYSTEM IS A GROUND STATE



 InChI=1S/C7H10O3/c1-2-4-6-7(5-3-1)9-10-8-6/h2,4,6-7H,1,3,5H2


          MOLECULE IS NOT LINEAR

          THERE ARE 54 GENUINE VIBRATIONS IN THIS SYSTEM
          THIS THERMODYNAMICS CALCULATION IS LIMITED TO
          MOLECULES WHICH HAVE NO INTERNAL ROTATIONS




                    CALCULATED THERMODYNAMIC PROPERTIES
                                          *
   TEMP. (K)   PARTITION FUNCTION   H.O.F.    ENTHALPY  HEAT CAPACITY ENTROPY
                                   KCAL/MOL   CAL/MOLE    CAL/K/MOL  CAL/K/MOL


 298.00  VIB.     0.4527D+02                  3575.7003    28.4773    19.5757
         ROT.     0.5617D+06                   888.2813     2.9808    29.2889
         INT.     0.2543D+08                  4463.9816    31.4581    48.8646
         TRA.     0.1639D+28                  1480.4688     4.9680    40.7643
         TOT.                        6.805    5944.4504    36.4261    89.6289

 200.00  VIB.     0.7141D+01                  1369.2733    16.7424    10.7528
         ROT.     0.3088D+06                   596.1620     2.9808    28.1002
         INT.     0.2205D+07                  1965.4353    19.7232    38.8531
         TRA.     0.9009D+27                   993.6033     4.9680    38.7831
         TOT.                        3.820    2959.0385    24.6913    77.6362

 210.00  VIB.     0.8499D+01                  1542.3422    17.8747    11.5970
         ROT.     0.3323D+06                   625.9700     2.9808    28.2457
         INT.     0.2824D+07                  2168.3122    20.8555    39.8427
         TRA.     0.9693D+27                  1043.2834     4.9680    39.0255
         TOT.                        4.073    3211.5956    25.8235    78.8682

 220.00  VIB.     0.1015D+02                  1726.8325    19.0266    12.4551
         ROT.     0.3563D+06                   655.7781     2.9808    28.3843
         INT.     0.3617D+07                  2382.6107    22.0074    40.8394
         TRA.     0.1039D+28                  1092.9636     4.9680    39.2566
         TOT.                        4.337    3475.5742    26.9754    80.0960

 230.00  VIB.     0.1217D+02                  1922.9360    20.1971    13.3266
         ROT.     0.3809D+06                   685.5862     2.9808    28.5168
         INT.     0.4635D+07                  2608.5223    23.1779    41.8434
         TRA.     0.1111D+28                  1142.6437     4.9680    39.4775
         TOT.                        4.612    3751.1660    28.1459    81.3209

 240.00  VIB.     0.1464D+02                  2130.8303    21.3844    14.2112
         ROT.     0.4060D+06                   715.3943     2.9808    28.6437
         INT.     0.5942D+07                  2846.2247    24.3652    42.8549
         TRA.     0.1184D+28                  1192.3239     4.9680    39.6889
         TOT.                        4.900    4038.5486    29.3333    82.5438

 250.00  VIB.     0.1766D+02                  2350.6737    22.5865    15.1085
         ROT.     0.4316D+06                   745.2024     2.9808    28.7654
         INT.     0.7622D+07                  3095.8761    25.5673    43.8739
         TRA.     0.1259D+28                  1242.0041     4.9680    39.8917
         TOT.                        5.199    4337.8802    30.5353    83.7656

 260.00  VIB.     0.2137D+02                  2582.6010    23.8008    16.0180
         ROT.     0.4578D+06                   775.0105     2.9808    28.8823
         INT.     0.9783D+07                  3357.6115    26.7816    44.9002
         TRA.     0.1335D+28                  1291.6842     4.9680    40.0866
         TOT.                        5.510    4649.2957    31.7496    84.9868

 270.00  VIB.     0.2594D+02                  2826.7211    25.0246    16.9391
         ROT.     0.4844D+06                   804.8186     2.9808    28.9948
         INT.     0.1257D+08                  3631.5397    28.0054    45.9339
         TRA.     0.1413D+28                  1341.3644     4.9680    40.2740
         TOT.                        5.834    4972.9041    32.9734    86.2080

 280.00  VIB.     0.3157D+02                  3083.1149    26.2550    17.8714
         ROT.     0.5116D+06                   834.6267     2.9808    29.1032
         INT.     0.1615D+08                  3917.7416    29.2358    46.9746
         TRA.     0.1492D+28                  1391.0445     4.9680    40.4547
         TOT.                        6.170    5308.7861    34.2039    87.4294

 290.00  VIB.     0.3853D+02                  3351.8341    27.4892    18.8143
         ROT.     0.5392D+06                   864.4348     2.9808    29.2078
         INT.     0.2078D+08                  4216.2690    30.4700    48.0221
         TRA.     0.1573D+28                  1440.7247     4.9680    40.6291
         TOT.                        6.518    5656.9937    35.4380    88.6511

 300.00  VIB.     0.4715D+02                  3632.9019    28.7242    19.7670
         ROT.     0.5674D+06                   894.2429     2.9808    29.3088
         INT.     0.2675D+08                  4527.1448    31.7051    49.0759
         TRA.     0.1655D+28                  1490.4049     4.9680    40.7975
         TOT.                        6.879    6017.5497    36.6731    89.8734

 310.00  VIB.     0.5784D+02                  3926.3127    29.9574    20.7290
         ROT.     0.5960D+06                   924.0510     2.9808    29.4066
         INT.     0.3447D+08                  4850.3638    32.9382    50.1356
         TRA.     0.1739D+28                  1540.0850     4.9680    40.9604
         TOT.                        7.251    6390.4488    37.9062    91.0960

 320.00  VIB.     0.7113D+02                  4232.0344    31.1860    21.6995
         ROT.     0.6250D+06                   953.8591     2.9808    29.5012
         INT.     0.4446D+08                  5185.8935    34.1668    51.2008
         TRA.     0.1823D+28                  1589.7652     4.9680    41.1181
         TOT.                        7.637    6775.6587    39.1348    92.3189

 330.00  VIB.     0.8767D+02                  4550.0089    32.4076    22.6779
         ROT.     0.6546D+06                   983.6672     2.9808    29.5929
         INT.     0.5739D+08                  5533.6761    35.3884    52.2708
         TRA.     0.1909D+28                  1639.4454     4.9680    41.2710
         TOT.                        8.034    7173.1215    40.3564    93.5418

 340.00  VIB.     0.1083D+03                  4880.1551    33.6199    23.6634
         ROT.     0.6845D+06                  1013.4753     2.9808    29.6819
         INT.     0.7414D+08                  5893.6304    36.6007    53.3453
         TRA.     0.1997D+28                  1689.1255     4.9680    41.4193
         TOT.                        8.444    7582.7559    41.5688    94.7646

 350.00  VIB.     0.1341D+03                  5222.3700    34.8210    24.6553
         ROT.     0.7150D+06                  1043.2834     2.9808    29.7683
         INT.     0.9586D+08                  6265.6535    37.8018    54.4236
         TRA.     0.2086D+28                  1738.8057     4.9680    41.5633
         TOT.                        8.866    8004.4591    42.7699    95.9869

 360.00  VIB.     0.1663D+03                  5576.5320    36.0090    25.6529
         ROT.     0.7458D+06                  1073.0915     2.9808    29.8523
         INT.     0.1241D+09                  6649.6235    38.9899    55.5052
         TRA.     0.2176D+28                  1788.4859     4.9680    41.7033
         TOT.                        9.299    8438.1094    43.9579    97.2085

 370.00  VIB.     0.2067D+03                  5942.5021    37.1824    26.6556
         ROT.     0.7771D+06                  1102.8996     2.9808    29.9340
         INT.     0.1607D+09                  7045.4017    40.1632    56.5896
         TRA.     0.2267D+28                  1838.1660     4.9680    41.8394
         TOT.                        9.745    8883.5677    45.1312    98.4289

 380.00  VIB.     0.2575D+03                  6320.1268    38.3398    27.6626
         ROT.     0.8088D+06                  1132.7077     2.9808    30.0135
         INT.     0.2082D+09                  7452.8345    41.3206    57.6760
         TRA.     0.2359D+28                  1887.8462     4.9680    41.9719
         TOT.                       10.202    9340.6807    46.2886    99.6479

 390.00  VIB.     0.3212D+03                  6709.2402    39.4800    28.6732
         ROT.     0.8410D+06                  1162.5158     2.9808    30.0909
         INT.     0.2701D+09                  7871.7560    42.4608    58.7641
         TRA.     0.2453D+28                  1937.5263     4.9680    42.1009
         TOT.                       10.670    9809.2824    47.4288   100.8651

 400.00  VIB.     0.4013D+03                  7109.6658    40.6021    29.6870
         ROT.     0.8735D+06                  1192.3239     2.9808    30.1664
         INT.     0.3506D+09                  8301.9897    43.5829    59.8533
         TRA.     0.2548D+28                  1987.2065     4.9680    42.2267
         TOT.                       11.150   10289.1962    48.5509   102.0800

   *: NOTE: HEATS OF FORMATION ARE RELATIVE TO THE
            ELEMENTS IN THEIR STANDARD STATE AT 298K
              (=  Standard Enthalpy of Formation).

            Hvib:  Zero-point energy is not included.
                   frequencies of less than zero cm-1 are not included.
            Hrot = (3/2)RT
            Htra = (3/2)RT + pV = (5/2)RT

            Heat capacity is Cp, not Cv

          For more information, see: HTTP://OpenMOPAC.net/Manual/thermochemistry.html


           FORCE CONSTANT IN CARTESIAN COORDINATES (Millidynes/A)

    ATOM   CHEMICAL       X               Y               Z
   NUMBER   SYMBOL  FORCE CONSTANT  FORCE CONSTANT  FORCE CONSTANT

      1       O        3.357959        3.907827        2.744221
      2       O        3.958702        4.993367        1.443613
      3       O        1.477023        3.999859        0.422113
      4       C        7.697485        8.763728        8.603408
      5       C        7.807464        9.257547        8.503933
      6       C        8.483538        7.922640        8.250845
      7       C        8.043417        8.285038        8.118671
      8       C        8.139157        8.626862        8.170616
      9       C        6.660268       12.837389        7.605504
     10       C        6.318457       12.675440        7.938976
     11       H        0.764339        1.155823        3.993701
     12       H        0.744756        2.224826        2.877963
     13       H        4.783715        0.943329        0.705594
     14       H        0.875710        1.376336        4.172589
     15       H        2.311746        3.319478        0.753473
     16       H        0.843029        1.417460        4.150903
     17       H        0.733360        3.687541        1.937380
     18       H        0.955569        0.904659        4.411617
     19       H        2.759027        2.248308        1.279258
     20       H        1.659910        1.094048        3.458729

 **********************
 *                    *
 * JOB ENDED NORMALLY *
 *                    *
 **********************



 TOTAL JOB TIME:             1.56 SECONDS

 == MOPAC DONE ==
