 *******************************************************************************
 ** Site#: 14399        For non-commercial use only    Version 18.184L 64BITS **
 *******************************************************************************
 ** Cite this program as: MOPAC2016, Version: 18.184L, James J. P. Stewart,   **
 ** Stewart Computational Chemistry, web: HTTP://OpenMOPAC.net. Days left:  18**
 *******************************************************************************
 **                                                                           **
 **                                MOPAC2016                                  **
 **                                                                           **
 *******************************************************************************

                              PM3 CALCULATION RESULTS

 *******************************************************************************
 *  CALCULATION DONE:                                Sat Jun 15 10:18:14 2019  *
 *  PM3        - The PM3 Hamiltonian to be used
 *  PRECISE    - CRITERIA TO BE INCREASED BY 100 TIMES
 *  NOSYM      - POINT-GROUP SYMMETRY SET TO C1
 *  THREADS=1  - MULTI-THREADING NOT USED
 *  T=         - A TIME OF 172800.0 SECONDS REQUESTED
 *  DUMP=N     - RESTART FILE WRITTEN EVERY  7200.000 SECONDS
 *******************************************************************************
pm3  precise nosym THREADS=1
 InChI=1S/C10H12/c1-8-6-9-4-2-3-5-10(9)7-8/h2-4,10H,1,5-7H2

   ATOM   CHEMICAL          X               Y               Z
  NUMBER   SYMBOL      (ANGSTROMS)     (ANGSTROMS)     (ANGSTROMS)
 
     1       C         -0.22180000  *   0.78870000  *  -0.19530000  *
     2       C          1.20760000  *   1.07190000  *   0.28210000  *
     3       C         -1.33080000  *   1.28660000  *   0.75270000  *
     4       C          1.03840000  *  -1.36180000  *  -0.29810000  *
     5       C         -0.28870000  *  -0.70070000  *  -0.34020000  *
     6       C          1.92910000  *  -0.23170000  *   0.09880000  *
     7       C         -2.65440000  *   0.65580000  *   0.38050000  *
     8       C         -1.45950000  *  -1.34730000  *  -0.36530000  *
     9       C         -2.70470000  *  -0.59130000  *  -0.11460000  *
    10       C          3.24250000  *  -0.37450000  *   0.30210000  *
    11       H         -0.37590000  *   1.24160000  *  -1.20070000  *
    12       H         -1.09490000  *   1.00780000  *   1.80270000  *
    13       H          1.67430000  *   1.86630000  *  -0.34010000  *
    14       H          1.24130000  *   1.36780000  *   1.35320000  *
    15       H         -1.41130000  *   2.39260000  *   0.68930000  *
    16       H          1.05840000  *  -2.15810000  *   0.47700000  *
    17       H          1.31300000  *  -1.76220000  *  -1.29710000  *
    18       H         -3.57350000  *   1.19630000  *   0.56820000  *
    19       H         -1.49620000  *  -2.42210000  *  -0.49000000  *
    20       H         -3.66190000  *  -1.05900000  *  -0.30540000  *
    21       H          3.71950000  *  -1.34060000  *   0.16900000  *
    22       H          3.84940000  *   0.47380000  *   0.60290000  *
 


          CARTESIAN COORDINATES 

    NO.       ATOM           X           Y           Z

     1         C         -0.2218      0.7887     -0.1953
     2         C          1.2076      1.0719      0.2821
     3         C         -1.3308      1.2866      0.7527
     4         C          1.0384     -1.3618     -0.2981
     5         C         -0.2887     -0.7007     -0.3402
     6         C          1.9291     -0.2317      0.0988
     7         C         -2.6544      0.6558      0.3805
     8         C         -1.4595     -1.3473     -0.3653
     9         C         -2.7047     -0.5913     -0.1146
    10         C          3.2425     -0.3745      0.3021
    11         H         -0.3759      1.2416     -1.2007
    12         H         -1.0949      1.0078      1.8027
    13         H          1.6743      1.8663     -0.3401
    14         H          1.2413      1.3678      1.3532
    15         H         -1.4113      2.3926      0.6893
    16         H          1.0584     -2.1581      0.4770
    17         H          1.3130     -1.7622     -1.2971
    18         H         -3.5735      1.1963      0.5682
    19         H         -1.4962     -2.4221     -0.4900
    20         H         -3.6619     -1.0590     -0.3054
    21         H          3.7195     -1.3406      0.1690
    22         H          3.8494      0.4738      0.6029

  H: (PM3): J. J. P. STEWART, J. COMP. CHEM. 10, 209 (1989).
  C: (PM3): J. J. P. STEWART, J. COMP. CHEM. 10, 209 (1989).

           Empirical Formula: C10 H12  =    22 atoms



      MOLECULAR POINT GROUP   :   C1  


      RHF CALCULATION, NO. OF DOUBLY OCCUPIED LEVELS = 26


          Geometry optimization using EF

          DIAGONAL MATRIX USED AS START HESSIAN

 CYCLE:     1 TIME:   0.008 TIME LEFT:  2.00D  GRAD.:    72.730 HEAT:  34.31412
 CYCLE:     2 TIME:   0.012 TIME LEFT:  2.00D  GRAD.:    45.735 HEAT:  32.98438
 CYCLE:     3 TIME:   0.004 TIME LEFT:  2.00D  GRAD.:    49.821 HEAT:  32.39386
 CYCLE:     4 TIME:   0.004 TIME LEFT:  2.00D  GRAD.:    53.519 HEAT:  32.31060
 CYCLE:     5 TIME:   0.012 TIME LEFT:  2.00D  GRAD.:    44.607 HEAT:  31.93089
 CYCLE:     6 TIME:   0.004 TIME LEFT:  2.00D  GRAD.:    34.114 HEAT:  31.70385
 CYCLE:     7 TIME:   0.004 TIME LEFT:  2.00D  GRAD.:    28.107 HEAT:  31.57291
 CYCLE:     8 TIME:   0.004 TIME LEFT:  2.00D  GRAD.:    31.431 HEAT:  31.50989
 CYCLE:     9 TIME:   0.004 TIME LEFT:  2.00D  GRAD.:    25.874 HEAT:  31.36070
 CYCLE:    10 TIME:   0.008 TIME LEFT:  2.00D  GRAD.:    18.455 HEAT:  31.26010
 CYCLE:    11 TIME:   0.008 TIME LEFT:  2.00D  GRAD.:    10.715 HEAT:  31.18744
 CYCLE:    12 TIME:   0.004 TIME LEFT:  2.00D  GRAD.:    12.679 HEAT:  31.14230
 CYCLE:    13 TIME:   0.008 TIME LEFT:  2.00D  GRAD.:    12.584 HEAT:  31.10277
 CYCLE:    14 TIME:   0.004 TIME LEFT:  2.00D  GRAD.:    10.806 HEAT:  31.07173
 CYCLE:    15 TIME:   0.008 TIME LEFT:  2.00D  GRAD.:     9.181 HEAT:  31.03156
 CYCLE:    16 TIME:   0.008 TIME LEFT:  2.00D  GRAD.:     8.586 HEAT:  31.01503
 CYCLE:    17 TIME:   0.004 TIME LEFT:  2.00D  GRAD.:     7.074 HEAT:  30.98896
  dsyevd Diagonalization error., CODE =         133
 CYCLE:    18 TIME:   0.016 TIME LEFT:  2.00D  GRAD.:     6.328 HEAT:  30.98697
 CYCLE:    19 TIME:   0.004 TIME LEFT:  2.00D  GRAD.:     3.072 HEAT:  30.97374
 CYCLE:    20 TIME:   0.004 TIME LEFT:  2.00D  GRAD.:     2.846 HEAT:  30.96259
 CYCLE:    21 TIME:   0.004 TIME LEFT:  2.00D  GRAD.:     2.739 HEAT:  30.94249
 CYCLE:    22 TIME:   0.008 TIME LEFT:  2.00D  GRAD.:     3.069 HEAT:  30.90997
 CYCLE:    23 TIME:   0.004 TIME LEFT:  2.00D  GRAD.:     5.808 HEAT:  30.87662
 CYCLE:    24 TIME:   0.008 TIME LEFT:  2.00D  GRAD.:     8.100 HEAT:  30.87071
 CYCLE:    25 TIME:   0.004 TIME LEFT:  2.00D  GRAD.:     7.068 HEAT:  30.85560
 CYCLE:    26 TIME:   0.008 TIME LEFT:  2.00D  GRAD.:     5.426 HEAT:  30.84097
 CYCLE:    27 TIME:   0.004 TIME LEFT:  2.00D  GRAD.:     4.056 HEAT:  30.82702
 CYCLE:    28 TIME:   0.004 TIME LEFT:  2.00D  GRAD.:     5.622 HEAT:  30.81137
 CYCLE:    29 TIME:   0.004 TIME LEFT:  2.00D  GRAD.:     4.306 HEAT:  30.78467
 CYCLE:    30 TIME:   0.004 TIME LEFT:  2.00D  GRAD.:     4.252 HEAT:  30.76215
 CYCLE:    31 TIME:   0.008 TIME LEFT:  2.00D  GRAD.:     7.192 HEAT:  30.75688
 CYCLE:    32 TIME:   0.004 TIME LEFT:  2.00D  GRAD.:     3.335 HEAT:  30.73724
 CYCLE:    33 TIME:   0.004 TIME LEFT:  2.00D  GRAD.:     3.706 HEAT:  30.72365
 CYCLE:    34 TIME:   0.004 TIME LEFT:  2.00D  GRAD.:     3.425 HEAT:  30.70273
 CYCLE:    35 TIME:   0.008 TIME LEFT:  2.00D  GRAD.:     3.383 HEAT:  30.67902
 CYCLE:    36 TIME:   0.004 TIME LEFT:  2.00D  GRAD.:     2.970 HEAT:  30.66981
 CYCLE:    37 TIME:   0.004 TIME LEFT:  2.00D  GRAD.:     2.364 HEAT:  30.66079
 CYCLE:    38 TIME:   0.004 TIME LEFT:  2.00D  GRAD.:     1.982 HEAT:  30.64696
 CYCLE:    39 TIME:   0.004 TIME LEFT:  2.00D  GRAD.:     1.577 HEAT:  30.64258
 CYCLE:    40 TIME:   0.008 TIME LEFT:  2.00D  GRAD.:     1.458 HEAT:  30.63811
 CYCLE:    41 TIME:   0.004 TIME LEFT:  2.00D  GRAD.:     1.672 HEAT:  30.63100
 CYCLE:    42 TIME:   0.004 TIME LEFT:  2.00D  GRAD.:     1.754 HEAT:  30.62473
 CYCLE:    43 TIME:   0.004 TIME LEFT:  2.00D  GRAD.:     1.389 HEAT:  30.62009
 CYCLE:    44 TIME:   0.008 TIME LEFT:  2.00D  GRAD.:     1.371 HEAT:  30.61587
 CYCLE:    45 TIME:   0.004 TIME LEFT:  2.00D  GRAD.:     1.395 HEAT:  30.61232
 CYCLE:    46 TIME:   0.004 TIME LEFT:  2.00D  GRAD.:     1.116 HEAT:  30.60950
 CYCLE:    47 TIME:   0.004 TIME LEFT:  2.00D  GRAD.:     0.698 HEAT:  30.60763
 CYCLE:    48 TIME:   0.004 TIME LEFT:  2.00D  GRAD.:     0.538 HEAT:  30.60662
 CYCLE:    49 TIME:   0.004 TIME LEFT:  2.00D  GRAD.:     0.499 HEAT:  30.60606
 CYCLE:    50 TIME:   0.008 TIME LEFT:  2.00D  GRAD.:     0.442 HEAT:  30.60558
 CYCLE:    51 TIME:   0.004 TIME LEFT:  2.00D  GRAD.:     0.398 HEAT:  30.60511
 CYCLE:    52 TIME:   0.004 TIME LEFT:  2.00D  GRAD.:     0.316 HEAT:  30.60482
 CYCLE:    53 TIME:   0.004 TIME LEFT:  2.00D  GRAD.:     0.257 HEAT:  30.60467
 CYCLE:    54 TIME:   0.008 TIME LEFT:  2.00D  GRAD.:     0.232 HEAT:  30.60456
 CYCLE:    55 TIME:   0.004 TIME LEFT:  2.00D  GRAD.:     0.247 HEAT:  30.60440
 CYCLE:    56 TIME:   0.004 TIME LEFT:  2.00D  GRAD.:     0.289 HEAT:  30.60419
 CYCLE:    57 TIME:   0.004 TIME LEFT:  2.00D  GRAD.:     0.283 HEAT:  30.60398
 CYCLE:    58 TIME:   0.004 TIME LEFT:  2.00D  GRAD.:     0.250 HEAT:  30.60378
 CYCLE:    59 TIME:   0.004 TIME LEFT:  2.00D  GRAD.:     0.274 HEAT:  30.60360
 CYCLE:    60 TIME:   0.004 TIME LEFT:  2.00D  GRAD.:     0.294 HEAT:  30.60342
 CYCLE:    61 TIME:   0.008 TIME LEFT:  2.00D  GRAD.:     0.281 HEAT:  30.60325
 CYCLE:    62 TIME:   0.004 TIME LEFT:  2.00D  GRAD.:     0.293 HEAT:  30.60301
 CYCLE:    63 TIME:   0.004 TIME LEFT:  2.00D  GRAD.:     0.263 HEAT:  30.60289
 CYCLE:    64 TIME:   0.004 TIME LEFT:  2.00D  GRAD.:     0.377 HEAT:  30.60261
 CYCLE:    65 TIME:   0.008 TIME LEFT:  2.00D  GRAD.:     0.312 HEAT:  30.60249
 CYCLE:    66 TIME:   0.004 TIME LEFT:  2.00D  GRAD.:     0.329 HEAT:  30.60219
 CYCLE:    67 TIME:   0.004 TIME LEFT:  2.00D  GRAD.:     0.203 HEAT:  30.60196
 CYCLE:    68 TIME:   0.004 TIME LEFT:  2.00D  GRAD.:     0.148 HEAT:  30.60185
 CYCLE:    69 TIME:   0.004 TIME LEFT:  2.00D  GRAD.:     0.125 HEAT:  30.60179
 CYCLE:    70 TIME:   0.008 TIME LEFT:  2.00D  GRAD.:     0.113 HEAT:  30.60172
 CYCLE:    71 TIME:   0.004 TIME LEFT:  2.00D  GRAD.:     0.108 HEAT:  30.60169
 CYCLE:    72 TIME:   0.004 TIME LEFT:  2.00D  GRAD.:     0.095 HEAT:  30.60166
 CYCLE:    73 TIME:   0.004 TIME LEFT:  2.00D  GRAD.:     0.104 HEAT:  30.60163
 CYCLE:    74 TIME:   0.004 TIME LEFT:  2.00D  GRAD.:     0.072 HEAT:  30.60161
 CYCLE:    75 TIME:   0.004 TIME LEFT:  2.00D  GRAD.:     0.080 HEAT:  30.60159
 CYCLE:    76 TIME:   0.008 TIME LEFT:  2.00D  GRAD.:     0.056 HEAT:  30.60159
 CYCLE:    77 TIME:   0.004 TIME LEFT:  2.00D  GRAD.:     0.067 HEAT:  30.60158
 CYCLE:    78 TIME:   0.004 TIME LEFT:  2.00D  GRAD.:     0.042 HEAT:  30.60157

     GRADIENT =  0.04249  IS LESS THAN CUTOFF =  0.05000



 -------------------------------------------------------------------------------
 pm3  precise nosym THREADS=1
 InChI=1S/C10H12/c1-8-6-9-4-2-3-5-10(9)7-8/h2-4,10H,1,5-7H2



     GEOMETRY OPTIMISED USING EIGENVECTOR FOLLOWING (EF).     
     SCF FIELD WAS ACHIEVED                                   


                              PM3 CALCULATION
                                                       MOPAC2016 (Version: 18.184L)
                                                       Sat Jun 15 10:18:15 2019
                                                       No. of days remaining =  18




          FINAL HEAT OF FORMATION =         30.60157 KCAL/MOL =     128.03697 KJ/MOL


          TOTAL ENERGY            =      -1369.06929 EV
          ELECTRONIC ENERGY       =      -7528.91746 EV  POINT GROUP:     C1  
          CORE-CORE REPULSION     =       6159.84817 EV
          COSMO AREA              =        178.06 SQUARE ANGSTROMS
          COSMO VOLUME            =        180.48 CUBIC ANGSTROMS

          GRADIENT NORM           =          0.04249 = 0.00906 PER ATOM
          IONIZATION POTENTIAL    =          8.842344 EV
          HOMO LUMO ENERGIES (EV) =         -8.842  0.241
          NO. OF FILLED LEVELS    =         26
          MOLECULAR WEIGHT        =        132.2048

          MOLECULAR DIMENSIONS (Angstroms)

            Atom       Atom       Distance
            H    21    H    18     7.80697
            H    19    H    13     5.18930
            H    12    H    11     2.89941


          SCF CALCULATIONS        =         88
 
          WALL-CLOCK TIME         =          0.414 SECONDS
          COMPUTATION TIME        =          0.384 SECONDS




   ATOM   CHEMICAL          X               Y               Z
  NUMBER   SYMBOL      (ANGSTROMS)     (ANGSTROMS)     (ANGSTROMS)
 
     1       C         -0.21698930  *   0.76301579  *  -0.17423450  *
     2       C          1.18803667  *   1.01543894  *   0.39192310  *
     3       C         -1.35615629  *   1.33958677  *   0.65726553  *
     4       C          1.04880973  *  -1.33200398  *  -0.34676966  *
     5       C         -0.31568793  *  -0.73191131  *  -0.29799191  *
     6       C          1.96587038  *  -0.23576927  *   0.11136996  *
     7       C         -2.65148481  *   0.66379940  *   0.35762833  *
     8       C         -1.49377598  *  -1.36878316  *  -0.29431931  *
     9       C         -2.70966124  *  -0.59716816  *  -0.09452976  *
    10       C          3.28146325  *  -0.35783469  *   0.25042242  *
    11       H         -0.28074483  *   1.18477645  *  -1.20752173  *
    12       H         -1.15393356  *   1.23376293  *   1.74356290  *
    13       H          1.66379809  *   1.90237137  *  -0.06454444  *
    14       H          1.16114624  *   1.20708096  *   1.48242054  *
    15       H         -1.44033750  *   2.42774484  *   0.47159830  *
    16       H          1.12763853  *  -2.22564897  *   0.30062698  *
    17       H          1.30364600  *  -1.66401498  *  -1.37169526  *
    18       H         -3.56252425  *   1.23852351  *   0.55321078  *
    19       H         -1.57314822  *  -2.45427390  *  -0.40335603  *
    20       H         -3.66447042  *  -1.09083936  *  -0.30019896  *
    21       H          3.80801272  *  -1.28416802  *   0.04329951  *
    22       H          3.91273936  *   0.46134806  *   0.58021776  *

                             CARTESIAN COORDINATES

   1    C       -0.216989305     0.763015789    -0.174234502
   2    C        1.188036667     1.015438941     0.391923102
   3    C       -1.356156294     1.339586769     0.657265534
   4    C        1.048809726    -1.332003980    -0.346769660
   5    C       -0.315687928    -0.731911313    -0.297991912
   6    C        1.965870385    -0.235769267     0.111369962
   7    C       -2.651484811     0.663799397     0.357628333
   8    C       -1.493775977    -1.368783156    -0.294319306
   9    C       -2.709661244    -0.597168155    -0.094529758
  10    C        3.281463247    -0.357834689     0.250422421
  11    H       -0.280744834     1.184776448    -1.207521733
  12    H       -1.153933559     1.233762928     1.743562897
  13    H        1.663798085     1.902371366    -0.064544443
  14    H        1.161146238     1.207080957     1.482420538
  15    H       -1.440337500     2.427744845     0.471598302
  16    H        1.127638528    -2.225648969     0.300626980
  17    H        1.303645995    -1.664014977    -1.371695256
  18    H       -3.562524250     1.238523507     0.553210785
  19    H       -1.573148221    -2.454273903    -0.403356032
  20    H       -3.664470416    -1.090839355    -0.300198959
  21    H        3.808012721    -1.284168021     0.043299507
  22    H        3.912739361     0.461348057     0.580217759


           Empirical Formula: C10 H12  =    22 atoms



      MOLECULAR POINT GROUP   :   C1  


                  EIGENVALUES  
 -41.88338 -35.75247 -31.43330 -29.71949 -26.37880 -24.65682 -21.49845 -20.03050
 -18.70744 -17.37193 -17.14657 -16.00809 -15.72831 -14.89129 -14.54854 -14.46208
 -13.84797 -13.77229 -13.17270 -12.68761 -12.40439 -12.03133 -11.72098 -11.16800
  -9.85021  -8.84234   0.24117   1.07406   2.01965   3.16799   3.21847   3.37194
   3.55870   3.59929   3.67718   3.80089   3.88295   3.94617   4.10718   4.18880
   4.32980   4.42988   4.51109   4.57839   4.81959   4.92838   5.03946   5.53261
   5.55141   5.91755   6.02525   6.24064


              NET ATOMIC CHARGES AND DIPOLE CONTRIBUTIONS

  ATOM NO.   TYPE          CHARGE      No. of ELECS.   s-Pop       p-Pop       
    1          C          -0.041972        4.0420     1.16757     2.87440
    2          C          -0.053139        4.0531     1.15278     2.90036
    3          C          -0.052667        4.0527     1.14711     2.90555
    4          C          -0.009943        4.0099     1.13377     2.87618
    5          C          -0.113514        4.1135     1.20583     2.90769
    6          C          -0.112907        4.1129     1.20477     2.90813
    7          C          -0.141890        4.1419     1.19740     2.94449
    8          C          -0.114661        4.1147     1.17376     2.94090
    9          C          -0.106322        4.1063     1.17875     2.92757
   10          C          -0.176347        4.1763     1.17688     2.99946
   11          H           0.073733        0.9263     0.92627
   12          H           0.060198        0.9398     0.93980
   13          H           0.058853        0.9411     0.94115
   14          H           0.063209        0.9368     0.93679
   15          H           0.054479        0.9455     0.94552
   16          H           0.066839        0.9332     0.93316
   17          H           0.067786        0.9322     0.93221
   18          H           0.099047        0.9010     0.90095
   19          H           0.107293        0.8927     0.89271
   20          H           0.101333        0.8987     0.89867
   21          H           0.085213        0.9148     0.91479
   22          H           0.085377        0.9146     0.91462
 DIPOLE           X         Y         Z       TOTAL
 POINT-CHG.     0.047     0.265     0.088     0.283
 HYBRID         0.019    -0.023     0.015     0.033
 SUM            0.066     0.242     0.103     0.271


          ATOMIC ORBITAL ELECTRON POPULATIONS

     Atom    s        px        py        pz   
    1  C   1.16757   0.94131   0.93815   0.99494
    2  C   1.15278   0.94063   0.95387   1.00586
    3  C   1.14711   0.93145   0.98192   0.99218
    4  C   1.13377   0.91386   0.95714   1.00518
    5  C   1.20583   0.95303   0.96142   0.99323
    6  C   1.20477   0.95654   0.96246   0.98913
    7  C   1.19740   0.97585   0.96553   1.00312
    8  C   1.17376   0.93010   0.97996   1.03084
    9  C   1.17875   0.96749   0.95158   1.00849
   10  C   1.17688   0.94756   1.01676   1.03513
   11  H   0.92627
   12  H   0.93980
   13  H   0.94115
   14  H   0.93679
   15  H   0.94552
   16  H   0.93316
   17  H   0.93221
   18  H   0.90095
   19  H   0.89271
   20  H   0.89867
   21  H   0.91479
   22  H   0.91462
 *******************************************************************************
 ** Site#: 14399        For non-commercial use only    Version 18.184L 64BITS **
 *******************************************************************************
 ** Cite this program as: MOPAC2016, Version: 18.184L, James J. P. Stewart,   **
 ** Stewart Computational Chemistry, web: HTTP://OpenMOPAC.net. Days left:  18**
 *******************************************************************************
 **                                                                           **
 **                                MOPAC2016                                  **
 **                                                                           **
 *******************************************************************************

                              PM3 CALCULATION RESULTS

 *******************************************************************************
 *  CALCULATION DONE:                                Sat Jun 15 10:18:15 2019  *
 *  PM3        - The PM3 Hamiltonian to be used
 *  OLDGEO     - PREVIOUS GEOMETRY TO BE USED
 *  PRECISE    - CRITERIA TO BE INCREASED BY 100 TIMES
 *  NOSYM      - POINT-GROUP SYMMETRY SET TO C1
 *  THREADS=1  - MULTI-THREADING NOT USED
 *  T=         - A TIME OF 172800.0 SECONDS REQUESTED
 *  DUMP=N     - RESTART FILE WRITTEN EVERY  7200.000 SECONDS
 *  THERMO     - THERMODYNAMIC QUANTITIES TO BE CALCULATED
 *******************************************************************************
oldgeo thermo nosym precise THREADS=1  pm3
 InChI=1S/C10H12/c1-8-6-9-4-2-3-5-10(9)7-8/h2-4,10H,1,5-7H2

   ATOM   CHEMICAL          X               Y               Z
  NUMBER   SYMBOL      (ANGSTROMS)     (ANGSTROMS)     (ANGSTROMS)
 
     1       C         -0.21698930  *   0.76301579  *  -0.17423450  *
     2       C          1.18803667  *   1.01543894  *   0.39192310  *
     3       C         -1.35615629  *   1.33958677  *   0.65726553  *
     4       C          1.04880973  *  -1.33200398  *  -0.34676966  *
     5       C         -0.31568793  *  -0.73191131  *  -0.29799191  *
     6       C          1.96587038  *  -0.23576927  *   0.11136996  *
     7       C         -2.65148481  *   0.66379940  *   0.35762833  *
     8       C         -1.49377598  *  -1.36878316  *  -0.29431931  *
     9       C         -2.70966124  *  -0.59716816  *  -0.09452976  *
    10       C          3.28146325  *  -0.35783469  *   0.25042242  *
    11       H         -0.28074483  *   1.18477645  *  -1.20752173  *
    12       H         -1.15393356  *   1.23376293  *   1.74356290  *
    13       H          1.66379809  *   1.90237137  *  -0.06454444  *
    14       H          1.16114624  *   1.20708096  *   1.48242054  *
    15       H         -1.44033750  *   2.42774484  *   0.47159830  *
    16       H          1.12763853  *  -2.22564897  *   0.30062698  *
    17       H          1.30364600  *  -1.66401498  *  -1.37169526  *
    18       H         -3.56252425  *   1.23852351  *   0.55321078  *
    19       H         -1.57314822  *  -2.45427390  *  -0.40335603  *
    20       H         -3.66447042  *  -1.09083936  *  -0.30019896  *
    21       H          3.80801272  *  -1.28416802  *   0.04329951  *
    22       H          3.91273936  *   0.46134806  *   0.58021776  *
 


          CARTESIAN COORDINATES 

    NO.       ATOM           X           Y           Z

     1         C         -0.2170      0.7630     -0.1742
     2         C          1.1880      1.0154      0.3919
     3         C         -1.3562      1.3396      0.6573
     4         C          1.0488     -1.3320     -0.3468
     5         C         -0.3157     -0.7319     -0.2980
     6         C          1.9659     -0.2358      0.1114
     7         C         -2.6515      0.6638      0.3576
     8         C         -1.4938     -1.3688     -0.2943
     9         C         -2.7097     -0.5972     -0.0945
    10         C          3.2815     -0.3578      0.2504
    11         H         -0.2807      1.1848     -1.2075
    12         H         -1.1539      1.2338      1.7436
    13         H          1.6638      1.9024     -0.0645
    14         H          1.1611      1.2071      1.4824
    15         H         -1.4403      2.4277      0.4716
    16         H          1.1276     -2.2256      0.3006
    17         H          1.3036     -1.6640     -1.3717
    18         H         -3.5625      1.2385      0.5532
    19         H         -1.5731     -2.4543     -0.4034
    20         H         -3.6645     -1.0908     -0.3002
    21         H          3.8080     -1.2842      0.0433
    22         H          3.9127      0.4613      0.5802

  H: (PM3): J. J. P. STEWART, J. COMP. CHEM. 10, 209 (1989).
  C: (PM3): J. J. P. STEWART, J. COMP. CHEM. 10, 209 (1989).

           Empirical Formula: C10 H12  =    22 atoms



      MOLECULAR POINT GROUP   :   C1  


      RHF CALCULATION, NO. OF DOUBLY OCCUPIED LEVELS = 26



          HEAT OF FORMATION =      30.601570 KCALS/MOLE


          CARTESIAN COORDINATE DERIVATIVES

   NUMBER  ATOM         X            Y            Z

     1       C     -0.001334    -0.004943     0.001735
     2       C     -0.000165    -0.005933    -0.000877
     3       C      0.003763    -0.005580    -0.004854
     4       C     -0.003953     0.000115     0.002393
     5       C     -0.004568    -0.004467    -0.005446
     6       C     -0.010392     0.000582     0.008957
     7       C      0.006765     0.003910    -0.013074
     8       C     -0.012261     0.000062     0.000941
     9       C      0.001727    -0.005465     0.000557
    10       C      0.006960    -0.000452     0.000909
    11       H     -0.005162    -0.001570    -0.004133
    12       H      0.005444     0.001731     0.005410
    13       H      0.002376     0.004385    -0.013234
    14       H     -0.003119     0.009546     0.010651
    15       H     -0.002767     0.004454    -0.003585
    16       H      0.016198     0.001253    -0.008665
    17       H     -0.001778    -0.003650     0.004451
    18       H      0.007646    -0.000605     0.004844
    19       H     -0.003888     0.000535     0.003422
    20       H      0.000858     0.001385     0.006514
    21       H      0.002200    -0.002088     0.001116
    22       H     -0.004550     0.006798     0.001967
 


          GRADIENT NORM =   0.04532


          TIME FOR SCF CALCULATION =    0.00

          TIME FOR DERIVATIVES     =    0.00

          MOLECULAR WEIGHT =  132.20



          ROTATIONAL CONSTANTS IN CM(-1)

          A =    0.10824270   B =    0.03300969   C =    0.02620239



           PRINCIPAL MOMENTS OF INERTIA IN UNITS OF 10**(-40)*GRAM-CM**2

          A =      258.6112   B =      848.0170   C =     1068.3292


          ORIENTATION OF MOLECULE IN FORCE CALCULATION

    NO.       ATOM         X         Y         Z

     1          C      -0.0543    0.2709   -0.8284
     2          C       1.4814    0.2709   -0.8284
     3          C      -0.6952    1.6532   -0.8284
     4          C       0.6959   -1.4021    0.8024
     5          C      -0.4359   -0.5227    0.3899
     6          C       1.8840   -0.8741    0.0526
     7          C      -2.1018    1.6063   -0.3350
     8          C      -1.6171   -0.3630    1.0005
     9          C      -2.5290    0.6583    0.5115
    10          C       3.1189   -1.3530    0.1565
    11          H      -0.4242   -0.2937   -1.7195
    12          H      -0.1271    2.3592   -0.1874
    13          H       1.8942    0.1656   -1.8482
    14          H       1.8904    1.2186   -0.4268
    15          H      -0.6618    2.0802   -1.8493
    16          H       0.8598   -1.3744    1.8961
    17          H       0.4966   -2.4595    0.5420
    18          H      -2.7688    2.4053   -0.6748
    19          H      -1.9083   -0.9509    1.8757
    20          H      -3.5596    0.6377    0.8792
    21          H       3.3720   -2.1806    0.8117
    22          H       3.9527   -0.9466   -0.4074


    FIRST DERIVATIVES WILL BE USED IN THE CALCULATION OF SECOND DERIVATIVES

          ESTIMATED TIME TO COMPLETE CALCULATION =        2.06 SECONDS

    FOR POINT-GROUP C1   THERE ARE   1 UNIQUE SYMMETRY FUNCTIONS.

 STEP:   1 TIME =     0.02 SECS, INTEGRAL =      0.02 TIME LEFT: 172799.97
 STEP:   2 TIME =     0.02 SECS, INTEGRAL =      0.04 TIME LEFT: 172799.95
 STEP:   3 TIME =     0.02 SECS, INTEGRAL =      0.06 TIME LEFT: 172799.93
 STEP:   4 TIME =     0.02 SECS, INTEGRAL =      0.09 TIME LEFT: 172799.91
 STEP:   5 TIME =     0.02 SECS, INTEGRAL =      0.11 TIME LEFT: 172799.89
 STEP:   6 TIME =     0.02 SECS, INTEGRAL =      0.12 TIME LEFT: 172799.87
 STEP:   7 TIME =     0.02 SECS, INTEGRAL =      0.14 TIME LEFT: 172799.85
 STEP:   8 TIME =     0.02 SECS, INTEGRAL =      0.16 TIME LEFT: 172799.83
 STEP:   9 TIME =     0.02 SECS, INTEGRAL =      0.19 TIME LEFT: 172799.80
 STEP:  10 TIME =     0.02 SECS, INTEGRAL =      0.21 TIME LEFT: 172799.79
 STEP:  11 TIME =     0.02 SECS, INTEGRAL =      0.23 TIME LEFT: 172799.77
 STEP:  12 TIME =     0.02 SECS, INTEGRAL =      0.25 TIME LEFT: 172799.74
 STEP:  13 TIME =     0.02 SECS, INTEGRAL =      0.27 TIME LEFT: 172799.72
 STEP:  14 TIME =     0.02 SECS, INTEGRAL =      0.29 TIME LEFT: 172799.70
 STEP:  15 TIME =     0.02 SECS, INTEGRAL =      0.31 TIME LEFT: 172799.68
 STEP:  16 TIME =     0.02 SECS, INTEGRAL =      0.34 TIME LEFT: 172799.66
 STEP:  17 TIME =     0.02 SECS, INTEGRAL =      0.36 TIME LEFT: 172799.64
 STEP:  18 TIME =     0.02 SECS, INTEGRAL =      0.38 TIME LEFT: 172799.61
 STEP:  19 TIME =     0.02 SECS, INTEGRAL =      0.40 TIME LEFT: 172799.59
 STEP:  20 TIME =     0.02 SECS, INTEGRAL =      0.42 TIME LEFT: 172799.57
 STEP:  21 TIME =     0.02 SECS, INTEGRAL =      0.44 TIME LEFT: 172799.55
 STEP:  22 TIME =     0.02 SECS, INTEGRAL =      0.46 TIME LEFT: 172799.53
 STEP:  23 TIME =     0.02 SECS, INTEGRAL =      0.48 TIME LEFT: 172799.51
 STEP:  24 TIME =     0.02 SECS, INTEGRAL =      0.50 TIME LEFT: 172799.49
 STEP:  25 TIME =     0.02 SECS, INTEGRAL =      0.52 TIME LEFT: 172799.47
 STEP:  26 TIME =     0.02 SECS, INTEGRAL =      0.55 TIME LEFT: 172799.45
 STEP:  27 TIME =     0.02 SECS, INTEGRAL =      0.57 TIME LEFT: 172799.43
 STEP:  28 TIME =     0.02 SECS, INTEGRAL =      0.59 TIME LEFT: 172799.40
 STEP:  29 TIME =     0.02 SECS, INTEGRAL =      0.61 TIME LEFT: 172799.38
 STEP:  30 TIME =     0.02 SECS, INTEGRAL =      0.63 TIME LEFT: 172799.36
 STEP:  31 TIME =     0.02 SECS, INTEGRAL =      0.65 TIME LEFT: 172799.34
 STEP:  32 TIME =     0.02 SECS, INTEGRAL =      0.67 TIME LEFT: 172799.32
 STEP:  33 TIME =     0.02 SECS, INTEGRAL =      0.69 TIME LEFT: 172799.30
 STEP:  34 TIME =     0.02 SECS, INTEGRAL =      0.71 TIME LEFT: 172799.28
 STEP:  35 TIME =     0.02 SECS, INTEGRAL =      0.73 TIME LEFT: 172799.26
 STEP:  36 TIME =     0.02 SECS, INTEGRAL =      0.75 TIME LEFT: 172799.24
 STEP:  37 TIME =     0.02 SECS, INTEGRAL =      0.78 TIME LEFT: 172799.21
 STEP:  38 TIME =     0.02 SECS, INTEGRAL =      0.80 TIME LEFT: 172799.20
 STEP:  39 TIME =     0.02 SECS, INTEGRAL =      0.82 TIME LEFT: 172799.18
 STEP:  40 TIME =     0.02 SECS, INTEGRAL =      0.84 TIME LEFT: 172799.16
 STEP:  41 TIME =     0.02 SECS, INTEGRAL =      0.86 TIME LEFT: 172799.14
 STEP:  42 TIME =     0.02 SECS, INTEGRAL =      0.88 TIME LEFT: 172799.11
 STEP:  43 TIME =     0.02 SECS, INTEGRAL =      0.90 TIME LEFT: 172799.09
 STEP:  44 TIME =     0.02 SECS, INTEGRAL =      0.92 TIME LEFT: 172799.07
 STEP:  45 TIME =     0.02 SECS, INTEGRAL =      0.94 TIME LEFT: 172799.05
 STEP:  46 TIME =     0.02 SECS, INTEGRAL =      0.96 TIME LEFT: 172799.03
 STEP:  47 TIME =     0.02 SECS, INTEGRAL =      0.98 TIME LEFT: 172799.01
 STEP:  48 TIME =     0.02 SECS, INTEGRAL =      1.00 TIME LEFT: 172798.99
 STEP:  49 TIME =     0.02 SECS, INTEGRAL =      1.02 TIME LEFT: 172798.97
 STEP:  50 TIME =     0.02 SECS, INTEGRAL =      1.04 TIME LEFT: 172798.95
 STEP:  51 TIME =     0.02 SECS, INTEGRAL =      1.07 TIME LEFT: 172798.93
 STEP:  52 TIME =     0.02 SECS, INTEGRAL =      1.09 TIME LEFT: 172798.91
 STEP:  53 TIME =     0.02 SECS, INTEGRAL =      1.11 TIME LEFT: 172798.89
 STEP:  54 TIME =     0.02 SECS, INTEGRAL =      1.13 TIME LEFT: 172798.86
 STEP:  55 TIME =     0.02 SECS, INTEGRAL =      1.15 TIME LEFT: 172798.84
 STEP:  56 TIME =     0.02 SECS, INTEGRAL =      1.17 TIME LEFT: 172798.82
 STEP:  57 TIME =     0.02 SECS, INTEGRAL =      1.19 TIME LEFT: 172798.80
 STEP:  58 TIME =     0.02 SECS, INTEGRAL =      1.21 TIME LEFT: 172798.78
 STEP:  59 TIME =     0.02 SECS, INTEGRAL =      1.23 TIME LEFT: 172798.76
 STEP:  60 TIME =     0.02 SECS, INTEGRAL =      1.25 TIME LEFT: 172798.74
 STEP:  61 TIME =     0.02 SECS, INTEGRAL =      1.28 TIME LEFT: 172798.71
 STEP:  62 TIME =     0.02 SECS, INTEGRAL =      1.30 TIME LEFT: 172798.70
 STEP:  63 TIME =     0.02 SECS, INTEGRAL =      1.32 TIME LEFT: 172798.67
 STEP:  64 TIME =     0.02 SECS, INTEGRAL =      1.34 TIME LEFT: 172798.65
 STEP:  65 TIME =     0.02 SECS, INTEGRAL =      1.36 TIME LEFT: 172798.63
 STEP:  66 TIME =     0.02 SECS, INTEGRAL =      1.38 TIME LEFT: 172798.61

(To convert to Hartree/Bohr^2, multiply by (10^(-21) x N x a0^2)/(4.184 x 627.51) =  0.0642)


           FORCE MATRIX IN MILLIDYNES/ANGSTROM


                  C  1       C  2       C  3       C  4       C  5       C  6
 ------------------------------------------------------------------------------
     C    1  14.798373
     C    2   3.710760  14.601404
     C    3   4.056996   0.539350  14.653167
     C    4   0.750605   0.726627   0.042142  15.012781
     C    5   4.385954   0.869630   0.649079   4.778657  19.076842
     C    6   0.844607   4.537881   0.042807   4.508306   0.989897  18.993060
     C    7   0.680506   0.049428   4.827536   0.015611   0.155190   0.007477
     C    8   0.781718   0.048664   0.111960   0.672756  10.168983   0.050835
     C    9   0.115696   0.008950   0.841331   0.132325   1.179190   0.009924
     C   10   0.050929   0.737535   0.008910   0.733448   0.055900  10.902268
     H   11   4.201472   0.426474   0.426294   0.016971   0.396796   0.015343
     H   12   0.452463   0.035813   4.374941   0.004498   0.014713   0.001603
     H   13   0.432821   4.543254   0.016018   0.030608   0.040935   0.442084
     H   14   0.453744   4.459768   0.042878   0.021115   0.012488   0.426158
     H   15   0.436919   0.009976   4.484303   0.007773   0.048408   0.001276
     H   16   0.032705   0.025550   0.004530   4.493364   0.441363   0.434209
     H   17   0.020369   0.026244   0.002277   4.460058   0.427577   0.434342
     H   18   0.043052   0.007428   0.425970   0.008026   0.014695   0.001773
     H   19   0.109641   0.010506   0.008085   0.064489   0.461010   0.003444
     H   20   0.005078   0.000995   0.117300   0.008850   0.047486   0.001830
     H   21   0.007594   0.120332   0.001296   0.084374   0.002361   0.479358
     H   22   0.003477   0.084596   0.000889   0.120717   0.006631   0.478631


                  C  7       C  8       C  9       C 10       H 11       H 12
 ------------------------------------------------------------------------------
     C    7  17.874780
     C    8   1.117421  18.429225
     C    9  10.205791   5.554874  18.293606
     C   10   0.002744   0.011096   0.001785  18.114679
     H   11   0.013888   0.029923   0.016740   0.001816   4.650575
     H   12   0.407904   0.018222   0.033046   0.000906   0.043902   4.978654
     H   13   0.002672   0.005762   0.001104   0.023970   0.032754   0.001297
     H   14   0.002785   0.002530   0.001621   0.023053   0.035730   0.026772
     H   15   0.439253   0.009403   0.047169   0.000719   0.035741   0.567140
     H   16   0.001705   0.020759   0.011305   0.022455   0.001248   0.000556
     H   17   0.001882   0.023430   0.015636   0.021758   0.002348   0.000335
     H   18   4.856349   0.119755   0.443027   0.000917   0.003876   0.015139
     H   19   0.046357   4.884298   0.433202   0.001600   0.013892   0.000752
     H   20   0.445163   0.430051   4.868524   0.000740   0.000779   0.015949
     H   21   0.001026   0.001201   0.000837   5.112923   0.000508   0.000153
     H   22   0.000647   0.001721   0.000784   5.111256   0.000442   0.000221


                  H 13       H 14       H 15       H 16       H 17       H 18
 ------------------------------------------------------------------------------
     H   13   5.147489
     H   14   0.564162   5.065112
     H   15   0.001220   0.001355   5.075747
     H   16   0.001110   0.002721   0.001296   5.089542
     H   17   0.003121   0.000953   0.000430   0.557923   5.056617
     H   18   0.000543   0.000559   0.035137   0.000890   0.000940   5.230439
     H   19   0.001356   0.000502   0.001062   0.008404   0.008726   0.007663
     H   20   0.000119   0.000221   0.012263   0.000932   0.000925   0.064168
     H   21   0.009541   0.013463   0.000179   0.009782   0.010373   0.000374
     H   22   0.010347   0.010786   0.000154   0.011122   0.012477   0.000163


                  H 19       H 20       H 21       H 22
 ------------------------------------------------------
     H   19   5.256988
     H   20   0.028501   5.236482
     H   21   0.000385   0.000166   5.493124
     H   22   0.000285   0.000199   0.408025   5.492039


          HEAT OF FORMATION =      30.601570 KCALS/MOLE

          ZERO POINT ENERGY     118.917 KCAL/MOL


           NORMAL COORDINATE ANALYSIS (Total motion = 1 Angstrom)


   Root No.       1         2         3         4         5         6         7         8

                 1 A       2 A       3 A       4 A       5 A       6 A       7 A       8 A   

                  79.3     123.3     203.3     277.6     341.3     431.3     444.6     454.9
  
           1   -0.0109   -0.0061   -0.0006   -0.0108    0.0067   -0.0170    0.0045    0.0071
           2   -0.0116    0.0027   -0.0102   -0.0256    0.0221   -0.0221   -0.0012    0.0035
           3   -0.0166    0.0031   -0.0119    0.0169    0.0397    0.0020    0.0141   -0.0167
           4   -0.0105   -0.0072   -0.0002   -0.0184    0.0050   -0.0197    0.0032    0.0085
           5   -0.0248   -0.0297    0.0026   -0.0044   -0.0129    0.0279    0.0102   -0.0115
           6   -0.0321   -0.0412    0.0025    0.0237   -0.0097   -0.0084   -0.0113    0.0016
           7    0.0054    0.0201   -0.0035    0.0239   -0.0115    0.0190    0.0091   -0.0017
           8   -0.0037    0.0150   -0.0107   -0.0126    0.0134   -0.0113   -0.0077    0.0031
           9   -0.0015    0.0454   -0.0253    0.0036   -0.0213   -0.0020    0.0018   -0.0031
          10   -0.0122    0.0086    0.0066   -0.0030    0.0044    0.0118    0.0035   -0.0177
          11   -0.0280    0.0239    0.0251   -0.0233   -0.0121    0.0035    0.0037   -0.0034
          12   -0.0341    0.0244    0.0281    0.0113   -0.0069   -0.0097   -0.0055    0.0065
          13   -0.0072    0.0001   -0.0079   -0.0127    0.0142    0.0000   -0.0060    0.0012
          14   -0.0141    0.0027   -0.0151   -0.0220    0.0265   -0.0069   -0.0037    0.0060
          15   -0.0172    0.0053   -0.0185    0.0201    0.0431    0.0200    0.0102   -0.0169
          16   -0.0045   -0.0003    0.0016   -0.0072    0.0066   -0.0030    0.0065   -0.0021
          17    0.0015    0.0005    0.0097   -0.0069   -0.0113    0.0379    0.0383    0.0260
          18   -0.0008   -0.0057    0.0100    0.0101   -0.0059   -0.0101    0.0198    0.0589
          19    0.0134    0.0047    0.0205    0.0209   -0.0020    0.0288    0.0013    0.0030
          20    0.0151    0.0029    0.0265    0.0151    0.0111    0.0074   -0.0186   -0.0002
          21    0.0225    0.0029    0.0432   -0.0145    0.0076    0.0117   -0.0264    0.0172
          22    0.0040   -0.0112   -0.0212   -0.0202   -0.0163    0.0019   -0.0209    0.0156
          23   -0.0013   -0.0101   -0.0383    0.0040   -0.0122   -0.0006   -0.0232    0.0104
          24    0.0010   -0.0121   -0.0380    0.0011   -0.0054    0.0200   -0.0097    0.0055
          25    0.0119   -0.0114    0.0033    0.0026   -0.0083    0.0065    0.0109   -0.0049
          26    0.0160   -0.0156    0.0047    0.0189   -0.0099   -0.0181    0.0244   -0.0194
          27    0.0227   -0.0254    0.0098   -0.0195   -0.0186   -0.0279    0.0278   -0.0088
          28    0.0095    0.0016   -0.0016    0.0180    0.0108   -0.0252   -0.0096   -0.0065
          29    0.0498    0.0063   -0.0017    0.0466   -0.0011   -0.0103   -0.0080   -0.0011
          30    0.0561   -0.0001   -0.0041   -0.0448   -0.0005    0.0086   -0.0071   -0.0208
          31   -0.0263   -0.0447    0.0128   -0.0112   -0.0143   -0.0246   -0.0016    0.0131
          32   -0.0021    0.0247   -0.0156   -0.0293   -0.0075   -0.0359   -0.0109    0.0143
          33   -0.0161    0.0051   -0.0141    0.0198    0.0647    0.0147    0.0218   -0.0256
          34    0.0255    0.0119    0.0334    0.0310   -0.0049    0.0466   -0.0177    0.0115
          35   -0.0124   -0.0245    0.0139   -0.0242    0.0700   -0.0171   -0.0156    0.0078
          36   -0.0096    0.0959   -0.0850    0.0110   -0.0916   -0.0195    0.0355   -0.0209
          37   -0.0233   -0.0409    0.0107   -0.0095   -0.0372   -0.0179   -0.0209    0.0113
          38   -0.0637   -0.0855    0.0035    0.0201   -0.0491    0.0489   -0.0485   -0.1035
          39   -0.0334   -0.0493    0.0068    0.0246   -0.0236   -0.0094   -0.0161    0.0108
          40    0.0020    0.0254   -0.0116   -0.0333    0.0455   -0.0497    0.0153    0.0233
          41   -0.0138   -0.0196    0.0071   -0.0051   -0.0149    0.0395    0.0319    0.0137
          42   -0.0708   -0.0986    0.0040    0.0428   -0.0486   -0.0031   -0.0771   -0.0766
          43   -0.0069    0.0572   -0.0583    0.0515   -0.0553    0.0119    0.0498   -0.0316
          44   -0.0014    0.0613   -0.0503   -0.0164   -0.0571   -0.0237    0.0071    0.0003
          45   -0.0009    0.0662   -0.0442    0.0029   -0.0532   -0.0077    0.0098   -0.0055
          46   -0.0270    0.0198    0.0007    0.0004    0.0226    0.0235   -0.0133   -0.0753
          47   -0.0725    0.0690    0.0961   -0.0344   -0.0777   -0.0417   -0.0476   -0.0709
          48   -0.0309    0.0218    0.0277    0.0107   -0.0088   -0.0109   -0.0025    0.0158
          49   -0.0075    0.0118    0.0316    0.0027   -0.0286    0.0266    0.0276   -0.0052
          50   -0.0178    0.0124    0.0051   -0.0212    0.0073    0.0109    0.0122    0.0114
          51   -0.0801    0.0694    0.0926   -0.0008   -0.0634   -0.0545   -0.0618   -0.0689
          52    0.0204    0.0097    0.0442    0.0370   -0.0006    0.0410   -0.0036    0.0031
          53    0.0282    0.0042    0.0760    0.0250    0.0243    0.0256   -0.0373    0.0075
          54    0.0393   -0.0031    0.1115   -0.0225    0.0347    0.0306   -0.0606    0.0350
          55    0.0092   -0.0189   -0.0342   -0.0483   -0.0541   -0.0015   -0.0538    0.0483
          56   -0.0025   -0.0108   -0.0670    0.0181   -0.0466    0.0324   -0.0735    0.0362
          57    0.0019   -0.0153   -0.0614    0.0012   -0.0412    0.0407   -0.0544    0.0337
          58    0.0174   -0.0217    0.0116   -0.0029   -0.0149   -0.0116    0.0289   -0.0135
          59    0.0297   -0.0332    0.0331    0.0344   -0.0175   -0.0398    0.0858   -0.0517
          60    0.0389   -0.0557    0.0351   -0.0338   -0.0368   -0.0804    0.0826   -0.0355
          61    0.0151    0.0083   -0.0004    0.0961    0.0177   -0.0949   -0.0385    0.0286
          62    0.0707    0.0270    0.0001    0.0477    0.0041   -0.0252   -0.0295   -0.0243
          63    0.0802    0.0234   -0.0022   -0.0751    0.0034    0.0182   -0.0227   -0.0650
          64    0.0163   -0.0034   -0.0057   -0.0311    0.0087    0.0135   -0.0009   -0.0425
          65    0.0721   -0.0092   -0.0144    0.1067    0.0051   -0.0614   -0.0423   -0.0003
          66    0.0822   -0.0187   -0.0194   -0.0759    0.0006    0.0314   -0.0182   -0.0748


   Root No.       9        10        11        12        13        14        15        16

                 9 A      10 A      11 A      12 A      13 A      14 A      15 A      16 A   

                 472.5     529.0     604.7     618.7     646.1     761.6     804.0     852.4
  
           1   -0.0048    0.0318   -0.0144   -0.0245    0.0250    0.0021    0.0035    0.0078
           2   -0.0303   -0.0176   -0.0078    0.0085    0.0068    0.0091   -0.0104    0.0001
           3   -0.0033   -0.0182   -0.0235   -0.0050    0.0230    0.0099    0.0000   -0.0287
           4    0.0094    0.0349   -0.0183   -0.0173    0.0220    0.0062    0.0255    0.0278
           5   -0.0059    0.0053   -0.0071   -0.0178    0.0125    0.0030    0.0060   -0.0086
           6    0.0017   -0.0108    0.0034    0.0153   -0.0097    0.0041   -0.0002   -0.0256
           7   -0.0274    0.0220   -0.0068    0.0143   -0.0010   -0.0077   -0.0246   -0.0054
           8   -0.0333   -0.0410    0.0007    0.0282   -0.0078    0.0013   -0.0160    0.0298
           9    0.0223    0.0063   -0.0025   -0.0122    0.0099   -0.0160   -0.0065   -0.0212
          10    0.0281   -0.0285    0.0035   -0.0032    0.0003   -0.0041   -0.0183    0.0200
          11    0.0030    0.0303   -0.0015    0.0305   -0.0143    0.0065    0.0154   -0.0111
          12   -0.0158   -0.0139    0.0142   -0.0234    0.0029   -0.0040   -0.0178    0.0308
          13   -0.0028   -0.0111    0.0301   -0.0359   -0.0086   -0.0098   -0.0164   -0.0110
          14   -0.0086    0.0537    0.0290    0.0017   -0.0316   -0.0038    0.0003   -0.0183
          15    0.0027    0.0148    0.0136   -0.0117   -0.0096    0.0030    0.0048    0.0181
          16    0.0490   -0.0096   -0.0051    0.0346   -0.0132    0.0000    0.0008   -0.0047
          17    0.0106   -0.0089   -0.0047   -0.0042    0.0059   -0.0038   -0.0023    0.0021
          18    0.0080   -0.0176    0.0080    0.0079   -0.0103   -0.0038    0.0000   -0.0026
          19   -0.0370    0.0221   -0.0069    0.0197   -0.0045   -0.0037   -0.0205   -0.0032
          20    0.0356   -0.0309    0.0069   -0.0163    0.0022   -0.0106    0.0414    0.0053
          21    0.0098    0.0211   -0.0031    0.0009    0.0009   -0.0214   -0.0031    0.0058
          22   -0.0150   -0.0263    0.0140   -0.0228   -0.0005   -0.0058   -0.0011   -0.0251
          23    0.0346    0.0051   -0.0072   -0.0147    0.0095   -0.0122   -0.0223   -0.0148
          24   -0.0205    0.0076   -0.0189    0.0277   -0.0008    0.0132    0.0378    0.0167
          25   -0.0451   -0.0394    0.0143   -0.0005   -0.0090    0.0066    0.0510   -0.0089
          26    0.0250   -0.0091   -0.0017   -0.0055    0.0052   -0.0206    0.0039    0.0056
          27   -0.0092    0.0154   -0.0018    0.0067   -0.0002   -0.0245   -0.0083    0.0059
          28    0.0413   -0.0035   -0.0040    0.0391   -0.0164    0.0015    0.0016   -0.0055
          29   -0.0244    0.0130   -0.0010   -0.0148    0.0085   -0.0006   -0.0022    0.0031
          30    0.0028   -0.0055    0.0020    0.0020   -0.0028    0.0001    0.0013   -0.0018
          31    0.0097    0.0535   -0.0317   -0.0363    0.0461    0.0157    0.0496    0.0244
          32   -0.0338   -0.0499   -0.0201    0.0320    0.0145    0.0096   -0.0474    0.0286
          33   -0.0060   -0.0059   -0.0071   -0.0147    0.0082    0.0038    0.0050   -0.0503
          34   -0.0194    0.0314   -0.0095    0.0242   -0.0065   -0.0642   -0.0248   -0.0063
          35   -0.0606   -0.0602   -0.0410    0.0381    0.0304   -0.0239   -0.0730   -0.0016
          36    0.0463    0.0207    0.0477   -0.0328   -0.0289    0.0651    0.0579    0.0150
          37    0.0071    0.0622    0.0219   -0.0151    0.0073   -0.0156    0.0224    0.1082
          38   -0.0063    0.0417    0.0463    0.0161    0.0190   -0.0175   -0.0217    0.0452
          39    0.0010   -0.0033    0.0161    0.0140   -0.0172   -0.0033    0.0004    0.0018
          40   -0.0157    0.0245   -0.0567   -0.0377    0.0514    0.0319    0.0425   -0.0008
          41    0.0097   -0.0068   -0.0148   -0.0205   -0.0016    0.0000    0.0087   -0.0254
          42   -0.0108    0.0309    0.0646    0.0445   -0.0054   -0.0173   -0.0264    0.0479
          43   -0.0078    0.0091    0.0226   -0.0049   -0.0203    0.0639    0.0287   -0.0168
          44   -0.0139   -0.0146    0.0494    0.0212   -0.0518    0.0537    0.0300    0.0991
          45    0.0319    0.0174    0.0203   -0.0167   -0.0102    0.0097    0.0171    0.0076
          46    0.0182   -0.0127   -0.0041   -0.0346   -0.0063    0.0010   -0.0249    0.0535
          47   -0.0415   -0.0087   -0.0785    0.0159   -0.0087    0.0032    0.0528   -0.0984
          48   -0.0144   -0.0163    0.0160   -0.0195    0.0037   -0.0048   -0.0175    0.0275
          49    0.0439   -0.0835   -0.0296    0.0049    0.0408   -0.0132   -0.0267    0.0530
          50    0.0114    0.0482    0.0202    0.0353   -0.0226    0.0088    0.0109   -0.0028
          51   -0.0648   -0.0461   -0.0558   -0.0499    0.0040   -0.0071    0.0109   -0.0381
          52    0.0023    0.0560   -0.0071   -0.0034    0.0012    0.0591   -0.0540   -0.0354
          53    0.0766   -0.0026    0.0183   -0.0475   -0.0003    0.1350    0.0120   -0.0256
          54    0.0296    0.0205    0.0251   -0.0284   -0.0166    0.1970   -0.0063   -0.0065
          55   -0.0174   -0.0129   -0.0008   -0.0104    0.0072    0.0330   -0.0630   -0.0464
          56    0.0647   -0.0251   -0.0515    0.0000    0.0434    0.0850   -0.0737    0.0426
          57   -0.0005   -0.0082   -0.0537    0.0415    0.0249    0.0917   -0.0168    0.0499
          58   -0.0407   -0.0432    0.0264   -0.0140   -0.0119    0.0587    0.0186   -0.0233
          59    0.0140    0.0154    0.0033    0.0080   -0.0049    0.1133   -0.0837    0.0149
          60    0.0027    0.0046    0.0322   -0.0301   -0.0087    0.1302   -0.1048   -0.0309
          61    0.0128    0.0211    0.0244    0.0603    0.0157    0.0094    0.0331   -0.0188
          62   -0.0353    0.0306    0.0711    0.0458    0.1548    0.0089    0.0124   -0.0152
          63    0.0015    0.0058    0.0820    0.0716    0.1693    0.0089    0.0066   -0.0199
          64    0.0588   -0.0157   -0.0308    0.0238   -0.0538   -0.0017   -0.0175    0.0039
          65   -0.0598    0.0328   -0.0686   -0.0907   -0.1363    0.0010    0.0067    0.0203
          66    0.0031   -0.0105   -0.0863   -0.0768   -0.1618   -0.0039   -0.0222    0.0249


   Root No.      17        18        19        20        21        22        23        24

                17 A      18 A      19 A      20 A      21 A      22 A      23 A      24 A   

                 868.3     909.3     927.1     944.6     946.5     961.6     995.5    1008.8
  
           1    0.0027   -0.0035   -0.0083    0.0012   -0.0038   -0.0041   -0.0012   -0.0011
           2   -0.0054    0.0020   -0.0013    0.0077   -0.0056   -0.0028   -0.0024   -0.0068
           3    0.0125   -0.0030   -0.0018    0.0080   -0.0154   -0.0190    0.0101   -0.0005
           4    0.0042   -0.0084    0.0016   -0.0094    0.0037   -0.0025    0.0046    0.0081
           5   -0.0106    0.0161    0.0262   -0.0151   -0.0209    0.0278   -0.0027   -0.0017
           6   -0.0124    0.0287   -0.0126    0.0173    0.0288    0.0017   -0.0000   -0.0007
           7   -0.0008   -0.0031    0.0011   -0.0003    0.0016   -0.0018    0.0046    0.0052
           8   -0.0085   -0.0039    0.0042   -0.0083    0.0007   -0.0012    0.0079    0.0080
           9    0.0283   -0.0173   -0.0051   -0.0077    0.0179    0.0193   -0.0166    0.0047
          10   -0.0041    0.0052    0.0142    0.0246    0.0206   -0.0039   -0.0015   -0.0024
          11    0.0348    0.0033   -0.0013    0.0307    0.0064   -0.0006    0.0057   -0.0048
          12    0.0124    0.0096   -0.0161    0.0042   -0.0306    0.0242    0.0012   -0.0093
          13   -0.0029    0.0031    0.0055   -0.0052    0.0023   -0.0057   -0.0025    0.0038
          14   -0.0052    0.0041   -0.0002   -0.0125    0.0099   -0.0087   -0.0045    0.0073
          15   -0.0081    0.0007    0.0069   -0.0139    0.0109   -0.0021   -0.0039    0.0055
          16   -0.0027   -0.0024   -0.0011   -0.0102   -0.0111    0.0042   -0.0006    0.0012
          17   -0.0038   -0.0113   -0.0044   -0.0053    0.0052   -0.0109    0.0006    0.0074
          18   -0.0047   -0.0122    0.0064   -0.0089    0.0012   -0.0087   -0.0007    0.0087
          19   -0.0104    0.0078    0.0052    0.0020   -0.0060    0.0027   -0.0016   -0.0067
          20    0.0150    0.0068   -0.0001   -0.0107    0.0090   -0.0035    0.0139   -0.0030
          21   -0.0047    0.0136    0.0059   -0.0073   -0.0000   -0.0058    0.0199   -0.0080
          22   -0.0014   -0.0090   -0.0045    0.0093   -0.0025    0.0039    0.0077   -0.0044
          23   -0.0215   -0.0174   -0.0049    0.0143   -0.0047    0.0121    0.0134   -0.0086
          24   -0.0142   -0.0211   -0.0077    0.0042    0.0086    0.0197    0.0048   -0.0061
          25    0.0222   -0.0003   -0.0079   -0.0033    0.0008    0.0042   -0.0123    0.0007
          26   -0.0006    0.0053    0.0006    0.0086   -0.0083   -0.0066   -0.0194    0.0067
          27   -0.0084    0.0088    0.0008    0.0128   -0.0179   -0.0151   -0.0178    0.0100
          28   -0.0043    0.0019   -0.0148   -0.0191   -0.0196    0.0095   -0.0038   -0.0079
          29   -0.0021   -0.0007   -0.0369   -0.0066    0.0093   -0.0165   -0.0061   -0.0228
          30    0.0011   -0.0083    0.0361   -0.0009   -0.0011   -0.0069   -0.0101   -0.0303
          31   -0.0148    0.0522   -0.0266    0.0270    0.0217    0.0332    0.0035   -0.0596
          32    0.0115   -0.0181   -0.0234    0.0343    0.0247    0.0538   -0.0734   -0.0243
          33    0.0085   -0.0138    0.0203   -0.0209   -0.0440   -0.0702    0.0534    0.0360
          34    0.0097    0.0126    0.0128   -0.0324    0.0506    0.0287    0.0553   -0.0181
          35    0.0433   -0.0563   -0.0111   -0.0048    0.0095    0.0196   -0.0523    0.0386
          36   -0.0415    0.0287    0.0023    0.0174   -0.0374   -0.0323    0.0067   -0.0089
          37    0.0114   -0.0714   -0.0162   -0.0407    0.0647   -0.0272   -0.0301    0.0949
          38    0.0547   -0.0851    0.0301   -0.0305   -0.1103   -0.0201    0.0222   -0.0380
          39   -0.0149    0.0112   -0.0205    0.0063    0.0628   -0.0055   -0.0164    0.0390
          40   -0.0082    0.0556   -0.0175    0.0466    0.0174   -0.0025    0.0433   -0.0711
          41   -0.0303    0.0286    0.0472   -0.0456   -0.0204    0.0606   -0.0287    0.0410
          42    0.0495   -0.0730   -0.0422    0.0287    0.0095   -0.0776    0.0219   -0.0188
          43   -0.0286    0.0212    0.0026    0.0348   -0.0642   -0.0794    0.0309    0.0225
          44   -0.0913    0.0498    0.0195   -0.0043   -0.0231   -0.0196    0.0461   -0.0232
          45   -0.0082    0.0070    0.0014   -0.0049    0.0050    0.0079    0.0013   -0.0081
          46   -0.0320    0.0452    0.0559    0.0264    0.1223   -0.0069   -0.0905   -0.0323
          47   -0.0637   -0.0405    0.0262   -0.0494    0.0483   -0.0607    0.0079    0.0323
          48    0.0166    0.0041   -0.0223    0.0036   -0.0467    0.0258    0.0140   -0.0053
          49   -0.0382   -0.0524    0.0337    0.0884    0.0403   -0.0499    0.0882    0.0363
          50    0.0652    0.0200   -0.0111    0.0428   -0.0041    0.0159   -0.0047   -0.0174
          51   -0.0931   -0.0177    0.0108   -0.0989    0.0037   -0.0142   -0.0258    0.0151
          52   -0.0274   -0.0218   -0.0046    0.0402   -0.0195    0.0101   -0.0559    0.0039
          53   -0.0203   -0.0499   -0.0227    0.0466   -0.0199    0.0051   -0.0627    0.0229
          54   -0.0543   -0.0611   -0.0281    0.0531   -0.0430   -0.0013   -0.0520    0.0317
          55    0.0583    0.0631    0.0141   -0.0152   -0.0262   -0.0753   -0.0063    0.0270
          56    0.0771    0.0854    0.0393   -0.0612   -0.0003   -0.0592   -0.0334    0.0237
          57    0.0718    0.0719    0.0281   -0.0552    0.0038   -0.0543   -0.0314    0.0262
          58    0.0400   -0.0119   -0.0057   -0.0296    0.0315    0.0208    0.0309   -0.0118
          59    0.0157   -0.0173    0.0180   -0.0555    0.0692    0.0598    0.0365   -0.0338
          60    0.0411   -0.0250    0.0087   -0.0649    0.0729    0.0342    0.1087   -0.0268
          61    0.0129   -0.0162    0.2240    0.0166   -0.0376    0.0490   -0.0002    0.0192
          62   -0.0140    0.0355   -0.0140    0.0195    0.0124    0.0393    0.0287    0.1042
          63   -0.0218    0.0454   -0.0323    0.0159    0.0077    0.0496    0.0321    0.1195
          64   -0.0114    0.0267   -0.1641   -0.0399   -0.0332    0.0234    0.0110    0.0313
          65    0.0454   -0.0021    0.1177    0.0736    0.0017    0.0351    0.0379    0.0922
          66    0.0243    0.0283   -0.0801    0.0270   -0.0240    0.0490    0.0438    0.1108


   Root No.      25        26        27        28        29        30        31        32

                25 A      26 A      27 A      28 A      29 A      30 A      31 A      32 A   

                1033.6    1051.4    1065.9    1080.6    1089.6    1102.2    1131.9    1156.2
  
           1    0.0040   -0.0078   -0.0017   -0.0041    0.0179    0.0243   -0.0130   -0.0009
           2    0.0154   -0.0034    0.0101   -0.0076   -0.0080   -0.0110   -0.0249   -0.0008
           3   -0.0036   -0.0095   -0.0113   -0.0060   -0.0028    0.0060   -0.0324   -0.0177
           4   -0.0112    0.0045   -0.0063    0.0062   -0.0213   -0.0216    0.0121   -0.0007
           5   -0.0061    0.0085    0.0049    0.0139   -0.0077   -0.0143    0.0101    0.0029
           6   -0.0042    0.0053   -0.0043    0.0128   -0.0016   -0.0050    0.0091    0.0019
           7   -0.0240    0.0134    0.0118   -0.0004    0.0143   -0.0005    0.0038    0.0011
           8   -0.0222    0.0102   -0.0113    0.0065    0.0057    0.0227    0.0164    0.0100
           9    0.0078    0.0138   -0.0043    0.0054    0.0004    0.0094    0.0161    0.0025
          10    0.0007   -0.0002    0.0029    0.0026   -0.0031    0.0019    0.0006   -0.0016
          11   -0.0086   -0.0048   -0.0153    0.0082   -0.0008   -0.0002   -0.0069   -0.0000
          12   -0.0058    0.0014    0.0047    0.0093   -0.0058    0.0002    0.0008    0.0004
          13    0.0085    0.0023    0.0021    0.0019    0.0020   -0.0060    0.0010   -0.0041
          14    0.0171    0.0094    0.0197    0.0051    0.0091    0.0015    0.0104   -0.0018
          15    0.0086    0.0066    0.0051    0.0012    0.0137   -0.0077   -0.0027    0.0018
          16    0.0006   -0.0007    0.0005   -0.0085    0.0013    0.0008    0.0002   -0.0002
          17    0.0017   -0.0030   -0.0008   -0.0285    0.0001    0.0015    0.0031   -0.0001
          18    0.0055   -0.0030    0.0021   -0.0302   -0.0026    0.0023    0.0063    0.0025
          19    0.0242   -0.0223   -0.0205    0.0026   -0.0079   -0.0025    0.0015    0.0024
          20   -0.0060   -0.0111    0.0247    0.0002   -0.0012    0.0048   -0.0017    0.0042
          21    0.0048   -0.0297   -0.0022    0.0010    0.0037   -0.0089    0.0031   -0.0021
          22   -0.0052   -0.0064   -0.0026   -0.0008   -0.0089    0.0020   -0.0032   -0.0012
          23   -0.0071   -0.0109   -0.0274   -0.0022    0.0068   -0.0080   -0.0005   -0.0066
          24   -0.0026   -0.0036    0.0238    0.0008   -0.0107    0.0105    0.0009    0.0053
          25    0.0135    0.0043   -0.0216   -0.0009    0.0100   -0.0078    0.0025   -0.0039
          26    0.0046    0.0115   -0.0006    0.0005   -0.0042    0.0057   -0.0002   -0.0019
          27   -0.0071    0.0131   -0.0008   -0.0002    0.0055   -0.0043    0.0008    0.0016
          28   -0.0009    0.0014    0.0025    0.0052   -0.0000   -0.0019   -0.0006    0.0015
          29   -0.0047    0.0022   -0.0027    0.0149   -0.0020   -0.0017   -0.0001   -0.0003
          30   -0.0049    0.0025    0.0003    0.0160    0.0022   -0.0001   -0.0024   -0.0006
          31    0.0278    0.0016    0.0299   -0.0361    0.1539    0.1957   -0.0218    0.0113
          32    0.0388   -0.0446    0.1136   -0.0461    0.0266   -0.1570   -0.0936   -0.0937
          33   -0.0292    0.0133   -0.0917    0.0325   -0.0820    0.0275    0.0125    0.0358
          34   -0.0641    0.1876    0.0240   -0.0496   -0.0128   -0.0207   -0.1110   -0.0845
          35   -0.0176   -0.0608   -0.0018    0.0467    0.0375    0.0452    0.1195    0.0702
          36    0.0372   -0.0621   -0.0249    0.0042   -0.0101    0.0033    0.0000    0.0113
          37   -0.0414   -0.0546   -0.0313    0.0831   -0.0408   -0.0288   -0.0954   -0.0247
          38    0.0271    0.0144    0.0231   -0.0891    0.0142    0.0196    0.0242    0.0015
          39   -0.0196   -0.0198   -0.0170    0.0538   -0.0130   -0.0126   -0.0364   -0.0079
          40    0.0187    0.0851    0.0166   -0.0563   -0.0661   -0.0985    0.1482    0.0395
          41   -0.0340   -0.0276   -0.0063    0.0753    0.0190    0.0244   -0.0576   -0.0182
          42    0.0303    0.0075   -0.0003   -0.0703   -0.0179   -0.0170    0.0231    0.0077
          43   -0.1065   -0.1016    0.1389    0.0169    0.0635   -0.0717    0.0684   -0.0544
          44    0.0225    0.0332   -0.0869   -0.0211   -0.0328    0.0442   -0.0797    0.0334
          45    0.0248    0.0191   -0.0344   -0.0055   -0.0140    0.0175   -0.0215    0.0091
          46   -0.0924   -0.0607   -0.0312   -0.1264   -0.0407    0.0369    0.0252    0.0136
          47    0.0326    0.0067   -0.0045   -0.0112    0.0235   -0.0067   -0.0076   -0.0037
          48    0.0079    0.0106    0.0110    0.0284   -0.0011   -0.0052   -0.0023   -0.0017
          49    0.1144    0.0725    0.0684    0.1311    0.0489   -0.0042    0.0177    0.0056
          50   -0.0331   -0.0184   -0.0324   -0.0034   -0.0110    0.0017   -0.0136   -0.0016
          51    0.0088    0.0001    0.0225   -0.0457   -0.0012   -0.0021    0.0135    0.0007
          52    0.0438   -0.0034    0.0536    0.0036   -0.0767    0.0104   -0.0604    0.1940
          53   -0.0100    0.0511    0.0566   -0.0001   -0.0371    0.0221   -0.0333    0.1038
          54   -0.0446    0.0779   -0.0773   -0.0023    0.0596   -0.0000    0.0513   -0.1483
          55   -0.0248    0.0177    0.1228    0.0146   -0.1109    0.1441   -0.0113   -0.0628
          56    0.0493    0.0187   -0.0813   -0.0047    0.0815   -0.0909    0.0027    0.0280
          57    0.0284    0.0249    0.0311    0.0042    0.0062    0.0018    0.0001    0.0101
          58   -0.0060   -0.0059   -0.0159   -0.0055    0.0286   -0.0233   -0.0157    0.0456
          59    0.0833   -0.0552    0.0047    0.0189   -0.0955    0.0774    0.0635   -0.1815
          60   -0.0624   -0.0177    0.0178   -0.0124    0.0557   -0.0453   -0.0467    0.1310
          61    0.0020   -0.0015    0.0098   -0.0143    0.0084   -0.0003   -0.0043    0.0023
          62    0.0115   -0.0086   -0.0007   -0.0460   -0.0039    0.0005    0.0057    0.0005
          63    0.0147   -0.0098    0.0008   -0.0532   -0.0035    0.0020    0.0064    0.0005
          64    0.0070    0.0002    0.0056   -0.0092   -0.0058   -0.0051    0.0029    0.0057
          65    0.0175   -0.0086   -0.0013   -0.0509    0.0036    0.0077    0.0017   -0.0033
          66    0.0231   -0.0072    0.0055   -0.0532   -0.0025    0.0026    0.0045    0.0032


   Root No.      33        34        35        36        37        38        39        40

                33 A      34 A      35 A      36 A      37 A      38 A      39 A      40 A   

                1185.7    1191.7    1218.9    1259.5    1296.4    1330.8    1346.2    1370.6
  
           1    0.0168    0.0053   -0.0393    0.0366    0.0196   -0.0080   -0.0153   -0.0252
           2    0.0121    0.0405    0.0105    0.0137   -0.0164    0.0204    0.0061   -0.0041
           3   -0.0044   -0.0107    0.0111   -0.0157    0.0022   -0.0104    0.0012    0.0224
           4    0.0002   -0.0196   -0.0089   -0.0353   -0.0167   -0.0089    0.0302   -0.0098
           5    0.0015    0.0025    0.0109    0.0097    0.0098    0.0109   -0.0231    0.0014
           6    0.0010   -0.0087   -0.0188   -0.0011   -0.0040   -0.0116    0.0153   -0.0038
           7    0.0036   -0.0058   -0.0122    0.0229    0.0076    0.0089   -0.0021    0.0413
           8   -0.0165   -0.0049   -0.0006   -0.0184    0.0028   -0.0070    0.0022   -0.0186
           9    0.0024    0.0083    0.0080   -0.0024   -0.0061    0.0012    0.0016   -0.0110
          10   -0.0173    0.0065   -0.0096    0.0200   -0.0310    0.0247    0.0336   -0.0051
          11   -0.0047   -0.0043   -0.0052   -0.0084    0.0090   -0.0037   -0.0004    0.0185
          12    0.0110    0.0073    0.0057    0.0024   -0.0002   -0.0041   -0.0078   -0.0126
          13   -0.0239    0.0007   -0.0100   -0.0059    0.0121    0.0069   -0.0030    0.0091
          14    0.0209    0.0077    0.0027   -0.0022   -0.0131   -0.0132    0.0095    0.0086
          15   -0.0151   -0.0271    0.0068   -0.0020    0.0123    0.0079   -0.0108   -0.0157
          16   -0.0052   -0.0024    0.0015    0.0071   -0.0142   -0.0191   -0.0164   -0.0042
          17   -0.0104   -0.0041    0.0105    0.0171    0.0047   -0.0346    0.0108   -0.0108
          18    0.0091    0.0057   -0.0060   -0.0159   -0.0004    0.0359   -0.0059    0.0109
          19    0.0060   -0.0126    0.0208   -0.0019   -0.0155    0.0115    0.0089   -0.0136
          20    0.0038   -0.0039   -0.0087    0.0127    0.0019    0.0048    0.0001    0.0108
          21   -0.0017    0.0048   -0.0024   -0.0047    0.0042   -0.0070   -0.0035   -0.0022
          22   -0.0151    0.0077   -0.0093   -0.0105    0.0143    0.0001   -0.0035    0.0212
          23    0.0086   -0.0094    0.0156   -0.0055   -0.0038   -0.0072   -0.0028   -0.0161
          24    0.0003    0.0102   -0.0127    0.0139   -0.0051    0.0079    0.0053    0.0042
          25    0.0144    0.0017    0.0102   -0.0075   -0.0024   -0.0149   -0.0040   -0.0142
          26   -0.0005   -0.0084    0.0016    0.0089   -0.0055    0.0138    0.0056    0.0023
          27   -0.0078    0.0064   -0.0046   -0.0070    0.0061   -0.0060   -0.0032    0.0031
          28    0.0074    0.0036    0.0067   -0.0018   -0.0041    0.0002   -0.0285    0.0036
          29    0.0011   -0.0016   -0.0057   -0.0065    0.0023    0.0072    0.0103    0.0010
          30   -0.0025   -0.0000    0.0023    0.0058   -0.0011   -0.0065   -0.0017   -0.0018
          31   -0.0792    0.0315    0.1169   -0.0656   -0.0230    0.0155    0.0119    0.0358
          32    0.0010   -0.1167   -0.0314   -0.0123    0.0288   -0.0245   -0.0124    0.0091
          33    0.0417    0.0769   -0.0272    0.0421   -0.0084    0.0080    0.0018   -0.0120
          34   -0.0148    0.0760    0.0036   -0.0507   -0.0019   -0.0243   -0.0049   -0.0635
          35   -0.0175   -0.0502   -0.0157    0.0129    0.0290   -0.0173   -0.0260    0.0415
          36    0.0182   -0.0125    0.0100    0.0248   -0.0236    0.0366    0.0306    0.0142
          37   -0.0402    0.0427    0.1364    0.0236    0.0099    0.0390   -0.0557    0.0804
          38    0.0324   -0.0235   -0.0537   -0.0927   -0.0389    0.0778    0.0317    0.0698
          39   -0.0185    0.0198    0.0462    0.0360    0.0134   -0.0038   -0.0244    0.0194
          40   -0.0462   -0.0183    0.0872    0.0381    0.0306    0.0357   -0.0622    0.0637
          41    0.0338   -0.0081   -0.0570   -0.0552   -0.0279    0.0184    0.0318    0.0035
          42   -0.0250    0.0161    0.0416    0.0706    0.0330   -0.0628   -0.0201   -0.0680
          43   -0.0339    0.0914    0.0189   -0.0606    0.0018   -0.0324   -0.0175   -0.0760
          44   -0.0125   -0.0817   -0.0449    0.0056    0.0523   -0.0436   -0.0400    0.0548
          45    0.0045   -0.0201   -0.0082    0.0067    0.0117   -0.0122   -0.0132    0.0161
          46    0.1613    0.0429    0.0202   -0.0748    0.0553   -0.0017   -0.0615    0.0126
          47   -0.0537   -0.0353   -0.0239   -0.0216    0.0571    0.1491   -0.0610   -0.1144
          48   -0.0135    0.0034    0.0030    0.0184   -0.0184   -0.0128    0.0126   -0.0036
          49    0.1385    0.0053    0.0227   -0.0691    0.0456   -0.0339   -0.0447    0.0326
          50   -0.0319   -0.0058   -0.0158   -0.0019    0.0144    0.0486   -0.0100   -0.0255
          51   -0.0018    0.0095    0.0197    0.0382   -0.0646   -0.1349    0.0714    0.1018
          52   -0.0514    0.0353   -0.0058   -0.0764    0.0172   -0.0471   -0.0115   -0.0344
          53   -0.0305    0.0244   -0.0233   -0.0286    0.0201   -0.0262   -0.0108    0.0002
          54    0.0336   -0.0222    0.0214    0.0431   -0.0212    0.0356    0.0120    0.0092
          55    0.0482   -0.1386    0.0796    0.0200   -0.0155    0.0099   -0.0093   -0.0547
          56   -0.0217    0.0695   -0.0301   -0.0225    0.0133   -0.0139   -0.0011    0.0244
          57    0.0004    0.0152   -0.0155    0.0148   -0.0039    0.0082    0.0050    0.0062
          58    0.0339   -0.0199    0.0254    0.0058   -0.0183   -0.0027    0.0040   -0.0210
          59   -0.0620    0.0725   -0.0532   -0.0383    0.0502   -0.0356   -0.0241    0.0205
          60    0.0410   -0.0487    0.0311    0.0308   -0.0342    0.0293    0.0182   -0.0092
          61    0.0087    0.0126    0.0644    0.0395    0.1538   -0.0153    0.1610   -0.0180
          62   -0.0004   -0.0024   -0.0033   -0.0042    0.0079    0.0047    0.0192   -0.0007
          63   -0.0022   -0.0027   -0.0138   -0.0070   -0.0459   -0.0005   -0.0566    0.0047
          64    0.0318    0.0156    0.0298   -0.0109    0.1044    0.0396    0.0911    0.0038
          65   -0.0256   -0.0117   -0.0245    0.0055   -0.1082   -0.0357   -0.1146    0.0006
          66    0.0133    0.0096    0.0180   -0.0010    0.0689    0.0219    0.0764   -0.0010


   Root No.      41        42        43        44        45        46        47        48

                41 A      42 A      43 A      44 A      45 A      46 A      47 A      48 A   

                1382.8    1397.1    1402.2    1424.9    1445.7    1840.1    1892.2    1921.6
  
           1   -0.0131   -0.0325    0.0123    0.0050   -0.0238   -0.0013   -0.0115    0.0047
           2    0.0031    0.0107   -0.0018   -0.0469    0.0546   -0.0023   -0.0012    0.0090
           3    0.0005    0.0110   -0.0091    0.0356   -0.0331    0.0009    0.0090   -0.0133
           4    0.0156    0.0302    0.0025   -0.0062    0.0186    0.0011   -0.0112   -0.0082
           5   -0.0013    0.0129    0.0322    0.0329   -0.0050    0.0013    0.0091    0.0155
           6    0.0014   -0.0137   -0.0245   -0.0253    0.0020   -0.0008   -0.0049   -0.0116
           7    0.0252    0.0135   -0.0185    0.0163    0.0576    0.0266    0.0058   -0.0033
           8    0.0255   -0.0297    0.0117    0.0235   -0.0279    0.0086    0.0004   -0.0020
           9   -0.0124    0.0026    0.0041   -0.0135   -0.0106   -0.0154   -0.0035    0.0029
          10   -0.0317   -0.0005    0.0012    0.0490    0.0049    0.0048   -0.0352   -0.0005
          11   -0.0018   -0.0143    0.0403   -0.0181    0.0089   -0.0029    0.0091   -0.0120
          12    0.0107    0.0134   -0.0347    0.0013   -0.0103    0.0013    0.0034    0.0083
          13    0.0131    0.0035    0.0117   -0.0273   -0.0129   -0.0301    0.1249   -0.1270
          14   -0.0073    0.0116   -0.0257    0.0418   -0.0354    0.0097   -0.0216    0.0183
          15    0.0027   -0.0166    0.0229   -0.0339    0.0472    0.0093   -0.0566    0.0584
          16    0.0094    0.0003   -0.0162   -0.0120   -0.0030   -0.0065    0.1205    0.1515
          17    0.0136   -0.0009   -0.0371   -0.0243   -0.0043    0.0023   -0.0459   -0.0585
          18   -0.0147    0.0004    0.0363    0.0236    0.0051   -0.0006    0.0100    0.0131
          19   -0.0022    0.0029    0.0143   -0.0249   -0.0506   -0.1031   -0.0137    0.0096
          20    0.0046    0.0063   -0.0022   -0.0040   -0.0031   -0.1492   -0.0150    0.0099
          21   -0.0037   -0.0050   -0.0041    0.0109    0.0209    0.1444    0.0163   -0.0111
          22    0.0173    0.0091    0.0040   -0.0210   -0.0278    0.0415   -0.1096    0.1042
          23   -0.0133   -0.0120   -0.0025    0.0186    0.0420   -0.0352    0.0255   -0.0242
          24    0.0028    0.0072    0.0000   -0.0060   -0.0269    0.0083    0.0437   -0.0416
          25   -0.0160   -0.0107   -0.0101    0.0280    0.0412    0.0342    0.0159   -0.0131
          26    0.0047    0.0078    0.0106   -0.0269   -0.0382    0.1810    0.0101   -0.0051
          27    0.0024   -0.0030   -0.0039    0.0108    0.0155   -0.1479   -0.0139    0.0090
          28    0.0049    0.0012    0.0059   -0.0025    0.0010    0.0057   -0.0953   -0.1138
          29   -0.0037    0.0001    0.0054    0.0039    0.0010   -0.0022    0.0370    0.0439
          30    0.0021   -0.0003   -0.0061   -0.0027   -0.0012    0.0005   -0.0082   -0.0096
          31    0.0193    0.0455   -0.0014   -0.0040    0.0297    0.0009    0.0084   -0.0067
          32    0.0019   -0.0162    0.0037    0.0558   -0.0509    0.0031   -0.0051    0.0017
          33   -0.0118   -0.0048   -0.0060   -0.0265    0.0120   -0.0017   -0.0014   -0.0012
          34   -0.0435   -0.0192    0.0240   -0.0141   -0.0486    0.0065   -0.0003   -0.0002
          35   -0.1193    0.0799   -0.0235   -0.0419    0.0311   -0.0027   -0.0000    0.0002
          36    0.1769   -0.0741    0.0046    0.0717    0.0157    0.0026    0.0021   -0.0023
          37   -0.0439   -0.0774   -0.0703    0.0046   -0.0431   -0.0000    0.0132    0.0170
          38   -0.0618   -0.1246   -0.1073   -0.0707   -0.0047   -0.0010   -0.0063   -0.0110
          39   -0.0108   -0.0302   -0.0281   -0.0041   -0.0206   -0.0012    0.0086   -0.0000
          40   -0.0499   -0.0991   -0.0609    0.0063   -0.0524   -0.0001    0.0102    0.0099
          41   -0.0031   -0.0054   -0.0116   -0.0205    0.0189    0.0012   -0.0043   -0.0007
          42    0.0577    0.1276    0.1137    0.0716    0.0117    0.0013   -0.0016    0.0027
          43   -0.1247    0.0121    0.0221   -0.0614   -0.0388    0.0458   -0.0004    0.0021
          44   -0.1686    0.1007   -0.0307   -0.0313    0.0026   -0.0013    0.0054   -0.0065
          45   -0.0804    0.0487   -0.0115   -0.0308   -0.0010   -0.0155   -0.0014    0.0009
          46    0.0353    0.0219   -0.0160   -0.0159   -0.0294   -0.0041    0.0300   -0.0002
          47    0.0259    0.0559   -0.1265    0.0284   -0.0067    0.0001   -0.0073   -0.0003
          48   -0.0025    0.0036   -0.0160    0.0071   -0.0021    0.0025   -0.0066    0.0066
          49    0.0255   -0.0010    0.0249   -0.0277   -0.0141   -0.0024    0.0187    0.0059
          50    0.0015    0.0094   -0.0171    0.0054    0.0026   -0.0005   -0.0003   -0.0081
          51   -0.0352   -0.0622    0.1294   -0.0248    0.0203    0.0012   -0.0047    0.0042
          52   -0.0114   -0.0353   -0.0061    0.0525    0.0340    0.1179    0.0169   -0.0123
          53    0.0020   -0.0145   -0.0125    0.0374    0.0409   -0.0678   -0.0038    0.0019
          54    0.0040    0.0212    0.0127   -0.0456   -0.0405    0.0174   -0.0026    0.0029
          55   -0.0274   -0.0306    0.0174   -0.0078    0.0903    0.0326    0.0132   -0.0075
          56    0.0110    0.0094   -0.0114    0.0112   -0.0187   -0.0266   -0.0530    0.0484
          57    0.0051    0.0091   -0.0007   -0.0088   -0.0322    0.0039    0.0579   -0.0563
          58   -0.0176   -0.0068   -0.0032    0.0142    0.0130    0.1238    0.0274   -0.0213
          59    0.0050   -0.0100   -0.0188    0.0335    0.0736   -0.0356   -0.0240    0.0211
          60    0.0033    0.0102    0.0157   -0.0304   -0.0666   -0.0112    0.0087   -0.0086
          61   -0.0084   -0.0081   -0.0373   -0.0126   -0.0053   -0.0012    0.0115    0.0097
          62   -0.0037   -0.0003    0.0020    0.0027    0.0007   -0.0034    0.0568    0.0682
          63    0.0055    0.0026    0.0079    0.0014    0.0009    0.0032   -0.0518   -0.0611
          64   -0.0194   -0.0036    0.0225    0.0140    0.0037    0.0018   -0.0369   -0.0476
          65    0.0227    0.0048   -0.0142   -0.0158   -0.0021    0.0031   -0.0463   -0.0536
          66   -0.0152   -0.0036    0.0065    0.0095    0.0007   -0.0030    0.0494    0.0585


   Root No.      49        50        51        52        53        54        55        56

                49 A      50 A      51 A      52 A      53 A      54 A      55 A      56 A   

                2868.5    2942.6    2963.7    2968.7    3026.6    3039.3    3049.1    3057.2
  
           1   -0.0210   -0.0014    0.0000   -0.0010   -0.0003    0.0003    0.0006   -0.0002
           2   -0.0317   -0.0022   -0.0001   -0.0014    0.0005   -0.0003   -0.0001    0.0001
           3   -0.0503   -0.0034    0.0000   -0.0021   -0.0003    0.0003   -0.0005    0.0001
           4   -0.0007   -0.0004    0.0004   -0.0035    0.0006    0.0014    0.0242    0.0001
           5    0.0026   -0.0016    0.0040   -0.0341    0.0001    0.0010    0.0193    0.0001
           6    0.0033   -0.0011    0.0046   -0.0384   -0.0015   -0.0014   -0.0257   -0.0001
           7    0.0021   -0.0195   -0.0001    0.0002    0.0144   -0.0001   -0.0006   -0.0005
           8    0.0006   -0.0145   -0.0001    0.0001    0.0313   -0.0002   -0.0011   -0.0018
           9    0.0053   -0.0501   -0.0004    0.0021   -0.0207    0.0001   -0.0000    0.0018
          10    0.0000    0.0000   -0.0112   -0.0012   -0.0000    0.0002   -0.0000    0.0000
          11    0.0000    0.0001   -0.0351   -0.0040    0.0002    0.0291   -0.0022    0.0001
          12    0.0002    0.0002   -0.0401   -0.0045   -0.0002   -0.0282    0.0020   -0.0001
          13    0.0006   -0.0000    0.0003   -0.0001    0.0001   -0.0004   -0.0005   -0.0001
          14    0.0005   -0.0002   -0.0002   -0.0001   -0.0003    0.0003   -0.0001   -0.0001
          15   -0.0009    0.0001   -0.0002   -0.0000    0.0001   -0.0001    0.0003    0.0001
          16    0.0002    0.0000   -0.0001    0.0002    0.0000    0.0005   -0.0002    0.0000
          17   -0.0001   -0.0000   -0.0001   -0.0003   -0.0000    0.0002    0.0004   -0.0000
          18   -0.0000    0.0000   -0.0001    0.0001   -0.0000   -0.0003   -0.0003    0.0000
          19    0.0000    0.0000    0.0000   -0.0000    0.0034   -0.0001   -0.0002    0.0208
          20    0.0000   -0.0009   -0.0000    0.0001   -0.0037    0.0001    0.0002   -0.0251
          21   -0.0002    0.0006    0.0000   -0.0000    0.0014   -0.0000   -0.0001    0.0107
          22   -0.0006    0.0001   -0.0002   -0.0000   -0.0001    0.0001    0.0001    0.0022
          23    0.0001   -0.0000    0.0001   -0.0000    0.0001   -0.0001   -0.0001    0.0036
          24    0.0000    0.0000   -0.0001   -0.0000   -0.0000    0.0001    0.0000   -0.0056
          25    0.0001   -0.0001   -0.0000    0.0000   -0.0001    0.0000    0.0001   -0.0300
          26   -0.0001    0.0002   -0.0001   -0.0000   -0.0001    0.0000   -0.0000   -0.0001
          27    0.0002   -0.0003   -0.0000    0.0000    0.0001   -0.0000   -0.0000    0.0104
          28   -0.0000   -0.0000    0.0000   -0.0001   -0.0000   -0.0001    0.0001    0.0000
          29    0.0000   -0.0000   -0.0001   -0.0000    0.0000    0.0000   -0.0000   -0.0000
          30    0.0000   -0.0000   -0.0001   -0.0001   -0.0000   -0.0000   -0.0000    0.0000
          31    0.2546    0.0141   -0.0006    0.0139    0.0017   -0.0001    0.0030   -0.0002
          32    0.3873    0.0283   -0.0003    0.0145    0.0035   -0.0003    0.0030   -0.0004
          33    0.6125    0.0382   -0.0005    0.0234    0.0034   -0.0003    0.0038   -0.0004
          34   -0.0264    0.2540    0.0018   -0.0076   -0.1729    0.0017    0.0089    0.0086
          35   -0.0272    0.3203    0.0021   -0.0069   -0.2074    0.0019    0.0095    0.0088
          36   -0.0281    0.2898    0.0019   -0.0064   -0.2268    0.0021    0.0100    0.0110
          37    0.0070   -0.0028    0.0154   -0.1261   -0.0077   -0.0112   -0.1723   -0.0005
          38   -0.0025   -0.0001   -0.0026    0.0215    0.0026    0.0045    0.0708    0.0002
          39   -0.0293    0.0050   -0.0364    0.2973    0.0197    0.0305    0.4616    0.0014
          40   -0.0087    0.0099   -0.0206    0.1714   -0.0015   -0.0078   -0.1201   -0.0005
          41   -0.0286    0.0176   -0.0471    0.3895   -0.0015   -0.0200   -0.3022   -0.0014
          42   -0.0121    0.0078   -0.0198    0.1642   -0.0017   -0.0101   -0.1546   -0.0007
          43    0.0033   -0.0166   -0.0001    0.0006    0.0011   -0.0000   -0.0001    0.0027
          44    0.0115   -0.1412   -0.0014    0.0077   -0.1719    0.0012    0.0034    0.0120
          45   -0.0362    0.3110    0.0033   -0.0189    0.4732   -0.0035   -0.0104   -0.0339
          46   -0.0002   -0.0002    0.0562    0.0062    0.0005    0.0732   -0.0048    0.0002
          47    0.0001    0.0000    0.0013    0.0002    0.0002    0.0398   -0.0026    0.0001
[...]
 T-DIPOLE    0.1540         C 10 -- H 22         +14.0% ( 47.9%)      3.3%
 TRAVEL      0.0996         C  2 -- C  6          +9.8% ( 40.2%)     68.6%
 RED. MASS   0.5200         C  2 -- H 14          +8.0% ( 36.2%)      0.1%
 EFF. MASS   5.0472

 VIBRATION   40   40A         ATOM PAIR      ENERGY CONTRIBUTION    RADIAL
 FREQ.      1370.61         C  1 -- C  3         +11.7% ( 45.5%)     29.3%
 T-DIPOLE    0.1564         C  3 -- H 15         +11.0% ( 44.3%)      0.2%
 TRAVEL      0.0890         C  3 -- H 12          +9.8% ( 41.8%)      0.1%
 RED. MASS   0.6774         C  3 -- C  7          +9.8% ( 41.8%)     73.1%
 EFF. MASS   6.2096

 VIBRATION   41   41A         ATOM PAIR      ENERGY CONTRIBUTION    RADIAL
 FREQ.      1382.82         C  3 -- H 15         +20.4% ( 52.3%)      4.5%
 T-DIPOLE    0.1276         C  3 -- H 12         +19.4% ( 51.0%)      4.7%
 TRAVEL      0.1066         C  4 -- C  6          +7.2% ( 31.0%)     99.7%
 RED. MASS   0.4038         C  4 -- C  5          +6.0% ( 28.3%)     58.5%
 EFF. MASS   4.2875

 VIBRATION   42   42A         ATOM PAIR      ENERGY CONTRIBUTION    RADIAL
 FREQ.      1397.08         C  2 -- H 14         +12.9% ( 44.9%)      4.0%
 T-DIPOLE    0.0474         C  2 -- H 13         +11.0% ( 41.5%)      7.4%
 TRAVEL      0.0958         C  1 -- C  2         +11.0% ( 41.4%)     86.4%
 RED. MASS   0.4613         C  1 -- C  3          +9.7% ( 38.8%)     82.1%
 EFF. MASS   5.2565

 VIBRATION   43   43A         ATOM PAIR      ENERGY CONTRIBUTION    RADIAL
 FREQ.      1402.25         C  4 -- C  6         +15.7% ( 54.7%)     51.6%
 T-DIPOLE    0.1804         C  2 -- C  6         +13.0% ( 49.7%)     79.0%
 TRAVEL      0.0787         C  4 -- C  5         +11.6% ( 47.0%)     50.7%
 RED. MASS   1.0071         C  4 -- H 17          +9.6% ( 42.7%)      8.7%
 EFF. MASS   7.7608

 VIBRATION   44   44A         ATOM PAIR      ENERGY CONTRIBUTION    RADIAL
 FREQ.      1424.93         C  1 -- C  5         +12.8% ( 54.7%)     65.6%
 T-DIPOLE    0.0828         C  4 -- C  5         +11.9% ( 52.7%)     99.5%
 TRAVEL      0.0682         C  1 -- C  2          +7.7% ( 42.4%)      1.2%
 RED. MASS   1.2280         C  1 -- C  3          +6.9% ( 40.3%)     46.8%
 EFF. MASS  10.1622

 VIBRATION   45   45A         ATOM PAIR      ENERGY CONTRIBUTION    RADIAL
 FREQ.      1445.69         C  8 -- C  9         +11.7% ( 52.6%)     99.8%
 T-DIPOLE    0.1855         C  1 -- C  5         +11.5% ( 52.2%)     82.2%
 TRAVEL      0.0665         C  1 -- C  3         +10.9% ( 50.7%)     85.4%
 RED. MASS   1.4778         C  3 -- C  7         +10.6% ( 50.2%)     93.7%
 EFF. MASS  10.5521

 VIBRATION   46   46A         ATOM PAIR      ENERGY CONTRIBUTION    RADIAL
 FREQ.      1840.14         C  7 -- C  9         +43.0% ( 97.0%)     99.9%
 T-DIPOLE    0.2514         C  8 -- C  9         +15.0% ( 57.2%)     61.4%
 TRAVEL      0.0555         C  3 -- C  7         +13.6% ( 54.6%)     48.3%
 RED. MASS   5.1745         C  9 -- H 20         +13.0% ( 53.3%)      4.5%
 EFF. MASS  11.8831         C  7 -- H 18         +12.5% ( 52.4%)      5.3%

 VIBRATION   47   47A         ATOM PAIR      ENERGY CONTRIBUTION    RADIAL
 FREQ.      1892.22         C  5 -- C  8         +23.2% ( 72.0%)     99.1%
 T-DIPOLE    0.6126         C  6 -- C 10         +19.5% ( 66.0%)    100.0%
 TRAVEL      0.0548         C  4 -- C  5          +9.6% ( 46.4%)     50.1%
 RED. MASS   2.6952         C  1 -- C  5          +8.8% ( 44.4%)     25.4%
 EFF. MASS  11.8741

 VIBRATION   48   48A         ATOM PAIR      ENERGY CONTRIBUTION    RADIAL
 FREQ.      1921.58         C  6 -- C 10         +25.0% ( 73.5%)    100.0%
 T-DIPOLE    0.0812         C  5 -- C  8         +19.1% ( 64.3%)     99.3%
 TRAVEL      0.0543         C  2 -- C  6         +10.5% ( 47.7%)     41.0%
 RED. MASS   2.9444         C  4 -- C  6         +10.2% ( 46.9%)     40.8%
 EFF. MASS  11.9095

 VIBRATION   49   49A         ATOM PAIR      ENERGY CONTRIBUTION    RADIAL
 FREQ.      2868.49         C  1 -- H 11         +95.9% ( 99.5%)    100.0%
 T-DIPOLE    0.0839         C  1 -- C  3          +1.0% ( 10.2%)      8.2%
 TRAVEL      0.1277         C  1 -- C  2          +1.0% ( 10.2%)      9.2%
 RED. MASS   0.9120         C  1 -- C  5          +1.0% ( 10.1%)      7.8%
 EFF. MASS   1.4405

 VIBRATION   50   50A         ATOM PAIR      ENERGY CONTRIBUTION    RADIAL
 FREQ.      2942.61         C  3 -- H 12         +64.8% ( 83.4%)     97.9%
 T-DIPOLE    0.0410         C  3 -- H 15         +32.2% ( 58.8%)     94.0%
 TRAVEL      0.1224         C  3 -- C  7          +1.1% ( 10.9%)      0.1%
 RED. MASS   0.5621         C  1 -- C  3          +1.1% ( 10.8%)      0.5%
 EFF. MASS   1.5290

 VIBRATION   51   51A         ATOM PAIR      ENERGY CONTRIBUTION    RADIAL
 FREQ.      2963.71         C  4 -- H 17         +54.1% ( 76.2%)     97.2%
 T-DIPOLE    0.0754         C  4 -- H 16         +42.5% ( 67.6%)     95.9%
 TRAVEL      0.1218         C  4 -- C  6          +1.1% ( 10.7%)      0.0%
 RED. MASS   0.5109         C  4 -- C  5          +1.1% ( 10.7%)      0.0%
 EFF. MASS   1.5337

 VIBRATION   52   52A         ATOM PAIR      ENERGY CONTRIBUTION    RADIAL
 FREQ.      2968.70         C  2 -- H 14         +62.7% ( 82.0%)     98.0%
 T-DIPOLE    0.0691         C  2 -- H 13         +33.4% ( 59.9%)     94.3%
 TRAVEL      0.1217         C  2 -- C  6          +1.1% ( 10.8%)      0.2%
 RED. MASS   0.5423         C  1 -- C  2          +1.1% ( 10.7%)      0.3%
 EFF. MASS   1.5327

 VIBRATION   53   53A         ATOM PAIR      ENERGY CONTRIBUTION    RADIAL
 FREQ.      3026.63         C  3 -- H 15         +66.4% ( 80.5%)     99.2%
 T-DIPOLE    0.0726         C  3 -- H 12         +31.1% ( 55.1%)     94.4%
 TRAVEL      0.1315         C  7 -- H 18          +1.0% (  9.7%)    100.0%
 RED. MASS   0.5266         C  3 -- C  7          +0.7% (  8.1%)     19.2%
 EFF. MASS   1.2892

 VIBRATION   54   54A         ATOM PAIR      ENERGY CONTRIBUTION    RADIAL
 FREQ.      3039.29         C  4 -- H 16         +55.5% ( 73.5%)     98.2%
 T-DIPOLE    0.1367         C  4 -- H 17         +42.7% ( 64.5%)     96.6%
 TRAVEL      0.1314         C  4 -- C  5          +0.7% (  8.3%)     36.4%
 RED. MASS   0.4871         C  4 -- C  6          +0.7% (  8.3%)     35.3%
 EFF. MASS   1.2841

 VIBRATION   55   55A         ATOM PAIR      ENERGY CONTRIBUTION    RADIAL
 FREQ.      3049.12         C  2 -- H 13         +65.2% ( 79.8%)     99.0%
 T-DIPOLE    0.0795         C  2 -- H 14         +32.8% ( 56.6%)     94.6%
 TRAVEL      0.1309         C  2 -- C  6          +0.7% (  8.2%)     32.6%
 RED. MASS   0.5236         C  1 -- C  2          +0.7% (  8.2%)     35.4%
 EFF. MASS   1.2900

 VIBRATION   56   56A         ATOM PAIR      ENERGY CONTRIBUTION    RADIAL
 FREQ.      3057.18         C  7 -- H 18         +51.1% ( 72.6%)    100.0%
 T-DIPOLE    0.2635         C  9 -- H 20         +44.1% ( 67.4%)    100.0%
 TRAVEL      0.1227         C  8 -- H 19          +2.0% ( 14.3%)     99.9%
 RED. MASS   0.4448         C  7 -- C  9          +1.1% ( 10.6%)      0.1%
 EFF. MASS   1.4647

 VIBRATION   57   57A         ATOM PAIR      ENERGY CONTRIBUTION    RADIAL
 FREQ.      3071.76         C  8 -- H 19         +51.5% ( 72.9%)    100.0%
 T-DIPOLE    0.2939         C  7 -- H 18         +27.4% ( 53.2%)     99.9%
 TRAVEL      0.1192         C  9 -- H 20         +17.5% ( 42.6%)     99.8%
 RED. MASS   0.3683         C  8 -- C  9          +1.1% ( 10.7%)      2.1%
 EFF. MASS   1.5440

 VIBRATION   58   58A         ATOM PAIR      ENERGY CONTRIBUTION    RADIAL
 FREQ.      3081.17         C  8 -- H 19         +43.4% ( 66.8%)    100.0%
 T-DIPOLE    0.4193         C  9 -- H 20         +35.4% ( 60.3%)    100.0%
 TRAVEL      0.1176         C  7 -- H 18         +17.5% ( 42.4%)     99.8%
 RED. MASS   0.3439         C  8 -- C  9          +1.3% ( 11.6%)     93.1%
 EFF. MASS   1.5820

 VIBRATION   59   59A         ATOM PAIR      ENERGY CONTRIBUTION    RADIAL
 FREQ.      3144.10         C 10 -- H 22         +57.5% ( 75.8%)     96.6%
 T-DIPOLE    0.3317         C 10 -- H 21         +40.9% ( 64.0%)     93.4%
 TRAVEL      0.1242         C  6 -- C 10          +1.5% ( 12.4%)     99.0%
 RED. MASS   0.4982
 EFF. MASS   1.3901

 VIBRATION   60   60A         ATOM PAIR      ENERGY CONTRIBUTION    RADIAL
 FREQ.      3146.81         C 10 -- H 21         +57.2% ( 77.5%)     97.9%
 T-DIPOLE    0.2006         C 10 -- H 22         +41.4% ( 66.0%)     95.9%
 TRAVEL      0.1156         C  6 -- C 10          +1.3% ( 11.7%)      0.5%
 RED. MASS   0.5464
 EFF. MASS   1.6048

      SYMMETRY NUMBER FOR POINT-GROUP C1  =  1


          SYSTEM IS A GROUND STATE



 InChI=1S/C10H12/c1-8-6-9-4-2-3-5-10(9)7-8/h2-4,10H,1,5-7H2


          MOLECULE IS NOT LINEAR

          THERE ARE 60 GENUINE VIBRATIONS IN THIS SYSTEM
          THIS THERMODYNAMICS CALCULATION IS LIMITED TO
          MOLECULES WHICH HAVE NO INTERNAL ROTATIONS




                    CALCULATED THERMODYNAMIC PROPERTIES
                                          *
   TEMP. (K)   PARTITION FUNCTION   H.O.F.    ENTHALPY  HEAT CAPACITY ENTROPY
                                   KCAL/MOL   CAL/MOLE    CAL/K/MOL  CAL/K/MOL


 298.00  VIB.     0.4768D+02                  3443.5817    28.2786    19.2354
         ROT.     0.5460D+06                   888.2813     2.9808    29.2327
         INT.     0.2604D+08                  4331.8630    31.2594    48.4681
         TRA.     0.1470D+28                  1480.4688     4.9680    40.5480
         TOT.                       30.602    5812.3318    36.2275    89.0160

 200.00  VIB.     0.8190D+01                  1299.7214    15.7723    10.6774
         ROT.     0.3002D+06                   596.1620     2.9808    28.0440
         INT.     0.2459D+07                  1895.8834    18.7531    38.7214
         TRA.     0.8080D+27                   993.6033     4.9680    38.5668
         TOT.                       27.679    2889.4866    23.7211    77.2882

 210.00  VIB.     0.9661D+01                  1463.2901    16.9469    11.4752
         ROT.     0.3230D+06                   625.9700     2.9808    28.1894
         INT.     0.3121D+07                  2089.2602    19.9277    39.6647
         TRA.     0.8694D+27                  1043.2834     4.9680    38.8092
         TOT.                       27.922    3132.5436    24.8957    78.4739

 220.00  VIB.     0.1144D+02                  1638.7632    18.1528    12.2913
         ROT.     0.3464D+06                   655.7781     2.9808    28.3281
         INT.     0.3961D+07                  2294.5413    21.1336    40.6194
         TRA.     0.9322D+27                  1092.9636     4.9680    39.0403
         TOT.                       28.177    3387.5049    26.1016    79.6597

 230.00  VIB.     0.1358D+02                  1826.4409    19.3873    13.1254
         ROT.     0.3702D+06                   685.5862     2.9808    28.4606
         INT.     0.5029D+07                  2512.0271    22.3681    41.5860
         TRA.     0.9965D+27                  1142.6437     4.9680    39.2612
         TOT.                       28.444    3654.6708    27.3361    80.8471

 240.00  VIB.     0.1619D+02                  2026.5950    20.6475    13.9770
         ROT.     0.3946D+06                   715.3943     2.9808    28.5875
         INT.     0.6388D+07                  2741.9894    23.6283    42.5645
         TRA.     0.1062D+28                  1192.3239     4.9680    39.4726
         TOT.                       28.724    3934.3133    28.5963    82.0371

 250.00  VIB.     0.1935D+02                  2239.4653    21.9299    14.8458
         ROT.     0.4196D+06                   745.2024     2.9808    28.7091
         INT.     0.8121D+07                  2984.6677    24.9108    43.5550
         TRA.     0.1129D+28                  1242.0041     4.9680    39.6754
         TOT.                       29.016    4226.6718    29.8788    83.2304

 260.00  VIB.     0.2322D+02                  2465.2559    23.2310    15.7312
         ROT.     0.4450D+06                   775.0105     2.9808    28.8261
         INT.     0.1033D+08                  3240.2664    26.2118    44.5573
         TRA.     0.1198D+28                  1291.6842     4.9680    39.8703
         TOT.                       29.321    4531.9506    31.1798    84.4276

 270.00  VIB.     0.2794D+02                  2704.1342    24.5469    16.6326
         ROT.     0.4709D+06                   804.8186     2.9808    28.9385
         INT.     0.1316D+08                  3508.9528    27.5277    45.5712
         TRA.     0.1267D+28                  1341.3644     4.9680    40.0578
         TOT.                       29.640    4850.3172    32.4957    85.6289

 280.00  VIB.     0.3372D+02                  2956.2299    25.8738    17.5493
         ROT.     0.4973D+06                   834.6267     2.9808    29.0470
         INT.     0.1677D+08                  3790.8566    28.8546    46.5962
         TRA.     0.1338D+28                  1391.0445     4.9680    40.2384
         TOT.                       29.971    5181.9012    33.8227    86.8347

 290.00  VIB.     0.4083D+02                  3221.6354    27.2082    18.4805
         ROT.     0.5242D+06                   864.4348     2.9808    29.1516
         INT.     0.2140D+08                  4086.0702    30.1890    47.6320
         TRA.     0.1411D+28                  1440.7247     4.9680    40.4128
         TOT.                       30.316    5526.7949    35.1570    88.0448

 300.00  VIB.     0.4958D+02                  3500.4067    28.5464    19.4254
         ROT.     0.5515D+06                   894.2429     2.9808    29.2526
         INT.     0.2735D+08                  4394.6497    31.5272    48.6780
         TRA.     0.1484D+28                  1490.4049     4.9680    40.5812
         TOT.                       30.674    5885.0545    36.4952    89.2592

 310.00  VIB.     0.6039D+02                  3792.5652    29.8851    20.3833
         ROT.     0.5793D+06                   924.0510     2.9808    29.3503
         INT.     0.3499D+08                  4716.6162    32.8659    49.7336
         TRA.     0.1559D+28                  1540.0850     4.9680    40.7441
         TOT.                       31.046    6256.7013    37.8339    90.4777

 320.00  VIB.     0.7376D+02                  4098.0996    31.2211    21.3532
         ROT.     0.6076D+06                   953.8591     2.9808    29.4450
         INT.     0.4482D+08                  5051.9588    34.2019    50.7982
         TRA.     0.1635D+28                  1589.7652     4.9680    40.9018
         TOT.                       31.431    6641.7240    39.1699    91.7000

 330.00  VIB.     0.9034D+02                  4416.9686    32.5515    22.3343
         ROT.     0.6363D+06                   983.6672     2.9808    29.5367
         INT.     0.5748D+08                  5400.6358    35.5323    51.8710
         TRA.     0.1713D+28                  1639.4454     4.9680    41.0547
         TOT.                       31.829    7040.0811    40.5004    92.9257

 340.00  VIB.     0.1109D+03                  4749.1030    33.8738    23.3257
         ROT.     0.6654D+06                  1013.4753     2.9808    29.6257
         INT.     0.7383D+08                  5762.5784    36.8546    52.9514
         TRA.     0.1791D+28                  1689.1255     4.9680    41.2030
         TOT.                       32.241    7451.7039    41.8226    94.1545

 350.00  VIB.     0.1366D+03                  5094.4093    35.1855    24.3266
         ROT.     0.6950D+06                  1043.2834     2.9808    29.7121
         INT.     0.9494D+08                  6137.6927    38.1663    54.0387
         TRA.     0.1871D+28                  1738.8057     4.9680    41.3470
         TOT.                       32.666    7876.4984    43.1343    95.3857

 360.00  VIB.     0.1686D+03                  5452.7713    36.4846    25.3361
         ROT.     0.7250D+06                  1073.0915     2.9808    29.7961
         INT.     0.1222D+09                  6525.8628    39.4654    55.1321
         TRA.     0.1951D+28                  1788.4859     4.9680    41.4870
         TOT.                       33.104    8314.3486    44.4335    96.6191

 370.00  VIB.     0.2086D+03                  5824.0538    37.7693    26.3533
         ROT.     0.7554D+06                  1102.8996     2.9808    29.8777
         INT.     0.1576D+09                  6926.9534    40.7501    56.2310
         TRA.     0.2033D+28                  1838.1660     4.9680    41.6231
         TOT.                       33.554    8765.1194    45.7182    97.8541

 380.00  VIB.     0.2587D+03                  6208.1048    39.0381    27.3774
         ROT.     0.7863D+06                  1132.7077     2.9808    29.9572
         INT.     0.2034D+09                  7340.8125    42.0189    57.3346
         TRA.     0.2116D+28                  1887.8462     4.9680    41.7556
         TOT.                       34.018    9228.6587    46.9869    99.0902

 390.00  VIB.     0.3215D+03                  6604.7578    40.2895    28.4076
         ROT.     0.8175D+06                  1162.5158     2.9808    30.0347
         INT.     0.2629D+09                  7767.2736    43.2704    58.4423
         TRA.     0.2200D+28                  1937.5263     4.9680    41.8846
         TOT.                       34.494    9704.7999    48.2384   100.3269

 400.00  VIB.     0.4005D+03                  7013.8344    41.5226    29.4433
         ROT.     0.8491D+06                  1192.3239     2.9808    30.1101
         INT.     0.3401D+09                  8206.1583    44.5035    59.5534
         TRA.     0.2285D+28                  1987.2065     4.9680    42.0104
         TOT.                       34.983   10193.3648    49.4715   101.5638

   *: NOTE: HEATS OF FORMATION ARE RELATIVE TO THE
            ELEMENTS IN THEIR STANDARD STATE AT 298K
              (=  Standard Enthalpy of Formation).

            Hvib:  Zero-point energy is not included.
                   frequencies of less than zero cm-1 are not included.
            Hrot = (3/2)RT
            Htra = (3/2)RT + pV = (5/2)RT

            Heat capacity is Cp, not Cv

          For more information, see: HTTP://OpenMOPAC.net/Manual/thermochemistry.html


           FORCE CONSTANT IN CARTESIAN COORDINATES (Millidynes/A)

    ATOM   CHEMICAL       X               Y               Z
   NUMBER   SYMBOL  FORCE CONSTANT  FORCE CONSTANT  FORCE CONSTANT

      1       C        8.482891        8.611749        8.477629
      2       C        8.070009        8.518434        8.618494
      3       C        8.634993        8.301289        8.401363
      4       C        8.452787        8.756196        8.702110
      5       C       14.404752        6.062440        7.911087
      6       C       15.447797        7.208570        5.431519
      7       C        9.298513       10.254458        7.303996
      8       C       12.492836        6.805192        8.439279
      9       C       10.471560        9.710264        7.400233
     10       C       14.378979        7.022223        5.259190
     11       H        1.117201        1.663810        3.124607
     12       H        1.735988        2.325898        2.165021
     13       H        1.281294        0.717553        4.426989
     14       H        1.281568        3.777908        1.279289
     15       H        0.671805        1.283455        4.407200
     16       H        0.764234        0.650624        4.896100
     17       H        0.785700        4.546337        0.920636
     18       H        2.385040        2.957358        0.929563
     19       H        0.982074        1.846156        3.448046
     20       H        4.651070        0.611233        1.013921
     21       H        0.912621        3.309939        2.235248
     22       H        3.458114        1.214477        1.786854

 **********************
 *                    *
 * JOB ENDED NORMALLY *
 *                    *
 **********************



 TOTAL JOB TIME:             2.25 SECONDS

 == MOPAC DONE ==
