 *******************************************************************************
 ** Site#: 14399        For non-commercial use only    Version 18.184L 64BITS **
 *******************************************************************************
 ** Cite this program as: MOPAC2016, Version: 18.184L, James J. P. Stewart,   **
 ** Stewart Computational Chemistry, web: HTTP://OpenMOPAC.net. Days left:  18**
 *******************************************************************************
 **                                                                           **
 **                                MOPAC2016                                  **
 **                                                                           **
 *******************************************************************************

                              PM3 CALCULATION RESULTS

 *******************************************************************************
 *  CALCULATION DONE:                                Sat Jun 15 10:12:34 2019  *
 *  PM3        - The PM3 Hamiltonian to be used
 *  PRECISE    - CRITERIA TO BE INCREASED BY 100 TIMES
 *  NOSYM      - POINT-GROUP SYMMETRY SET TO C1
 *  THREADS=1  - MULTI-THREADING NOT USED
 *  T=         - A TIME OF 172800.0 SECONDS REQUESTED
 *  DUMP=N     - RESTART FILE WRITTEN EVERY  7200.000 SECONDS
 *******************************************************************************
pm3  precise nosym THREADS=1
 InChI=1S/C9H10/c1-7-6-8-4-2-3-5-9(7)8/h2-5,7H,6H2,1H3

   ATOM   CHEMICAL          X               Y               Z
  NUMBER   SYMBOL      (ANGSTROMS)     (ANGSTROMS)     (ANGSTROMS)
 
     1       C         -1.42150000  *   0.05860000  *  -0.52980000  *
     2       C         -0.98070000  *  -1.33090000  *  -0.54990000  *
     3       C         -2.38370000  *   0.40380000  *   0.61040000  *
     4       C         -0.02060000  *   0.47960000  *  -0.23590000  *
     5       C          0.40940000  *  -0.87280000  *  -0.26220000  *
     6       C          1.72130000  *  -1.24710000  *  -0.05140000  *
     7       C          0.83710000  *   1.53510000  *   0.00200000  *
     8       C          2.62460000  *  -0.18360000  *   0.19660000  *
     9       C          2.19110000  *   1.18030000  *   0.22300000  *
    10       H         -1.76870000  *   0.42900000  *  -1.51990000  *
    11       H         -1.37970000  *  -1.96750000  *   0.27110000  *
    12       H         -1.05570000  *  -1.80020000  *  -1.55520000  *
    13       H         -3.36430000  *  -0.08530000  *   0.43120000  *
    14       H         -1.98610000  *   0.06690000  *   1.59290000  *
    15       H         -2.53760000  *   1.50290000  *   0.64630000  *
    16       H          3.66860000  *  -0.40920000  *   0.37040000  *
    17       H          2.03540000  *  -2.28180000  *  -0.07360000  *
    18       H          2.91530000  *   1.96090000  *   0.41590000  *
    19       H          0.49590000  *   2.56140000  *   0.01790000  *
 


          CARTESIAN COORDINATES 

    NO.       ATOM           X           Y           Z

     1         C         -1.4215      0.0586     -0.5298
     2         C         -0.9807     -1.3309     -0.5499
     3         C         -2.3837      0.4038      0.6104
     4         C         -0.0206      0.4796     -0.2359
     5         C          0.4094     -0.8728     -0.2622
     6         C          1.7213     -1.2471     -0.0514
     7         C          0.8371      1.5351      0.0020
     8         C          2.6246     -0.1836      0.1966
     9         C          2.1911      1.1803      0.2230
    10         H         -1.7687      0.4290     -1.5199
    11         H         -1.3797     -1.9675      0.2711
    12         H         -1.0557     -1.8002     -1.5552
    13         H         -3.3643     -0.0853      0.4312
    14         H         -1.9861      0.0669      1.5929
    15         H         -2.5376      1.5029      0.6463
    16         H          3.6686     -0.4092      0.3704
    17         H          2.0354     -2.2818     -0.0736
    18         H          2.9153      1.9609      0.4159
    19         H          0.4959      2.5614      0.0179

  H: (PM3): J. J. P. STEWART, J. COMP. CHEM. 10, 209 (1989).
  C: (PM3): J. J. P. STEWART, J. COMP. CHEM. 10, 209 (1989).

           Empirical Formula: C9 H10  =    19 atoms



      MOLECULAR POINT GROUP   :   C1  


      RHF CALCULATION, NO. OF DOUBLY OCCUPIED LEVELS = 23


          Geometry optimization using EF

          DIAGONAL MATRIX USED AS START HESSIAN

 CYCLE:     1 TIME:   0.004 TIME LEFT:  2.00D  GRAD.:   194.024 HEAT:  52.08855
 CYCLE:     2 TIME:   0.008 TIME LEFT:  2.00D  GRAD.:    65.889 HEAT:  44.54416
 CYCLE:     3 TIME:   0.008 TIME LEFT:  2.00D  GRAD.:    56.224 HEAT:  43.61638
 CYCLE:     4 TIME:   0.004 TIME LEFT:  2.00D  GRAD.:    68.337 HEAT:  43.43380
 CYCLE:     5 TIME:   0.004 TIME LEFT:  2.00D  GRAD.:    27.519 HEAT:  42.39743
 CYCLE:     6 TIME:   0.008 TIME LEFT:  2.00D  GRAD.:    27.649 HEAT:  42.20685
 CYCLE:     7 TIME:   0.004 TIME LEFT:  2.00D  GRAD.:    24.690 HEAT:  42.01379
 CYCLE:     8 TIME:   0.004 TIME LEFT:  2.00D  GRAD.:    19.367 HEAT:  41.88429
 CYCLE:     9 TIME:   0.004 TIME LEFT:  2.00D  GRAD.:    17.246 HEAT:  41.80306
 CYCLE:    10 TIME:   0.004 TIME LEFT:  2.00D  GRAD.:    18.184 HEAT:  41.77623
 CYCLE:    11 TIME:   0.008 TIME LEFT:  2.00D  GRAD.:     8.743 HEAT:  41.70007
 CYCLE:    12 TIME:   0.008 TIME LEFT:  2.00D  GRAD.:     5.309 HEAT:  41.67844
 CYCLE:    13 TIME:   0.004 TIME LEFT:  2.00D  GRAD.:     5.305 HEAT:  41.66054
 CYCLE:    14 TIME:   0.004 TIME LEFT:  2.00D  GRAD.:     7.075 HEAT:  41.65292
 CYCLE:    15 TIME:   0.004 TIME LEFT:  2.00D  GRAD.:     6.704 HEAT:  41.64189
 CYCLE:    16 TIME:   0.004 TIME LEFT:  2.00D  GRAD.:     7.856 HEAT:  41.63818
 CYCLE:    17 TIME:   0.004 TIME LEFT:  2.00D  GRAD.:     5.887 HEAT:  41.62731
 CYCLE:    18 TIME:   0.004 TIME LEFT:  2.00D  GRAD.:     5.541 HEAT:  41.62272
 CYCLE:    19 TIME:   0.004 TIME LEFT:  2.00D  GRAD.:     2.867 HEAT:  41.61324
 CYCLE:    20 TIME:   0.004 TIME LEFT:  2.00D  GRAD.:     3.677 HEAT:  41.61192
 CYCLE:    21 TIME:   0.004 TIME LEFT:  2.00D  GRAD.:     1.927 HEAT:  41.60612
 CYCLE:    22 TIME:   0.004 TIME LEFT:  2.00D  GRAD.:     3.718 HEAT:  41.60559
 CYCLE:    23 TIME:   0.004 TIME LEFT:  2.00D  GRAD.:     2.461 HEAT:  41.60045
 CYCLE:    24 TIME:   0.000 TIME LEFT:  2.00D  GRAD.:     4.419 HEAT:  41.60108
 CYCLE:    25 TIME:   0.004 TIME LEFT:  2.00D  GRAD.:     1.650 HEAT:  41.59351
 CYCLE:    26 TIME:   0.004 TIME LEFT:  2.00D  GRAD.:     1.889 HEAT:  41.58974
 CYCLE:    27 TIME:   0.004 TIME LEFT:  2.00D  GRAD.:     2.321 HEAT:  41.58397
 CYCLE:    28 TIME:   0.004 TIME LEFT:  2.00D  GRAD.:     2.387 HEAT:  41.57845
 CYCLE:    29 TIME:   0.004 TIME LEFT:  2.00D  GRAD.:     2.010 HEAT:  41.57370
 CYCLE:    30 TIME:   0.004 TIME LEFT:  2.00D  GRAD.:     1.795 HEAT:  41.56939
 CYCLE:    31 TIME:   0.004 TIME LEFT:  2.00D  GRAD.:     1.653 HEAT:  41.56305
 CYCLE:    32 TIME:   0.004 TIME LEFT:  2.00D  GRAD.:     1.832 HEAT:  41.56017
 CYCLE:    33 TIME:   0.004 TIME LEFT:  2.00D  GRAD.:     1.288 HEAT:  41.55853
 CYCLE:    34 TIME:   0.004 TIME LEFT:  2.00D  GRAD.:     0.814 HEAT:  41.55722
 CYCLE:    35 TIME:   0.004 TIME LEFT:  2.00D  GRAD.:     0.620 HEAT:  41.55589
 CYCLE:    36 TIME:   0.004 TIME LEFT:  2.00D  GRAD.:     0.534 HEAT:  41.55503
 CYCLE:    37 TIME:   0.004 TIME LEFT:  2.00D  GRAD.:     0.396 HEAT:  41.55464
 CYCLE:    38 TIME:   0.004 TIME LEFT:  2.00D  GRAD.:     0.312 HEAT:  41.55444
 CYCLE:    39 TIME:   0.004 TIME LEFT:  2.00D  GRAD.:     0.280 HEAT:  41.55426
 CYCLE:    40 TIME:   0.004 TIME LEFT:  2.00D  GRAD.:     0.227 HEAT:  41.55406
 CYCLE:    41 TIME:   0.004 TIME LEFT:  2.00D  GRAD.:     0.176 HEAT:  41.55396
 CYCLE:    42 TIME:   0.004 TIME LEFT:  2.00D  GRAD.:     0.159 HEAT:  41.55388
 CYCLE:    43 TIME:   0.004 TIME LEFT:  2.00D  GRAD.:     0.171 HEAT:  41.55382
 CYCLE:    44 TIME:   0.004 TIME LEFT:  2.00D  GRAD.:     0.176 HEAT:  41.55374
 CYCLE:    45 TIME:   0.004 TIME LEFT:  2.00D  GRAD.:     0.172 HEAT:  41.55367
 CYCLE:    46 TIME:   0.004 TIME LEFT:  2.00D  GRAD.:     0.159 HEAT:  41.55361
 CYCLE:    47 TIME:   0.004 TIME LEFT:  2.00D  GRAD.:     0.157 HEAT:  41.55354
 CYCLE:    48 TIME:   0.004 TIME LEFT:  2.00D  GRAD.:     0.179 HEAT:  41.55346
 CYCLE:    49 TIME:   0.000 TIME LEFT:  2.00D  GRAD.:     0.216 HEAT:  41.55337
 CYCLE:    50 TIME:   0.004 TIME LEFT:  2.00D  GRAD.:     0.239 HEAT:  41.55326
 CYCLE:    51 TIME:   0.004 TIME LEFT:  2.00D  GRAD.:     0.243 HEAT:  41.55314
 CYCLE:    52 TIME:   0.004 TIME LEFT:  2.00D  GRAD.:     0.215 HEAT:  41.55301
 CYCLE:    53 TIME:   0.004 TIME LEFT:  2.00D  GRAD.:     0.212 HEAT:  41.55286
 CYCLE:    54 TIME:   0.004 TIME LEFT:  2.00D  GRAD.:     0.193 HEAT:  41.55276
 CYCLE:    55 TIME:   0.004 TIME LEFT:  2.00D  GRAD.:     0.196 HEAT:  41.55265
 CYCLE:    56 TIME:   0.004 TIME LEFT:  2.00D  GRAD.:     0.141 HEAT:  41.55261
 CYCLE:    57 TIME:   0.004 TIME LEFT:  2.00D  GRAD.:     0.215 HEAT:  41.55258
 CYCLE:    58 TIME:   0.004 TIME LEFT:  2.00D  GRAD.:     0.129 HEAT:  41.55254
 CYCLE:    59 TIME:   0.004 TIME LEFT:  2.00D  GRAD.:     0.089 HEAT:  41.55249
 CYCLE:    60 TIME:   0.004 TIME LEFT:  2.00D  GRAD.:     0.085 HEAT:  41.55246
 CYCLE:    61 TIME:   0.004 TIME LEFT:  2.00D  GRAD.:     0.065 HEAT:  41.55243
 CYCLE:    62 TIME:   0.004 TIME LEFT:  2.00D  GRAD.:     0.052 HEAT:  41.55242
 CYCLE:    63 TIME:   0.004 TIME LEFT:  2.00D  GRAD.:     0.078 HEAT:  41.55241
 CYCLE:    64 TIME:   0.004 TIME LEFT:  2.00D  GRAD.:     0.059 HEAT:  41.55240
 CYCLE:    65 TIME:   0.004 TIME LEFT:  2.00D  GRAD.:     0.041 HEAT:  41.55238

     GRADIENT =  0.04101  IS LESS THAN CUTOFF =  0.05000



 -------------------------------------------------------------------------------
 pm3  precise nosym THREADS=1
 InChI=1S/C9H10/c1-7-6-8-4-2-3-5-9(7)8/h2-5,7H,6H2,1H3



     GEOMETRY OPTIMISED USING EIGENVECTOR FOLLOWING (EF).     
     SCF FIELD WAS ACHIEVED                                   


                              PM3 CALCULATION
                                                       MOPAC2016 (Version: 18.184L)
                                                       Sat Jun 15 10:12:34 2019
                                                       No. of days remaining =  18




          FINAL HEAT OF FORMATION =         41.55238 KCAL/MOL =     173.85515 KJ/MOL


          TOTAL ENERGY            =      -1219.28864 EV
          ELECTRONIC ENERGY       =      -6187.97523 EV  POINT GROUP:     C1  
          CORE-CORE REPULSION     =       4968.68659 EV
          COSMO AREA              =        163.65 SQUARE ANGSTROMS
          COSMO VOLUME            =        160.68 CUBIC ANGSTROMS

          GRADIENT NORM           =          0.04101 = 0.00941 PER ATOM
          IONIZATION POTENTIAL    =          9.358058 EV
          HOMO LUMO ENERGIES (EV) =         -9.358  0.390
          NO. OF FILLED LEVELS    =         23
          MOLECULAR WEIGHT        =        118.1780

          MOLECULAR DIMENSIONS (Angstroms)

            Atom       Atom       Distance
            H    16    H    13     7.11010
            H    19    H    12     4.80509
            H    10    H    14     3.01947


          SCF CALCULATIONS        =         72
 
          WALL-CLOCK TIME         =          0.273 SECONDS
          COMPUTATION TIME        =          0.249 SECONDS




   ATOM   CHEMICAL          X               Y               Z
  NUMBER   SYMBOL      (ANGSTROMS)     (ANGSTROMS)     (ANGSTROMS)
 
     1       C         -1.44747334  *   0.10891156  *  -0.50392869  *
     2       C         -0.95495677  *  -1.40136496  *  -0.53576951  *
     3       C         -2.43523920  *   0.43597404  *   0.58109519  *
     4       C         -0.00484088  *   0.47609433  *  -0.21602732  *
     5       C          0.42969740  *  -0.87402552  *  -0.25843161  *
     6       C          1.73877545  *  -1.22409485  *  -0.06947681  *
     7       C          0.85579002  *   1.51240591  *   0.02149628  *
     8       C          2.63087018  *  -0.16097365  *   0.17449728  *
     9       C          2.20535911  *   1.15796339  *   0.21914086  *
    10       H         -1.80156902  *   0.47193206  *  -1.49069578  *
    11       H         -1.37861975  *  -2.04097923  *   0.25215012  *
    12       H         -1.08056669  *  -1.90969526  *  -1.50184540  *
    13       H         -3.41039620  *  -0.02331924  *   0.37409475  *
    14       H         -2.10220649  *   0.07454690  *   1.56298109  *
    15       H         -2.58663876  *   1.51981680  *   0.66333719  *
    16       H          3.69017707  *  -0.38903758  *   0.33343033  *
    17       H          2.08554305  *  -2.26000936  *  -0.10166135  *
    18       H          2.93502657  *   1.95132074  *   0.41282229  *
    19       H          0.53087721  *   2.55528639  *   0.05857132  *

                             CARTESIAN COORDINATES

   1    C       -1.447473344     0.108911560    -0.503928690
   2    C       -0.954956772    -1.401364964    -0.535769508
   3    C       -2.435239202     0.435974041     0.581095188
   4    C       -0.004840876     0.476094334    -0.216027320
   5    C        0.429697400    -0.874025520    -0.258431609
   6    C        1.738775447    -1.224094850    -0.069476810
   7    C        0.855790017     1.512405912     0.021496282
   8    C        2.630870178    -0.160973649     0.174497278
   9    C        2.205359112     1.157963385     0.219140858
  10    H       -1.801569018     0.471932056    -1.490695777
  11    H       -1.378619748    -2.040979234     0.252150123
  12    H       -1.080566688    -1.909695256    -1.501845400
  13    H       -3.410396195    -0.023319238     0.374094754
  14    H       -2.102206492     0.074546900     1.562981087
  15    H       -2.586638759     1.519816803     0.663337186
  16    H        3.690177070    -0.389037576     0.333430332
  17    H        2.085543046    -2.260009357    -0.101661351
  18    H        2.935026569     1.951320744     0.412822291
  19    H        0.530877209     2.555286388     0.058571319


           Empirical Formula: C9 H10  =    19 atoms



      MOLECULAR POINT GROUP   :   C1  


                  EIGENVALUES  
 -41.40993 -35.32090 -30.22495 -28.55982 -25.20280 -22.48289 -20.61397 -19.19028
 -17.85230 -16.72695 -15.93454 -15.03974 -14.69507 -14.18033 -14.05556 -13.36637
 -12.76294 -12.68846 -12.26986 -11.93485 -11.53758  -9.65630  -9.35806   0.39023
   0.49039   2.82824   2.87097   3.13741   3.18072   3.49219   3.63604   3.82743
   3.83623   3.94521   4.06463   4.28253   4.38394   4.54471   4.69016   4.98447
   5.02292   5.05146   5.50126   5.54704   6.13740   6.52547


              NET ATOMIC CHARGES AND DIPOLE CONTRIBUTIONS

  ATOM NO.   TYPE          CHARGE      No. of ELECS.   s-Pop       p-Pop       
    1          C          -0.020144        4.0201     1.17884     2.84130
    2          C          -0.041378        4.0414     1.16553     2.87585
    3          C          -0.102203        4.1022     1.13459     2.96761
    4          C          -0.124527        4.1245     1.20793     2.91659
    5          C          -0.119966        4.1200     1.20458     2.91538
    6          C          -0.065270        4.0653     1.16624     2.89903
    7          C          -0.060374        4.0604     1.16600     2.89437
    8          C          -0.104576        4.1046     1.18089     2.92369
    9          C          -0.107660        4.1077     1.18104     2.92662
   10          H           0.074888        0.9251     0.92511
   11          H           0.065389        0.9346     0.93461
   12          H           0.061907        0.9381     0.93809
   13          H           0.040543        0.9595     0.95946
   14          H           0.046208        0.9538     0.95379
   15          H           0.042925        0.9571     0.95707
   16          H           0.099445        0.9006     0.90055
   17          H           0.107585        0.8924     0.89242
   18          H           0.099659        0.9003     0.90034
   19          H           0.107548        0.8925     0.89245
 DIPOLE           X         Y         Z       TOTAL
 POINT-CHG.    -0.521    -0.113    -0.050     0.536
 HYBRID         0.103     0.020     0.029     0.109
 SUM           -0.418    -0.094    -0.021     0.429


          ATOMIC ORBITAL ELECTRON POPULATIONS

     Atom    s        px        py        pz   
    1  C   1.17884   0.91161   0.94376   0.98594
    2  C   1.16553   0.91546   0.95137   1.00902
    3  C   1.13459   0.97796   1.00862   0.98104
    4  C   1.20793   0.96248   0.95249   1.00162
    5  C   1.20458   0.94938   0.96727   0.99874
    6  C   1.16624   0.92531   0.97395   0.99977
    7  C   1.16600   0.93140   0.96727   0.99570
    8  C   1.18089   0.97994   0.93864   1.00511
    9  C   1.18104   0.95744   0.96118   1.00800
   10  H   0.92511
   11  H   0.93461
   12  H   0.93809
   13  H   0.95946
   14  H   0.95379
   15  H   0.95707
   16  H   0.90055
   17  H   0.89242
   18  H   0.90034
   19  H   0.89245
 *******************************************************************************
 ** Site#: 14399        For non-commercial use only    Version 18.184L 64BITS **
 *******************************************************************************
 ** Cite this program as: MOPAC2016, Version: 18.184L, James J. P. Stewart,   **
 ** Stewart Computational Chemistry, web: HTTP://OpenMOPAC.net. Days left:  18**
 *******************************************************************************
 **                                                                           **
 **                                MOPAC2016                                  **
 **                                                                           **
 *******************************************************************************

                              PM3 CALCULATION RESULTS

 *******************************************************************************
 *  CALCULATION DONE:                                Sat Jun 15 10:12:34 2019  *
 *  PM3        - The PM3 Hamiltonian to be used
 *  OLDGEO     - PREVIOUS GEOMETRY TO BE USED
 *  PRECISE    - CRITERIA TO BE INCREASED BY 100 TIMES
 *  NOSYM      - POINT-GROUP SYMMETRY SET TO C1
 *  THREADS=1  - MULTI-THREADING NOT USED
 *  T=         - A TIME OF 172800.0 SECONDS REQUESTED
 *  DUMP=N     - RESTART FILE WRITTEN EVERY  7200.000 SECONDS
 *  THERMO     - THERMODYNAMIC QUANTITIES TO BE CALCULATED
 *******************************************************************************
oldgeo thermo nosym precise THREADS=1  pm3
 InChI=1S/C9H10/c1-7-6-8-4-2-3-5-9(7)8/h2-5,7H,6H2,1H3

   ATOM   CHEMICAL          X               Y               Z
  NUMBER   SYMBOL      (ANGSTROMS)     (ANGSTROMS)     (ANGSTROMS)
 
     1       C         -1.44747334  *   0.10891156  *  -0.50392869  *
     2       C         -0.95495677  *  -1.40136496  *  -0.53576951  *
     3       C         -2.43523920  *   0.43597404  *   0.58109519  *
     4       C         -0.00484088  *   0.47609433  *  -0.21602732  *
     5       C          0.42969740  *  -0.87402552  *  -0.25843161  *
     6       C          1.73877545  *  -1.22409485  *  -0.06947681  *
     7       C          0.85579002  *   1.51240591  *   0.02149628  *
     8       C          2.63087018  *  -0.16097365  *   0.17449728  *
     9       C          2.20535911  *   1.15796339  *   0.21914086  *
    10       H         -1.80156902  *   0.47193206  *  -1.49069578  *
    11       H         -1.37861975  *  -2.04097923  *   0.25215012  *
    12       H         -1.08056669  *  -1.90969526  *  -1.50184540  *
    13       H         -3.41039620  *  -0.02331924  *   0.37409475  *
    14       H         -2.10220649  *   0.07454690  *   1.56298109  *
    15       H         -2.58663876  *   1.51981680  *   0.66333719  *
    16       H          3.69017707  *  -0.38903758  *   0.33343033  *
    17       H          2.08554305  *  -2.26000936  *  -0.10166135  *
    18       H          2.93502657  *   1.95132074  *   0.41282229  *
    19       H          0.53087721  *   2.55528639  *   0.05857132  *
 


          CARTESIAN COORDINATES 

    NO.       ATOM           X           Y           Z

     1         C         -1.4475      0.1089     -0.5039
     2         C         -0.9550     -1.4014     -0.5358
     3         C         -2.4352      0.4360      0.5811
     4         C         -0.0048      0.4761     -0.2160
     5         C          0.4297     -0.8740     -0.2584
     6         C          1.7388     -1.2241     -0.0695
     7         C          0.8558      1.5124      0.0215
     8         C          2.6309     -0.1610      0.1745
     9         C          2.2054      1.1580      0.2191
    10         H         -1.8016      0.4719     -1.4907
    11         H         -1.3786     -2.0410      0.2522
    12         H         -1.0806     -1.9097     -1.5018
    13         H         -3.4104     -0.0233      0.3741
    14         H         -2.1022      0.0745      1.5630
    15         H         -2.5866      1.5198      0.6633
    16         H          3.6902     -0.3890      0.3334
    17         H          2.0855     -2.2600     -0.1017
    18         H          2.9350      1.9513      0.4128
    19         H          0.5309      2.5553      0.0586

  H: (PM3): J. J. P. STEWART, J. COMP. CHEM. 10, 209 (1989).
  C: (PM3): J. J. P. STEWART, J. COMP. CHEM. 10, 209 (1989).

           Empirical Formula: C9 H10  =    19 atoms



      MOLECULAR POINT GROUP   :   C1  


      RHF CALCULATION, NO. OF DOUBLY OCCUPIED LEVELS = 23



          HEAT OF FORMATION =      41.552379 KCALS/MOLE


          CARTESIAN COORDINATE DERIVATIVES

   NUMBER  ATOM         X            Y            Z

     1       C     -0.003856    -0.000788     0.000019
     2       C     -0.002677    -0.000369    -0.001607
     3       C      0.006562     0.000807     0.000686
     4       C      0.027387     0.003174     0.013123
     5       C     -0.034805     0.011155     0.016150
     6       C      0.002291    -0.015043    -0.030618
     7       C     -0.008615    -0.018421    -0.030078
     8       C      0.024639     0.009109     0.013463
     9       C     -0.033233     0.011929     0.012468
    10       H      0.003905    -0.002438    -0.006677
    11       H      0.004175     0.003573     0.003765
    12       H     -0.004784     0.004635     0.006482
    13       H      0.004758    -0.001977     0.002031
    14       H      0.008233     0.004270     0.002879
    15       H      0.002229     0.011616     0.008933
    16       H     -0.002486    -0.000804    -0.001693
    17       H     -0.001325     0.003623     0.001390
    18       H      0.015840    -0.009106    -0.002815
    19       H     -0.008239    -0.014945    -0.007901
 


          GRADIENT NORM =   0.09286

          MOLECULAR WEIGHT =  118.18



          ROTATIONAL CONSTANTS IN CM(-1)

          A =    0.11599424   B =    0.04671995   C =    0.03561380



           PRINCIPAL MOMENTS OF INERTIA IN UNITS OF 10**(-40)*GRAM-CM**2

          A =      241.3290   B =      599.1611   C =      786.0092


          ORIENTATION OF MOLECULE IN FORCE CALCULATION

    NO.       ATOM         X         Y         Z

     1          C      -0.6275    0.6269    1.5527
     2          C       0.9614    0.6269    1.5527
     3          C      -1.2663    1.9878    1.5527
     4          C      -0.5351   -0.0590    0.2037
     5          C       0.8838   -0.0667    0.2166
     6          C       1.6186   -0.6054   -0.8041
     7          C      -1.2581   -0.5847   -0.8317
     8          C       0.8797   -1.1498   -1.8734
     9          C      -0.5068   -1.1392   -1.8872
    10          H      -1.0625   -0.0198    2.3422
    11          H       1.4223    1.6253    1.5356
    12          H       1.4250    0.0433    2.3601
    13          H      -1.1278    2.4852    2.5213
    14          H      -0.8392    2.6426    0.7816
    15          H      -2.3451    1.9173    1.3640
    16          H       1.4216   -1.5924   -2.7159
    17          H       2.7114   -0.6188   -0.8045
    18          H      -1.0386   -1.5734   -2.7404
    19          H      -2.3509   -0.5816   -0.8524


    FIRST DERIVATIVES WILL BE USED IN THE CALCULATION OF SECOND DERIVATIVES

    FOR POINT-GROUP C1   THERE ARE   1 UNIQUE SYMMETRY FUNCTIONS.

 STEP:   1 TIME =     0.02 SECS, INTEGRAL =      0.02 TIME LEFT: 172799.98
 STEP:   2 TIME =     0.02 SECS, INTEGRAL =      0.04 TIME LEFT: 172799.96
 STEP:   3 TIME =     0.02 SECS, INTEGRAL =      0.05 TIME LEFT: 172799.95
 STEP:   4 TIME =     0.02 SECS, INTEGRAL =      0.07 TIME LEFT: 172799.93
 STEP:   5 TIME =     0.02 SECS, INTEGRAL =      0.08 TIME LEFT: 172799.92
 STEP:   6 TIME =     0.02 SECS, INTEGRAL =      0.10 TIME LEFT: 172799.90
 STEP:   7 TIME =     0.02 SECS, INTEGRAL =      0.12 TIME LEFT: 172799.88
 STEP:   8 TIME =     0.02 SECS, INTEGRAL =      0.13 TIME LEFT: 172799.87
 STEP:   9 TIME =     0.02 SECS, INTEGRAL =      0.15 TIME LEFT: 172799.85
 STEP:  10 TIME =     0.02 SECS, INTEGRAL =      0.16 TIME LEFT: 172799.84
 STEP:  11 TIME =     0.02 SECS, INTEGRAL =      0.18 TIME LEFT: 172799.82
 STEP:  12 TIME =     0.02 SECS, INTEGRAL =      0.20 TIME LEFT: 172799.80
 STEP:  13 TIME =     0.02 SECS, INTEGRAL =      0.22 TIME LEFT: 172799.78
 STEP:  14 TIME =     0.02 SECS, INTEGRAL =      0.23 TIME LEFT: 172799.77
 STEP:  15 TIME =     0.02 SECS, INTEGRAL =      0.25 TIME LEFT: 172799.75
 STEP:  16 TIME =     0.02 SECS, INTEGRAL =      0.27 TIME LEFT: 172799.73
 STEP:  17 TIME =     0.02 SECS, INTEGRAL =      0.29 TIME LEFT: 172799.71
 STEP:  18 TIME =     0.02 SECS, INTEGRAL =      0.30 TIME LEFT: 172799.70
 STEP:  19 TIME =     0.02 SECS, INTEGRAL =      0.32 TIME LEFT: 172799.68
 STEP:  20 TIME =     0.02 SECS, INTEGRAL =      0.34 TIME LEFT: 172799.66
 STEP:  21 TIME =     0.02 SECS, INTEGRAL =      0.35 TIME LEFT: 172799.65
 STEP:  22 TIME =     0.02 SECS, INTEGRAL =      0.37 TIME LEFT: 172799.63
 STEP:  23 TIME =     0.02 SECS, INTEGRAL =      0.38 TIME LEFT: 172799.62
 STEP:  24 TIME =     0.02 SECS, INTEGRAL =      0.40 TIME LEFT: 172799.60
 STEP:  25 TIME =     0.02 SECS, INTEGRAL =      0.42 TIME LEFT: 172799.58
 STEP:  26 TIME =     0.02 SECS, INTEGRAL =      0.43 TIME LEFT: 172799.57
 STEP:  27 TIME =     0.02 SECS, INTEGRAL =      0.45 TIME LEFT: 172799.55
 STEP:  28 TIME =     0.02 SECS, INTEGRAL =      0.47 TIME LEFT: 172799.53
 STEP:  29 TIME =     0.02 SECS, INTEGRAL =      0.48 TIME LEFT: 172799.52
 STEP:  30 TIME =     0.02 SECS, INTEGRAL =      0.50 TIME LEFT: 172799.50
 STEP:  31 TIME =     0.02 SECS, INTEGRAL =      0.52 TIME LEFT: 172799.48
 STEP:  32 TIME =     0.02 SECS, INTEGRAL =      0.54 TIME LEFT: 172799.46
 STEP:  33 TIME =     0.02 SECS, INTEGRAL =      0.55 TIME LEFT: 172799.45
 STEP:  34 TIME =     0.02 SECS, INTEGRAL =      0.57 TIME LEFT: 172799.43
 STEP:  35 TIME =     0.02 SECS, INTEGRAL =      0.59 TIME LEFT: 172799.41
 STEP:  36 TIME =     0.02 SECS, INTEGRAL =      0.60 TIME LEFT: 172799.40
 STEP:  37 TIME =     0.02 SECS, INTEGRAL =      0.62 TIME LEFT: 172799.38
 STEP:  38 TIME =     0.02 SECS, INTEGRAL =      0.63 TIME LEFT: 172799.37
 STEP:  39 TIME =     0.02 SECS, INTEGRAL =      0.65 TIME LEFT: 172799.35
 STEP:  40 TIME =     0.02 SECS, INTEGRAL =      0.67 TIME LEFT: 172799.33
 STEP:  41 TIME =     0.02 SECS, INTEGRAL =      0.68 TIME LEFT: 172799.32
 STEP:  42 TIME =     0.02 SECS, INTEGRAL =      0.70 TIME LEFT: 172799.30
 STEP:  43 TIME =     0.02 SECS, INTEGRAL =      0.71 TIME LEFT: 172799.29
 STEP:  44 TIME =     0.02 SECS, INTEGRAL =      0.73 TIME LEFT: 172799.27
 STEP:  45 TIME =     0.02 SECS, INTEGRAL =      0.75 TIME LEFT: 172799.25
 STEP:  46 TIME =     0.02 SECS, INTEGRAL =      0.76 TIME LEFT: 172799.24
 STEP:  47 TIME =     0.02 SECS, INTEGRAL =      0.78 TIME LEFT: 172799.22
 STEP:  48 TIME =     0.02 SECS, INTEGRAL =      0.80 TIME LEFT: 172799.20
 STEP:  49 TIME =     0.02 SECS, INTEGRAL =      0.81 TIME LEFT: 172799.19
 STEP:  50 TIME =     0.02 SECS, INTEGRAL =      0.83 TIME LEFT: 172799.17
 STEP:  51 TIME =     0.02 SECS, INTEGRAL =      0.84 TIME LEFT: 172799.16
 STEP:  52 TIME =     0.02 SECS, INTEGRAL =      0.86 TIME LEFT: 172799.14
 STEP:  53 TIME =     0.02 SECS, INTEGRAL =      0.88 TIME LEFT: 172799.12
 STEP:  54 TIME =     0.02 SECS, INTEGRAL =      0.89 TIME LEFT: 172799.11
 STEP:  55 TIME =     0.02 SECS, INTEGRAL =      0.91 TIME LEFT: 172799.09
 STEP:  56 TIME =     0.02 SECS, INTEGRAL =      0.93 TIME LEFT: 172799.07
 STEP:  57 TIME =     0.02 SECS, INTEGRAL =      0.95 TIME LEFT: 172799.05

(To convert to Hartree/Bohr^2, multiply by (10^(-21) x N x a0^2)/(4.184 x 627.51) =  0.0642)


           FORCE MATRIX IN MILLIDYNES/ANGSTROM


                  C  1       C  2       C  3       C  4       C  5       C  6
 ------------------------------------------------------------------------------
     C    1  14.398321
     C    2   2.541139  14.226630
     C    3   4.672160   0.505361  14.528519
     C    4   4.060898   2.142967   0.578796  18.756052
     C    5   2.119235   4.358788   0.047555   5.949667  18.880018
     C    6   0.076221   0.358729   0.013117   2.152971   8.037939  17.523415
     C    7   0.346194   0.073071   0.013677   8.042718   2.192990   1.596662
     C    8   0.014303   0.104434   0.002866   1.649861   2.457079   6.430193
     C    9   0.104655   0.017357   0.013223   2.438986   1.654649   2.226879
     H   10   4.441873   0.414719   0.429040   0.420085   0.039518   0.010649
     H   11   0.434085   4.694525   0.020694   0.037482   0.443914   0.011448
     H   12   0.421512   4.722439   0.029745   0.037586   0.443239   0.012417
     H   13   0.450039   0.010487   4.743533   0.048578   0.005800   0.002273
     H   14   0.469312   0.018594   4.737999   0.013224   0.002205   0.001128
     H   15   0.452896   0.045607   4.753132   0.012088   0.003657   0.001777
     H   16   0.007877   0.004528   0.001288   0.010097   0.082958   0.431888
     H   17   0.008678   0.042432   0.001193   0.099109   0.452244   4.918719
     H   18   0.004366   0.007821   0.000797   0.082199   0.009356   0.091280
     H   19   0.042811   0.008921   0.006401   0.452309   0.099698   0.010531


                  C  7       C  8       C  9       H 10       H 11       H 12
 ------------------------------------------------------------------------------
     C    7  17.475483
     C    8   2.257160  17.096667
     C    9   6.422015   7.221161  17.109714
     H   10   0.010940   0.003969   0.012383   4.944489
     H   11   0.011002   0.012937   0.002586   0.026891   5.303891
     H   12   0.010237   0.013010   0.002300   0.024608   0.523591   5.328401
     H   13   0.002165   0.000986   0.002179   0.027904   0.003935   0.001794
     H   14   0.001812   0.000803   0.000592   0.045228   0.015742   0.001634
     H   15   0.001721   0.000871   0.000706   0.027356   0.002553   0.005296
     H   16   0.092095   4.851674   0.433680   0.000958   0.000522   0.000519
     H   17   0.010863   0.437599   0.080150   0.001001   0.006077   0.006019
     H   18   0.433115   0.433808   4.851986   0.000555   0.001067   0.001048
     H   19   4.916608   0.081402   0.436661   0.005804   0.001196   0.001087


                  H 13       H 14       H 15       H 16       H 17       H 18
 ------------------------------------------------------------------------------
     H   13   5.467693
     H   14   0.568837   5.468361
     H   15   0.566767   0.570499   5.476130
     H   16   0.000202   0.000207   0.000255   5.212698
     H   17   0.000425   0.000263   0.000173   0.035635   5.294436
     H   18   0.000232   0.000159   0.000176   0.046829   0.006550   5.213648
     H   19   0.001299   0.000553   0.001980   0.006522   0.009929   0.035575


                  H 19
 ------------------
     H   19   5.292337


          HEAT OF FORMATION =      41.552379 KCALS/MOLE

          ZERO POINT ENERGY     101.849 KCAL/MOL


           NORMAL COORDINATE ANALYSIS (Total motion = 1 Angstrom)


   Root No.       1         2         3         4         5         6         7         8

                 1 A       2 A       3 A       4 A       5 A       6 A       7 A       8 A   

                 136.2     168.9     189.2     292.9     370.9     407.0     483.3     510.7
  
           1    0.0067   -0.0090    0.0164    0.0072   -0.0040   -0.0038   -0.0259    0.0121
           2    0.0033   -0.0021   -0.0013   -0.0119   -0.0297   -0.0319   -0.0264   -0.0172
           3   -0.0074   -0.0029    0.0101    0.0044    0.0201    0.0114   -0.0279    0.0069
           4    0.0067   -0.0098    0.0174    0.0090   -0.0069   -0.0060   -0.0298    0.0105
           5    0.0287   -0.0038    0.0231   -0.0302    0.0212    0.0130    0.0319   -0.0005
           6   -0.0233    0.0012   -0.0078    0.0265   -0.0142   -0.0015    0.0223   -0.0167
           7   -0.0325    0.0104   -0.0323   -0.0190    0.0348    0.0264    0.0176    0.0151
           8   -0.0168    0.0068   -0.0244   -0.0251   -0.0138   -0.0210   -0.0094   -0.0246
           9    0.0589    0.0119   -0.0384   -0.0315   -0.0064   -0.0151   -0.0007   -0.0115
          10    0.0049   -0.0067    0.0122    0.0183   -0.0193   -0.0050    0.0397   -0.0197
          11    0.0293    0.0011   -0.0234    0.0276   -0.0337    0.0154   -0.0035    0.0339
          12   -0.0211   -0.0057    0.0236   -0.0080    0.0172   -0.0099   -0.0175   -0.0197
          13    0.0046   -0.0064    0.0121    0.0177   -0.0188   -0.0043    0.0407   -0.0192
          14    0.0121    0.0017   -0.0273    0.0296   -0.0027    0.0655   -0.0039   -0.0054
          15   -0.0145   -0.0007    0.0173   -0.0090    0.0039   -0.0272    0.0212   -0.0003
          16    0.0036    0.0007    0.0013    0.0031   -0.0051   -0.0022    0.0076    0.0036
          17   -0.0326    0.0030   -0.0301    0.0244    0.0365   -0.0199   -0.0082   -0.0145
          18    0.0078    0.0040    0.0110   -0.0176   -0.0041    0.0214   -0.0050    0.0289
          19    0.0049    0.0009    0.0006    0.0006   -0.0073   -0.0079    0.0062   -0.0214
          20    0.0330   -0.0033    0.0213    0.0397    0.0306   -0.0266    0.0090    0.0201
          21   -0.0235   -0.0092    0.0101    0.0006   -0.0255    0.0141    0.0051   -0.0117
          22    0.0033    0.0078   -0.0100   -0.0131    0.0057   -0.0025   -0.0234    0.0053
          23   -0.0442   -0.0004    0.0083   -0.0208   -0.0254   -0.0098    0.0129    0.0479
          24    0.0143    0.0012   -0.0015    0.0152    0.0216    0.0166   -0.0017   -0.0003
          25    0.0035    0.0078   -0.0095   -0.0132    0.0060   -0.0020   -0.0235    0.0033
          26   -0.0038   -0.0038    0.0439   -0.0125    0.0010    0.0351   -0.0124   -0.0300
          27   -0.0049   -0.0043   -0.0083    0.0202   -0.0020   -0.0137    0.0020    0.0306
          28    0.0344   -0.0113    0.0415   -0.0080    0.0120   -0.0035   -0.0569    0.0276
          29   -0.0352   -0.0021    0.0105   -0.0185   -0.0157   -0.0370   -0.0504   -0.0348
          30   -0.0223   -0.0042    0.0336   -0.0097    0.0382    0.0049   -0.0649   -0.0002
          31   -0.0121   -0.0109   -0.0010    0.0255   -0.0477   -0.0372   -0.0896   -0.0072
          32    0.0372   -0.0032    0.0309   -0.0379    0.0408    0.0285    0.0609    0.0084
          33   -0.0445    0.0071   -0.0589    0.0949   -0.0560    0.0467   -0.0022   -0.0601
          34    0.0268   -0.0121    0.0376   -0.0164    0.0437    0.0230   -0.0251    0.0492
          35    0.0503   -0.0068    0.0676   -0.0885    0.0648   -0.0150    0.0962    0.0312
          36   -0.0195    0.0004    0.0123   -0.0002   -0.0127   -0.0383    0.0639   -0.0172
          37   -0.0332    0.2593   -0.0259   -0.0245    0.0361    0.0292    0.0581    0.0040
          38   -0.0545    0.0995    0.0322    0.0169   -0.0058   -0.0044   -0.0456   -0.0014
          39    0.0785   -0.0708   -0.0688   -0.0530   -0.0107   -0.0245    0.0127   -0.0229
          40   -0.0639   -0.1659   -0.0800   -0.0431    0.0765    0.0582    0.0446    0.0232
          41    0.0293   -0.0785   -0.0486   -0.0458   -0.0403   -0.0511   -0.0091   -0.0445
          42    0.0810   -0.1578   -0.0853   -0.0624   -0.0071   -0.0243    0.0137   -0.0249
          43   -0.0334   -0.0369   -0.0349   -0.0189    0.0368    0.0279    0.0127    0.0179
          44   -0.0414    0.0096   -0.0782   -0.0625    0.0259    0.0072    0.0543   -0.0333
          45    0.0725    0.2845   -0.0054   -0.0207   -0.0284   -0.0310    0.0099   -0.0245
          46    0.0020    0.0129   -0.0181   -0.0232    0.0133   -0.0006   -0.0331    0.0093
          47   -0.0832   -0.0005    0.0165   -0.0666   -0.0748   -0.0423    0.0343    0.1255
          48    0.0339    0.0045   -0.0111    0.0326    0.0526    0.0350   -0.0195   -0.0382
          49    0.0033    0.0008    0.0010    0.0032   -0.0044   -0.0033    0.0076    0.0027
          50   -0.0598    0.0056   -0.0484    0.0324    0.1061   -0.1003   -0.0298   -0.0624
          51    0.0216    0.0108    0.0077   -0.0408   -0.0226    0.0657   -0.0452    0.0768
          52    0.0027    0.0130   -0.0170   -0.0221    0.0155    0.0038   -0.0333    0.0192
          53   -0.0055   -0.0074    0.0892   -0.0478   -0.0023    0.0874   -0.0317   -0.1249
          54   -0.0036   -0.0057   -0.0267    0.0438   -0.0063   -0.0438    0.0184    0.0690
          55    0.0052    0.0010    0.0007    0.0007   -0.0062   -0.0089    0.0058   -0.0210
          56    0.0560   -0.0079    0.0471    0.0696    0.0916   -0.1080    0.0395    0.0214
          57   -0.0350   -0.0158    0.0103    0.0061   -0.0737    0.0549    0.0395   -0.0302


   Root No.       9        10        11        12        13        14        15        16

                 9 A      10 A      11 A      12 A      13 A      14 A      15 A      16 A   

                 571.5     640.5     703.8     780.7     831.8     843.7     882.4     934.5
  
           1   -0.0039   -0.0411   -0.0020    0.0013   -0.0346   -0.0333   -0.0038    0.0016
           2   -0.0007   -0.0140   -0.0059   -0.0014   -0.0133   -0.0117   -0.0012   -0.0080
           3   -0.0526    0.0288    0.0111   -0.0017    0.0296   -0.0368    0.0008   -0.0031
           4   -0.0024   -0.0356   -0.0009   -0.0009    0.0240    0.0522   -0.0014    0.0267
           5   -0.0216   -0.0105   -0.0117    0.0057   -0.0277   -0.0025    0.0168   -0.0235
           6   -0.0379   -0.0251    0.0061    0.0008   -0.0243   -0.0136   -0.0113    0.0354
           7   -0.0021   -0.0106    0.0037    0.0044   -0.0263   -0.0147   -0.0027   -0.0038
           8   -0.0025    0.0129   -0.0081   -0.0079    0.0252   -0.0117   -0.0039    0.0228
           9   -0.0016    0.0026   -0.0021   -0.0014    0.0107   -0.0174   -0.0006   -0.0084
          10   -0.0013    0.0004   -0.0044   -0.0030    0.0138    0.0002    0.0006   -0.0024
          11   -0.0167    0.0064    0.0662    0.0243    0.0056    0.0014   -0.0081   -0.0215
          12   -0.0193    0.0336   -0.0217   -0.0078   -0.0018    0.0166    0.0054   -0.0018
          13    0.0078    0.0023   -0.0078   -0.0045    0.0124   -0.0113    0.0010    0.0038
          14   -0.0235   -0.0030   -0.0442    0.0040    0.0020    0.0083   -0.0001    0.0194
          15   -0.0176   -0.0414    0.0206   -0.0012   -0.0039    0.0157   -0.0001   -0.0037
          16    0.0598    0.0230   -0.0087   -0.0082    0.0256   -0.0435    0.0012   -0.0030
          17    0.0173   -0.0261    0.0145   -0.0141    0.0035    0.0083   -0.0306   -0.0023
          18    0.0079   -0.0333   -0.0125    0.0059    0.0091    0.0114    0.0163   -0.0071
          19   -0.0557    0.0135    0.0055    0.0006    0.0221    0.0226    0.0034   -0.0290
          20   -0.0022    0.0276   -0.0054   -0.0106   -0.0044    0.0064    0.0257    0.0128
          21    0.0230    0.0335    0.0117    0.0108   -0.0099    0.0180   -0.0129   -0.0159
          22    0.0021    0.0288    0.0069    0.0042   -0.0220    0.0051   -0.0016    0.0087
          23    0.0103   -0.0128   -0.0177   -0.0303    0.0130   -0.0021   -0.0101   -0.0214
          24    0.0536   -0.0433   -0.0059    0.0062    0.0364   -0.0114    0.0075   -0.0029
          25   -0.0025    0.0280    0.0081    0.0050   -0.0225    0.0107   -0.0010    0.0066
          26    0.0382    0.0156    0.0204   -0.0207   -0.0193    0.0070    0.0175    0.0078
          27    0.0429    0.0486   -0.0014    0.0184   -0.0282    0.0111   -0.0112    0.0099
          28   -0.0111   -0.0527   -0.0172   -0.0020   -0.0346   -0.0454    0.0245   -0.0630
          29   -0.0100    0.0021   -0.0394   -0.0241   -0.0133   -0.0402    0.0084    0.0208
          30   -0.0622    0.0339   -0.0259   -0.0220    0.0247   -0.0683    0.0245   -0.0179
          31    0.0208   -0.0727   -0.0320   -0.0008   -0.0144    0.0784    0.0304   -0.1189
          32   -0.0332    0.0064    0.0038    0.0056   -0.0104   -0.0172    0.0008    0.0481
          33   -0.0409   -0.0260   -0.1156    0.0238   -0.0837   -0.0257    0.0762   -0.0190
          34   -0.0279   -0.0069    0.0362   -0.0033    0.1092    0.0472   -0.0346    0.1693
          35   -0.0306   -0.0073    0.0931   -0.0116   -0.0061   -0.0243   -0.0646    0.0797
          36   -0.0294   -0.0415    0.0564   -0.0098   -0.0616   -0.0283   -0.0477    0.0226
          37    0.0250    0.0017   -0.0095    0.0027   -0.0220    0.0801    0.0159   -0.0133
          38   -0.0586    0.0348    0.0240   -0.0010    0.0859   -0.1130   -0.0136   -0.0154
          39    0.0240   -0.0105   -0.0181   -0.0053   -0.0213    0.0227    0.0022    0.0140
          40   -0.0195    0.0335    0.0147    0.0085    0.0392    0.0231    0.0175   -0.0644
          41    0.0395   -0.0282   -0.0362   -0.0167   -0.0477    0.0143   -0.0120    0.0923
          42    0.0255   -0.0093   -0.0211   -0.0070   -0.0176    0.0260    0.0034    0.0189
          43   -0.0074   -0.0111    0.0069    0.0054   -0.0263   -0.0286   -0.0044   -0.0078
          44    0.0106    0.0671   -0.0151   -0.0108    0.1035    0.1125    0.0290   -0.0134
          45    0.0246   -0.0120   -0.0184   -0.0060   -0.0178    0.0249    0.0015    0.0191
          46   -0.0333   -0.0188    0.0040    0.0070   -0.0078    0.0313    0.0000   -0.0049
          47   -0.0242   -0.0110   -0.0840    0.2064    0.0537   -0.0168    0.0810    0.0747
          48    0.0494   -0.0750    0.0272   -0.1162    0.0248    0.0139   -0.0392   -0.0629
          49    0.0597    0.0230   -0.0079   -0.0064    0.0260   -0.0445    0.0036   -0.0030
          50    0.0586   -0.0585    0.0895    0.1468    0.0018    0.0102    0.1676   -0.0119
          51   -0.0123   -0.0054   -0.0383   -0.0668   -0.0271    0.0578   -0.0898   -0.0099
          52    0.0278   -0.0154   -0.0040   -0.0005   -0.0025   -0.0226   -0.0033    0.0272
          53    0.0710    0.0000    0.0230    0.2180    0.0076    0.0057   -0.1224   -0.0189
          54    0.0077    0.0837    0.0049   -0.0994   -0.0549    0.0337    0.0614    0.0106
          55   -0.0553    0.0143    0.0039    0.0021    0.0218    0.0233    0.0013   -0.0305
          56   -0.0072    0.0406   -0.1543    0.0964    0.0097    0.0277   -0.1485   -0.0899
          57    0.0334    0.0147    0.0788   -0.0500    0.0228    0.0199    0.0800   -0.0048


   Root No.      17        18        19        20        21        22        23        24

                17 A      18 A      19 A      20 A      21 A      22 A      23 A      24 A   

                 938.7     954.5     997.8    1009.1    1027.1    1057.8    1094.1    1101.0
  
           1    0.0067    0.0013    0.0005   -0.0044    0.0044    0.0215   -0.0134   -0.0267
           2    0.0038   -0.0021   -0.0033   -0.0027    0.0001    0.0025   -0.0028   -0.0108
           3   -0.0071   -0.0021    0.0046   -0.0146    0.0046   -0.0047    0.0179    0.0197
           4   -0.0324   -0.0001    0.0003    0.0033   -0.0040   -0.0138    0.0224    0.0109
           5   -0.0246   -0.0072    0.0093    0.0111    0.0141   -0.0142    0.0234    0.0148
           6   -0.0224   -0.0002   -0.0023   -0.0138   -0.0056    0.0069    0.0140   -0.0053
           7    0.0235    0.0075   -0.0020    0.0122   -0.0045   -0.0171    0.0075    0.0118
           8   -0.0040    0.0082    0.0017    0.0127   -0.0017    0.0037   -0.0027   -0.0006
           9   -0.0144    0.0004   -0.0109    0.0245   -0.0101    0.0019   -0.0071   -0.0045
          10    0.0041    0.0015   -0.0021    0.0091   -0.0032    0.0136   -0.0106    0.0078
          11    0.0018    0.0078    0.0040   -0.0174    0.0208   -0.0087    0.0066    0.0072
          12    0.0162   -0.0039   -0.0000   -0.0018   -0.0063   -0.0154    0.0066   -0.0110
          13   -0.0077   -0.0017    0.0005   -0.0005   -0.0012   -0.0019   -0.0149    0.0069
          14    0.0045    0.0050   -0.0150   -0.0104   -0.0350    0.0024   -0.0103   -0.0034
          15   -0.0080   -0.0023    0.0069    0.0109    0.0155   -0.0053   -0.0114    0.0079
          16   -0.0073   -0.0046    0.0036   -0.0155    0.0050   -0.0028    0.0445   -0.0048
          17    0.0109   -0.0278   -0.0105    0.0124    0.0264    0.0008   -0.0004   -0.0017
          18    0.0105    0.0168    0.0036    0.0000   -0.0148    0.0066   -0.0027   -0.0077
          19    0.0420    0.0026   -0.0005   -0.0013    0.0024   -0.0160   -0.0011   -0.0284
          20    0.0164   -0.0291    0.0193    0.0131   -0.0176    0.0024   -0.0043   -0.0025
          21    0.0084    0.0173   -0.0116   -0.0018    0.0086    0.0040   -0.0067    0.0026
          22   -0.0106    0.0004   -0.0005    0.0047   -0.0022    0.0150    0.0057    0.0126
          23   -0.0018    0.0186    0.0314   -0.0054   -0.0231   -0.0076   -0.0059   -0.0050
          24    0.0172   -0.0094   -0.0152   -0.0035    0.0142   -0.0166   -0.0100   -0.0072
          25   -0.0065    0.0005   -0.0008    0.0023   -0.0007   -0.0087   -0.0201    0.0002
          26   -0.0077    0.0172   -0.0357   -0.0024    0.0198   -0.0051   -0.0089   -0.0019
          27   -0.0109   -0.0082    0.0172    0.0079   -0.0129   -0.0090   -0.0186   -0.0065
          28   -0.0336   -0.0438    0.0166   -0.0620    0.0403    0.1090   -0.1225   -0.0781
          29    0.0525   -0.0177    0.0286   -0.0854    0.0101    0.0013    0.0059    0.0808
          30    0.0125   -0.0408    0.0390   -0.1154    0.0321    0.0423   -0.0355    0.0657
          31   -0.0651   -0.0763   -0.0699   -0.0120   -0.0848   -0.0595    0.0659    0.0731
          32   -0.0092    0.0297    0.0430    0.0178    0.0528    0.0084    0.0030   -0.0158
          33   -0.0770    0.0231    0.1033    0.0572    0.1354   -0.0040    0.0393   -0.0074
          34    0.0036    0.0800    0.0672    0.0244    0.0728    0.0241   -0.0129   -0.0213
          35   -0.0001   -0.0108   -0.0532   -0.0550   -0.0738    0.0166    0.0125   -0.0195
          36   -0.0284   -0.0507   -0.0847   -0.0732   -0.1112    0.0074    0.0272   -0.0112
          37    0.0006   -0.0270    0.0242   -0.0865    0.0305    0.0169    0.0046   -0.0074
          38   -0.0747    0.0205   -0.0511    0.1418   -0.0481    0.0107   -0.0344   -0.0232
          39    0.0258   -0.0016    0.0139   -0.0311    0.0098   -0.0056    0.0100    0.0107
          40   -0.0821   -0.0348   -0.0179   -0.0056   -0.0003    0.0369   -0.0280   -0.0382
          41    0.1037    0.0305    0.0445   -0.0482    0.0227   -0.0288    0.0345    0.0452
          42    0.0228   -0.0033    0.0176   -0.0387    0.0131    0.0018    0.0072    0.0096
          43    0.0231    0.0107   -0.0073    0.0271   -0.0096   -0.0205    0.0058    0.0114
          44   -0.1238   -0.0560    0.0186   -0.0937    0.0363    0.0924   -0.0378   -0.0602
          45    0.0241   -0.0014    0.0151   -0.0336    0.0100   -0.0028    0.0104    0.0119
          46    0.0217    0.0047   -0.0081    0.0267   -0.0068    0.0759   -0.0922    0.1039
          47    0.0591   -0.0836   -0.1205    0.0135    0.0723    0.0036   -0.0290    0.0190
          48    0.0074    0.0472    0.0597    0.0008   -0.0388    0.0158   -0.0612    0.0365
          49   -0.0081   -0.0028    0.0041   -0.0166    0.0037   -0.0018    0.0475   -0.0045
          50    0.0009    0.1346    0.0218   -0.0217   -0.0965    0.0890    0.0835   -0.0314
          51    0.0486   -0.0556   -0.0259    0.0678    0.0363    0.1509    0.1732   -0.0507
          52   -0.0426   -0.0050    0.0052   -0.0114   -0.0007   -0.0388   -0.1042    0.1087
          53    0.0090   -0.0741    0.1333    0.0252   -0.0633    0.0045    0.0108   -0.0332
          54    0.0036    0.0419   -0.0727    0.0032    0.0292    0.0046    0.0204   -0.0578
          55    0.0420    0.0047   -0.0015   -0.0025    0.0034   -0.0193   -0.0027   -0.0317
          56   -0.0102    0.1380   -0.0807   -0.0271    0.0411    0.0864    0.0130    0.0842
          57    0.0872   -0.0583    0.0262    0.0694   -0.0356    0.1658    0.0209    0.1354


   Root No.      25        26        27        28        29        30        31        32

                25 A      26 A      27 A      28 A      29 A      30 A      31 A      32 A   

                1130.6    1151.3    1151.8    1164.7    1183.3    1242.0    1268.3    1322.8
  
           1   -0.0371    0.0004    0.0066   -0.0218    0.0053   -0.0328    0.0103   -0.0337
           2   -0.0185    0.0143    0.0368   -0.0092   -0.0059    0.0167    0.0136    0.0538
           3   -0.0166   -0.0113   -0.0216   -0.0288    0.0106   -0.0280    0.0120    0.0355
           4    0.0096    0.0125   -0.0002    0.0364    0.0078   -0.0131    0.0012    0.0130
           5   -0.0065   -0.0026   -0.0067   -0.0109   -0.0053    0.0057   -0.0218   -0.0161
           6   -0.0137    0.0006    0.0044   -0.0075   -0.0202    0.0322   -0.0409   -0.0162
           7    0.0123   -0.0006   -0.0031    0.0074   -0.0026    0.0098   -0.0029   -0.0024
           8    0.0032   -0.0161   -0.0371    0.0054    0.0022   -0.0030   -0.0029    0.0100
           9    0.0119    0.0090    0.0198    0.0064   -0.0022    0.0036   -0.0038   -0.0067
          10    0.0162   -0.0165    0.0033   -0.0270    0.0157   -0.0129   -0.0388    0.0269
          11    0.0006    0.0027   -0.0019    0.0085    0.0064    0.0070    0.0057   -0.0096
          12   -0.0258    0.0085    0.0028    0.0173    0.0091    0.0232    0.0161   -0.0064
          13    0.0227    0.0016   -0.0054   -0.0152    0.0186    0.0079    0.0612   -0.0002
          14    0.0077   -0.0029    0.0014   -0.0050   -0.0066    0.0016    0.0222    0.0069
          15    0.0219   -0.0075   -0.0023   -0.0132   -0.0095   -0.0031    0.0420    0.0084
          16   -0.0117    0.0156   -0.0052    0.0098   -0.0102    0.0228    0.0151   -0.0087
          17    0.0061    0.0002   -0.0014   -0.0011   -0.0062   -0.0039    0.0289   -0.0060
          18    0.0100    0.0010   -0.0021   -0.0015   -0.0127   -0.0061    0.0568   -0.0116
          19   -0.0044   -0.0074    0.0064    0.0151   -0.0049   -0.0034   -0.0398   -0.0104
          20   -0.0066    0.0038    0.0004    0.0028    0.0074    0.0116    0.0186   -0.0115
          21   -0.0044    0.0058   -0.0018    0.0054    0.0153    0.0202    0.0336   -0.0245
          22    0.0006    0.0053   -0.0038   -0.0036   -0.0169   -0.0079   -0.0004    0.0149
          23   -0.0050   -0.0020    0.0022    0.0034   -0.0006   -0.0073   -0.0241    0.0045
          24   -0.0084   -0.0039    0.0040    0.0066   -0.0015   -0.0143   -0.0465    0.0089
          25    0.0036   -0.0080    0.0031    0.0028   -0.0129   -0.0137    0.0172   -0.0065
          26    0.0071   -0.0054    0.0015   -0.0040    0.0016   -0.0063   -0.0241    0.0053
          27    0.0114   -0.0108    0.0030   -0.0076    0.0027   -0.0124   -0.0461    0.0098
          28    0.0813   -0.0758   -0.1415    0.1083   -0.0469    0.1290   -0.0332    0.0593
          29    0.1451    0.0809    0.1914   -0.0132    0.0050   -0.0444   -0.0421   -0.0986
          30    0.1811   -0.0001    0.0202    0.0400   -0.0095    0.0138   -0.0567   -0.0358
          31    0.0035   -0.0436   -0.0538   -0.1012   -0.0575    0.0627   -0.0812   -0.0766
          32   -0.0049    0.0255    0.0202    0.0555    0.0255   -0.0311    0.0159    0.0251
          33   -0.0098    0.0429   -0.0007    0.1277    0.0462   -0.0601   -0.0288    0.0145
          34   -0.0105    0.0003    0.0562   -0.0761   -0.0853    0.1193   -0.0724   -0.0319
          35   -0.0090    0.0267    0.0025    0.0796    0.0193   -0.0240   -0.0309    0.0041
          36   -0.0042    0.0280   -0.0245    0.1234    0.0507   -0.0661   -0.0070    0.0216
          37   -0.0421    0.0059    0.0210   -0.0271   -0.0007    0.0100    0.0198    0.0957
          38    0.0515    0.0025   -0.0001    0.0384   -0.0016   -0.0165   -0.0302   -0.1462
          39   -0.0051   -0.0024   -0.0042   -0.0070    0.0003    0.0066    0.0058    0.0491
          40   -0.0167    0.0345    0.0847   -0.0080   -0.0083    0.0221    0.0095    0.0765
          41    0.0013   -0.0612   -0.1406   -0.0038    0.0139   -0.0382   -0.0109   -0.0873
          42   -0.0049   -0.0099   -0.0195   -0.0105    0.0043   -0.0172   -0.0032   -0.0339
          43    0.0182    0.0021    0.0026    0.0128   -0.0050    0.0196   -0.0026    0.0196
          44   -0.0667   -0.0035    0.0022   -0.0410    0.0176   -0.0800    0.0033   -0.1545
          45   -0.0055   -0.0096   -0.0192   -0.0112    0.0030   -0.0114   -0.0025   -0.0155
          46   -0.0530    0.2123   -0.1012   -0.0385    0.0967    0.0606   -0.0850   -0.0063
          47   -0.0176    0.0495   -0.0221   -0.0054    0.0283    0.0089   -0.0483   -0.0005
          48   -0.0355    0.1016   -0.0456   -0.0112    0.0572    0.0190   -0.0950   -0.0015
          49   -0.0120    0.0173   -0.0060    0.0099   -0.0099    0.0256    0.0168   -0.0092
          50    0.0406   -0.0393    0.0173   -0.0169    0.0789    0.0211   -0.0221    0.0037
          51    0.0757   -0.0759    0.0318   -0.0349    0.1536    0.0395   -0.0429    0.0071
          52   -0.1063   -0.1776    0.1078    0.0598    0.1214    0.0698   -0.0032   -0.0309
          53    0.0341    0.0387   -0.0256   -0.0189   -0.0339   -0.0294   -0.0219    0.0117
          54    0.0662    0.0717   -0.0482   -0.0356   -0.0633   -0.0550   -0.0411    0.0223
          55   -0.0033   -0.0083    0.0068    0.0147   -0.0022   -0.0029   -0.0436   -0.0122
          56   -0.0332   -0.0242    0.0129    0.0462   -0.0712   -0.0301   -0.0046   -0.0002
          57   -0.0940   -0.0421    0.0355    0.0915   -0.1427   -0.0505   -0.0056    0.0078


   Root No.      33        34        35        36        37        38        39        40

                33 A      34 A      35 A      36 A      37 A      38 A      39 A      40 A   

                1389.3    1397.0    1407.0    1424.6    1498.7    1556.9    1571.9    1848.0
  
           1    0.0037    0.0051   -0.0032    0.0315    0.0095    0.0339    0.0091   -0.0066
           2   -0.0041   -0.0111    0.0037   -0.0538   -0.0183   -0.0388    0.0038   -0.0121
           3    0.0064   -0.0028   -0.0004   -0.0145   -0.0143   -0.0402    0.0098   -0.0240
           4   -0.0342    0.0021    0.0044    0.0055   -0.0042   -0.0262    0.0056   -0.0115
           5   -0.0154    0.0031    0.0006    0.0155   -0.0060   -0.0165   -0.0079    0.0063
           6   -0.0329    0.0036    0.0025    0.0164   -0.0136   -0.0363   -0.0153    0.0119
           7   -0.0116   -0.0328   -0.0204   -0.0330   -0.0054   -0.0099   -0.0017    0.0012
           8    0.0139   -0.0030   -0.0162    0.0710    0.0119    0.0154    0.0006    0.0000
           9   -0.0026    0.0280   -0.0294    0.0001    0.0024    0.0017   -0.0008    0.0010
          10   -0.0042   -0.0021    0.0010   -0.0147    0.0697   -0.0503   -0.0295    0.0901
          11   -0.0043    0.0007    0.0004    0.0023    0.0034    0.0478   -0.0186    0.0741
          12   -0.0100    0.0000    0.0014   -0.0058    0.0059    0.0899   -0.0368    0.1459
          13    0.0132   -0.0007   -0.0016   -0.0008   -0.0709    0.0539   -0.0224    0.0392
          14   -0.0022   -0.0011    0.0005   -0.0080    0.0023    0.0414    0.0253   -0.0563
          15   -0.0032   -0.0013    0.0008   -0.0109    0.0040    0.0828    0.0483   -0.1080
          16   -0.0066    0.0003    0.0009    0.0001    0.0064   -0.0041    0.0610   -0.0238
          17    0.0051    0.0003   -0.0004    0.0032    0.0182   -0.0389    0.0208    0.0595
          18    0.0098    0.0005   -0.0008    0.0061    0.0355   -0.0757    0.0418    0.1146
          19    0.0028    0.0010   -0.0006    0.0074   -0.0069   -0.0062    0.0618   -0.0516
          20    0.0042    0.0005   -0.0003    0.0043    0.0182   -0.0364   -0.0261   -0.0667
          21    0.0083    0.0012   -0.0006    0.0099    0.0358   -0.0700   -0.0492   -0.1305
          22   -0.0125   -0.0013    0.0019   -0.0146    0.0762    0.0822   -0.0516   -0.0411
          23   -0.0011   -0.0000   -0.0001   -0.0005   -0.0081    0.0149   -0.0410   -0.0200
          24   -0.0025   -0.0001   -0.0001   -0.0014   -0.0139    0.0306   -0.0807   -0.0399
          25    0.0132    0.0009   -0.0020    0.0122   -0.0758   -0.0728   -0.0643    0.0098
          26   -0.0007   -0.0002   -0.0000   -0.0011   -0.0072    0.0093    0.0432    0.0136
          27   -0.0010   -0.0003   -0.0001   -0.0014   -0.0157    0.0163    0.0824    0.0268
          28   -0.0255   -0.0111    0.0010   -0.0477    0.0009   -0.0237   -0.0113    0.0109
          29    0.0050    0.0110   -0.0068    0.0553    0.0246    0.0244    0.0000    0.0004
          30   -0.0017    0.0070   -0.0068    0.0299    0.0137   -0.0192   -0.0064    0.0017
          31    0.1898   -0.0023   -0.0244   -0.0098    0.0048    0.0284   -0.0114    0.0101
          32   -0.0967    0.0036    0.0122    0.0173   -0.0089   -0.0372    0.0018   -0.0089
          33    0.2327   -0.0168   -0.0221   -0.0593    0.0347    0.0034    0.0028    0.0051
          34    0.1793   -0.0136   -0.0175   -0.0494   -0.0032    0.0149   -0.0121    0.0099
          35    0.2447   -0.0173   -0.0233   -0.0628    0.0327    0.0224    0.0014    0.0092
          36    0.0549   -0.0032   -0.0048   -0.0125    0.0147   -0.0263    0.0032   -0.0043
          37    0.0417    0.3540    0.0425    0.0444    0.0016   -0.0017    0.0041   -0.0049
          38   -0.0220    0.1001    0.1788   -0.1200   -0.0025    0.0045   -0.0057    0.0071
          39    0.0063   -0.0927   -0.1110    0.0731    0.0070    0.0031    0.0017   -0.0027
          40    0.0557   -0.0535    0.2698    0.1319    0.0123    0.0199    0.0012    0.0006
          41   -0.0199    0.1172    0.1149   -0.1347   -0.0158   -0.0196   -0.0007   -0.0015
          42    0.0119    0.0842    0.2456   -0.0584   -0.0088   -0.0090    0.0000   -0.0011
          43   -0.0025    0.0512   -0.0377   -0.0096   -0.0014   -0.0064   -0.0018    0.0016
          44   -0.0635   -0.0860   -0.1341   -0.1580   -0.0134   -0.0057    0.0033   -0.0027
          45    0.0102   -0.3217    0.2232    0.0285   -0.0018    0.0004   -0.0002   -0.0001
          46   -0.0050    0.0003    0.0004    0.0021   -0.0231   -0.0057    0.1360    0.0132
          47    0.0011    0.0004   -0.0005    0.0041   -0.0375   -0.0089    0.0017   -0.0068
          48    0.0022    0.0008   -0.0010    0.0081   -0.0741   -0.0178    0.0066   -0.0131
          49   -0.0078    0.0003    0.0011   -0.0005    0.0065    0.0015    0.0717   -0.0360
          50    0.0038   -0.0001   -0.0009    0.0011   -0.0579    0.0249   -0.0143   -0.0201
          51    0.0071   -0.0003   -0.0016    0.0016   -0.1124    0.0483   -0.0264   -0.0399
          52    0.0025    0.0009   -0.0000    0.0057    0.0239   -0.0171    0.1358   -0.0001
          53    0.0025   -0.0001   -0.0007    0.0015   -0.0378   -0.0073   -0.0055    0.0183
          54    0.0051   -0.0003   -0.0012    0.0024   -0.0738   -0.0158   -0.0076    0.0350
          55    0.0037    0.0011   -0.0007    0.0088   -0.0054   -0.0150    0.0707   -0.0734
          56    0.0013    0.0006   -0.0011    0.0066   -0.0566    0.0238    0.0158    0.0236
          57    0.0017    0.0001   -0.0011    0.0057   -0.1121    0.0443    0.0321    0.0445


   Root No.      41        42        43        44        45        46        47        48

                41 A      42 A      43 A      44 A      45 A      46 A      47 A      48 A   

                1858.0    2960.2    3047.0    3053.0    3065.9    3081.2    3084.6    3087.8
  
           1   -0.0144    0.0259   -0.0012   -0.0000    0.0000    0.0009   -0.0003   -0.0001
           2    0.0173    0.0376   -0.0018   -0.0000   -0.0000    0.0012   -0.0003   -0.0001
           3    0.0230   -0.0471    0.0020    0.0000    0.0000   -0.0016    0.0001   -0.0001
           4    0.0079    0.0010   -0.0021    0.0000   -0.0000    0.0005    0.0001    0.0003
           5    0.0155   -0.0039   -0.0527   -0.0001    0.0000    0.0005   -0.0009    0.0002
           6    0.0305    0.0015    0.0251    0.0001   -0.0000    0.0004    0.0002    0.0004
           7    0.0021   -0.0020    0.0006   -0.0000    0.0000    0.0225   -0.0412    0.0008
           8   -0.0040   -0.0006    0.0004   -0.0000    0.0000    0.0112   -0.0197    0.0004
           9   -0.0012    0.0026   -0.0000    0.0000    0.0000   -0.0432   -0.0266    0.0001
          10   -0.0889    0.0005    0.0000    0.0001   -0.0003   -0.0001   -0.0001    0.0013
          11   -0.0274   -0.0001   -0.0003   -0.0001   -0.0001    0.0002    0.0002    0.0009
          12   -0.0550   -0.0006    0.0003   -0.0002   -0.0001    0.0001    0.0001    0.0019
          13    0.1131   -0.0010    0.0000    0.0001    0.0003   -0.0000    0.0000    0.0012
          14   -0.0530    0.0007   -0.0003    0.0001   -0.0001    0.0000   -0.0000   -0.0008
          15   -0.1005    0.0007    0.0001    0.0002   -0.0001    0.0000   -0.0000   -0.0015
          16   -0.0636    0.0001    0.0000   -0.0051   -0.0095   -0.0000   -0.0005   -0.0309
          17    0.0280   -0.0000   -0.0000    0.0004    0.0006   -0.0000    0.0000    0.0007
          18    0.0529   -0.0001    0.0000    0.0008    0.0010   -0.0000    0.0000    0.0006
          19    0.0495   -0.0000    0.0000   -0.0050    0.0098    0.0005   -0.0007   -0.0373
          20    0.0047    0.0002   -0.0000   -0.0004    0.0005    0.0000   -0.0000   -0.0002
          21    0.0102    0.0002   -0.0000   -0.0008    0.0012    0.0000   -0.0000   -0.0014
          22    0.0929   -0.0001   -0.0000    0.0164    0.0163   -0.0000    0.0000   -0.0009
          23    0.0089   -0.0000   -0.0000   -0.0142   -0.0118    0.0000    0.0000    0.0019
          24    0.0193   -0.0000    0.0001   -0.0270   -0.0224    0.0000    0.0000    0.0037
          25   -0.0985    0.0001   -0.0001    0.0156   -0.0163    0.0001   -0.0001   -0.0021
          26    0.0160    0.0000   -0.0000    0.0136   -0.0118    0.0001   -0.0001   -0.0030
          27    0.0287   -0.0001   -0.0001    0.0268   -0.0232    0.0001   -0.0001   -0.0058
          28   -0.0060   -0.3181    0.0173    0.0001    0.0001   -0.0080    0.0006    0.0002
          29   -0.0146   -0.4614    0.0187    0.0001    0.0001   -0.0175    0.0028    0.0001
          30    0.0074    0.5689   -0.0231   -0.0001   -0.0001    0.0171   -0.0039   -0.0003
          31    0.0094    0.0108    0.2059    0.0003    0.0000   -0.0048    0.0033   -0.0022
          32    0.0151    0.0307    0.4284    0.0006    0.0001   -0.0090    0.0059   -0.0051
          33   -0.0084   -0.0002   -0.0011    0.0000    0.0000    0.0000   -0.0001    0.0004
          34    0.0122   -0.0084   -0.1801   -0.0006    0.0002   -0.0026   -0.0015   -0.0026
          35   -0.0153    0.0153    0.2083    0.0007   -0.0002    0.0039    0.0019    0.0037
          36    0.0066   -0.0227   -0.3026   -0.0010    0.0004   -0.0050   -0.0029   -0.0047
          37    0.0027   -0.0046    0.0001   -0.0001   -0.0000    0.0544    0.0331   -0.0002
          38   -0.0057   -0.0051   -0.0005   -0.0001   -0.0001    0.1394    0.1576   -0.0017
          39    0.0004   -0.0164   -0.0011   -0.0002   -0.0002    0.2536    0.3325   -0.0038
          40   -0.0035    0.0134   -0.0023    0.0001    0.0000   -0.1786    0.0179   -0.0017
          41    0.0041    0.0134   -0.0020    0.0002   -0.0000   -0.2660    0.0455   -0.0029
          42    0.0022   -0.0208    0.0030   -0.0002    0.0000    0.3121   -0.0816    0.0039
          43    0.0012    0.0153   -0.0095    0.0001   -0.0005   -0.1440    0.4411   -0.0082
          44   -0.0013    0.0046   -0.0005   -0.0000   -0.0000   -0.0083    0.0325   -0.0006
          45    0.0002    0.0035   -0.0017    0.0000   -0.0001   -0.0495    0.0680   -0.0015
          46   -0.0235   -0.0001    0.0005   -0.1969   -0.1690    0.0002    0.0001    0.0203
          47   -0.0232    0.0001   -0.0004    0.1628    0.1356   -0.0002   -0.0001   -0.0187
          48   -0.0452    0.0002   -0.0007    0.3101    0.2582   -0.0003   -0.0003   -0.0357
          49   -0.0817    0.0007   -0.0004    0.0618    0.1160    0.0005    0.0062    0.3477
          50   -0.0087   -0.0000    0.0002   -0.0017   -0.0021   -0.0000   -0.0001   -0.0039
          51   -0.0191   -0.0000   -0.0001   -0.0019   -0.0014    0.0000   -0.0000    0.0005
          52    0.0257    0.0001    0.0006   -0.1889    0.1694   -0.0009    0.0009    0.0330
          53   -0.0191    0.0001    0.0005   -0.1563    0.1358   -0.0008    0.0008    0.0294
          54   -0.0363    0.0002    0.0010   -0.3072    0.2672   -0.0015    0.0015    0.0577
          55    0.0619    0.0007   -0.0004    0.0607   -0.1200   -0.0060    0.0082    0.4188
          56   -0.0022   -0.0003    0.0000    0.0008   -0.0004    0.0000    0.0001   -0.0015
          57   -0.0027    0.0000   -0.0000    0.0030   -0.0037   -0.0001    0.0002    0.0071


   Root No.      49        50        51

                49 A      50 A      51 A   

                3090.4    3100.4    3179.3
  
           1   -0.0000   -0.0011   -0.0003
           2    0.0001   -0.0001    0.0003
           3    0.0002   -0.0004    0.0002
           4    0.0001   -0.0295   -0.0001
           5    0.0001   -0.0097   -0.0002
           6    0.0003   -0.0278   -0.0000
           7   -0.0002    0.0008   -0.0112
           8   -0.0001    0.0002    0.0220
           9    0.0003   -0.0009    0.0001
          10   -0.0005    0.0011    0.0000
          11   -0.0009    0.0005   -0.0000
          12   -0.0017    0.0009   -0.0001
          13    0.0007   -0.0004    0.0000
          14   -0.0010   -0.0002    0.0000
          15   -0.0020   -0.0005   -0.0000
          16   -0.0333   -0.0008    0.0000
          17    0.0006    0.0001    0.0000
          18    0.0004    0.0002   -0.0000
          19    0.0271   -0.0005    0.0000
          20    0.0001   -0.0001    0.0000
          21    0.0008   -0.0001    0.0000
          22   -0.0053   -0.0001    0.0000
          23    0.0048    0.0000   -0.0000
          24    0.0091    0.0001   -0.0000
          25    0.0050    0.0001   -0.0000
          26    0.0043    0.0000   -0.0000
          27    0.0085    0.0000   -0.0000
          28    0.0000   -0.0013    0.0006
          29    0.0001   -0.0010    0.0021
          30    0.0000    0.0006   -0.0016
          31   -0.0007    0.1661    0.0008
          32   -0.0017    0.3887    0.0030
          33    0.0002   -0.0233   -0.0002
          34   -0.0010    0.1950    0.0002
          35    0.0014   -0.2748   -0.0004
          36   -0.0017    0.3533    0.0004
          37   -0.0003    0.0012   -0.0496
          38   -0.0008    0.0035   -0.1296
          39   -0.0014    0.0064   -0.2874
          40    0.0014   -0.0040   -0.1356
          41    0.0021   -0.0054   -0.1773
          42   -0.0025    0.0062    0.2299
          43    0.0014   -0.0063    0.3205
          44    0.0001   -0.0006    0.0394
          45    0.0005   -0.0017    0.0573
          46    0.0576    0.0008   -0.0000
          47   -0.0485   -0.0007    0.0000
          48   -0.0924   -0.0013    0.0000
          49    0.3705    0.0087   -0.0001
          50   -0.0039   -0.0002   -0.0000
          51    0.0009   -0.0001   -0.0000
          52   -0.0525   -0.0003    0.0000
          53   -0.0439   -0.0002    0.0000
          54   -0.0863   -0.0003    0.0000
          55   -0.3011    0.0048   -0.0004
          56    0.0012   -0.0000    0.0000
          57   -0.0048    0.0000    0.0000


           MASS-WEIGHTED COORDINATE ANALYSIS (NORMAL COORDINATES)


   Root No.       1         2         3         4         5         6         7         8

                 1 A       2 A       3 A       4 A       5 A       6 A       7 A       8 A   

                 136.2     168.9     189.2     292.9     370.9     407.0     483.3     510.7
  
           1    0.0503   -0.0638    0.1320    0.0588   -0.0327   -0.0297   -0.2074    0.0963
           2    0.0246   -0.0153   -0.0106   -0.0974   -0.2425   -0.2463   -0.2117   -0.1368
           3   -0.0553   -0.0203    0.0814    0.0356    0.1642    0.0884   -0.2236    0.0549
           4    0.0505   -0.0694    0.1393    0.0733   -0.0562   -0.0466   -0.2391    0.0838
           5    0.2151   -0.0272    0.1857   -0.2468    0.1730    0.1002    0.2555   -0.0040
           6   -0.1748    0.0086   -0.0623    0.2169   -0.1161   -0.0115    0.1789   -0.1326
           7   -0.2438    0.0738   -0.2595   -0.1552    0.2848    0.2040    0.1411    0.1196
           8   -0.1258    0.0487   -0.1963   -0.2052   -0.1124   -0.1619   -0.0753   -0.1954
           9    0.4416    0.0850   -0.3083   -0.2576   -0.0524   -0.1164   -0.0060   -0.0916
          10    0.0368   -0.0477    0.0978    0.1498   -0.1575   -0.0383    0.3187   -0.1567
          11    0.2194    0.0080   -0.1875    0.2258   -0.2753    0.1186   -0.0279    0.2693
          12   -0.1580   -0.0404    0.1895   -0.0653    0.1405   -0.0763   -0.1406   -0.1566
          13    0.0345   -0.0455    0.0968    0.1451   -0.1534   -0.0336    0.3260   -0.1528
          14    0.0904    0.0124   -0.2192    0.2426   -0.0220    0.5056   -0.0310   -0.0433
          15   -0.1088   -0.0051    0.1391   -0.0736    0.0319   -0.2104    0.1702   -0.0025
          16    0.0268    0.0052    0.0101    0.0256   -0.0415   -0.0170    0.0609    0.0286
          17   -0.2443    0.0214   -0.2417    0.1997    0.2984   -0.1539   -0.0657   -0.1153
          18    0.0585    0.0284    0.0880   -0.1436   -0.0336    0.1653   -0.0400    0.2296
          19    0.0369    0.0062    0.0047    0.0053   -0.0594   -0.0614    0.0494   -0.1703
          20    0.2476   -0.0234    0.1712    0.3247    0.2498   -0.2051    0.0719    0.1598
          21   -0.1760   -0.0655    0.0814    0.0052   -0.2080    0.1087    0.0412   -0.0933
          22    0.0245    0.0557   -0.0800   -0.1074    0.0467   -0.0193   -0.1880    0.0418
          23   -0.3314   -0.0029    0.0663   -0.1705   -0.2074   -0.0759    0.1038    0.3808
          24    0.1074    0.0086   -0.0122    0.1240    0.1768    0.1285   -0.0140   -0.0028
          25    0.0264    0.0557   -0.0763   -0.1082    0.0490   -0.0157   -0.1882    0.0265
          26   -0.0285   -0.0267    0.3521   -0.1021    0.0079    0.2711   -0.0994   -0.2385
          27   -0.0369   -0.0309   -0.0669    0.1651   -0.0164   -0.1055    0.0163    0.2431
          28    0.0747   -0.0233    0.0964   -0.0189    0.0285   -0.0078   -0.1321    0.0635
          29   -0.0764   -0.0043    0.0245   -0.0438   -0.0371   -0.0828   -0.1170   -0.0801
          30   -0.0484   -0.0086    0.0781   -0.0230    0.0904    0.0109   -0.1508   -0.0004
          31   -0.0263   -0.0225   -0.0022    0.0605   -0.1129   -0.0832   -0.2080   -0.0166
          32    0.0808   -0.0065    0.0718   -0.0898    0.0967    0.0637    0.1414    0.0194
          33   -0.0966    0.0147   -0.1370    0.2249   -0.1325    0.1045   -0.0051   -0.1383
          34    0.0582   -0.0249    0.0873   -0.0388    0.1034    0.0515   -0.0583    0.1133
          35    0.1092   -0.0140    0.1571   -0.2098    0.1535   -0.0335    0.2235    0.0719
          36   -0.0423    0.0009    0.0285   -0.0005   -0.0302   -0.0858    0.1483   -0.0397
          37   -0.0722    0.5345   -0.0602   -0.0581    0.0854    0.0653    0.1350    0.0092
          38   -0.1185    0.2052    0.0748    0.0400   -0.0138   -0.0098   -0.1059   -0.0032
          39    0.1705   -0.1459   -0.1599   -0.1256   -0.0253   -0.0547    0.0295   -0.0526
          40   -0.1387   -0.3420   -0.1861   -0.1022    0.1811    0.1301    0.1037    0.0534
          41    0.0637   -0.1618   -0.1130   -0.1086   -0.0953   -0.1142   -0.0210   -0.1024
          42    0.1760   -0.3253   -0.1984   -0.1480   -0.0168   -0.0544    0.0319   -0.0572
          43   -0.0725   -0.0761   -0.0811   -0.0448    0.0871    0.0625    0.0294    0.0412
          44   -0.0899    0.0197   -0.1819   -0.1482    0.0612    0.0160    0.1261   -0.0766
          45    0.1574    0.5865   -0.0126   -0.0491   -0.0672   -0.0694    0.0230   -0.0565
          46    0.0043    0.0266   -0.0420   -0.0550    0.0314   -0.0013   -0.0768    0.0215
          47   -0.1806   -0.0009    0.0384   -0.1579   -0.1771   -0.0947    0.0796    0.2889
          48    0.0737    0.0093   -0.0257    0.0773    0.1245    0.0782   -0.0453   -0.0880
          49    0.0071    0.0016    0.0024    0.0076   -0.0103   -0.0073    0.0176    0.0061
          50   -0.1299    0.0116   -0.1126    0.0768    0.2512   -0.2243   -0.0691   -0.1437
          51    0.0469    0.0222    0.0180   -0.0968   -0.0535    0.1470   -0.1049    0.1768
          52    0.0059    0.0267   -0.0395   -0.0523    0.0366    0.0084   -0.0774    0.0441
          53   -0.0120   -0.0152    0.2074   -0.1132   -0.0054    0.1954   -0.0735   -0.2875
          54   -0.0078   -0.0118   -0.0620    0.1037   -0.0150   -0.0980    0.0426    0.1588
          55    0.0113    0.0021    0.0016    0.0017   -0.0148   -0.0199    0.0136   -0.0484
          56    0.1217   -0.0163    0.1096    0.1650    0.2169   -0.2416    0.0918    0.0492
          57   -0.0760   -0.0325    0.0239    0.0144   -0.1744    0.1227    0.0918   -0.0694


   Root No.       9        10        11        12        13        14        15        16

                 9 A      10 A      11 A      12 A      13 A      14 A      15 A      16 A   

                 571.5     640.5     703.8     780.7     831.8     843.7     882.4     934.5
  
           1   -0.0257   -0.2781   -0.0158    0.0101   -0.2740   -0.2655   -0.0346    0.0135
           2   -0.0044   -0.0945   -0.0465   -0.0111   -0.1058   -0.0931   -0.0106   -0.0677
           3   -0.3432    0.1950    0.0872   -0.0131    0.2346   -0.2935    0.0069   -0.0260
           4   -0.0155   -0.2409   -0.0069   -0.0072    0.1900    0.4164   -0.0124    0.2270
           5   -0.1413   -0.0713   -0.0923    0.0449   -0.2192   -0.0198    0.1517   -0.1997
           6   -0.2472   -0.1700    0.0482    0.0063   -0.1923   -0.1085   -0.1016    0.3014
           7   -0.0137   -0.0716    0.0294    0.0347   -0.2081   -0.1168   -0.0239   -0.0322
           8   -0.0166    0.0873   -0.0641   -0.0626    0.1995   -0.0931   -0.0348    0.1943
           9   -0.0108    0.0174   -0.0169   -0.0112    0.0848   -0.1389   -0.0052   -0.0716
          10   -0.0083    0.0028   -0.0345   -0.0235    0.1097    0.0017    0.0056   -0.0202
          11   -0.1091    0.0434    0.5219    0.1916    0.0446    0.0109   -0.0729   -0.1834
          12   -0.1263    0.2276   -0.1710   -0.0615   -0.0146    0.1325    0.0485   -0.0155
          13    0.0511    0.0156   -0.0615   -0.0352    0.0981   -0.0902    0.0089    0.0320
          14   -0.1536   -0.0202   -0.3487    0.0317    0.0156    0.0661   -0.0005    0.1648
          15   -0.1151   -0.2802    0.1624   -0.0092   -0.0308    0.1254   -0.0007   -0.0316
          16    0.3908    0.1557   -0.0686   -0.0646    0.2033   -0.3470    0.0106   -0.0258
          17    0.1132   -0.1767    0.1141   -0.1115    0.0275    0.0663   -0.2757   -0.0199
          18    0.0513   -0.2253   -0.0985    0.0463    0.0721    0.0908    0.1465   -0.0606
          19   -0.3639    0.0916    0.0436    0.0050    0.1748    0.1805    0.0309   -0.2469
          20   -0.0140    0.1870   -0.0429   -0.0836   -0.0350    0.0512    0.2319    0.1088
          21    0.1502    0.2263    0.0920    0.0855   -0.0782    0.1435   -0.1164   -0.1353
          22    0.0134    0.1951    0.0541    0.0331   -0.1746    0.0404   -0.0147    0.0743
          23    0.0675   -0.0866   -0.1391   -0.2393    0.1029   -0.0171   -0.0907   -0.1818
          24    0.3503   -0.2927   -0.0461    0.0493    0.2887   -0.0912    0.0676   -0.0244
          25   -0.0165    0.1895    0.0635    0.0393   -0.1781    0.0851   -0.0088    0.0565
          26    0.2497    0.1054    0.1607   -0.1637   -0.1528    0.0561    0.1579    0.0661
          27    0.2800    0.3287   -0.0109    0.1452   -0.2236    0.0887   -0.1005    0.0846
          28   -0.0210   -0.1033   -0.0393   -0.0046   -0.0794   -0.1048    0.0640   -0.1554
          29   -0.0190    0.0042   -0.0900   -0.0552   -0.0305   -0.0927    0.0219    0.0512
          30   -0.1177    0.0664   -0.0590   -0.0502    0.0568   -0.1578    0.0640   -0.0442
          31    0.0393   -0.1425   -0.0731   -0.0018   -0.0331    0.1811    0.0792   -0.2931
          32   -0.0627    0.0126    0.0087    0.0129   -0.0239   -0.0398    0.0020    0.1185
          33   -0.0774   -0.0508   -0.2638    0.0545   -0.1921   -0.0594    0.1988   -0.0469
          34   -0.0528   -0.0135    0.0826   -0.0076    0.2507    0.1090   -0.0904    0.4175
          35   -0.0579   -0.0142    0.2126   -0.0265   -0.0141   -0.0561   -0.1684    0.1964
          36   -0.0556   -0.0812    0.1287   -0.0225   -0.1415   -0.0655   -0.1244    0.0556
          37    0.0472    0.0033   -0.0216    0.0061   -0.0506    0.1850    0.0416   -0.0329
          38   -0.1108    0.0682    0.0547   -0.0024    0.1972   -0.2610   -0.0355   -0.0380
          39    0.0454   -0.0205   -0.0412   -0.0121   -0.0490    0.0525    0.0058    0.0345
          40   -0.0369    0.0657    0.0336    0.0194    0.0901    0.0534    0.0456   -0.1588
          41    0.0747   -0.0552   -0.0827   -0.0382   -0.1096    0.0331   -0.0313    0.2275
          42    0.0483   -0.0181   -0.0482   -0.0160   -0.0404    0.0600    0.0089    0.0466
          43   -0.0141   -0.0218    0.0157    0.0125   -0.0605   -0.0660   -0.0115   -0.0193
          44    0.0200    0.1314   -0.0345   -0.0246    0.2375    0.2597    0.0758   -0.0330
          45    0.0465   -0.0235   -0.0420   -0.0137   -0.0409    0.0574    0.0039    0.0472
          46   -0.0629   -0.0368    0.0092    0.0160   -0.0180    0.0723    0.0000   -0.0120
          47   -0.0458   -0.0216   -0.1918    0.4721    0.1234   -0.0387    0.2114    0.1840
          48    0.0935   -0.1470    0.0620   -0.2658    0.0570    0.0322   -0.1023   -0.1551
          49    0.1129    0.0450   -0.0179   -0.0146    0.0598   -0.1029    0.0093   -0.0074
          50    0.1108   -0.1146    0.2044    0.3359    0.0041    0.0235    0.4374   -0.0293
          51   -0.0232   -0.0105   -0.0875   -0.1529   -0.0622    0.1335   -0.2342   -0.0243
          52    0.0527   -0.0301   -0.0091   -0.0012   -0.0058   -0.0523   -0.0086    0.0671
          53    0.1343    0.0001    0.0525    0.4987    0.0176    0.0132   -0.3194   -0.0467
          54    0.0145    0.1641    0.0111   -0.2274   -0.1260    0.0779    0.1603    0.0260
          55   -0.1045    0.0280    0.0089    0.0048    0.0501    0.0539    0.0034   -0.0751
          56   -0.0137    0.0795   -0.3522    0.2205    0.0223    0.0641   -0.3876   -0.2216
          57    0.0632    0.0287    0.1798   -0.1144    0.0523    0.0459    0.2087   -0.0119


   Root No.      17        18        19        20        21        22        23        24

                17 A      18 A      19 A      20 A      21 A      22 A      23 A      24 A   

                 938.7     954.5     997.8    1009.1    1027.1    1057.8    1094.1    1101.0
  
           1    0.0597    0.0122    0.0047   -0.0423    0.0403    0.1998   -0.1157   -0.2564
           2    0.0337   -0.0206   -0.0306   -0.0261    0.0011    0.0233   -0.0239   -0.1036
           3   -0.0629   -0.0203    0.0426   -0.1420    0.0414   -0.0438    0.1547    0.1888
[...]
 FREQ.      1241.95         C  1 -- H 10         +11.8% ( 49.8%)      2.3%
 T-DIPOLE    0.0600         C  2 -- H 12          +8.8% ( 42.8%)      2.3%
 TRAVEL      0.0947         C  1 -- C  4          +8.7% ( 42.7%)     51.4%
 RED. MASS   0.6308         C  1 -- C  2          +7.9% ( 40.8%)      9.4%
 EFF. MASS   6.0535

 VIBRATION   31   31A         ATOM PAIR      ENERGY CONTRIBUTION    RADIAL
 FREQ.      1268.27         C  6 -- C  8         +12.6% ( 61.3%)     83.4%
 T-DIPOLE    0.1147         C  7 -- C  9         +11.3% ( 58.0%)    100.0%
 TRAVEL      0.0699         C  4 -- C  5         +11.0% ( 57.4%)     91.6%
 RED. MASS   1.4141         C  2 -- C  5         +10.0% ( 54.8%)     75.5%
 EFF. MASS  10.8904

 VIBRATION   32   32A         ATOM PAIR      ENERGY CONTRIBUTION    RADIAL
 FREQ.      1322.80         C  1 -- H 10         +15.1% ( 59.1%)      0.2%
 T-DIPOLE    0.1657         C  1 -- C  4         +13.9% ( 56.7%)     51.4%
 TRAVEL      0.0901         C  1 -- C  2         +12.5% ( 53.9%)     22.4%
 RED. MASS   1.3355         C  1 -- C  5         +10.8% ( 50.0%)     77.2%
 EFF. MASS   6.2764         C  1 -- C  3         +10.1% ( 48.3%)     59.8%

 VIBRATION   33   33A         ATOM PAIR      ENERGY CONTRIBUTION    RADIAL
 FREQ.      1389.30         C  2 -- H 11         +30.3% ( 61.1%)      3.3%
 T-DIPOLE    0.0387         C  2 -- H 12         +28.7% ( 59.5%)      4.0%
 TRAVEL      0.1321         C  2 -- C  5          +7.7% ( 30.7%)     36.7%
 RED. MASS   0.4780         C  1 -- C  2          +7.4% ( 30.3%)     46.1%
 EFF. MASS   2.7816

 VIBRATION   34   34A         ATOM PAIR      ENERGY CONTRIBUTION    RADIAL
 FREQ.      1396.99         C  3 -- H 13         +45.2% ( 59.8%)      1.3%
 T-DIPOLE    0.0631         C  3 -- H 15         +36.1% ( 53.4%)      3.5%
 TRAVEL      0.1672         C  3 -- H 14          +8.8% ( 26.4%)     58.3%
 RED. MASS   0.4293         C  1 -- C  3          +6.5% ( 22.7%)     22.4%
 EFF. MASS   1.7264

 VIBRATION   35   35A         ATOM PAIR      ENERGY CONTRIBUTION    RADIAL
 FREQ.      1406.96         C  3 -- H 14         +51.3% ( 62.3%)      0.0%
 T-DIPOLE    0.0586         C  3 -- H 15         +24.9% ( 43.4%)      6.1%
 TRAVEL      0.1735         C  3 -- H 13         +16.7% ( 35.6%)     18.5%
 RED. MASS   0.4071         C  1 -- C  3          +5.2% ( 19.9%)      7.4%
 EFF. MASS   1.5915

 VIBRATION   36   36A         ATOM PAIR      ENERGY CONTRIBUTION    RADIAL
 FREQ.      1424.64         C  1 -- C  3         +20.9% ( 67.5%)     98.8%
 T-DIPOLE    0.1059         C  3 -- H 14         +14.8% ( 56.9%)      3.9%
 TRAVEL      0.0818         C  3 -- H 15         +12.7% ( 52.6%)      3.8%
 RED. MASS   1.6177         C  3 -- H 13         +12.1% ( 51.3%)      4.0%
 EFF. MASS   7.0732

 VIBRATION   37   37A         ATOM PAIR      ENERGY CONTRIBUTION    RADIAL
 FREQ.      1498.72         C  8 -- C  9         +18.5% ( 68.7%)    100.0%
 T-DIPOLE    0.6203         C  4 -- C  5         +14.0% ( 59.8%)    100.0%
 TRAVEL      0.0654         C  7 -- C  9          +7.4% ( 43.3%)      1.8%
 RED. MASS   1.6488         C  6 -- C  8          +7.4% ( 43.3%)      1.5%
 EFF. MASS  10.5275

 VIBRATION   38   38A         ATOM PAIR      ENERGY CONTRIBUTION    RADIAL
 FREQ.      1556.92         C  4 -- C  7         +10.7% ( 54.2%)     48.9%
 T-DIPOLE    0.0725         C  4 -- C  5         +10.2% ( 53.0%)     99.1%
 TRAVEL      0.0605         C  5 -- C  6         +10.1% ( 52.7%)     40.3%
 RED. MASS   1.7280         C  8 -- C  9          +8.4% ( 48.1%)     99.1%
 EFF. MASS  11.8310

 VIBRATION   39   39A         ATOM PAIR      ENERGY CONTRIBUTION    RADIAL
 FREQ.      1571.89         C  7 -- C  9         +17.9% ( 64.2%)     98.0%
 T-DIPOLE    0.4700         C  6 -- C  8         +15.2% ( 59.2%)     98.2%
 TRAVEL      0.0615         C  8 -- C  9         +14.9% ( 58.6%)      0.4%
 RED. MASS   2.0648         C  9 -- H 18          +8.8% ( 45.0%)      5.6%
 EFF. MASS  11.3345

 VIBRATION   40   40A         ATOM PAIR      ENERGY CONTRIBUTION    RADIAL
 FREQ.      1847.97         C  4 -- C  7         +22.0% ( 73.0%)     98.4%
 T-DIPOLE    0.3234         C  4 -- C  5         +14.5% ( 59.2%)      3.3%
 TRAVEL      0.0553         C  5 -- C  6         +12.0% ( 53.8%)     90.0%
 RED. MASS   2.8851         C  1 -- C  4         +10.3% ( 49.8%)     74.4%
 EFF. MASS  11.9301

 VIBRATION   41   41A         ATOM PAIR      ENERGY CONTRIBUTION    RADIAL
 FREQ.      1857.97         C  5 -- C  6         +17.3% ( 64.2%)     94.9%
 T-DIPOLE    0.3338         C  4 -- C  5         +15.9% ( 61.6%)     93.5%
 TRAVEL      0.0552         C  2 -- C  5         +10.9% ( 50.9%)     61.5%
 RED. MASS   2.5168         C  1 -- C  5         +10.6% ( 50.3%)     99.6%
 EFF. MASS  11.9047

 VIBRATION   42   42A         ATOM PAIR      ENERGY CONTRIBUTION    RADIAL
 FREQ.      2960.18         C  1 -- H 10         +95.3% ( 99.7%)    100.0%
 T-DIPOLE    0.1013         C  1 -- C  2          +1.0% ( 10.4%)     13.2%
 TRAVEL      0.1256         C  1 -- C  3          +1.0% ( 10.4%)     11.0%
 RED. MASS   0.9202         C  1 -- C  5          +1.0% ( 10.4%)     31.4%
 EFF. MASS   1.4433

 VIBRATION   43   43A         ATOM PAIR      ENERGY CONTRIBUTION    RADIAL
 FREQ.      3047.01         C  2 -- H 11         +54.8% ( 77.0%)     97.7%
 T-DIPOLE    0.0891         C  2 -- H 12         +41.6% ( 67.1%)     96.1%
 TRAVEL      0.1198         C  2 -- C  4          +1.1% ( 11.0%)      0.2%
 RED. MASS   0.5251         C  2 -- C  5          +1.1% ( 10.9%)      0.1%
 EFF. MASS   1.5424

 VIBRATION   44   44A         ATOM PAIR      ENERGY CONTRIBUTION    RADIAL
 FREQ.      3053.02         C  8 -- H 16         +48.5% ( 70.8%)    100.0%
 T-DIPOLE    0.1688         C  9 -- H 18         +46.4% ( 69.3%)    100.0%
 TRAVEL      0.1216         C  8 -- C  9          +1.3% ( 11.6%)      0.0%
 RED. MASS   0.4442         C  6 -- H 17          +1.2% ( 11.0%)     99.6%
 EFF. MASS   1.4939

 VIBRATION   45   45A         ATOM PAIR      ENERGY CONTRIBUTION    RADIAL
 FREQ.      3065.93         C  9 -- H 18         +44.1% ( 67.4%)    100.0%
 T-DIPOLE    0.3835         C  8 -- H 16         +42.3% ( 66.0%)    100.0%
 TRAVEL      0.1198         C  7 -- H 19          +5.4% ( 23.6%)     99.9%
 RED. MASS   0.3774         C  6 -- H 17          +5.0% ( 22.8%)     99.9%
 EFF. MASS   1.5312

 VIBRATION   46   46A         ATOM PAIR      ENERGY CONTRIBUTION    RADIAL
 FREQ.      3081.18         C  3 -- H 14         +63.0% ( 81.9%)     98.7%
 T-DIPOLE    0.0412         C  3 -- H 13         +27.8% ( 54.4%)     91.7%
 TRAVEL      0.1206         C  3 -- H 15          +8.0% ( 29.2%)     67.8%
 RED. MASS   0.5092         C  1 -- C  3          +1.0% ( 10.3%)      0.0%
 EFF. MASS   1.5059

 VIBRATION   47   47A         ATOM PAIR      ENERGY CONTRIBUTION    RADIAL
 FREQ.      3084.55         C  3 -- H 15         +56.8% ( 77.8%)     98.1%
 T-DIPOLE    0.0472         C  3 -- H 13         +38.8% ( 64.3%)     95.1%
 TRAVEL      0.1204         C  3 -- H 14          +3.3% ( 18.7%)     39.0%
 RED. MASS   0.5045         C  1 -- C  3          +1.0% ( 10.4%)      0.0%
 EFF. MASS   1.5075

 VIBRATION   48   48A         ATOM PAIR      ENERGY CONTRIBUTION    RADIAL
 FREQ.      3087.83         C  7 -- H 19         +55.8% ( 75.9%)    100.0%
 T-DIPOLE    0.5225         C  6 -- H 17         +38.5% ( 63.0%)    100.0%
 TRAVEL      0.1189         C  9 -- H 18          +1.7% ( 13.1%)     99.4%
 RED. MASS   0.4575         C  7 -- C  9          +1.0% ( 10.0%)     42.4%
 EFF. MASS   1.5443

 VIBRATION   49   49A         ATOM PAIR      ENERGY CONTRIBUTION    RADIAL
 FREQ.      3090.42         C  6 -- H 17         +52.2% ( 73.3%)    100.0%
 T-DIPOLE    0.1745         C  7 -- H 19         +34.5% ( 59.6%)    100.0%
 TRAVEL      0.1180         C  8 -- H 16          +5.4% ( 23.5%)    100.0%
 RED. MASS   0.3934         C  9 -- H 18          +4.6% ( 21.8%)    100.0%
 EFF. MASS   1.5664

 VIBRATION   50   50A         ATOM PAIR      ENERGY CONTRIBUTION    RADIAL
 FREQ.      3100.43         C  2 -- H 12         +56.2% ( 74.5%)     97.8%
 T-DIPOLE    0.1251         C  2 -- H 11         +41.6% ( 64.1%)     95.8%
 TRAVEL      0.1302         C  2 -- C  4          +0.7% (  8.4%)     99.1%
 RED. MASS   0.4926         C  1 -- C  2          +0.7% (  8.3%)     48.8%
 EFF. MASS   1.2839

 VIBRATION   51   51A         ATOM PAIR      ENERGY CONTRIBUTION    RADIAL
 FREQ.      3179.33         C  3 -- H 15         +34.5% ( 56.5%)     97.3%
 T-DIPOLE    0.0478         C  3 -- H 14         +32.7% ( 55.1%)     97.0%
 TRAVEL      0.1366         C  3 -- H 13         +32.5% ( 54.9%)     97.0%
 RED. MASS   0.3272         C  1 -- C  3          +0.3% (  5.2%)     99.9%
 EFF. MASS   1.1365

      SYMMETRY NUMBER FOR POINT-GROUP C1  =  1


          SYSTEM IS A GROUND STATE



 InChI=1S/C9H10/c1-7-6-8-4-2-3-5-9(7)8/h2-5,7H,6H2,1H3


          MOLECULE IS NOT LINEAR

          THERE ARE 51 GENUINE VIBRATIONS IN THIS SYSTEM
          THIS THERMODYNAMICS CALCULATION IS LIMITED TO
          MOLECULES WHICH HAVE NO INTERNAL ROTATIONS




                    CALCULATED THERMODYNAMIC PROPERTIES
                                          *
   TEMP. (K)   PARTITION FUNCTION   H.O.F.    ENTHALPY  HEAT CAPACITY ENTROPY
                                   KCAL/MOL   CAL/MOLE    CAL/K/MOL  CAL/K/MOL


 298.00  VIB.     0.1913D+02                  2876.3110    23.6982    15.5165
         ROT.     0.3803D+06                   888.2813     2.9808    28.5139
         INT.     0.7274D+07                  3764.5923    26.6790    44.0304
         TRA.     0.1242D+28                  1480.4688     4.9680    40.2136
         TOT.                       41.552    5245.0611    31.6470    84.2440

 200.00  VIB.     0.4410D+01                  1074.8889    13.3429     8.3234
         ROT.     0.2091D+06                   596.1620     2.9808    27.3252
         INT.     0.9222D+06                  1671.0509    16.3237    35.6486
         TRA.     0.6829D+27                   993.6033     4.9680    38.2325
         TOT.                       38.972    2664.6541    21.2918    73.8811

 210.00  VIB.     0.5057D+01                  1213.1215    14.3082     8.9977
         ROT.     0.2250D+06                   625.9700     2.9808    27.4706
         INT.     0.1138D+07                  1839.0915    17.2890    36.4683
         TRA.     0.7347D+27                  1043.2834     4.9680    38.4749
         TOT.                       39.190    2882.3749    22.2570    74.9432

 220.00  VIB.     0.5817D+01                  1361.1423    15.3004     9.6861
         ROT.     0.2412D+06                   655.7781     2.9808    27.6093
         INT.     0.1403D+07                  2016.9205    18.2812    37.2954
         TRA.     0.7878D+27                  1092.9636     4.9680    38.7060
         TOT.                       39.417    3109.8840    23.2492    76.0014

 230.00  VIB.     0.6711D+01                  1519.2125    16.3177    10.3886
         ROT.     0.2579D+06                   685.5862     2.9808    27.7418
         INT.     0.1731D+07                  2204.7987    19.2985    38.1304
         TRA.     0.8422D+27                  1142.6437     4.9680    38.9268
         TOT.                       39.655    3347.4425    24.2665    77.0572

 240.00  VIB.     0.7766D+01                  1687.5729    17.3580    11.1049
         ROT.     0.2749D+06                   715.3943     2.9808    27.8687
         INT.     0.2135D+07                  2402.9672    20.3388    38.9736
         TRA.     0.8977D+27                  1192.3239     4.9680    39.1383
         TOT.                       39.903    3595.2911    25.3068    78.1119

 250.00  VIB.     0.9013D+01                  1866.4398    18.4186    11.8350
         ROT.     0.2922D+06                   745.2024     2.9808    27.9904
         INT.     0.2634D+07                  2611.6423    21.3994    39.8253
         TRA.     0.9544D+27                  1242.0041     4.9680    39.3411
         TOT.                       40.161    3853.6463    26.3674    79.1664

 260.00  VIB.     0.1049D+02                  2056.0023    19.4966    12.5783
         ROT.     0.3099D+06                   775.0105     2.9808    28.1073
         INT.     0.3251D+07                  2831.0128    22.4774    40.6856
         TRA.     0.1012D+28                  1291.6842     4.9680    39.5359
         TOT.                       40.430    4122.6970    27.4454    80.2215

 270.00  VIB.     0.1224D+02                  2256.4194    20.5890    13.3345
         ROT.     0.3280D+06                   804.8186     2.9808    28.2198
         INT.     0.4015D+07                  3061.2381    23.5698    41.5543
         TRA.     0.1071D+28                  1341.3644     4.9680    39.7234
         TOT.                       40.710    4402.6024    28.5378    81.2777

 280.00  VIB.     0.1432D+02                  2467.8198    21.6927    14.1032
         ROT.     0.3464D+06                   834.6267     2.9808    28.3282
         INT.     0.4961D+07                  3302.4466    24.6735    42.4314
         TRA.     0.1131D+28                  1391.0445     4.9680    39.9041
         TOT.                       41.001    4693.4911    29.6415    82.3355

 290.00  VIB.     0.1680D+02                  2690.3012    22.8047    14.8838
         ROT.     0.3651D+06                   864.4348     2.9808    28.4328
         INT.     0.6134D+07                  3554.7361    25.7855    43.3166
         TRA.     0.1192D+28                  1440.7247     4.9680    40.0784
         TOT.                       41.303    4995.4608    30.7535    83.3950

 300.00  VIB.     0.1976D+02                  2923.9311    23.9219    15.6758
         ROT.     0.3841D+06                   894.2429     2.9808    28.5338
         INT.     0.7591D+07                  3818.1740    26.9027    44.2096
         TRA.     0.1255D+28                  1490.4049     4.9680    40.2469
         TOT.                       41.616    5308.5789    31.8707    84.4565

 310.00  VIB.     0.2330D+02                  3168.7476    25.0416    16.4784
         ROT.     0.4035D+06                   924.0510     2.9808    28.6316
         INT.     0.9402D+07                  4092.7986    28.0224    45.1100
         TRA.     0.1318D+28                  1540.0850     4.9680    40.4098
         TOT.                       41.940    5632.8837    32.9904    85.5197

 320.00  VIB.     0.2754D+02                  3424.7613    26.1609    17.2911
         ROT.     0.4232D+06                   953.8591     2.9808    28.7262
         INT.     0.1165D+08                  4378.6204    29.1417    46.0173
         TRA.     0.1382D+28                  1589.7652     4.9680    40.5675
         TOT.                       42.276    5968.3856    34.1097    86.5848

 330.00  VIB.     0.3262D+02                  3691.9568    27.2775    18.1133
         ROT.     0.4432D+06                   983.6672     2.9808    28.8179
         INT.     0.1446D+08                  4675.6240    30.2583    46.9312
         TRA.     0.1447D+28                  1639.4454     4.9680    40.7204
         TOT.                       42.622    6315.0694    35.2263    87.6515

 340.00  VIB.     0.3874D+02                  3970.2947    28.3890    18.9441
         ROT.     0.4635D+06                  1013.4753     2.9808    28.9069
         INT.     0.1795D+08                  4983.7700    31.3699    47.8510
         TRA.     0.1514D+28                  1689.1255     4.9680    40.8687
         TOT.                       42.980    6672.8955    36.3379    88.7197

 350.00  VIB.     0.4609D+02                  4259.7140    29.4935    19.7830
         ROT.     0.4841D+06                  1043.2834     2.9808    28.9933
         INT.     0.2231D+08                  5302.9974    32.4743    48.7763
         TRA.     0.1581D+28                  1738.8057     4.9680    41.0127
         TOT.                       43.349    7041.8031    37.4423    89.7890

 360.00  VIB.     0.5497D+02                  4560.1341    30.5889    20.6292
         ROT.     0.5050D+06                  1073.0915     2.9808    29.0773
         INT.     0.2776D+08                  5633.2256    33.5697    49.7065
         TRA.     0.1649D+28                  1788.4859     4.9680    41.1526
         TOT.                       43.729    7421.7114    38.5377    90.8591

 370.00  VIB.     0.6568D+02                  4871.4569    31.6738    21.4821
         ROT.     0.5261D+06                  1102.8996     2.9808    29.1590
         INT.     0.3456D+08                  5974.3565    34.6546    50.6411
         TRA.     0.1718D+28                  1838.1660     4.9680    41.2888
         TOT.                       44.120    7812.5225    39.6226    91.9299

 380.00  VIB.     0.7864D+02                  5193.5691    32.7466    22.3411
         ROT.     0.5476D+06                  1132.7077     2.9808    29.2384
         INT.     0.4306D+08                  6326.2768    35.7274    51.5795
         TRA.     0.1788D+28                  1887.8462     4.9680    41.4213
         TOT.                       44.521    8214.1230    40.6954    93.0008

 390.00  VIB.     0.9432D+02                  5526.3443    33.8062    23.2054
         ROT.     0.5694D+06                  1162.5158     2.9808    29.3159
         INT.     0.5371D+08                  6688.8601    36.7870    52.5213
         TRA.     0.1860D+28                  1937.5263     4.9680    41.5503
         TOT.                       44.934    8626.3864    41.7550    94.0716

 400.00  VIB.     0.1133D+03                  5869.6445    34.8514    24.0745
         ROT.     0.5914D+06                  1192.3239     2.9808    29.3913
         INT.     0.6704D+08                  7061.9684    37.8323    53.4659
         TRA.     0.1932D+28                  1987.2065     4.9680    41.6761
         TOT.                       45.356    9049.1749    42.8003    95.1420

   *: NOTE: HEATS OF FORMATION ARE RELATIVE TO THE
            ELEMENTS IN THEIR STANDARD STATE AT 298K
              (=  Standard Enthalpy of Formation).

            Hvib:  Zero-point energy is not included.
                   frequencies of less than zero cm-1 are not included.
            Hrot = (3/2)RT
            Htra = (3/2)RT + pV = (5/2)RT

            Heat capacity is Cp, not Cv

          For more information, see: HTTP://OpenMOPAC.net/Manual/thermochemistry.html


           FORCE CONSTANT IN CARTESIAN COORDINATES (Millidynes/A)

    ATOM   CHEMICAL       X               Y               Z
   NUMBER   SYMBOL  FORCE CONSTANT  FORCE CONSTANT  FORCE CONSTANT

      1       C        7.127023        8.719767        8.414161
      2       C        6.900790        8.468129        8.497852
      3       C        8.382518        8.468208        8.311099
      4       C       11.504713        4.932711       11.542384
      5       C       11.525740        4.965647       11.604252
      6       C       12.604048        4.363407        9.869779
      7       C       12.587406        4.347823        9.823757
      8       C       12.267767        4.348220        9.711357
      9       C       12.262109        4.341067        9.745131
     10       H        1.358110        2.094724        2.768142
     11       H        1.473010        4.425232        0.652086
     12       H        1.476350        1.998650        3.095563
     13       H        0.746985        1.587434        4.406435
     14       H        1.448437        2.282256        3.036141
     15       H        5.215083        0.734149        0.801048
     16       H        1.834402        1.156206        3.272416
     17       H        5.232156        0.435233        0.644959
     18       H        1.794930        1.127973        3.339727
     19       H        5.229499        0.432744        0.646015

 **********************
 *                    *
 * JOB ENDED NORMALLY *
 *                    *
 **********************



 TOTAL JOB TIME:             1.51 SECONDS

 == MOPAC DONE ==
