 *******************************************************************************
 ** Site#: 14399        For non-commercial use only    Version 18.184L 64BITS **
 *******************************************************************************
 ** Cite this program as: MOPAC2016, Version: 18.184L, James J. P. Stewart,   **
 ** Stewart Computational Chemistry, web: HTTP://OpenMOPAC.net. Days left:  18**
 *******************************************************************************
 **                                                                           **
 **                                MOPAC2016                                  **
 **                                                                           **
 *******************************************************************************

                              PM3 CALCULATION RESULTS

 *******************************************************************************
 *  CALCULATION DONE:                                Sat Jun 15 10:30:43 2019  *
 *  PM3        - The PM3 Hamiltonian to be used
 *  PRECISE    - CRITERIA TO BE INCREASED BY 100 TIMES
 *  NOSYM      - POINT-GROUP SYMMETRY SET TO C1
 *  THREADS=1  - MULTI-THREADING NOT USED
 *  T=         - A TIME OF 172800.0 SECONDS REQUESTED
 *  DUMP=N     - RESTART FILE WRITTEN EVERY  7200.000 SECONDS
 *******************************************************************************
pm3  precise nosym THREADS=1
 InChI=1S/C7H12O3/c8-10-9-7-5-3-1-2-4-6-7/h3,5,7-8H,1-2,4,6H2

   ATOM   CHEMICAL          X               Y               Z
  NUMBER   SYMBOL      (ANGSTROMS)     (ANGSTROMS)     (ANGSTROMS)
 
     1       O          2.31140000  *  -0.69930000  *  -0.57330000  *
     2       O          3.21000000  *  -0.15850000  *   0.23240000  *
     3       O          3.94900000  *   0.60280000  *  -0.54960000  *
     4       C          1.05280000  *  -0.20480000  *  -0.17260000  *
     5       C          0.06640000  *  -0.39600000  *  -1.33910000  *
     6       C         -1.17100000  *   0.50930000  *  -1.23940000  *
     7       C         -2.11320000  *   0.13380000  *  -0.08770000  *
     8       C         -1.50290000  *   0.40820000  *   1.29300000  *
     9       C          0.58820000  *  -0.95710000  *   1.05530000  *
    10       C         -0.55010000  *  -0.67930000  *   1.70930000  *
    11       H          1.12620000  *   0.88460000  *   0.06010000  *
    12       H          0.58850000  *  -0.13630000  *  -2.28640000  *
    13       H         -0.24210000  *  -1.46200000  *  -1.42060000  *
    14       H         -0.86140000  *   1.57370000  *  -1.14930000  *
    15       H         -1.74000000  *   0.41800000  *  -2.19010000  *
    16       H         -2.42300000  *  -0.93130000  *  -0.17340000  *
    17       H         -3.03270000  *   0.75090000  *  -0.18720000  *
    18       H         -0.99330000  *   1.39580000  *   1.31400000  *
    19       H         -2.32660000  *   0.44780000  *   2.03810000  *
    20       H          1.21170000  *  -1.76120000  *   1.43700000  *
    21       H         -0.79790000  *  -1.26770000  *   2.58820000  *
    22       H          3.64980000  *   1.52840000  *  -0.35840000  *
 


          CARTESIAN COORDINATES 

    NO.       ATOM           X           Y           Z

     1         O          2.3114     -0.6993     -0.5733
     2         O          3.2100     -0.1585      0.2324
     3         O          3.9490      0.6028     -0.5496
     4         C          1.0528     -0.2048     -0.1726
     5         C          0.0664     -0.3960     -1.3391
     6         C         -1.1710      0.5093     -1.2394
     7         C         -2.1132      0.1338     -0.0877
     8         C         -1.5029      0.4082      1.2930
     9         C          0.5882     -0.9571      1.0553
    10         C         -0.5501     -0.6793      1.7093
    11         H          1.1262      0.8846      0.0601
    12         H          0.5885     -0.1363     -2.2864
    13         H         -0.2421     -1.4620     -1.4206
    14         H         -0.8614      1.5737     -1.1493
    15         H         -1.7400      0.4180     -2.1901
    16         H         -2.4230     -0.9313     -0.1734
    17         H         -3.0327      0.7509     -0.1872
    18         H         -0.9933      1.3958      1.3140
    19         H         -2.3266      0.4478      2.0381
    20         H          1.2117     -1.7612      1.4370
    21         H         -0.7979     -1.2677      2.5882
    22         H          3.6498      1.5284     -0.3584

  H: (PM3): J. J. P. STEWART, J. COMP. CHEM. 10, 209 (1989).
  C: (PM3): J. J. P. STEWART, J. COMP. CHEM. 10, 209 (1989).
  O: (PM3): J. J. P. STEWART, J. COMP. CHEM. 10, 209 (1989).

           Empirical Formula: C7 H12 O3  =    22 atoms



      MOLECULAR POINT GROUP   :   C1  


      RHF CALCULATION, NO. OF DOUBLY OCCUPIED LEVELS = 29


          Geometry optimization using EF

          DIAGONAL MATRIX USED AS START HESSIAN

 CYCLE:     1 TIME:   0.008 TIME LEFT:  2.00D  GRAD.:   185.339 HEAT: -1.558742
 CYCLE:     2 TIME:   0.004 TIME LEFT:  2.00D  GRAD.:   122.054 HEAT: -8.480144
 CYCLE:     3 TIME:   0.012 TIME LEFT:  2.00D  GRAD.:   120.573 HEAT: -9.501125
 CYCLE:     4 TIME:   0.004 TIME LEFT:  2.00D  GRAD.:    90.281 HEAT: -11.67029
 CYCLE:     5 TIME:   0.008 TIME LEFT:  2.00D  GRAD.:    28.361 HEAT: -13.28092
 CYCLE:     6 TIME:   0.012 TIME LEFT:  2.00D  GRAD.:    27.506 HEAT: -13.43704
 CYCLE:     7 TIME:   0.004 TIME LEFT:  2.00D  GRAD.:    33.060 HEAT: -13.52149
 CYCLE:     8 TIME:   0.004 TIME LEFT:  2.00D  GRAD.:    25.278 HEAT: -13.71436
 CYCLE:     9 TIME:   0.008 TIME LEFT:  2.00D  GRAD.:    12.159 HEAT: -13.89294
 CYCLE:    10 TIME:   0.012 TIME LEFT:  2.00D  GRAD.:     9.303 HEAT: -13.94413
 CYCLE:    11 TIME:   0.004 TIME LEFT:  2.00D  GRAD.:    12.168 HEAT: -13.98875
 CYCLE:    12 TIME:   0.004 TIME LEFT:  2.00D  GRAD.:    10.451 HEAT: -14.05761
 CYCLE:    13 TIME:   0.004 TIME LEFT:  2.00D  GRAD.:    15.680 HEAT: -14.05982
 CYCLE:    14 TIME:   0.004 TIME LEFT:  2.00D  GRAD.:    17.446 HEAT: -14.06867
 CYCLE:    15 TIME:   0.012 TIME LEFT:  2.00D  GRAD.:     9.900 HEAT: -14.13582
 CYCLE:    16 TIME:   0.008 TIME LEFT:  2.00D  GRAD.:     4.894 HEAT: -14.15938
 CYCLE:    17 TIME:   0.004 TIME LEFT:  2.00D  GRAD.:     3.770 HEAT: -14.17012
 CYCLE:    18 TIME:   0.004 TIME LEFT:  2.00D  GRAD.:     4.594 HEAT: -14.18015
 CYCLE:    19 TIME:   0.004 TIME LEFT:  2.00D  GRAD.:     4.549 HEAT: -14.18880
 CYCLE:    20 TIME:   0.008 TIME LEFT:  2.00D  GRAD.:     4.058 HEAT: -14.19613
 CYCLE:    21 TIME:   0.008 TIME LEFT:  2.00D  GRAD.:     6.497 HEAT: -14.19707
 CYCLE:    22 TIME:   0.004 TIME LEFT:  2.00D  GRAD.:     3.518 HEAT: -14.21004
 CYCLE:    23 TIME:   0.004 TIME LEFT:  2.00D  GRAD.:     4.513 HEAT: -14.21498
 CYCLE:    24 TIME:   0.004 TIME LEFT:  2.00D  GRAD.:     2.485 HEAT: -14.22632
 CYCLE:    25 TIME:   0.008 TIME LEFT:  2.00D  GRAD.:     2.354 HEAT: -14.23457
 CYCLE:    26 TIME:   0.004 TIME LEFT:  2.00D  GRAD.:     2.139 HEAT: -14.24056
 CYCLE:    27 TIME:   0.004 TIME LEFT:  2.00D  GRAD.:     2.175 HEAT: -14.24522
 CYCLE:    28 TIME:   0.004 TIME LEFT:  2.00D  GRAD.:     2.075 HEAT: -14.25098
 CYCLE:    29 TIME:   0.008 TIME LEFT:  2.00D  GRAD.:     2.600 HEAT: -14.26024
 CYCLE:    30 TIME:   0.004 TIME LEFT:  2.00D  GRAD.:     3.154 HEAT: -14.26777
 CYCLE:    31 TIME:   0.004 TIME LEFT:  2.00D  GRAD.:     2.415 HEAT: -14.27573
 CYCLE:    32 TIME:   0.004 TIME LEFT:  2.00D  GRAD.:     2.051 HEAT: -14.28465
 CYCLE:    33 TIME:   0.008 TIME LEFT:  2.00D  GRAD.:     1.959 HEAT: -14.29696
 CYCLE:    34 TIME:   0.004 TIME LEFT:  2.00D  GRAD.:     1.956 HEAT: -14.30334
 CYCLE:    35 TIME:   0.004 TIME LEFT:  2.00D  GRAD.:     2.319 HEAT: -14.31576
 CYCLE:    36 TIME:   0.008 TIME LEFT:  2.00D  GRAD.:     2.532 HEAT: -14.32703
 CYCLE:    37 TIME:   0.004 TIME LEFT:  2.00D  GRAD.:     2.343 HEAT: -14.33793
 CYCLE:    38 TIME:   0.004 TIME LEFT:  2.00D  GRAD.:     2.344 HEAT: -14.34824
 CYCLE:    39 TIME:   0.004 TIME LEFT:  2.00D  GRAD.:     2.624 HEAT: -14.35733
 CYCLE:    40 TIME:   0.004 TIME LEFT:  2.00D  GRAD.:     3.176 HEAT: -14.36622
 CYCLE:    41 TIME:   0.008 TIME LEFT:  2.00D  GRAD.:     2.117 HEAT: -14.37557
 CYCLE:    42 TIME:   0.004 TIME LEFT:  2.00D  GRAD.:     1.933 HEAT: -14.38549
 CYCLE:    43 TIME:   0.004 TIME LEFT:  2.00D  GRAD.:     2.639 HEAT: -14.39920
 CYCLE:    44 TIME:   0.004 TIME LEFT:  2.00D  GRAD.:     3.694 HEAT: -14.41803
 CYCLE:    45 TIME:   0.008 TIME LEFT:  2.00D  GRAD.:     3.389 HEAT: -14.44047
 CYCLE:    46 TIME:   0.004 TIME LEFT:  2.00D  GRAD.:     7.372 HEAT: -14.45642
 CYCLE:    47 TIME:   0.004 TIME LEFT:  2.00D  GRAD.:     3.113 HEAT: -14.48529
 CYCLE:    48 TIME:   0.004 TIME LEFT:  2.00D  GRAD.:     3.213 HEAT: -14.49928
 CYCLE:    49 TIME:   0.004 TIME LEFT:  2.00D  GRAD.:     4.545 HEAT: -14.52111
 CYCLE:    50 TIME:   0.008 TIME LEFT:  2.00D  GRAD.:     3.947 HEAT: -14.53322
 CYCLE:    51 TIME:   0.004 TIME LEFT:  2.00D  GRAD.:     7.150 HEAT: -14.55905
 CYCLE:    52 TIME:   0.004 TIME LEFT:  2.00D  GRAD.:     6.642 HEAT: -14.56705
 CYCLE:    53 TIME:   0.008 TIME LEFT:  2.00D  GRAD.:     2.670 HEAT: -14.59859
 CYCLE:    54 TIME:   0.004 TIME LEFT:  2.00D  GRAD.:     7.654 HEAT: -14.61722
 CYCLE:    55 TIME:   0.004 TIME LEFT:  2.00D  GRAD.:     4.193 HEAT: -14.63447
 CYCLE:    56 TIME:   0.004 TIME LEFT:  2.00D  GRAD.:     2.697 HEAT: -14.66683
 CYCLE:    57 TIME:   0.004 TIME LEFT:  2.00D  GRAD.:     3.358 HEAT: -14.68973
 CYCLE:    58 TIME:   0.008 TIME LEFT:  2.00D  GRAD.:     2.314 HEAT: -14.70864
 CYCLE:    59 TIME:   0.004 TIME LEFT:  2.00D  GRAD.:     7.066 HEAT: -14.71294
 CYCLE:    60 TIME:   0.004 TIME LEFT:  2.00D  GRAD.:     3.283 HEAT: -14.72982
 CYCLE:    61 TIME:   0.008 TIME LEFT:  2.00D  GRAD.:     2.601 HEAT: -14.74650
 CYCLE:    62 TIME:   0.004 TIME LEFT:  2.00D  GRAD.:     2.462 HEAT: -14.76665
 CYCLE:    63 TIME:   0.004 TIME LEFT:  2.00D  GRAD.:     4.659 HEAT: -14.78226
 CYCLE:    64 TIME:   0.004 TIME LEFT:  2.00D  GRAD.:     3.179 HEAT: -14.79521
 CYCLE:    65 TIME:   0.004 TIME LEFT:  2.00D  GRAD.:     3.733 HEAT: -14.80848
 CYCLE:    66 TIME:   0.008 TIME LEFT:  2.00D  GRAD.:     3.430 HEAT: -14.83063
 CYCLE:    67 TIME:   0.004 TIME LEFT:  2.00D  GRAD.:     4.495 HEAT: -14.84350
 CYCLE:    68 TIME:   0.016 TIME LEFT:  2.00D  GRAD.:     4.812 HEAT: -14.85088
 CYCLE:    69 TIME:   0.004 TIME LEFT:  2.00D  GRAD.:     1.429 HEAT: -14.86154
 CYCLE:    70 TIME:   0.008 TIME LEFT:  2.00D  GRAD.:     1.478 HEAT: -14.86725
 CYCLE:    71 TIME:   0.004 TIME LEFT:  2.00D  GRAD.:     5.262 HEAT: -14.87629
 CYCLE:    72 TIME:   0.004 TIME LEFT:  2.00D  GRAD.:     2.854 HEAT: -14.88244
 CYCLE:    73 TIME:   0.004 TIME LEFT:  2.00D  GRAD.:     1.338 HEAT: -14.89202
 CYCLE:    74 TIME:   0.008 TIME LEFT:  2.00D  GRAD.:     1.360 HEAT: -14.90216
 CYCLE:    75 TIME:   0.008 TIME LEFT:  2.00D  GRAD.:     2.100 HEAT: -14.91565
 CYCLE:    76 TIME:   0.004 TIME LEFT:  2.00D  GRAD.:     2.224 HEAT: -14.92185
 CYCLE:    77 TIME:   0.004 TIME LEFT:  2.00D  GRAD.:     2.246 HEAT: -14.92826
 CYCLE:    78 TIME:   0.008 TIME LEFT:  2.00D  GRAD.:     2.660 HEAT: -14.94472
 CYCLE:    79 TIME:   0.004 TIME LEFT:  2.00D  GRAD.:     3.648 HEAT: -14.95537
 CYCLE:    80 TIME:   0.012 TIME LEFT:  2.00D  GRAD.:     7.231 HEAT: -14.96017
 CYCLE:    81 TIME:   0.004 TIME LEFT:  2.00D  GRAD.:     1.696 HEAT: -14.97903
 CYCLE:    82 TIME:   0.008 TIME LEFT:  2.00D  GRAD.:     1.798 HEAT: -14.98650
 CYCLE:    83 TIME:   0.004 TIME LEFT:  2.00D  GRAD.:     4.799 HEAT: -14.99533
 CYCLE:    84 TIME:   0.004 TIME LEFT:  2.00D  GRAD.:     2.268 HEAT: -15.00400
 CYCLE:    85 TIME:   0.004 TIME LEFT:  2.00D  GRAD.:     1.090 HEAT: -15.01150
 CYCLE:    86 TIME:   0.008 TIME LEFT:  2.00D  GRAD.:     1.198 HEAT: -15.01626
 CYCLE:    87 TIME:   0.004 TIME LEFT:  2.00D  GRAD.:     1.204 HEAT: -15.02048
 CYCLE:    88 TIME:   0.004 TIME LEFT:  2.00D  GRAD.:     1.379 HEAT: -15.02429
 CYCLE:    89 TIME:   0.004 TIME LEFT:  2.00D  GRAD.:     1.492 HEAT: -15.03056
 CYCLE:    90 TIME:   0.008 TIME LEFT:  2.00D  GRAD.:     2.502 HEAT: -15.03267
 CYCLE:    91 TIME:   0.004 TIME LEFT:  2.00D  GRAD.:     1.086 HEAT: -15.03646
 CYCLE:    92 TIME:   0.004 TIME LEFT:  2.00D  GRAD.:     1.127 HEAT: -15.03831
 CYCLE:    93 TIME:   0.004 TIME LEFT:  2.00D  GRAD.:     1.617 HEAT: -15.04245
 CYCLE:    94 TIME:   0.008 TIME LEFT:  2.00D  GRAD.:     1.400 HEAT: -15.04554
 CYCLE:    95 TIME:   0.004 TIME LEFT:  2.00D  GRAD.:     0.773 HEAT: -15.04871
 CYCLE:    96 TIME:   0.004 TIME LEFT:  2.00D  GRAD.:     1.087 HEAT: -15.04998
 CYCLE:    97 TIME:   0.008 TIME LEFT:  2.00D  GRAD.:     1.694 HEAT: -15.05198
 CYCLE:    98 TIME:   0.004 TIME LEFT:  2.00D  GRAD.:     0.982 HEAT: -15.05377
 CYCLE:    99 TIME:   0.004 TIME LEFT:  2.00D  GRAD.:     0.853 HEAT: -15.05680
 CYCLE:   100 TIME:   0.004 TIME LEFT:  2.00D  GRAD.:     1.077 HEAT: -15.05873
 CYCLE:   101 TIME:   0.004 TIME LEFT:  2.00D  GRAD.:     0.952 HEAT: -15.06229
 CYCLE:   102 TIME:   0.008 TIME LEFT:  2.00D  GRAD.:     0.918 HEAT: -15.06415
 CYCLE:   103 TIME:   0.004 TIME LEFT:  2.00D  GRAD.:     1.543 HEAT: -15.06605
 CYCLE:   104 TIME:   0.004 TIME LEFT:  2.00D  GRAD.:     0.957 HEAT: -15.06707
 CYCLE:   105 TIME:   0.004 TIME LEFT:  2.00D  GRAD.:     0.549 HEAT: -15.06816
 CYCLE:   106 TIME:   0.008 TIME LEFT:  2.00D  GRAD.:     0.384 HEAT: -15.06931
 CYCLE:   107 TIME:   0.004 TIME LEFT:  2.00D  GRAD.:     0.363 HEAT: -15.07064
 CYCLE:   108 TIME:   0.004 TIME LEFT:  2.00D  GRAD.:     0.295 HEAT: -15.07086
 CYCLE:   109 TIME:   0.004 TIME LEFT:  2.00D  GRAD.:     0.268 HEAT: -15.07107
 CYCLE:   110 TIME:   0.008 TIME LEFT:  2.00D  GRAD.:     0.239 HEAT: -15.07124
 CYCLE:   111 TIME:   0.004 TIME LEFT:  2.00D  GRAD.:     0.262 HEAT: -15.07139
 CYCLE:   112 TIME:   0.004 TIME LEFT:  2.00D  GRAD.:     0.230 HEAT: -15.07144
 CYCLE:   113 TIME:   0.004 TIME LEFT:  2.00D  GRAD.:     0.241 HEAT: -15.07153
 CYCLE:   114 TIME:   0.004 TIME LEFT:  2.00D  GRAD.:     0.251 HEAT: -15.07163
 CYCLE:   115 TIME:   0.008 TIME LEFT:  2.00D  GRAD.:     0.292 HEAT: -15.07194
 CYCLE:   116 TIME:   0.004 TIME LEFT:  2.00D  GRAD.:     0.236 HEAT: -15.07209
 CYCLE:   117 TIME:   0.004 TIME LEFT:  2.00D  GRAD.:     0.361 HEAT: -15.07223
 CYCLE:   118 TIME:   0.004 TIME LEFT:  2.00D  GRAD.:     0.252 HEAT: -15.07239
 CYCLE:   119 TIME:   0.008 TIME LEFT:  2.00D  GRAD.:     0.197 HEAT: -15.07255
 CYCLE:   120 TIME:   0.004 TIME LEFT:  2.00D  GRAD.:     0.261 HEAT: -15.07300
 CYCLE:   121 TIME:   0.004 TIME LEFT:  2.00D  GRAD.:     0.179 HEAT: -15.07325
 CYCLE:   122 TIME:   0.004 TIME LEFT:  2.00D  GRAD.:     0.245 HEAT: -15.07358
 CYCLE:   123 TIME:   0.008 TIME LEFT:  2.00D  GRAD.:     0.222 HEAT: -15.07368
 CYCLE:   124 TIME:   0.004 TIME LEFT:  2.00D  GRAD.:     0.277 HEAT: -15.07377
 CYCLE:   125 TIME:   0.004 TIME LEFT:  2.00D  GRAD.:     0.315 HEAT: -15.07384
 CYCLE:   126 TIME:   0.004 TIME LEFT:  2.00D  GRAD.:     0.338 HEAT: -15.07392
 CYCLE:   127 TIME:   0.008 TIME LEFT:  2.00D  GRAD.:     0.172 HEAT: -15.07397
 CYCLE:   128 TIME:   0.004 TIME LEFT:  2.00D  GRAD.:     0.142 HEAT: -15.07400
 CYCLE:   129 TIME:   0.004 TIME LEFT:  2.00D  GRAD.:     0.143 HEAT: -15.07408
 CYCLE:   130 TIME:   0.004 TIME LEFT:  2.00D  GRAD.:     0.143 HEAT: -15.07412
 CYCLE:   131 TIME:   0.004 TIME LEFT:  2.00D  GRAD.:     0.513 HEAT: -15.07418
 CYCLE:   132 TIME:   0.008 TIME LEFT:  2.00D  GRAD.:     0.185 HEAT: -15.07433
 CYCLE:   133 TIME:   0.004 TIME LEFT:  2.00D  GRAD.:     0.159 HEAT: -15.07447
 CYCLE:   134 TIME:   0.008 TIME LEFT:  2.00D  GRAD.:     1.722 HEAT: -15.07407
 CYCLE:   135 TIME:   0.008 TIME LEFT:  2.00D  GRAD.:     0.673 HEAT: -15.07571
 CYCLE:   136 TIME:   0.004 TIME LEFT:  2.00D  GRAD.:     0.294 HEAT: -15.07599
 CYCLE:   137 TIME:   0.004 TIME LEFT:  2.00D  GRAD.:     1.027 HEAT: -15.07615
 CYCLE:   138 TIME:   0.004 TIME LEFT:  2.00D  GRAD.:     0.319 HEAT: -15.07632
 CYCLE:   139 TIME:   0.004 TIME LEFT:  2.00D  GRAD.:     0.258 HEAT: -15.07646
 CYCLE:   140 TIME:   0.008 TIME LEFT:  2.00D  GRAD.:     0.846 HEAT: -15.07641
 CYCLE:   141 TIME:   0.004 TIME LEFT:  2.00D  GRAD.:     0.135 HEAT: -15.07668
 CYCLE:   142 TIME:   0.004 TIME LEFT:  2.00D  GRAD.:     0.111 HEAT: -15.07672
 CYCLE:   143 TIME:   0.008 TIME LEFT:  2.00D  GRAD.:     0.264 HEAT: -15.07676
 CYCLE:   144 TIME:   0.004 TIME LEFT:  2.00D  GRAD.:     0.287 HEAT: -15.07680
 CYCLE:   145 TIME:   0.004 TIME LEFT:  2.00D  GRAD.:     0.097 HEAT: -15.07686
 CYCLE:   146 TIME:   0.004 TIME LEFT:  2.00D  GRAD.:     0.036 HEAT: -15.07688

     GRADIENT =  0.03637  IS LESS THAN CUTOFF =  0.05000



 -------------------------------------------------------------------------------
 pm3  precise nosym THREADS=1
 InChI=1S/C7H12O3/c8-10-9-7-5-3-1-2-4-6-7/h3,5,7-8H,1-2,4,6H2



     GEOMETRY OPTIMISED USING EIGENVECTOR FOLLOWING (EF).     
     SCF FIELD WAS ACHIEVED                                   


                              PM3 CALCULATION
                                                       MOPAC2016 (Version: 18.184L)
                                                       Sat Jun 15 10:30:44 2019
                                                       No. of days remaining =  18




          FINAL HEAT OF FORMATION =        -15.07688 KCAL/MOL =     -63.08167 KJ/MOL


          TOTAL ENERGY            =      -1890.90365 EV
          ELECTRONIC ENERGY       =      -9319.41451 EV  POINT GROUP:     C1  
          CORE-CORE REPULSION     =       7428.51086 EV
          COSMO AREA              =        178.05 SQUARE ANGSTROMS
          COSMO VOLUME            =        178.97 CUBIC ANGSTROMS

          GRADIENT NORM           =          0.03637 = 0.00775 PER ATOM
          IONIZATION POTENTIAL    =          9.938560 EV
          HOMO LUMO ENERGIES (EV) =         -9.939  0.713
          NO. OF FILLED LEVELS    =         29
          MOLECULAR WEIGHT        =        144.1700

          MOLECULAR DIMENSIONS (Angstroms)

            Atom       Atom       Distance
            H    22    H    17     7.93161
            H    21    H    15     5.11580
            H    18    H    13     3.37491


          SCF CALCULATIONS        =        162
 
          WALL-CLOCK TIME         =          0.781 SECONDS
          COMPUTATION TIME        =          0.726 SECONDS




   ATOM   CHEMICAL          X               Y               Z
  NUMBER   SYMBOL      (ANGSTROMS)     (ANGSTROMS)     (ANGSTROMS)
 
     1       O          2.24664641  *  -0.29575949  *  -0.66568505  *
     2       O          3.27120204  *   0.48993841  *   0.15813027  *
     3       O          4.37591080  *  -0.19674596  *  -0.29125429  *
     4       C          0.95701995  *   0.01838181  *  -0.17199226  *
     5       C         -0.00768995  *  -0.22797030  *  -1.34935485  *
     6       C         -1.31722778  *   0.52477379  *  -1.17759627  *
     7       C         -2.19925082  *  -0.02683919  *  -0.06865363  *
     8       C         -1.63528334  *   0.21159000  *   1.32586899  *
     9       C          0.60886788  *  -0.83840249  *   1.01158824  *
    10       C         -0.54564645  *  -0.74095615  *   1.67191153  *
    11       H          0.91664266  *   1.09654680  *   0.13140813  *
    12       H          0.46631036  *   0.09123523  *  -2.30005204  *
    13       H         -0.20117920  *  -1.31347806  *  -1.45835515  *
    14       H         -1.11708712  *   1.60167391  *  -1.00164634  *
    15       H         -1.87703280  *   0.47989134  *  -2.13337957  *
    16       H         -2.37267341  *  -1.11004473  *  -0.22443181  *
    17       H         -3.19684251  *   0.45066909  *  -0.13823931  *
    18       H         -1.26017973  *   1.25225001  *   1.41800069  *
    19       H         -2.45098089  *   0.12194916  *   2.06959552  *
    20       H          1.36652429  *  -1.56714702  *   1.32692305  *
    21       H         -0.73023532  *  -1.39329942  *   2.53348263  *
    22       H          4.68770392  *   0.35713689  *  -0.99592274  *

                             CARTESIAN COORDINATES

   1    O        2.246646407    -0.295759487    -0.665685048
   2    O        3.271202036     0.489938411     0.158130265
   3    O        4.375910800    -0.196745960    -0.291254294
   4    C        0.957019950     0.018381808    -0.171992265
   5    C       -0.007689953    -0.227970296    -1.349354854
   6    C       -1.317227779     0.524773792    -1.177596270
   7    C       -2.199250819    -0.026839191    -0.068653631
   8    C       -1.635283340     0.211590002     1.325868993
   9    C        0.608867878    -0.838402490     1.011588243
  10    C       -0.545646449    -0.740956153     1.671911527
  11    H        0.916642662     1.096546797     0.131408128
  12    H        0.466310356     0.091235229    -2.300052042
  13    H       -0.201179201    -1.313478060    -1.458355152
  14    H       -1.117087118     1.601673914    -1.001646336
  15    H       -1.877032799     0.479891342    -2.133379571
  16    H       -2.372673406    -1.110044729    -0.224431812
  17    H       -3.196842515     0.450669085    -0.138239313
  18    H       -1.260179731     1.252250012     1.418000685
  19    H       -2.450980895     0.121949161     2.069595518
  20    H        1.366524287    -1.567147022     1.326923054
  21    H       -0.730235318    -1.393299418     2.533482626
  22    H        4.687703915     0.357136890    -0.995922741


           Empirical Formula: C7 H12 O3  =    22 atoms



      MOLECULAR POINT GROUP   :   C1  


                  EIGENVALUES  
 -40.98597 -36.05653 -35.00464 -32.23781 -31.12078 -29.71792 -23.92384 -23.16142
 -20.59244 -18.99493 -18.35139 -17.89168 -17.50586 -16.78720 -16.41606 -15.29119
 -14.94236 -14.88604 -14.43550 -13.56390 -13.41218 -13.03961 -12.39335 -12.33333
 -11.93901 -11.86624 -11.70460 -11.05917  -9.93856   0.71334   0.98753   2.52496
   3.13572   3.32647   3.43157   3.56850   3.63271   3.69102   3.72323   3.83495
   4.09185   4.13883   4.31327   4.33131   4.49555   4.50549   4.70824   4.91204
   4.96183   5.06557   5.61108   5.86979


              NET ATOMIC CHARGES AND DIPOLE CONTRIBUTIONS

  ATOM NO.   TYPE          CHARGE      No. of ELECS.   s-Pop       p-Pop       
    1          O          -0.158516        6.1585     1.91147     4.24705
    2          O          -0.043129        6.0431     1.94949     4.09364
    3          O          -0.139758        6.1398     1.84850     4.29126
    4          C           0.093956        3.9060     1.16420     2.74184
    5          C          -0.103987        4.1040     1.16462     2.93937
    6          C          -0.094898        4.0949     1.16150     2.93340
    7          C          -0.094728        4.0947     1.16048     2.93425
    8          C          -0.064586        4.0646     1.14818     2.91641
    9          C          -0.173675        4.1737     1.20650     2.96718
   10          C          -0.137535        4.1375     1.19465     2.94289
   11          H           0.071810        0.9282     0.92819
   12          H           0.061625        0.9384     0.93838
   13          H           0.065924        0.9341     0.93408
   14          H           0.052272        0.9477     0.94773
   15          H           0.049551        0.9504     0.95045
   16          H           0.057581        0.9424     0.94242
   17          H           0.047933        0.9521     0.95207
   18          H           0.057544        0.9425     0.94246
   19          H           0.050597        0.9494     0.94940
   20          H           0.118314        0.8817     0.88169
   21          H           0.097875        0.9021     0.90212
   22          H           0.185832        0.8142     0.81417
 DIPOLE           X         Y         Z       TOTAL
 POINT-CHG.    -0.985     0.726    -0.525     1.331
 HYBRID        -0.007     0.451    -0.274     0.528
 SUM           -0.992     1.177    -0.799     1.734


          ATOMIC ORBITAL ELECTRON POPULATIONS

     Atom    s        px        py        pz   
    1  O   1.91147   1.14122   1.62260   1.48322
    2  O   1.94949   1.04181   1.46688   1.58495
    3  O   1.84850   1.31134   1.41877   1.56115
    4  C   1.16420   0.83518   0.97782   0.92884
    5  C   1.16462   0.95283   1.01688   0.96966
    6  C   1.16150   0.95729   0.98989   0.98622
    7  C   1.16048   0.97714   1.01408   0.94303
    8  C   1.14818   0.96833   0.98358   0.96450
    9  C   1.20650   0.98357   1.00501   0.97860
   10  C   1.19465   0.95684   0.99347   0.99257
   11  H   0.92819
   12  H   0.93838
   13  H   0.93408
   14  H   0.94773
   15  H   0.95045
   16  H   0.94242
   17  H   0.95207
   18  H   0.94246
   19  H   0.94940
   20  H   0.88169
   21  H   0.90212
   22  H   0.81417
 *******************************************************************************
 ** Site#: 14399        For non-commercial use only    Version 18.184L 64BITS **
 *******************************************************************************
 ** Cite this program as: MOPAC2016, Version: 18.184L, James J. P. Stewart,   **
 ** Stewart Computational Chemistry, web: HTTP://OpenMOPAC.net. Days left:  18**
 *******************************************************************************
 **                                                                           **
 **                                MOPAC2016                                  **
 **                                                                           **
 *******************************************************************************

                              PM3 CALCULATION RESULTS

 *******************************************************************************
 *  CALCULATION DONE:                                Sat Jun 15 10:30:44 2019  *
 *  PM3        - The PM3 Hamiltonian to be used
 *  OLDGEO     - PREVIOUS GEOMETRY TO BE USED
 *  PRECISE    - CRITERIA TO BE INCREASED BY 100 TIMES
 *  NOSYM      - POINT-GROUP SYMMETRY SET TO C1
 *  THREADS=1  - MULTI-THREADING NOT USED
 *  T=         - A TIME OF 172800.0 SECONDS REQUESTED
 *  DUMP=N     - RESTART FILE WRITTEN EVERY  7200.000 SECONDS
 *  THERMO     - THERMODYNAMIC QUANTITIES TO BE CALCULATED
 *******************************************************************************
oldgeo thermo nosym precise THREADS=1  pm3
 InChI=1S/C7H12O3/c8-10-9-7-5-3-1-2-4-6-7/h3,5,7-8H,1-2,4,6H2

   ATOM   CHEMICAL          X               Y               Z
  NUMBER   SYMBOL      (ANGSTROMS)     (ANGSTROMS)     (ANGSTROMS)
 
     1       O          2.24664641  *  -0.29575949  *  -0.66568505  *
     2       O          3.27120204  *   0.48993841  *   0.15813027  *
     3       O          4.37591080  *  -0.19674596  *  -0.29125429  *
     4       C          0.95701995  *   0.01838181  *  -0.17199226  *
     5       C         -0.00768995  *  -0.22797030  *  -1.34935485  *
     6       C         -1.31722778  *   0.52477379  *  -1.17759627  *
     7       C         -2.19925082  *  -0.02683919  *  -0.06865363  *
     8       C         -1.63528334  *   0.21159000  *   1.32586899  *
     9       C          0.60886788  *  -0.83840249  *   1.01158824  *
    10       C         -0.54564645  *  -0.74095615  *   1.67191153  *
    11       H          0.91664266  *   1.09654680  *   0.13140813  *
    12       H          0.46631036  *   0.09123523  *  -2.30005204  *
    13       H         -0.20117920  *  -1.31347806  *  -1.45835515  *
    14       H         -1.11708712  *   1.60167391  *  -1.00164634  *
    15       H         -1.87703280  *   0.47989134  *  -2.13337957  *
    16       H         -2.37267341  *  -1.11004473  *  -0.22443181  *
    17       H         -3.19684251  *   0.45066909  *  -0.13823931  *
    18       H         -1.26017973  *   1.25225001  *   1.41800069  *
    19       H         -2.45098089  *   0.12194916  *   2.06959552  *
    20       H          1.36652429  *  -1.56714702  *   1.32692305  *
    21       H         -0.73023532  *  -1.39329942  *   2.53348263  *
    22       H          4.68770392  *   0.35713689  *  -0.99592274  *
 


          CARTESIAN COORDINATES 

    NO.       ATOM           X           Y           Z

     1         O          2.2466     -0.2958     -0.6657
     2         O          3.2712      0.4899      0.1581
     3         O          4.3759     -0.1967     -0.2913
     4         C          0.9570      0.0184     -0.1720
     5         C         -0.0077     -0.2280     -1.3494
     6         C         -1.3172      0.5248     -1.1776
     7         C         -2.1993     -0.0268     -0.0687
     8         C         -1.6353      0.2116      1.3259
     9         C          0.6089     -0.8384      1.0116
    10         C         -0.5456     -0.7410      1.6719
    11         H          0.9166      1.0965      0.1314
    12         H          0.4663      0.0912     -2.3001
    13         H         -0.2012     -1.3135     -1.4584
    14         H         -1.1171      1.6017     -1.0016
    15         H         -1.8770      0.4799     -2.1334
    16         H         -2.3727     -1.1100     -0.2244
    17         H         -3.1968      0.4507     -0.1382
    18         H         -1.2602      1.2523      1.4180
    19         H         -2.4510      0.1219      2.0696
    20         H          1.3665     -1.5671      1.3269
    21         H         -0.7302     -1.3933      2.5335
    22         H          4.6877      0.3571     -0.9959

  H: (PM3): J. J. P. STEWART, J. COMP. CHEM. 10, 209 (1989).
  C: (PM3): J. J. P. STEWART, J. COMP. CHEM. 10, 209 (1989).
  O: (PM3): J. J. P. STEWART, J. COMP. CHEM. 10, 209 (1989).

           Empirical Formula: C7 H12 O3  =    22 atoms



      MOLECULAR POINT GROUP   :   C1  


      RHF CALCULATION, NO. OF DOUBLY OCCUPIED LEVELS = 29



          HEAT OF FORMATION =     -15.076880 KCALS/MOLE


          CARTESIAN COORDINATE DERIVATIVES

   NUMBER  ATOM         X            Y            Z

     1       O     -0.001572     0.003576     0.003826
     2       O     -0.000680    -0.007850    -0.005054
     3       O      0.002010     0.001937    -0.015276
     4       C     -0.000207    -0.002547    -0.000135
     5       C     -0.001650     0.005854    -0.001672
     6       C     -0.003518     0.011991    -0.002216
     7       C      0.003106     0.001534    -0.002735
     8       C      0.006079    -0.004411     0.005487
     9       C     -0.002183    -0.001042    -0.000320
    10       C     -0.001203    -0.003073    -0.000968
    11       H      0.002534     0.000598    -0.001917
    12       H      0.002249     0.000844    -0.000274
    13       H     -0.005309    -0.007642     0.002384
    14       H     -0.005802    -0.002888    -0.005283
    15       H     -0.000288    -0.003449     0.002068
    16       H      0.004361     0.002873     0.004088
    17       H      0.003192    -0.003074    -0.001169
    18       H     -0.002118    -0.000300    -0.001866
    19       H     -0.001730     0.002194     0.002199
    20       H     -0.000302    -0.002890     0.004000
    21       H      0.000835     0.003552    -0.002216
    22       H      0.002196     0.004216     0.017051
 


          GRADIENT NORM =   0.03642


          TIME FOR SCF CALCULATION =    0.00

          TIME FOR DERIVATIVES     =    0.00

          MOLECULAR WEIGHT =  144.17



          ROTATIONAL CONSTANTS IN CM(-1)

          A =    0.09601842   B =    0.02385777   C =    0.02059353



           PRINCIPAL MOMENTS OF INERTIA IN UNITS OF 10**(-40)*GRAM-CM**2

          A =      291.5355   B =     1173.3188   C =     1359.2995


          ORIENTATION OF MOLECULE IN FORCE CALCULATION

    NO.       ATOM         X         Y         Z

     1          O       0.5573    1.5042    0.5271
     2          O       2.0888    1.5042    0.5271
     3          O       2.2339    2.8727    0.5271
     4          C       0.1213    0.1896    0.2315
     5          C      -1.2837    0.0700    0.8553
     6          C      -1.6812   -1.3791    1.0859
     7          C      -1.9578   -2.1492   -0.1957
     8          C      -0.7081   -2.4039   -1.0282
     9          C       0.0855   -0.0464   -1.2515
    10          C      -0.2817   -1.2052   -1.8000
    11          H       0.8106   -0.5566    0.7049
    12          H      -1.3143    0.6079    1.8249
    13          H      -2.0287    0.5732    0.2076
    14          H      -0.9002   -1.8984    1.6784
    15          H      -2.5928   -1.3980    1.7164
    16          H      -2.7132   -1.6144   -0.8048
    17          H      -2.4176   -3.1225    0.0675
    18          H       0.1263   -2.7419   -0.3788
    19          H      -0.8997   -3.2413   -1.7272
    20          H       0.3881    0.7953   -1.8876
    21          H      -0.2764   -1.3103   -2.8912
    22          H       2.3475    3.0658    1.4492


    FIRST DERIVATIVES WILL BE USED IN THE CALCULATION OF SECOND DERIVATIVES

          ESTIMATED TIME TO COMPLETE CALCULATION =        2.06 SECONDS

    FOR POINT-GROUP C1   THERE ARE   1 UNIQUE SYMMETRY FUNCTIONS.

 STEP:   1 TIME =     0.02 SECS, INTEGRAL =      0.02 TIME LEFT: 172799.97
 STEP:   2 TIME =     0.02 SECS, INTEGRAL =      0.04 TIME LEFT: 172799.95
 STEP:   3 TIME =     0.02 SECS, INTEGRAL =      0.06 TIME LEFT: 172799.93
 STEP:   4 TIME =     0.02 SECS, INTEGRAL =      0.09 TIME LEFT: 172799.91
 STEP:   5 TIME =     0.02 SECS, INTEGRAL =      0.11 TIME LEFT: 172799.89
 STEP:   6 TIME =     0.02 SECS, INTEGRAL =      0.13 TIME LEFT: 172799.86
 STEP:   7 TIME =     0.02 SECS, INTEGRAL =      0.15 TIME LEFT: 172799.84
 STEP:   8 TIME =     0.02 SECS, INTEGRAL =      0.17 TIME LEFT: 172799.82
 STEP:   9 TIME =     0.02 SECS, INTEGRAL =      0.19 TIME LEFT: 172799.80
 STEP:  10 TIME =     0.02 SECS, INTEGRAL =      0.21 TIME LEFT: 172799.79
 STEP:  11 TIME =     0.02 SECS, INTEGRAL =      0.23 TIME LEFT: 172799.76
 STEP:  12 TIME =     0.02 SECS, INTEGRAL =      0.25 TIME LEFT: 172799.74
 STEP:  13 TIME =     0.02 SECS, INTEGRAL =      0.27 TIME LEFT: 172799.72
 STEP:  14 TIME =     0.02 SECS, INTEGRAL =      0.29 TIME LEFT: 172799.70
 STEP:  15 TIME =     0.02 SECS, INTEGRAL =      0.31 TIME LEFT: 172799.68
 STEP:  16 TIME =     0.02 SECS, INTEGRAL =      0.34 TIME LEFT: 172799.66
 STEP:  17 TIME =     0.02 SECS, INTEGRAL =      0.36 TIME LEFT: 172799.64
 STEP:  18 TIME =     0.02 SECS, INTEGRAL =      0.38 TIME LEFT: 172799.62
 STEP:  19 TIME =     0.02 SECS, INTEGRAL =      0.39 TIME LEFT: 172799.60
 STEP:  20 TIME =     0.02 SECS, INTEGRAL =      0.41 TIME LEFT: 172799.58
 STEP:  21 TIME =     0.02 SECS, INTEGRAL =      0.44 TIME LEFT: 172799.55
 STEP:  22 TIME =     0.02 SECS, INTEGRAL =      0.46 TIME LEFT: 172799.54
 STEP:  23 TIME =     0.02 SECS, INTEGRAL =      0.48 TIME LEFT: 172799.51
 STEP:  24 TIME =     0.02 SECS, INTEGRAL =      0.50 TIME LEFT: 172799.49
 STEP:  25 TIME =     0.02 SECS, INTEGRAL =      0.52 TIME LEFT: 172799.47
 STEP:  26 TIME =     0.02 SECS, INTEGRAL =      0.54 TIME LEFT: 172799.45
 STEP:  27 TIME =     0.02 SECS, INTEGRAL =      0.56 TIME LEFT: 172799.43
 STEP:  28 TIME =     0.02 SECS, INTEGRAL =      0.58 TIME LEFT: 172799.41
 STEP:  29 TIME =     0.02 SECS, INTEGRAL =      0.60 TIME LEFT: 172799.39
 STEP:  30 TIME =     0.02 SECS, INTEGRAL =      0.62 TIME LEFT: 172799.37
 STEP:  31 TIME =     0.02 SECS, INTEGRAL =      0.64 TIME LEFT: 172799.35
 STEP:  32 TIME =     0.02 SECS, INTEGRAL =      0.66 TIME LEFT: 172799.33
 STEP:  33 TIME =     0.02 SECS, INTEGRAL =      0.68 TIME LEFT: 172799.31
 STEP:  34 TIME =     0.02 SECS, INTEGRAL =      0.71 TIME LEFT: 172799.29
 STEP:  35 TIME =     0.02 SECS, INTEGRAL =      0.73 TIME LEFT: 172799.27
 STEP:  36 TIME =     0.02 SECS, INTEGRAL =      0.75 TIME LEFT: 172799.24
 STEP:  37 TIME =     0.02 SECS, INTEGRAL =      0.77 TIME LEFT: 172799.22
 STEP:  38 TIME =     0.02 SECS, INTEGRAL =      0.79 TIME LEFT: 172799.20
 STEP:  39 TIME =     0.02 SECS, INTEGRAL =      0.81 TIME LEFT: 172799.18
 STEP:  40 TIME =     0.02 SECS, INTEGRAL =      0.83 TIME LEFT: 172799.16
 STEP:  41 TIME =     0.02 SECS, INTEGRAL =      0.86 TIME LEFT: 172799.14
 STEP:  42 TIME =     0.02 SECS, INTEGRAL =      0.88 TIME LEFT: 172799.12
 STEP:  43 TIME =     0.02 SECS, INTEGRAL =      0.89 TIME LEFT: 172799.10
 STEP:  44 TIME =     0.02 SECS, INTEGRAL =      0.92 TIME LEFT: 172799.07
 STEP:  45 TIME =     0.02 SECS, INTEGRAL =      0.94 TIME LEFT: 172799.05
 STEP:  46 TIME =     0.02 SECS, INTEGRAL =      0.96 TIME LEFT: 172799.04
 STEP:  47 TIME =     0.02 SECS, INTEGRAL =      0.98 TIME LEFT: 172799.01
 STEP:  48 TIME =     0.02 SECS, INTEGRAL =      1.00 TIME LEFT: 172798.99
 STEP:  49 TIME =     0.02 SECS, INTEGRAL =      1.02 TIME LEFT: 172798.97
 STEP:  50 TIME =     0.02 SECS, INTEGRAL =      1.04 TIME LEFT: 172798.95
 STEP:  51 TIME =     0.02 SECS, INTEGRAL =      1.06 TIME LEFT: 172798.93
 STEP:  52 TIME =     0.02 SECS, INTEGRAL =      1.08 TIME LEFT: 172798.91
 STEP:  53 TIME =     0.02 SECS, INTEGRAL =      1.10 TIME LEFT: 172798.89
 STEP:  54 TIME =     0.02 SECS, INTEGRAL =      1.12 TIME LEFT: 172798.88
 STEP:  55 TIME =     0.02 SECS, INTEGRAL =      1.14 TIME LEFT: 172798.85
 STEP:  56 TIME =     0.02 SECS, INTEGRAL =      1.16 TIME LEFT: 172798.83
 STEP:  57 TIME =     0.02 SECS, INTEGRAL =      1.18 TIME LEFT: 172798.81
 STEP:  58 TIME =     0.02 SECS, INTEGRAL =      1.20 TIME LEFT: 172798.79
 STEP:  59 TIME =     0.02 SECS, INTEGRAL =      1.22 TIME LEFT: 172798.77
 STEP:  60 TIME =     0.02 SECS, INTEGRAL =      1.25 TIME LEFT: 172798.75
 STEP:  61 TIME =     0.02 SECS, INTEGRAL =      1.27 TIME LEFT: 172798.73
 STEP:  62 TIME =     0.02 SECS, INTEGRAL =      1.29 TIME LEFT: 172798.70
 STEP:  63 TIME =     0.02 SECS, INTEGRAL =      1.31 TIME LEFT: 172798.68
 STEP:  64 TIME =     0.02 SECS, INTEGRAL =      1.33 TIME LEFT: 172798.66
 STEP:  65 TIME =     0.02 SECS, INTEGRAL =      1.36 TIME LEFT: 172798.64
 STEP:  66 TIME =     0.02 SECS, INTEGRAL =      1.38 TIME LEFT: 172798.62

(To convert to Hartree/Bohr^2, multiply by (10^(-21) x N x a0^2)/(4.184 x 627.51) =  0.0642)


           FORCE MATRIX IN MILLIDYNES/ANGSTROM


                  O  1       O  2       O  3       C  4       C  5       C  6
 ------------------------------------------------------------------------------
     O    1   7.495164
     O    2   2.750604   5.423746
     O    3   0.944159   2.691457   9.583003
     C    4   4.877930   0.904835   0.233028  14.482555
     C    5   0.869837   0.080617   0.058138   3.480263  14.058386
     C    6   0.059756   0.009539   0.012751   0.610974   4.166831  14.277860
     C    7   0.003432   0.002642   0.002483   0.037994   0.607131   4.165779
     C    8   0.004082   0.001559   0.001832   0.112973   0.035597   0.614556
     C    9   0.929323   0.050262   0.007761   4.424971   0.612860   0.027031
     C   10   0.074187   0.010482   0.007538   0.759811   0.043123   0.027298
     H   11   0.434401   0.099760   0.011519   4.056393   0.429418   0.045501
     H   12   0.104350   0.004452   0.004333   0.465540   4.445653   0.430482
     H   13   0.033219   0.003472   0.003220   0.453857   4.477359   0.446231
     H   14   0.003308   0.001246   0.001286   0.033472   0.444778   4.411627
     H   15   0.010417   0.001093   0.003482   0.050643   0.426315   4.453087
     H   16   0.001071   0.000704   0.000857   0.004891   0.022644   0.446240
     H   17   0.001289   0.000697   0.000785   0.005385   0.050675   0.428939
     H   18   0.001854   0.001068   0.001184   0.027212   0.005362   0.033420
     H   19   0.001015   0.000322   0.000193   0.003371   0.002047   0.048694
     H   20   0.071383   0.010967   0.005675   0.463606   0.023402   0.001731
     H   21   0.009732   0.002839   0.002372   0.124259   0.015026   0.001132
     H   22   0.117027   1.568924   8.326188   0.022969   0.004670   0.001312


                  C  7       C  8       C  9       C 10       H 11       H 12
 ------------------------------------------------------------------------------
     C    7  14.249385
     C    8   4.068346  14.589844
     C    9   0.038216   0.788018  18.104538
     C   10   0.663959   4.953963  10.689203  18.077169
     H   11   0.006658   0.023731   0.407671   0.029623   4.463081
     H   12   0.049901   0.003502   0.042155   0.002215   0.012104   5.061200
     H   13   0.024124   0.003430   0.032604   0.005564   0.039621   0.560297
     H   14   0.444943   0.025894   0.002094   0.002647   0.029992   0.025294
     H   15   0.428702   0.050610   0.002702   0.002655   0.002422   0.039577
     H   16   4.465173   0.443747   0.004696   0.030276   0.000911   0.002510
     H   17   4.461717   0.433291   0.003176   0.047640   0.000639   0.008273
     H   18   0.453527   4.376555   0.026375   0.425543   0.017641   0.000490
     H   19   0.432949   4.486824   0.051626   0.436949   0.000752   0.000376
     H   20   0.015154   0.121980   4.799818   0.435616   0.023747   0.003841
     H   21   0.026169   0.433136   0.440382   4.812779   0.011629   0.002114
     H   22   0.000620   0.000512   0.002755   0.001146   0.002900   0.000857


                  H 13       H 14       H 15       H 16       H 17       H 18
 ------------------------------------------------------------------------------
     H   13   5.094071
     H   14   0.045076   5.037524
     H   15   0.025379   0.571052   5.051836
     H   16   0.023773   0.045521   0.026451   5.079467
     H   17   0.002686   0.026981   0.039661   0.565984   5.057757
     H   18   0.000796   0.028443   0.002723   0.044004   0.017964   4.989232
     H   19   0.000277   0.002405   0.007998   0.019026   0.037203   0.569207
     H   20   0.003017   0.000425   0.000396   0.000860   0.002409   0.012330
     H   21   0.000843   0.000510   0.000450   0.002877   0.003885   0.024735
     H   22   0.000425   0.000237   0.000339   0.000209   0.000166   0.000254


                  H 19       H 20       H 21       H 22
 ------------------------------------------------------
     H   19   5.062526
     H   20   0.005877   5.171951
     H   21   0.033156   0.075983   5.165181
     H   22   0.000126   0.000882   0.000428   8.881955


          HEAT OF FORMATION =     -15.076880 KCALS/MOLE

          ZERO POINT ENERGY     114.331 KCAL/MOL


           NORMAL COORDINATE ANALYSIS (Total motion = 1 Angstrom)


   Root No.       1         2         3         4         5         6         7         8

                 1 A       2 A       3 A       4 A       5 A       6 A       7 A       8 A   

                  26.3      49.2      87.1     177.1     189.8     248.7     325.3     328.1
  
           1    0.0053   -0.0093   -0.0091   -0.0340    0.0117    0.0007    0.0038    0.0116
           2    0.0073    0.0245    0.0032    0.0345   -0.0116    0.0109    0.0206    0.0006
           3   -0.0473   -0.0678    0.0178   -0.0264   -0.0141   -0.0013   -0.0256    0.0243
           4    0.0057   -0.0088   -0.0064   -0.0263    0.0076    0.0211   -0.0133    0.0155
           5    0.0108   -0.0115   -0.0248    0.0011   -0.0033    0.0436   -0.0132    0.0093
           6   -0.0794    0.0995   -0.0224   -0.0170    0.0061    0.0000    0.0096    0.0134
           7   -0.0067    0.0287    0.0279    0.0466   -0.0203    0.0596   -0.0227   -0.0008
           8    0.0118   -0.0160   -0.0300   -0.0118    0.0017    0.0339    0.0002    0.0176
           9    0.1293    0.0127   -0.0028    0.0006   -0.0001    0.0033   -0.0011    0.0006
          10    0.0026   -0.0058   -0.0264   -0.0204    0.0061    0.0157    0.0097   -0.0060
          11    0.0038    0.0166    0.0145    0.0193   -0.0108   -0.0025    0.0056    0.0113
          12   -0.0271   -0.0374   -0.0017    0.0121   -0.0088    0.0133    0.0094   -0.0056
          13    0.0075    0.0077   -0.0300   -0.0024    0.0221    0.0044    0.0142   -0.0110
          14    0.0125    0.0039    0.0098   -0.0124   -0.0039   -0.0215    0.0005    0.0060
          15   -0.0146   -0.0091   -0.0110    0.0417    0.0303   -0.0058    0.0136   -0.0163
          16    0.0100    0.0324   -0.0121    0.0098   -0.0236   -0.0404   -0.0192    0.0239
          17    0.0156    0.0007    0.0058   -0.0238    0.0033   -0.0156    0.0054   -0.0050
          18    0.0097    0.0134   -0.0004   -0.0012   -0.0051   -0.0256   -0.0081   -0.0149
          19    0.0006    0.0155    0.0313   -0.0058   -0.0003   -0.0173    0.0048   -0.0090
          20   -0.0033   -0.0149   -0.0216    0.0200    0.0202   -0.0459   -0.0225    0.0089
          21    0.0231    0.0265    0.0062   -0.0242   -0.0203   -0.0129    0.0032   -0.0168
          22   -0.0058    0.0003    0.0469    0.0010    0.0270   -0.0030   -0.0026    0.0003
          23   -0.0142   -0.0038    0.0118   -0.0108    0.0029   -0.0162    0.0002   -0.0284
          24    0.0169    0.0004    0.0183   -0.0048    0.0243    0.0028   -0.0123    0.0077
          25   -0.0096   -0.0318   -0.0302   -0.0044   -0.0250   -0.0103    0.0145   -0.0383
          26   -0.0167    0.0039    0.0299   -0.0045    0.0043   -0.0074   -0.0021   -0.0028
          27   -0.0235   -0.0350   -0.0041    0.0155   -0.0113    0.0143    0.0118   -0.0039
          28   -0.0134   -0.0312    0.0002    0.0325   -0.0027   -0.0369   -0.0047   -0.0045
          29   -0.0248   -0.0044    0.0178   -0.0134   -0.0056    0.0017    0.0093   -0.0231
          30   -0.0039   -0.0180    0.0008    0.0109   -0.0052    0.0120    0.0030    0.0111
          31    0.0065    0.0087   -0.0331   -0.0000    0.0140    0.0234    0.0132   -0.0083
          32    0.0103    0.0243    0.0032    0.0408   -0.0162    0.0100    0.0151    0.0025
          33   -0.0226   -0.0456   -0.0087    0.0186   -0.0293    0.0181    0.0196   -0.0170
          34    0.0145    0.0200   -0.0451    0.0246    0.0697   -0.0034    0.0330   -0.0331
          35    0.0267    0.0139    0.0198   -0.0497   -0.0398   -0.0392   -0.0233    0.0145
          36   -0.0223   -0.0144   -0.0173    0.0632    0.0521    0.0036    0.0278   -0.0223
          37    0.0023   -0.0120   -0.0304   -0.0229    0.0168    0.0198    0.0172   -0.0129
          38    0.0026   -0.0129   -0.0065    0.0087    0.0428   -0.0014    0.0284   -0.0133
          39   -0.0164    0.0006   -0.0231    0.0823    0.0728   -0.0082    0.0323   -0.0294
          40    0.0148    0.0523   -0.0173    0.0218   -0.0572   -0.0756   -0.0498    0.0584
          41    0.0247    0.0170    0.0284   -0.0405   -0.0232   -0.0268   -0.0021    0.0019
          42    0.0113    0.0016    0.0262   -0.0314    0.0158    0.0105    0.0254   -0.0534
          43    0.0149    0.0463   -0.0269    0.0204   -0.0457   -0.0657   -0.0437    0.0517
          44    0.0244   -0.0060   -0.0003   -0.0498    0.0219    0.0170    0.0297   -0.0320
          45    0.0170    0.0332   -0.0219    0.0131   -0.0363   -0.0603   -0.0416    0.0234
          46   -0.0048   -0.0063    0.0174    0.0284    0.0345   -0.0313   -0.0219    0.0231
          47   -0.0130   -0.0318   -0.0574    0.0687    0.0439   -0.0814   -0.0616    0.0457
          48    0.0213    0.0388   -0.0080   -0.0242   -0.0428   -0.0261    0.0026   -0.0250
          49    0.0037    0.0362    0.0644   -0.0535   -0.0338    0.0126    0.0448   -0.0572
          50    0.0000   -0.0195   -0.0348    0.0337    0.0297   -0.0557   -0.0355    0.0293
          51    0.0410    0.0456    0.0155   -0.0579   -0.0447    0.0042    0.0276   -0.0285
          52   -0.0002    0.0191    0.0561   -0.0156    0.0196   -0.0008    0.0032   -0.0110
          53   -0.0040    0.0116    0.0556   -0.0330    0.0498    0.0103   -0.0090   -0.0302
          54    0.0151   -0.0156    0.0293    0.0048    0.0584    0.0137   -0.0248    0.0208
          55   -0.0105   -0.0043    0.0845   -0.0079    0.0675    0.0329   -0.0080    0.0042
          56   -0.0245   -0.0114   -0.0078   -0.0022   -0.0296   -0.0222    0.0123   -0.0321
          57    0.0305    0.0108    0.0317   -0.0126    0.0528    0.0004   -0.0257    0.0114
          58   -0.0165   -0.0526   -0.0639    0.0002   -0.0634   -0.0282    0.0301   -0.0872
          59   -0.0252    0.0016    0.0433   -0.0087    0.0170   -0.0045   -0.0065    0.0034
          60   -0.0380   -0.0479   -0.0016    0.0111   -0.0124    0.0095    0.0124   -0.0182
          61   -0.0229   -0.0533   -0.0121    0.0790   -0.0241   -0.0845   -0.0116   -0.0072
          62   -0.0403   -0.0131    0.0125   -0.0186   -0.0147    0.0234    0.0241   -0.0281
          63   -0.0025   -0.0173    0.0015    0.0114   -0.0039    0.0096    0.0014    0.0113
          64    0.0261   -0.0687    0.0517    0.0196   -0.0254   -0.0436    0.3049    0.1930
          65   -0.1318    0.0508   -0.0472   -0.0224    0.0072    0.0469   -0.0488   -0.0051
          66    0.1554    0.0106   -0.0021    0.0064   -0.0007    0.0136   -0.0320   -0.0189


   Root No.       9        10        11        12        13        14        15        16

                 9 A      10 A      11 A      12 A      13 A      14 A      15 A      16 A   

                 338.6     377.5     422.2     451.1     505.1     571.2     654.5     666.6
  
           1   -0.0232   -0.0200    0.0188    0.0070   -0.0018    0.0030   -0.0258    0.0959
           2   -0.0026   -0.0180   -0.0017    0.0259   -0.0048    0.0284   -0.0378   -0.0057
           3    0.0114    0.0367   -0.0182    0.0302    0.0106    0.0184   -0.0201   -0.0042
           4   -0.0273   -0.0166    0.0472   -0.0145    0.0200    0.0190    0.0105   -0.0818
           5    0.0045    0.0169    0.0058   -0.0163    0.0048   -0.0028    0.0121   -0.0536
           6    0.0015    0.0056    0.0043   -0.0053    0.0022   -0.0011    0.0014   -0.0004
           7    0.0140    0.0242   -0.0079   -0.0132   -0.0010   -0.0109    0.0031    0.0276
           8    0.0019    0.0146    0.0094   -0.0187    0.0027   -0.0120   -0.0022    0.0809
           9    0.0003    0.0014    0.0004   -0.0012    0.0004   -0.0003    0.0005   -0.0012
          10    0.0153   -0.0053   -0.0261    0.0137   -0.0305   -0.0081   -0.0093   -0.0195
          11   -0.0107   -0.0100    0.0137    0.0354    0.0115    0.0356   -0.0199   -0.0021
          12   -0.0167   -0.0290   -0.0184   -0.0224   -0.0084   -0.0164   -0.0192   -0.0137
          13    0.0130    0.0137   -0.0237    0.0336   -0.0239   -0.0017   -0.0121   -0.0287
          14   -0.0274    0.0051   -0.0305    0.0018    0.0229   -0.0168    0.0078    0.0058
          15   -0.0213    0.0129    0.0025   -0.0054    0.0266   -0.0026   -0.0012    0.0077
          16    0.0044   -0.0159   -0.0231    0.0104    0.0100   -0.0148    0.0015   -0.0104
          17   -0.0184    0.0181   -0.0352    0.0036    0.0043   -0.0148    0.0062   -0.0182
          18    0.0121    0.0133    0.0224   -0.0337   -0.0163    0.0240   -0.0109    0.0109
          19   -0.0212    0.0136   -0.0277   -0.0291   -0.0018    0.0238    0.0078    0.0050
          20    0.0124    0.0016   -0.0162   -0.0291   -0.0103    0.0089   -0.0022   -0.0091
          21    0.0013    0.0180    0.0126   -0.0033   -0.0060    0.0023   -0.0001   -0.0014
          22    0.0029   -0.0082   -0.0161   -0.0146    0.0034    0.0063    0.0091    0.0054
          23    0.0269   -0.0059    0.0297   -0.0088    0.0027   -0.0248   -0.0167   -0.0121
          24    0.0332   -0.0153    0.0121    0.0171    0.0026   -0.0077    0.0150    0.0027
          25    0.0334   -0.0091   -0.0025    0.0030    0.0260    0.0177    0.0271    0.0128
          26    0.0015   -0.0033    0.0292    0.0226   -0.0239   -0.0038    0.0391    0.0131
          27   -0.0205   -0.0331   -0.0201   -0.0169   -0.0089   -0.0148   -0.0122   -0.0119
          28   -0.0156    0.0223    0.0415    0.0079   -0.0228   -0.0234   -0.0031   -0.0095
          29    0.0098   -0.0200    0.0055   -0.0039   -0.0049   -0.0032    0.0214    0.0065
          30   -0.0066   -0.0235    0.0025    0.0313   -0.0207    0.0043    0.0588    0.0162
          31    0.0247    0.0005   -0.0273    0.0287   -0.0461   -0.0036   -0.0253   -0.0764
          32   -0.0036   -0.0251    0.0019    0.0305    0.0065    0.0409   -0.0424   -0.0657
          33   -0.0182   -0.0606   -0.0356   -0.0482    0.0088   -0.0143   -0.0305   -0.0270
          34    0.0010    0.0599   -0.0182    0.0677    0.0300   -0.0061    0.0405   -0.0009
          35   -0.0044   -0.0113   -0.0243   -0.0470   -0.0316   -0.0035   -0.0250   -0.0001
          36   -0.0342    0.0252   -0.0018    0.0243    0.0595   -0.0105    0.0199    0.0102
          37    0.0134    0.0033   -0.0432    0.0214   -0.0499   -0.0184   -0.0251   -0.0518
          38   -0.0472    0.0345   -0.0509    0.0414    0.0621   -0.0413    0.0460    0.0021
          39   -0.0383    0.0482    0.0097    0.0405    0.0913   -0.0036    0.0460    0.0342
          40    0.0107   -0.0483   -0.0193    0.0160    0.0499   -0.0656    0.0231    0.0015
          41   -0.0287    0.0144   -0.0386   -0.0087    0.0183   -0.0222    0.0198   -0.0073
          42   -0.0053    0.0516    0.0137   -0.0498   -0.0532    0.0795   -0.0258    0.0046
          43    0.0189   -0.0431   -0.0169    0.0258    0.0355   -0.0594    0.0127   -0.0080
          44   -0.0077    0.0450   -0.0352    0.0239   -0.0423    0.0155   -0.0158   -0.0486
          45    0.0326   -0.0239    0.0315   -0.0108    0.0182   -0.0374    0.0038    0.0129
          46   -0.0023   -0.0045   -0.0469   -0.0523   -0.0183    0.0761    0.0380    0.0388
          47    0.0416   -0.0204   -0.0243   -0.0679   -0.0363    0.0746    0.0164    0.0304
          48    0.0036    0.0211    0.0307   -0.0060   -0.0064   -0.0096   -0.0231   -0.0108
          49   -0.0437    0.0360    0.0021    0.0017    0.0227   -0.0473   -0.0276   -0.0361
          50    0.0153   -0.0045   -0.0360   -0.0338   -0.0163    0.0307    0.0137    0.0010
          51   -0.0308    0.0375   -0.0067    0.0358    0.0162   -0.0458   -0.0048   -0.0385
          52    0.0024   -0.0039   -0.0278   -0.0304    0.0168    0.0177   -0.0054    0.0078
          53    0.0884   -0.0402    0.0202   -0.0172    0.0672   -0.0543   -0.1242   -0.0414
          54    0.0678   -0.0396    0.0238    0.0340    0.0214   -0.0409   -0.0263   -0.0170
          55    0.0575   -0.0565   -0.0092    0.0064    0.0507   -0.0338   -0.0475   -0.0088
          56   -0.0126    0.0080    0.0343   -0.0009   -0.0356   -0.0052    0.0576    0.0109
          57    0.0666   -0.0199    0.0042    0.0014    0.0366   -0.0215   -0.0612   -0.0221
          58    0.0656   -0.0081    0.0251    0.0012    0.1259    0.0606    0.0228    0.0779
          59   -0.0092   -0.0046    0.0191    0.0032   -0.0585   -0.0350    0.0340   -0.0142
          60   -0.0181   -0.0331   -0.0200   -0.0421   -0.0071   -0.0350   -0.0210   -0.0170
          61   -0.0544    0.0713    0.1425    0.0296   -0.0309   -0.0755   -0.0902   -0.0183
          62   -0.0056   -0.0470   -0.0460   -0.0309   -0.0106    0.0077    0.0326   -0.0009
          63   -0.0048   -0.0210    0.0078    0.0332   -0.0200    0.0024    0.0572    0.0166
          64    0.1016    0.0585    0.0424   -0.0856    0.0110   -0.0188    0.0295   -0.0533
          65   -0.0151    0.0076    0.0104   -0.0079    0.0071    0.0007    0.0039   -0.0171
          66   -0.0072   -0.0016   -0.0059    0.0058   -0.0018   -0.0013   -0.0035    0.0219


   Root No.      17        18        19        20        21        22        23        24

                17 A      18 A      19 A      20 A      21 A      22 A      23 A      24 A   

                 769.8     865.6     873.6     876.2     904.9     942.7     966.1     992.7
  
           1   -0.0057   -0.0137    0.0011   -0.0138    0.0476    0.0059    0.0051    0.0072
           2   -0.0117    0.0005   -0.0023   -0.0110   -0.0086    0.0007    0.0006    0.0003
           3   -0.0061    0.0017   -0.0005   -0.0029   -0.0035   -0.0004   -0.0001   -0.0018
           4    0.0002    0.0135   -0.0021    0.0073   -0.0331   -0.0024   -0.0018   -0.0027
           5    0.0023   -0.0293    0.0017   -0.0155    0.0635    0.0057    0.0069    0.0059
           6    0.0003    0.0000   -0.0000    0.0002    0.0008    0.0001    0.0003    0.0001
           7    0.0011    0.0021   -0.0001    0.0019   -0.0011    0.0000    0.0002    0.0003
           8    0.0003    0.0278   -0.0018    0.0161   -0.0518   -0.0041   -0.0041   -0.0036
           9    0.0001   -0.0010    0.0000   -0.0005    0.0024    0.0002    0.0004    0.0003
          10   -0.0045   -0.0181    0.0041   -0.0158   -0.0099   -0.0052   -0.0240   -0.0135
          11   -0.0055    0.0036    0.0035    0.0051    0.0003   -0.0008    0.0004   -0.0013
          12    0.0032   -0.0001   -0.0010   -0.0039   -0.0030   -0.0140   -0.0002    0.0066
          13    0.0153    0.0021    0.0051    0.0081   -0.0155   -0.0009    0.0181    0.0019
          14   -0.0005   -0.0285    0.0001    0.0107    0.0012   -0.0201   -0.0021   -0.0185
          15   -0.0040   -0.0246    0.0403    0.0156   -0.0039   -0.0283   -0.0091    0.0053
          16    0.0173    0.0231   -0.0070    0.0351    0.0330   -0.0172    0.0068    0.0028
          17    0.0036   -0.0035    0.0024    0.0008   -0.0160    0.0075    0.0048    0.0090
          18   -0.0102   -0.0287    0.0019    0.0042   -0.0145    0.0237    0.0017   -0.0124
          19    0.0130    0.0212    0.0021   -0.0107    0.0124    0.0036   -0.0216   -0.0075
          20   -0.0041    0.0372    0.0260   -0.0094    0.0110    0.0333   -0.0118    0.0086
          21   -0.0032   -0.0008   -0.0248   -0.0076   -0.0052   -0.0090    0.0048    0.0113
          22   -0.0044   -0.0056    0.0055   -0.0169   -0.0172   -0.0000    0.0212    0.0061
          23   -0.0059    0.0286   -0.0016   -0.0150    0.0163   -0.0243    0.0056   -0.0221
          24   -0.0001    0.0236    0.0039   -0.0208    0.0084   -0.0315    0.0091    0.0033
          25   -0.0338   -0.0071   -0.0037    0.0133    0.0030   -0.0065   -0.0365    0.0161
          26    0.0143   -0.0164    0.0041    0.0084   -0.0056    0.0030   -0.0017    0.0120
          27    0.0107    0.0131   -0.0143   -0.0014    0.0016    0.0185    0.0156   -0.0064
          28   -0.0367   -0.0041   -0.0031    0.0142    0.0009    0.0017    0.0333   -0.0044
          29    0.0140   -0.0088   -0.0075    0.0016   -0.0064    0.0006   -0.0047    0.0127
          30    0.0180    0.0075    0.0107    0.0086    0.0093    0.0230   -0.0189   -0.0149
          31    0.0115   -0.0205    0.0285   -0.0305   -0.0637   -0.0038   -0.0303   -0.0406
          32   -0.0177    0.0191   -0.0041   -0.0045   -0.0399   -0.0091   -0.0224   -0.0061
          33   -0.0366    0.0300   -0.0496    0.0037    0.0121   -0.0263   -0.0245    0.0387
          34   -0.0127    0.0290   -0.0976   -0.0246   -0.0063    0.0974    0.0369   -0.0139
          35    0.0156   -0.0930    0.0986    0.0592   -0.0254   -0.0429    0.0170   -0.0147
          36   -0.0140    0.0130   -0.0212   -0.0120    0.0105   -0.0113   -0.0179    0.0024
          37    0.0260   -0.0290    0.0263   -0.0150   -0.0574   -0.0400    0.0003   -0.0285
          38   -0.0150   -0.0060   -0.1034   -0.0539   -0.0134    0.0083   -0.0188   -0.0641
          39   -0.0306    0.0288   -0.0691   -0.0113    0.0340    0.0415   -0.0035    0.0037
          40   -0.0230   -0.0318   -0.0036   -0.0555   -0.0512    0.0186   -0.0156   -0.0194
          41   -0.0020   -0.0285   -0.0437   -0.0208   -0.0238    0.0136   -0.0407   -0.0667
          42    0.0354    0.0216   -0.0423    0.0987    0.0855   -0.0145   -0.0095   -0.0481
          43   -0.0161   -0.0234   -0.0006   -0.0307   -0.0480    0.0213    0.0262    0.0185
          44    0.0389    0.0337   -0.0381    0.0770    0.0105   -0.0055    0.0994    0.0748
          45   -0.0566   -0.0915    0.0089   -0.0852   -0.1268    0.0795    0.0321    0.0142
          46    0.0414   -0.0408   -0.0669   -0.0275   -0.0286   -0.0634   -0.0038    0.0224
          47    0.0276   -0.0300   -0.0936    0.0114    0.0084   -0.0357   -0.0052   -0.0447
          48   -0.0132    0.0177   -0.0397    0.0318    0.0424    0.0191   -0.0111   -0.0721
          49   -0.0296    0.1062    0.1145   -0.0252    0.0491    0.0908   -0.0480   -0.0541
          50    0.0154    0.0081   -0.0115    0.0020   -0.0075    0.0085   -0.0001    0.0633
          51   -0.0097    0.0492    0.0432    0.0081   -0.0039    0.0510   -0.0001    0.1356
          52    0.0216   -0.0092   -0.0171   -0.0527   -0.0403   -0.0167   -0.0049    0.0544
          53    0.0366   -0.0291   -0.0432    0.0607    0.0111    0.0545   -0.0671    0.0032
          54   -0.0091   -0.0025    0.0114    0.0686    0.0372    0.0357    0.0020   -0.0470
          55    0.0257   -0.0893   -0.0139    0.0954   -0.0177    0.0917   -0.0066   -0.0477
          56   -0.0187    0.0505    0.0130   -0.0597    0.0126   -0.0778    0.0510   -0.0596
          57    0.0077    0.0193   -0.0105    0.0047    0.0133    0.0091   -0.0376    0.0630
          58    0.2079   -0.0126    0.0569   -0.0379   -0.0269    0.0297    0.1622   -0.0300
          59   -0.0675   -0.0206   -0.0333    0.0279   -0.0054   -0.0155   -0.0431    0.0597
          60    0.0175    0.0064   -0.0338   -0.0011   -0.0111    0.0109    0.0550    0.0321
          61    0.2161   -0.0328   -0.0463   -0.0449   -0.0283    0.0090   -0.1422    0.0430
          62   -0.0594   -0.0211   -0.0239    0.0466   -0.0179    0.0738    0.0854    0.0055
          63    0.0269    0.0090    0.0117    0.0041    0.0106    0.0170   -0.0286   -0.0137
          64    0.0055   -0.0119    0.0008   -0.0038    0.0267    0.0024    0.0030    0.0026
          65    0.0005   -0.0121    0.0002   -0.0071    0.0312    0.0034    0.0049    0.0039
          66   -0.0004    0.0064   -0.0003    0.0035   -0.0130   -0.0012   -0.0014   -0.0012


   Root No.      25        26        27        28        29        30        31        32

                25 A      26 A      27 A      28 A      29 A      30 A      31 A      32 A   

                1002.1    1051.0    1079.5    1093.3    1105.7    1124.9    1134.2    1150.7
  
           1    0.0005   -0.0008   -0.0023   -0.0047   -0.0002   -0.0049    0.0048   -0.0050
           2    0.0042    0.0099   -0.0093    0.0184    0.0108   -0.0086   -0.0351    0.0075
           3   -0.0021    0.0021   -0.0009    0.0025   -0.0008   -0.0005   -0.0032    0.0021
           4    0.0004    0.0022   -0.0013    0.0057    0.0026   -0.0010   -0.0082    0.0028
           5   -0.0021   -0.0015    0.0006   -0.0020    0.0013   -0.0037    0.0044   -0.0018
           6   -0.0004   -0.0002    0.0002   -0.0003   -0.0002   -0.0001    0.0009   -0.0001
           7   -0.0004   -0.0006    0.0005   -0.0010   -0.0003   -0.0001    0.0021   -0.0006
           8    0.0005    0.0001    0.0004    0.0003   -0.0007    0.0015   -0.0000    0.0005
           9   -0.0001   -0.0000    0.0000   -0.0000    0.0001   -0.0003    0.0002   -0.0001
          10    0.0149    0.0095    0.0004   -0.0080   -0.0225    0.0355   -0.0194    0.0089
          11   -0.0053   -0.0152    0.0034   -0.0153   -0.0025    0.0055    0.0340   -0.0046
          12    0.0140    0.0219    0.0088   -0.0050    0.0040   -0.0077   -0.0223   -0.0052
          13   -0.0157   -0.0028    0.0120    0.0126    0.0087   -0.0255    0.0244    0.0010
          14   -0.0111    0.0017    0.0138    0.0172    0.0045    0.0230   -0.0004    0.0195
          15    0.0035   -0.0094   -0.0056   -0.0066    0.0001   -0.0038    0.0040   -0.0076
          16   -0.0021    0.0068   -0.0059   -0.0014   -0.0022    0.0102   -0.0151    0.0003
          17    0.0002   -0.0023   -0.0112   -0.0131   -0.0090   -0.0153   -0.0044   -0.0232
          18   -0.0158    0.0146    0.0025    0.0057   -0.0066    0.0016   -0.0075    0.0026
          19    0.0103   -0.0059    0.0047    0.0125   -0.0060   -0.0254    0.0125   -0.0013
          20    0.0055    0.0071    0.0006   -0.0057    0.0103    0.0084   -0.0009    0.0078
          21    0.0153   -0.0114   -0.0002   -0.0121    0.0086   -0.0007    0.0097    0.0131
          22   -0.0156    0.0127   -0.0095   -0.0176    0.0175    0.0261   -0.0014    0.0015
          23   -0.0143   -0.0192    0.0011   -0.0065   -0.0133   -0.0151   -0.0062    0.0056
          24   -0.0034    0.0056   -0.0109    0.0140    0.0002    0.0090    0.0100   -0.0017
          25   -0.0127   -0.0048   -0.0113    0.0031    0.0144   -0.0045    0.0014   -0.0067
          26    0.0226    0.0196    0.0163    0.0057   -0.0026    0.0017   -0.0062   -0.0050
          27   -0.0130   -0.0298   -0.0146    0.0087   -0.0003    0.0052    0.0089   -0.0003
          28    0.0227   -0.0138    0.0134    0.0016   -0.0108   -0.0020   -0.0048    0.0024
          29   -0.0011    0.0081   -0.0098    0.0064    0.0030    0.0057    0.0090   -0.0024
          30   -0.0088   -0.0225    0.0175   -0.0096   -0.0026   -0.0088   -0.0108    0.0024
          31    0.0551   -0.0521   -0.0652   -0.0418   -0.0590    0.0923    0.0102   -0.0589
          32    0.0019    0.0266    0.0338   -0.0770   -0.0985    0.0533    0.1459   -0.0503
          33   -0.0353    0.1752    0.1513   -0.0475   -0.0897   -0.0200    0.1001    0.0253
          34   -0.0765    0.0301    0.0179    0.1009   -0.0681    0.0112   -0.0192    0.0225
          35   -0.0767   -0.0189    0.0198    0.0983   -0.0403    0.0271    0.0049    0.0283
          36    0.0365    0.0049   -0.0080   -0.0482    0.0215   -0.0046   -0.0017   -0.0129
          37    0.0428   -0.0080    0.0326   -0.0091    0.1194   -0.0956    0.0779    0.0409
          38    0.0452    0.0305    0.0355    0.0015    0.0885   -0.0003    0.0095    0.0671
          39   -0.0195    0.0216   -0.0121    0.0065   -0.0643    0.0590   -0.0509   -0.0158
          40    0.0221   -0.0058   -0.0224    0.0027   -0.0203   -0.0425    0.0124   -0.0371
          41    0.0667    0.0055   -0.0833   -0.0057   -0.0660   -0.0646   -0.0014   -0.1022
          42    0.0124    0.0394   -0.0389    0.0071   -0.0322    0.0226   -0.0397   -0.0151
          43   -0.0243    0.0052    0.0109   -0.0179    0.0115   -0.0242   -0.0097   -0.0358
          44   -0.0710    0.0114    0.0153   -0.0932    0.0374   -0.0036   -0.0673   -0.1257
          45   -0.0478    0.0138    0.0259   -0.0241    0.0149   -0.0448   -0.0030   -0.0509
          46    0.0086   -0.0465   -0.0094    0.0249   -0.0759   -0.0949    0.0152    0.0171
          47    0.0281   -0.0159    0.0137   -0.0312    0.0551    0.0065    0.0209   -0.0204
          48    0.0362    0.0221    0.0288   -0.0502    0.1366    0.0836    0.0263   -0.0333
          49   -0.0163    0.0351    0.0359    0.0342    0.0398    0.0068    0.0121   -0.0521
          50    0.0283   -0.0090   -0.0312   -0.0276   -0.0247   -0.0125   -0.0066    0.0664
          51    0.0559    0.0026   -0.0618   -0.0463   -0.0396   -0.0119   -0.0087    0.1456
          52   -0.0271   -0.1043    0.0831   -0.0347    0.0164    0.0606   -0.0764   -0.0004
          53    0.0223   -0.1247    0.0877   -0.0177   -0.0361   -0.0400   -0.0540    0.0134
          54    0.0324    0.1014   -0.0849    0.0315   -0.0078   -0.0494    0.0826    0.0045
          55   -0.0214    0.0471   -0.0525   -0.1050    0.0100   -0.0586   -0.0291    0.0661
          56   -0.0713    0.0152   -0.0550   -0.0662   -0.0182   -0.0293   -0.0156    0.0467
          57    0.0673   -0.0480    0.0668    0.1071    0.0071    0.0484    0.0300   -0.0651
          58    0.0900    0.0470    0.0335    0.0149   -0.0260    0.0218   -0.0120   -0.0032
          59    0.0052    0.0402   -0.0263    0.0710    0.0327   -0.0043    0.0078   -0.0435
          60    0.0109    0.0200   -0.0489    0.0977    0.0267    0.0077    0.0181   -0.0477
          61   -0.0803    0.0205   -0.0624    0.0019    0.0293    0.0464    0.0608    0.0138
          62    0.0214   -0.0916   -0.0456    0.0189    0.0006    0.0803    0.1469    0.0495
          63   -0.0115   -0.0144    0.0207   -0.0094   -0.0020   -0.0153   -0.0231   -0.0029
          64   -0.0014   -0.0016    0.0014   -0.0027   -0.0003   -0.0012    0.0055   -0.0017
          65   -0.0019   -0.0005   -0.0001    0.0002    0.0024   -0.0050    0.0015   -0.0010
          66    0.0004    0.0001    0.0000    0.0001   -0.0005    0.0010   -0.0005    0.0003


   Root No.      33        34        35        36        37        38        39        40

                33 A      34 A      35 A      36 A      37 A      38 A      39 A      40 A   

                1155.3    1161.4    1188.6    1235.2    1249.7    1288.0    1334.7    1345.9
  
           1    0.0025    0.0019   -0.0054    0.0027   -0.0087    0.0036   -0.0049    0.0007
           2    0.0061   -0.0083    0.0110    0.0170   -0.0172   -0.0026   -0.0177   -0.0046
           3    0.0022   -0.0018    0.0009    0.0050   -0.0050   -0.0019   -0.0055   -0.0024
           4    0.0009   -0.0020    0.0032    0.0025   -0.0017   -0.0008   -0.0026   -0.0006
           5    0.0014    0.0017   -0.0016   -0.0006   -0.0011    0.0014   -0.0003    0.0008
           6    0.0001    0.0002   -0.0004   -0.0001   -0.0001    0.0001   -0.0001    0.0001
           7   -0.0001    0.0006   -0.0007   -0.0008    0.0004    0.0004    0.0006    0.0004
           8   -0.0007   -0.0002    0.0003   -0.0010    0.0013   -0.0001    0.0011    0.0002
           9    0.0001    0.0001   -0.0001    0.0000   -0.0002    0.0001   -0.0002    0.0001
          10   -0.0150   -0.0130    0.0180    0.0051    0.0271   -0.0268    0.0152   -0.0214
          11   -0.0082    0.0104   -0.0052   -0.0248    0.0377   -0.0048    0.0388    0.0011
          12   -0.0044   -0.0001    0.0061   -0.0207   -0.0111    0.0363    0.0284    0.0432
          13    0.0197    0.0036    0.0028   -0.0072    0.0222    0.0079   -0.0046    0.0330
          14   -0.0151    0.0001   -0.0078   -0.0010    0.0147   -0.0019   -0.0050    0.0252
          15    0.0085   -0.0068    0.0066    0.0072   -0.0107   -0.0142    0.0019   -0.0222
          16   -0.0061    0.0210    0.0001    0.0078   -0.0040    0.0120   -0.0099   -0.0107
          17    0.0098   -0.0119    0.0104    0.0104    0.0125    0.0244   -0.0353   -0.0024
          18   -0.0157    0.0341   -0.0042    0.0007    0.0099    0.0079   -0.0178    0.0061
          19   -0.0186   -0.0305   -0.0011   -0.0014   -0.0074   -0.0158   -0.0014    0.0162
          20    0.0041    0.0062   -0.0043    0.0077    0.0033    0.0111    0.0164   -0.0120
          21    0.0033   -0.0284   -0.0014    0.0086    0.0091    0.0285    0.0084   -0.0318
          22    0.0161    0.0101    0.0035   -0.0175   -0.0002   -0.0058   -0.0251   -0.0070
          23   -0.0041   -0.0028    0.0010   -0.0060   -0.0039   -0.0138   -0.0184   -0.0036
          24    0.0007    0.0058    0.0057    0.0148   -0.0032    0.0047    0.0254    0.0143
          25   -0.0003    0.0031   -0.0041   -0.0055   -0.0037    0.0076    0.0019    0.0046
          26   -0.0002   -0.0009    0.0018   -0.0059   -0.0019    0.0090    0.0054    0.0010
          27   -0.0029    0.0008   -0.0074   -0.0246    0.0167   -0.0058   -0.0072   -0.0268
          28   -0.0003   -0.0005   -0.0007   -0.0020    0.0020    0.0024    0.0025   -0.0043
          29   -0.0027    0.0009    0.0018   -0.0218    0.0024    0.0070   -0.0046   -0.0148
          30    0.0045    0.0000   -0.0016    0.0122   -0.0080   -0.0119   -0.0175    0.0017
          31   -0.0448   -0.0076   -0.1239    0.0000   -0.1086    0.0702   -0.0378    0.0536
          32    0.0024    0.0187   -0.1219    0.0231   -0.0889    0.0313   -0.0536    0.0103
          33    0.0579    0.0021    0.0419    0.0591   -0.0033   -0.0509   -0.0366   -0.0526
          34    0.0560   -0.0366   -0.0315   -0.0645   -0.0958    0.0489    0.0663   -0.0458
          35    0.0572   -0.0664   -0.0302   -0.0387   -0.1154   -0.0250    0.0817   -0.0527
          36   -0.0307    0.0295    0.0176    0.0252    0.0543   -0.0011   -0.0407    0.0199
          37   -0.0088    0.1153   -0.0300   -0.0001   -0.0683   -0.0117    0.0025   -0.0781
          38   -0.0788    0.1134   -0.0530   -0.0027   -0.0815   -0.0218    0.0245   -0.0496
          39   -0.0077   -0.0450    0.0115   -0.0024    0.0224   -0.0060    0.0154    0.0460
          40    0.0469    0.0198    0.0194   -0.0051   -0.0120   -0.0061    0.0392   -0.0375
          41    0.1370    0.1163    0.0582   -0.0258   -0.0170   -0.0634    0.0797   -0.0084
          42    0.0243    0.1494    0.0141   -0.0147   -0.0034   -0.0487    0.0153    0.0434
          43   -0.0385   -0.0083    0.0126   -0.0039   -0.0176   -0.0446    0.0097    0.0295
          44   -0.1162   -0.0182    0.0215    0.0079   -0.0926   -0.0907    0.0810   -0.0482
          45   -0.0665   -0.0074    0.0143   -0.0174   -0.0093   -0.0818    0.0102    0.0713
          46   -0.0727   -0.0286    0.0034    0.0262    0.0032    0.0196    0.0455   -0.0267
          47    0.0422   -0.1050   -0.0009   -0.0146   -0.0216   -0.0426    0.0368    0.0302
          48    0.1005   -0.1290   -0.0048   -0.0448   -0.0271   -0.0639   -0.0246    0.0587
          49   -0.0314   -0.0019    0.0083    0.0479    0.0034    0.0333    0.0955   -0.0193
          50    0.0149    0.0031   -0.0216   -0.0360   -0.0163   -0.0527   -0.0214    0.0319
          51    0.0222    0.0145   -0.0487   -0.0715   -0.0411   -0.1164    0.0168    0.0682
          52    0.0764    0.0694   -0.0206    0.0490    0.0062    0.0145    0.0458    0.0176
          53    0.0120    0.0050   -0.0204    0.0497   -0.0112   -0.0293    0.0022    0.0622
          54   -0.0697   -0.0705    0.0263   -0.0429   -0.0140   -0.0266   -0.0527    0.0097
          55    0.0174   -0.0547   -0.0520    0.0565    0.0296    0.0630    0.0883   -0.0430
          56    0.0170   -0.0056   -0.0186    0.0489   -0.0078   -0.0162    0.0247    0.0535
          57   -0.0241    0.0256    0.0453   -0.0690   -0.0095   -0.0158   -0.0598   -0.0366
          58    0.0050   -0.0090   -0.0189    0.0348    0.0167   -0.0220    0.0047   -0.0000
          59    0.0162   -0.0026   -0.1053    0.0956    0.0414   -0.0463    0.0203    0.0230
          60    0.0213   -0.0074   -0.1532    0.1242    0.0818   -0.0914    0.0113   -0.0010
          61   -0.0045    0.0080    0.0621    0.0392   -0.0270    0.0013    0.0047    0.0179
          62   -0.0166    0.0234    0.1687    0.1415   -0.0853    0.0069    0.0264    0.0687
          63    0.0058   -0.0018   -0.0173   -0.0018   -0.0002   -0.0134   -0.0221   -0.0065
          64    0.0002    0.0018   -0.0020   -0.0017    0.0001    0.0015    0.0006    0.0011
          65    0.0023    0.0011   -0.0006    0.0008   -0.0035    0.0022   -0.0030    0.0012
          66   -0.0005   -0.0003    0.0002   -0.0002    0.0008   -0.0004    0.0007   -0.0002


   Root No.      41        42        43        44        45        46        47        48

                41 A      42 A      43 A      44 A      45 A      46 A      47 A      48 A   

                1375.9    1394.8    1402.8    1405.7    1412.7    1424.5    1598.8    1883.0
  
           1   -0.0021    0.0013    0.0002   -0.0001    0.0004   -0.0008   -0.0041    0.0008
           2   -0.0096    0.0053    0.0035    0.0026    0.0002   -0.0076   -0.0015    0.0017
           3   -0.0029    0.0019    0.0013    0.0010    0.0003   -0.0023   -0.0013    0.0040
           4   -0.0018    0.0008    0.0006    0.0005   -0.0000   -0.0014   -0.0068   -0.0003
           5   -0.0002   -0.0000   -0.0001   -0.0001   -0.0000    0.0001   -0.0424   -0.0000
           6   -0.0001    0.0000    0.0000    0.0000   -0.0000   -0.0000   -0.0367    0.0003
           7    0.0003   -0.0002   -0.0002   -0.0001   -0.0000    0.0003    0.0024   -0.0000
           8    0.0006   -0.0003   -0.0002   -0.0002   -0.0000    0.0004   -0.0111    0.0001
           9   -0.0001    0.0000    0.0000    0.0000    0.0000   -0.0000    0.0502   -0.0001
          10    0.0164   -0.0016   -0.0024   -0.0039    0.0010    0.0044    0.0028    0.0055
          11    0.0270   -0.0129   -0.0093   -0.0081   -0.0004    0.0208    0.0018    0.0151
          12    0.0121   -0.0198   -0.0046    0.0022   -0.0066    0.0262   -0.0000    0.0260
          13   -0.0355   -0.0028   -0.0093    0.0018   -0.0044   -0.0047   -0.0005   -0.0022
          14   -0.0156   -0.0022    0.0270    0.0326   -0.0114   -0.0169    0.0004   -0.0024
          15    0.0094    0.0016    0.0066    0.0013    0.0063   -0.0016    0.0002   -0.0007
          16    0.0107    0.0035    0.0004   -0.0111    0.0029    0.0061   -0.0000   -0.0001
          17    0.0330    0.0206   -0.0098   -0.0319    0.0082    0.0160   -0.0002    0.0002
          18    0.0150    0.0090   -0.0162   -0.0062   -0.0447   -0.0060    0.0000   -0.0002
          19    0.0169    0.0070   -0.0272    0.0206    0.0132   -0.0141    0.0000   -0.0004
          20   -0.0129   -0.0180    0.0002    0.0125    0.0152   -0.0085    0.0000    0.0027
          21   -0.0229   -0.0366    0.0100    0.0099    0.0214    0.0051    0.0000    0.0010
          22   -0.0061   -0.0362    0.0135   -0.0091   -0.0065    0.0155   -0.0001   -0.0116
          23   -0.0052    0.0043   -0.0038    0.0179   -0.0112    0.0464   -0.0001   -0.0344
          24    0.0121    0.0330   -0.0104   -0.0023    0.0051   -0.0280    0.0001    0.0105
          25   -0.0007   -0.0010    0.0001   -0.0009    0.0005   -0.0018   -0.0002   -0.0619
          26    0.0001    0.0036    0.0003   -0.0027    0.0028   -0.0114   -0.0001   -0.1990
          27   -0.0075    0.0192    0.0016   -0.0061    0.0081   -0.0313    0.0000   -0.1307
          28   -0.0013    0.0104   -0.0010   -0.0008    0.0033   -0.0123    0.0001    0.0742
          29   -0.0086    0.0176    0.0018   -0.0041    0.0066   -0.0288    0.0002    0.2279
          30   -0.0040   -0.0144    0.0027    0.0057   -0.0063    0.0234   -0.0000    0.0659
          31   -0.0331    0.0054    0.0181    0.0195    0.0010   -0.0081    0.0022   -0.0120
          32   -0.0355    0.0208    0.0145    0.0122    0.0068   -0.0199   -0.0001   -0.0191
          33   -0.0139    0.0210    0.0012   -0.0011    0.0031   -0.0206    0.0003   -0.0135
          34    0.1705   -0.0169    0.1021    0.0596    0.0001    0.0217    0.0005    0.0121
          35   -0.0437   -0.0275   -0.0909   -0.0749    0.0471    0.0408    0.0005    0.0036
          36    0.0210    0.0135    0.0614    0.0528   -0.0239   -0.0291    0.0002   -0.0028
          37    0.0786    0.0099    0.0229   -0.0010    0.0106    0.0031   -0.0005   -0.0025
          38   -0.0377   -0.0046   -0.1146   -0.0938    0.0235    0.0326    0.0000   -0.0003
          39   -0.1223   -0.0143   -0.1212   -0.0784    0.0123    0.0237   -0.0000    0.0026
          40   -0.0172   -0.0424   -0.0474    0.0372   -0.1608   -0.0483   -0.0000   -0.0000
          41   -0.0593   -0.0370    0.0056    0.0479   -0.0207   -0.0225   -0.0000    0.0003
          42   -0.0292    0.0244    0.0702   -0.0055    0.1806    0.0406    0.0001   -0.0004
          43   -0.0080    0.0203    0.0376   -0.0041    0.1293    0.0230   -0.0001    0.0003
          44   -0.0233   -0.0357   -0.0211    0.0620   -0.0966   -0.0524    0.0006   -0.0005
          45   -0.0140    0.0385    0.0482    0.0019    0.1673    0.0253   -0.0001    0.0003
          46   -0.0603    0.0238    0.0977   -0.0681   -0.0533    0.0463    0.0000   -0.0035
          47   -0.0261    0.0891    0.1039   -0.1014   -0.0937    0.0398   -0.0000   -0.0002
          48    0.0526    0.0465   -0.0353    0.0024   -0.0069   -0.0206   -0.0000    0.0032
          49   -0.0688    0.0545    0.1215   -0.0977   -0.0663    0.0140    0.0000    0.0103
          50    0.0236   -0.0046   -0.0454    0.0435    0.0129   -0.0100    0.0001   -0.0056
          51   -0.0173    0.0706    0.0547   -0.0437   -0.0927    0.0295    0.0002   -0.0069
          52    0.0127    0.0500   -0.0098   -0.0033    0.0078   -0.0299    0.0001    0.0090
          53    0.0495   -0.1276    0.0291   -0.0926    0.0166   -0.1298   -0.0000    0.0237
          54    0.0108   -0.1258    0.0301   -0.0519   -0.0014   -0.0428   -0.0002    0.0046
          55   -0.0357    0.1340   -0.0417    0.0897    0.0166    0.0560    0.0000   -0.0170
          56    0.0414   -0.0608    0.0096   -0.0542    0.0107   -0.0818   -0.0000   -0.0421
          57   -0.0295    0.0437   -0.0063    0.0440   -0.0259    0.0980   -0.0000    0.0247
[...]
 TRAVEL      0.0861         C  8 -- H 19          +8.7% ( 41.4%)      0.0%
 RED. MASS   0.9459         C  4 -- C  9          +7.8% ( 39.2%)     64.7%
 EFF. MASS   6.8208

 VIBRATION   40   40A         ATOM PAIR      ENERGY CONTRIBUTION    RADIAL
 FREQ.      1345.86         C  4 -- C  5         +14.1% ( 53.2%)     77.6%
 T-DIPOLE    0.1750         C  4 -- C  9         +11.1% ( 47.1%)     84.2%
 TRAVEL      0.0837         C  5 -- H 13          +9.6% ( 44.0%)      0.0%
 RED. MASS   1.0235         C  4 -- H 11          +8.4% ( 41.0%)      0.2%
 EFF. MASS   7.1435

 VIBRATION   41   41A         ATOM PAIR      ENERGY CONTRIBUTION    RADIAL
 FREQ.      1375.89         C  5 -- H 12         +14.7% ( 49.4%)      0.2%
 T-DIPOLE    0.1992         C  5 -- H 13         +11.4% ( 43.5%)      2.2%
 TRAVEL      0.0938         C  5 -- C  6         +10.6% ( 41.9%)     73.2%
 RED. MASS   0.5930         C  4 -- C  5          +9.0% ( 38.8%)     54.1%
 EFF. MASS   5.5694

 VIBRATION   42   42A         ATOM PAIR      ENERGY CONTRIBUTION    RADIAL
 FREQ.      1394.84         C  8 -- H 18         +16.7% ( 52.3%)      1.1%
 T-DIPOLE    0.1875         C  7 -- C  8         +14.1% ( 48.0%)     82.7%
 TRAVEL      0.0919         C  8 -- H 19         +12.6% ( 45.5%)      4.1%
 RED. MASS   0.6966         C  8 -- C 10         +10.3% ( 41.0%)     51.4%
 EFF. MASS   5.7284

 VIBRATION   43   43A         ATOM PAIR      ENERGY CONTRIBUTION    RADIAL
 FREQ.      1402.79         C  5 -- H 13         +17.5% ( 44.4%)      3.3%
 T-DIPOLE    0.1161         C  7 -- H 16         +14.0% ( 39.6%)      3.5%
 TRAVEL      0.1241         C  5 -- H 12         +13.8% ( 39.4%)      6.6%
 RED. MASS   0.2691         C  7 -- H 17         +12.9% ( 38.1%)      3.9%
 EFF. MASS   3.1221

 VIBRATION   44   44A         ATOM PAIR      ENERGY CONTRIBUTION    RADIAL
 FREQ.      1405.71         C  5 -- C  6         +12.6% ( 41.5%)     92.6%
 T-DIPOLE    0.1822         C  5 -- H 13         +11.0% ( 38.8%)      3.3%
 TRAVEL      0.1056         C  6 -- C  7          +9.1% ( 35.3%)     54.1%
 RED. MASS   0.3849         C  7 -- H 16          +9.1% ( 35.3%)      4.4%
 EFF. MASS   4.3042

 VIBRATION   45   45A         ATOM PAIR      ENERGY CONTRIBUTION    RADIAL
 FREQ.      1412.72         C  6 -- H 14         +27.3% ( 56.0%)      4.6%
 T-DIPOLE    0.0557         C  6 -- H 15         +24.6% ( 53.1%)      5.7%
 TRAVEL      0.1213         C  6 -- C  7         +12.3% ( 37.6%)     82.5%
 RED. MASS   0.4509         C  5 -- C  6          +8.2% ( 30.6%)     26.4%
 EFF. MASS   3.2455

 VIBRATION   46   46A         ATOM PAIR      ENERGY CONTRIBUTION    RADIAL
 FREQ.      1424.54         C  8 -- C 10         +17.5% ( 57.5%)     99.9%
 T-DIPOLE    0.3218         C  8 -- H 18         +12.8% ( 49.2%)      3.5%
 TRAVEL      0.0813         C  8 -- H 19         +12.7% ( 49.0%)      3.7%
 RED. MASS   1.0061         C  7 -- C  8          +9.1% ( 41.4%)     22.1%
 EFF. MASS   7.1586

 VIBRATION   47   47A         ATOM PAIR      ENERGY CONTRIBUTION    RADIAL
 FREQ.      1598.83         O  3 -- H 22         +94.6% ( 94.4%)      3.9%
 T-DIPOLE    0.3322         O  2 -- O  3          +2.7% ( 15.8%)     12.0%
 TRAVEL      0.1495         O  1 -- O  3          +1.7% ( 12.7%)      0.0%
 RED. MASS   0.8951         O  1 -- O  2          +0.9% (  9.4%)      0.3%
 EFF. MASS   1.8879

 VIBRATION   48   48A         ATOM PAIR      ENERGY CONTRIBUTION    RADIAL
 FREQ.      1882.95         C  9 -- C 10         +44.5% ( 98.3%)    100.0%
 T-DIPOLE    0.2964         C  8 -- C 10         +14.4% ( 55.9%)     54.2%
 TRAVEL      0.0550         C  4 -- C  9         +13.9% ( 54.9%)     48.2%
 RED. MASS   5.4453         C 10 -- H 21         +13.2% ( 53.6%)      4.0%
 EFF. MASS  11.8591         C  9 -- H 20         +13.1% ( 53.3%)      4.8%

 VIBRATION   49   49A         ATOM PAIR      ENERGY CONTRIBUTION    RADIAL
 FREQ.      2806.96         C  4 -- H 11         +96.5% ( 99.9%)    100.0%
 T-DIPOLE    0.0507         O  1 -- C  4          +1.1% ( 10.8%)     11.7%
 TRAVEL      0.1282         C  4 -- C  5          +1.1% ( 10.8%)     11.0%
 RED. MASS   0.9275         C  4 -- C  9          +1.1% ( 10.8%)     10.0%
 EFF. MASS   1.4616

 VIBRATION   50   50A         ATOM PAIR      ENERGY CONTRIBUTION    RADIAL
 FREQ.      2940.71         C  8 -- H 18         +60.2% ( 80.6%)     97.8%
 T-DIPOLE    0.0152         C  8 -- H 19         +33.1% ( 59.8%)     94.3%
 TRAVEL      0.1219         C  7 -- H 16          +1.7% ( 13.6%)     98.1%
 RED. MASS   0.5115         C  6 -- H 14          +1.2% ( 11.2%)     97.9%
 EFF. MASS   1.5430

 VIBRATION   51   51A         ATOM PAIR      ENERGY CONTRIBUTION    RADIAL
 FREQ.      2944.59         C  6 -- H 14         +48.7% ( 72.6%)     97.1%
 T-DIPOLE    0.0286         C  6 -- H 15         +38.9% ( 64.9%)     95.8%
 TRAVEL      0.1217         C  7 -- H 16          +2.7% ( 17.0%)     97.3%
 RED. MASS   0.4249         C  5 -- H 13          +2.0% ( 14.8%)     97.6%
 EFF. MASS   1.5459

 VIBRATION   52   52A         ATOM PAIR      ENERGY CONTRIBUTION    RADIAL
 FREQ.      2955.84         C  7 -- H 17         +44.4% ( 69.2%)     97.0%
 T-DIPOLE    0.0208         C  7 -- H 16         +36.3% ( 62.6%)     95.9%
 TRAVEL      0.1217         C  5 -- H 12          +7.6% ( 28.6%)     97.2%
 RED. MASS   0.3672         C  5 -- H 13          +5.7% ( 24.8%)     95.6%
 EFF. MASS   1.5414

 VIBRATION   53   53A         ATOM PAIR      ENERGY CONTRIBUTION    RADIAL
 FREQ.      2957.35         C  5 -- H 12         +47.0% ( 71.1%)     97.3%
 T-DIPOLE    0.0962         C  5 -- H 13         +34.2% ( 60.7%)     95.5%
 TRAVEL      0.1214         C  7 -- H 17          +5.6% ( 24.6%)     97.0%
 RED. MASS   0.3748         C  7 -- H 16          +4.6% ( 22.3%)     95.9%
 EFF. MASS   1.5478

 VIBRATION   54   54A         ATOM PAIR      ENERGY CONTRIBUTION    RADIAL
 FREQ.      3023.70         C  8 -- H 19         +48.0% ( 68.4%)     98.9%
 T-DIPOLE    0.0535         C  8 -- H 18         +27.5% ( 51.7%)     95.3%
 TRAVEL      0.1317         C  6 -- H 15          +7.0% ( 26.0%)     98.0%
 RED. MASS   0.3139         C  6 -- H 14          +6.5% ( 25.1%)     97.2%
 EFF. MASS   1.2860

 VIBRATION   55   55A         ATOM PAIR      ENERGY CONTRIBUTION    RADIAL
 FREQ.      3025.93         C  6 -- H 15         +36.9% ( 59.8%)     98.0%
 T-DIPOLE    0.0200         C  6 -- H 14         +34.6% ( 57.9%)     97.4%
 TRAVEL      0.1323         C  8 -- H 19         +11.7% ( 33.7%)     98.9%
 RED. MASS   0.2742         C  8 -- H 18          +6.6% ( 25.4%)     95.6%
 EFF. MASS   1.2740

 VIBRATION   56   56A         ATOM PAIR      ENERGY CONTRIBUTION    RADIAL
 FREQ.      3034.27         C  5 -- H 13         +37.2% ( 60.1%)     98.4%
 T-DIPOLE    0.0585         C  5 -- H 12         +27.0% ( 51.2%)     96.6%
 TRAVEL      0.1321         C  7 -- H 16         +16.9% ( 40.6%)     98.2%
 RED. MASS   0.2580         C  7 -- H 17         +14.1% ( 37.0%)     97.1%
 EFF. MASS   1.2733

 VIBRATION   57   57A         ATOM PAIR      ENERGY CONTRIBUTION    RADIAL
 FREQ.      3034.54         C  7 -- H 16         +25.9% ( 50.2%)     97.7%
 T-DIPOLE    0.1063         C  7 -- H 17         +25.8% ( 50.1%)     97.7%
 TRAVEL      0.1317         C  5 -- H 13         +15.0% ( 38.2%)     97.9%
 RED. MASS   0.1840         C  5 -- H 12         +13.3% ( 35.9%)     97.2%
 EFF. MASS   1.2820

 VIBRATION   58   58A         ATOM PAIR      ENERGY CONTRIBUTION    RADIAL
 FREQ.      3035.91         C  9 -- H 20         +48.6% ( 70.6%)    100.0%
 T-DIPOLE    0.3293         C 10 -- H 21         +41.2% ( 65.0%)    100.0%
 TRAVEL      0.1241         C  7 -- H 17          +2.7% ( 16.7%)     97.8%
 RED. MASS   0.3939         C  7 -- H 16          +2.6% ( 16.2%)     97.5%
 EFF. MASS   1.4420

 VIBRATION   59   59A         ATOM PAIR      ENERGY CONTRIBUTION    RADIAL
 FREQ.      3055.67         C 10 -- H 21         +49.9% ( 71.6%)     99.9%
 T-DIPOLE    0.3562         C  9 -- H 20         +45.8% ( 68.6%)     99.9%
 TRAVEL      0.1183         C  9 -- C 10          +1.9% ( 14.1%)     99.9%
 RED. MASS   0.4589         C  8 -- C 10          +0.8% (  9.0%)     16.0%
 EFF. MASS   1.5771

 VIBRATION   60   60A         ATOM PAIR      ENERGY CONTRIBUTION    RADIAL
 FREQ.      3951.33         O  3 -- H 22         +99.4% ( 99.9%)     99.9%
 T-DIPOLE    0.2953         O  1 -- O  3          +0.3% (  5.7%)      3.9%
 TRAVEL      0.1120         O  2 -- O  3          +0.3% (  5.6%)      0.9%
 RED. MASS   0.9478
 EFF. MASS   1.3594

      SYMMETRY NUMBER FOR POINT-GROUP C1  =  1


          SYSTEM IS A GROUND STATE



 InChI=1S/C7H12O3/c8-10-9-7-5-3-1-2-4-6-7/h3,5,7-8H,1-2,4,6H2


          MOLECULE IS NOT LINEAR

          THERE ARE 60 GENUINE VIBRATIONS IN THIS SYSTEM
          THIS THERMODYNAMICS CALCULATION IS LIMITED TO
          MOLECULES WHICH HAVE NO INTERNAL ROTATIONS




                    CALCULATED THERMODYNAMIC PROPERTIES
                                          *
   TEMP. (K)   PARTITION FUNCTION   H.O.F.    ENTHALPY  HEAT CAPACITY ENTROPY
                                   KCAL/MOL   CAL/MOLE    CAL/K/MOL  CAL/K/MOL


 298.00  VIB.     0.2227D+04                  4797.2382    33.2007    31.4163
         ROT.     0.7692D+06                   888.2813     2.9808    29.9137
         INT.     0.1713D+10                  5685.5195    36.1816    61.3300
         TRA.     0.1674D+28                  1480.4688     4.9680    40.8062
         TOT.                      -15.077    7165.9883    41.1496   102.1362

 200.00  VIB.     0.1585D+03                  2131.8394    21.4080    20.7265
         ROT.     0.4229D+06                   596.1620     2.9808    28.7250
         INT.     0.6705D+08                  2728.0013    24.3888    49.4515
         TRA.     0.9201D+27                   993.6033     4.9680    38.8251
         TOT.                      -18.521    3721.6046    29.3568    88.2766

 210.00  VIB.     0.2073D+03                  2351.5809    22.5433    21.7984
         ROT.     0.4550D+06                   625.9700     2.9808    28.8704
         INT.     0.9434D+08                  2977.5509    25.5241    50.6688
         TRA.     0.9900D+27                  1043.2834     4.9680    39.0675
         TOT.                      -18.222    4020.8343    30.4922    89.7363

 220.00  VIB.     0.2712D+03                  2582.7674    23.6970    22.8736
         ROT.     0.4879D+06                   655.7781     2.9808    29.0091
         INT.     0.1323D+09                  3238.5455    26.6778    51.8827
         TRA.     0.1062D+28                  1092.9636     4.9680    39.2986
         TOT.                      -17.911    4331.5091    31.6459    91.1813

 230.00  VIB.     0.3547D+03                  2825.5827    24.8690    23.9528
         ROT.     0.5216D+06                   685.5862     2.9808    29.1416
         INT.     0.1850D+09                  3511.1690    27.8499    53.0944
         TRA.     0.1135D+28                  1142.6437     4.9680    39.5194
         TOT.                      -17.589    4653.8127    32.8179    92.6138

 240.00  VIB.     0.4642D+03                  3080.2066    26.0585    25.0363
         ROT.     0.5560D+06                   715.3943     2.9808    29.2685
         INT.     0.2581D+09                  3795.6009    29.0393    54.3048
         TRA.     0.1210D+28                  1192.3239     4.9680    39.7309
         TOT.                      -17.255    4987.9248    34.0074    94.0356

 250.00  VIB.     0.6077D+03                  3346.8068    27.2640    26.1244
         ROT.     0.5911D+06                   745.2024     2.9808    29.3902
         INT.     0.3592D+09                  4092.0092    30.2448    55.5146
         TRA.     0.1286D+28                  1242.0041     4.9680    39.9337
         TOT.                      -16.909    5334.0133    35.2129    95.4483

 260.00  VIB.     0.7957D+03                  3625.5338    28.4835    27.2175
         ROT.     0.6269D+06                   775.0105     2.9808    29.5071
         INT.     0.4988D+09                  4400.5443    31.4643    56.7245
         TRA.     0.1364D+28                  1291.6842     4.9680    40.1285
         TOT.                      -16.551    5692.2286    36.4323    96.8531

 270.00  VIB.     0.1043D+04                  3916.5160    29.7146    28.3155
         ROT.     0.6634D+06                   804.8186     2.9808    29.6196
         INT.     0.6916D+09                  4721.3346    32.6955    57.9351
         TRA.     0.1443D+28                  1341.3644     4.9680    40.3160
         TOT.                      -16.180    6062.6990    37.6635    98.2511

 280.00  VIB.     0.1366D+04                  4219.8566    30.9548    29.4185
         ROT.     0.7006D+06                   834.6267     2.9808    29.7280
         INT.     0.9573D+09                  5054.4834    33.9356    59.1465
         TRA.     0.1524D+28                  1391.0445     4.9680    40.4967
         TOT.                      -15.797    6445.5279    38.9036    99.6432

 290.00  VIB.     0.1792D+04                  4535.6318    32.2011    30.5265
         ROT.     0.7385D+06                   864.4348     2.9808    29.8326
         INT.     0.1323D+10                  5400.0666    35.1819    60.3591
         TRA.     0.1607D+28                  1440.7247     4.9680    40.6710
         TOT.                      -15.402    6840.7914    40.1499   101.0301

 300.00  VIB.     0.2351D+04                  4863.8898    33.4508    31.6392
         ROT.     0.7770D+06                   894.2429     2.9808    29.9336
         INT.     0.1827D+10                  5758.1327    36.4316    61.5729
         TRA.     0.1690D+28                  1490.4049     4.9680    40.8395
         TOT.                      -14.994    7248.5376    41.3997   102.4123

 310.00  VIB.     0.3087D+04                  5204.6506    34.7012    32.7565
         ROT.     0.8161D+06                   924.0510     2.9808    30.0314
         INT.     0.2520D+10                  6128.7017    37.6820    62.7878
         TRA.     0.1776D+28                  1540.0850     4.9680    41.0024
         TOT.                      -14.574    7668.7867    42.6500   103.7902

 320.00  VIB.     0.4056D+04                  5557.9074    35.9496    33.8779
         ROT.     0.8560D+06                   953.8591     2.9808    30.1260
         INT.     0.3471D+10                  6511.7665    38.9304    64.0039
         TRA.     0.1862D+28                  1589.7652     4.9680    41.1601
         TOT.                      -14.141    8101.5317    43.8984   105.1640

 330.00  VIB.     0.5331D+04                  5923.6268    37.1934    35.0032
         ROT.     0.8964D+06                   983.6672     2.9808    30.2177
         INT.     0.4779D+10                  6907.2940    40.1742    65.2209
         TRA.     0.1950D+28                  1639.4454     4.9680    41.3130
         TOT.                      -13.696    8546.7394    45.1422   106.5339

 340.00  VIB.     0.7012D+04                  6301.7513    38.4302    36.1319
         ROT.     0.9374D+06                  1013.4753     2.9808    30.3067
         INT.     0.6573D+10                  7315.2266    41.4110    66.4386
         TRA.     0.2040D+28                  1689.1255     4.9680    41.4613
         TOT.                      -13.239    9004.3521    46.3790   107.8999

 350.00  VIB.     0.9227D+04                  6692.2007    39.6580    37.2636
         ROT.     0.9791D+06                  1043.2834     2.9808    30.3931
         INT.     0.9035D+10                  7735.4841    42.6388    67.6568
         TRA.     0.2130D+28                  1738.8057     4.9680    41.6053
         TOT.                      -12.769    9474.2898    47.6068   109.2620

 360.00  VIB.     0.1215D+05                  7094.8744    40.8748    38.3979
         ROT.     0.1021D+07                  1073.0915     2.9808    30.4771
         INT.     0.1241D+11                  8167.9660    43.8556    68.8750
         TRA.     0.2222D+28                  1788.4859     4.9680    41.7452
         TOT.                      -12.286    9956.4518    48.8236   110.6203

 370.00  VIB.     0.1601D+05                  7509.6535    42.0788    39.5343
         ROT.     0.1064D+07                  1102.8996     2.9808    30.5588
         INT.     0.1704D+11                  8612.5532    45.0596    70.0931
         TRA.     0.2315D+28                  1838.1660     4.9680    41.8814
         TOT.                      -11.792   10450.7192    50.0276   111.9744

 380.00  VIB.     0.2110D+05                  7936.4030    43.2686    40.6723
         ROT.     0.1108D+07                  1132.7077     2.9808    30.6383
         INT.     0.2338D+11                  9069.1107    46.2494    71.3106
         TRA.     0.2410D+28                  1887.8462     4.9680    42.0138
         TOT.                      -11.286   10956.9569    51.2174   113.3244

 390.00  VIB.     0.2783D+05                  8374.9738    44.4429    41.8114
         ROT.     0.1152D+07                  1162.5158     2.9808    30.7157
         INT.     0.3206D+11                  9537.4896    47.4237    72.5271
         TRA.     0.2506D+28                  1937.5263     4.9680    42.1429
         TOT.                      -10.768   11475.0159    52.3917   114.6700

 400.00  VIB.     0.3673D+05                  8825.2049    45.6005    42.9513
         ROT.     0.1196D+07                  1192.3239     2.9808    30.7912
         INT.     0.4394D+11                 10017.5288    48.5813    73.7424
         TRA.     0.2603D+28                  1987.2065     4.9680    42.2687
         TOT.                      -10.238   12004.7353    53.5493   116.0111

   *: NOTE: HEATS OF FORMATION ARE RELATIVE TO THE
            ELEMENTS IN THEIR STANDARD STATE AT 298K
              (=  Standard Enthalpy of Formation).

            Hvib:  Zero-point energy is not included.
                   frequencies of less than zero cm-1 are not included.
            Hrot = (3/2)RT
            Htra = (3/2)RT + pV = (5/2)RT

            Heat capacity is Cp, not Cv

          For more information, see: HTTP://OpenMOPAC.net/Manual/thermochemistry.html


           FORCE CONSTANT IN CARTESIAN COORDINATES (Millidynes/A)

    ATOM   CHEMICAL       X               Y               Z
   NUMBER   SYMBOL  FORCE CONSTANT  FORCE CONSTANT  FORCE CONSTANT

      1       O        3.658897        6.116525        1.087547
      2       O        2.633692        4.459960        0.669102
      3       O        0.649672        3.529960        8.604863
      4       C        7.882619        8.838032        8.319830
      5       C        7.703048        8.324906        8.294807
      6       C        8.383761        8.108672        8.232894
      7       C        8.172485        8.380779        8.120314
      8       C        7.916723        8.916443        8.394586
      9       C        3.704044       13.374417        9.947849
     10       C        3.693074       13.075637       10.359958
     11       H        2.179888        2.263476        1.331560
     12       H        0.752983        1.646215        4.028630
     13       H        2.640960        1.547809        2.249890
     14       H        2.894086        1.649708        1.851416
     15       H        3.656767        0.732099        1.992632
     16       H        2.613834        1.774627        2.025885
     17       H        1.354726        4.036147        0.991457
     18       H        3.078668        1.025070        2.180364
     19       H        0.851182        3.036489        2.481970
     20       H        0.710824        3.237637        2.303928
     21       H        0.376769        0.767736        5.058207
     22       H        0.225680        1.839463        8.134650

 **********************
 *                    *
 * JOB ENDED NORMALLY *
 *                    *
 **********************



 TOTAL JOB TIME:             2.98 SECONDS

 == MOPAC DONE ==
