 *******************************************************************************
 ** Site#: 14399        For non-commercial use only    Version 18.184L 64BITS **
 *******************************************************************************
 ** Cite this program as: MOPAC2016, Version: 18.184L, James J. P. Stewart,   **
 ** Stewart Computational Chemistry, web: HTTP://OpenMOPAC.net. Days left:  18**
 *******************************************************************************
 **                                                                           **
 **                                MOPAC2016                                  **
 **                                                                           **
 *******************************************************************************

                              PM3 CALCULATION RESULTS

 *******************************************************************************
 *  CALCULATION DONE:                                Sat Jun 15 10:30:12 2019  *
 *  PM3        - The PM3 Hamiltonian to be used
 *  PRECISE    - CRITERIA TO BE INCREASED BY 100 TIMES
 *  NOSYM      - POINT-GROUP SYMMETRY SET TO C1
 *  THREADS=1  - MULTI-THREADING NOT USED
 *  T=         - A TIME OF 172800.0 SECONDS REQUESTED
 *  DUMP=N     - RESTART FILE WRITTEN EVERY  7200.000 SECONDS
 *******************************************************************************
pm3  precise nosym THREADS=1
 InChI=1S/C7H12O4/c1-2-4-7-5-6(3-1)8-10-11-9-7/h6-7H,1-5H2

   ATOM   CHEMICAL          X               Y               Z
  NUMBER   SYMBOL      (ANGSTROMS)     (ANGSTROMS)     (ANGSTROMS)
 
     1       O          2.33850000  *  -1.07770000  *   0.48170000  *
     2       O          1.06460000  *   1.46620000  *   0.89090000  *
     3       O          2.18940000  *  -0.19190000  *   1.45920000  *
     4       O          2.30120000  *   0.99770000  *   0.89480000  *
     5       C          1.12130000  *  -1.17130000  *  -0.24310000  *
     6       C          0.55690000  *   1.35480000  *  -0.42610000  *
     7       C          0.97150000  *   0.05620000  *  -1.16450000  *
     8       C         -0.10080000  *  -1.50990000  *   0.66410000  *
     9       C         -0.97520000  *   1.49830000  *  -0.39720000  *
    10       C         -1.45550000  *  -0.97820000  *   0.16200000  *
    11       C         -1.68520000  *   0.49920000  *   0.53110000  *
    12       H          1.23900000  *  -2.03540000  *  -0.93390000  *
    13       H          0.94620000  *   2.21340000  *  -1.01800000  *
    14       H         -1.57790000  *  -1.14600000  *  -0.92940000  *
    15       H         -2.25220000  *  -1.57180000  *   0.66180000  *
    16       H          0.04900000  *  -1.16900000  *   1.70970000  *
    17       H         -0.17190000  *  -2.61790000  *   0.73210000  *
    18       H         -1.39310000  *   0.68680000  *   1.58720000  *
    19       H         -2.77640000  *   0.70280000  *   0.46610000  *
    20       H         -1.22240000  *   2.52470000  *  -0.04800000  *
    21       H          1.95250000  *   0.23260000  *  -1.65950000  *
    22       H          0.26750000  *  -0.17020000  *  -1.99470000  *
    23       H         -1.38700000  *   1.40680000  *  -1.42640000  *
 


          CARTESIAN COORDINATES 

    NO.       ATOM           X           Y           Z

     1         O          2.3385     -1.0777      0.4817
     2         O          1.0646      1.4662      0.8909
     3         O          2.1894     -0.1919      1.4592
     4         O          2.3012      0.9977      0.8948
     5         C          1.1213     -1.1713     -0.2431
     6         C          0.5569      1.3548     -0.4261
     7         C          0.9715      0.0562     -1.1645
     8         C         -0.1008     -1.5099      0.6641
     9         C         -0.9752      1.4983     -0.3972
    10         C         -1.4555     -0.9782      0.1620
    11         C         -1.6852      0.4992      0.5311
    12         H          1.2390     -2.0354     -0.9339
    13         H          0.9462      2.2134     -1.0180
    14         H         -1.5779     -1.1460     -0.9294
    15         H         -2.2522     -1.5718      0.6618
    16         H          0.0490     -1.1690      1.7097
    17         H         -0.1719     -2.6179      0.7321
    18         H         -1.3931      0.6868      1.5872
    19         H         -2.7764      0.7028      0.4661
    20         H         -1.2224      2.5247     -0.0480
    21         H          1.9525      0.2326     -1.6595
    22         H          0.2675     -0.1702     -1.9947
    23         H         -1.3870      1.4068     -1.4264

  H: (PM3): J. J. P. STEWART, J. COMP. CHEM. 10, 209 (1989).
  C: (PM3): J. J. P. STEWART, J. COMP. CHEM. 10, 209 (1989).
  O: (PM3): J. J. P. STEWART, J. COMP. CHEM. 10, 209 (1989).

           Empirical Formula: C7 H12 O4  =    23 atoms



      MOLECULAR POINT GROUP   :   C1  


      RHF CALCULATION, NO. OF DOUBLY OCCUPIED LEVELS = 32


          Geometry optimization using EF

          DIAGONAL MATRIX USED AS START HESSIAN

 CYCLE:     1 TIME:   0.008 TIME LEFT:  2.00D  GRAD.:   199.064 HEAT:  13.54589
 CYCLE:     2 TIME:   0.004 TIME LEFT:  2.00D  GRAD.:    87.892 HEAT:  1.159281
 CYCLE:     3 TIME:   0.012 TIME LEFT:  2.00D  GRAD.:    94.354 HEAT:-0.9703590
 CYCLE:     4 TIME:   0.004 TIME LEFT:  2.00D  GRAD.:    43.159 HEAT: -4.463822
 CYCLE:     5 TIME:   0.012 TIME LEFT:  2.00D  GRAD.:    31.434 HEAT: -5.321366
 CYCLE:     6 TIME:   0.004 TIME LEFT:  2.00D  GRAD.:    37.678 HEAT: -5.802916
 CYCLE:     7 TIME:   0.008 TIME LEFT:  2.00D  GRAD.:    36.881 HEAT: -6.125509
 CYCLE:     8 TIME:   0.008 TIME LEFT:  2.00D  GRAD.:    20.654 HEAT: -6.509383
 CYCLE:     9 TIME:   0.012 TIME LEFT:  2.00D  GRAD.:    16.835 HEAT: -6.629113
 CYCLE:    10 TIME:   0.004 TIME LEFT:  2.00D  GRAD.:    19.249 HEAT: -6.692455
 CYCLE:    11 TIME:   0.008 TIME LEFT:  2.00D  GRAD.:    12.776 HEAT: -6.815804
 CYCLE:    12 TIME:   0.004 TIME LEFT:  2.00D  GRAD.:    19.507 HEAT: -6.839780
 CYCLE:    13 TIME:   0.004 TIME LEFT:  2.00D  GRAD.:    12.268 HEAT: -6.980400
 CYCLE:    14 TIME:   0.012 TIME LEFT:  2.00D  GRAD.:    15.547 HEAT: -6.990364
 CYCLE:    15 TIME:   0.004 TIME LEFT:  2.00D  GRAD.:    13.371 HEAT: -7.044699
 CYCLE:    16 TIME:   0.012 TIME LEFT:  2.00D  GRAD.:     8.860 HEAT: -7.096791
 CYCLE:    17 TIME:   0.004 TIME LEFT:  2.00D  GRAD.:     8.865 HEAT: -7.121078
 CYCLE:    18 TIME:   0.008 TIME LEFT:  2.00D  GRAD.:    11.614 HEAT: -7.136862
 CYCLE:    19 TIME:   0.004 TIME LEFT:  2.00D  GRAD.:     8.272 HEAT: -7.178068
 CYCLE:    20 TIME:   0.008 TIME LEFT:  2.00D  GRAD.:     9.766 HEAT: -7.187639
 CYCLE:    21 TIME:   0.008 TIME LEFT:  2.00D  GRAD.:     5.305 HEAT: -7.217848
 CYCLE:    22 TIME:   0.004 TIME LEFT:  2.00D  GRAD.:     7.100 HEAT: -7.227576
 CYCLE:    23 TIME:   0.008 TIME LEFT:  2.00D  GRAD.:     3.751 HEAT: -7.247081
 CYCLE:    24 TIME:   0.004 TIME LEFT:  2.00D  GRAD.:     5.443 HEAT: -7.254002
 CYCLE:    25 TIME:   0.004 TIME LEFT:  2.00D  GRAD.:     3.605 HEAT: -7.265688
 CYCLE:    26 TIME:   0.008 TIME LEFT:  2.00D  GRAD.:     3.690 HEAT: -7.273141
 CYCLE:    27 TIME:   0.004 TIME LEFT:  2.00D  GRAD.:     2.315 HEAT: -7.280881
 CYCLE:    28 TIME:   0.008 TIME LEFT:  2.00D  GRAD.:     3.439 HEAT: -7.287388
 CYCLE:    29 TIME:   0.004 TIME LEFT:  2.00D  GRAD.:     2.549 HEAT: -7.293932
 CYCLE:    30 TIME:   0.004 TIME LEFT:  2.00D  GRAD.:     2.602 HEAT: -7.300380
 CYCLE:    31 TIME:   0.008 TIME LEFT:  2.00D  GRAD.:     2.457 HEAT: -7.307481
 CYCLE:    32 TIME:   0.004 TIME LEFT:  2.00D  GRAD.:     1.551 HEAT: -7.312682
 CYCLE:    33 TIME:   0.008 TIME LEFT:  2.00D  GRAD.:     1.539 HEAT: -7.316210
 CYCLE:    34 TIME:   0.004 TIME LEFT:  2.00D  GRAD.:     1.526 HEAT: -7.319135
 CYCLE:    35 TIME:   0.004 TIME LEFT:  2.00D  GRAD.:     1.137 HEAT: -7.321550
 CYCLE:    36 TIME:   0.008 TIME LEFT:  2.00D  GRAD.:     1.108 HEAT: -7.323572
 CYCLE:    37 TIME:   0.004 TIME LEFT:  2.00D  GRAD.:     0.888 HEAT: -7.324833
 CYCLE:    38 TIME:   0.008 TIME LEFT:  2.00D  GRAD.:     0.642 HEAT: -7.325731
 CYCLE:    39 TIME:   0.004 TIME LEFT:  2.00D  GRAD.:     0.623 HEAT: -7.326387
 CYCLE:    40 TIME:   0.004 TIME LEFT:  2.00D  GRAD.:     0.628 HEAT: -7.326805
 CYCLE:    41 TIME:   0.008 TIME LEFT:  2.00D  GRAD.:     0.502 HEAT: -7.327307
 CYCLE:    42 TIME:   0.004 TIME LEFT:  2.00D  GRAD.:     0.480 HEAT: -7.327811
 CYCLE:    43 TIME:   0.004 TIME LEFT:  2.00D  GRAD.:     0.322 HEAT: -7.328046
 CYCLE:    44 TIME:   0.008 TIME LEFT:  2.00D  GRAD.:     0.244 HEAT: -7.328305
 CYCLE:    45 TIME:   0.004 TIME LEFT:  2.00D  GRAD.:     0.292 HEAT: -7.328551
 CYCLE:    46 TIME:   0.008 TIME LEFT:  2.00D  GRAD.:     0.286 HEAT: -7.328723
 CYCLE:    47 TIME:   0.004 TIME LEFT:  2.00D  GRAD.:     0.256 HEAT: -7.328878
 CYCLE:    48 TIME:   0.004 TIME LEFT:  2.00D  GRAD.:     0.224 HEAT: -7.329036
 CYCLE:    49 TIME:   0.008 TIME LEFT:  2.00D  GRAD.:     0.190 HEAT: -7.329169
 CYCLE:    50 TIME:   0.004 TIME LEFT:  2.00D  GRAD.:     0.151 HEAT: -7.329246
 CYCLE:    51 TIME:   0.004 TIME LEFT:  2.00D  GRAD.:     0.126 HEAT: -7.329292
 CYCLE:    52 TIME:   0.008 TIME LEFT:  2.00D  GRAD.:     0.119 HEAT: -7.329330
 CYCLE:    53 TIME:   0.004 TIME LEFT:  2.00D  GRAD.:     0.102 HEAT: -7.329365
 CYCLE:    54 TIME:   0.008 TIME LEFT:  2.00D  GRAD.:     0.084 HEAT: -7.329386
 CYCLE:    55 TIME:   0.004 TIME LEFT:  2.00D  GRAD.:     0.067 HEAT: -7.329397
 CYCLE:    56 TIME:   0.004 TIME LEFT:  2.00D  GRAD.:     0.071 HEAT: -7.329408
 CYCLE:    57 TIME:   0.008 TIME LEFT:  2.00D  GRAD.:     0.072 HEAT: -7.329419
 CYCLE:    58 TIME:   0.004 TIME LEFT:  2.00D  GRAD.:     0.076 HEAT: -7.329436
 CYCLE:    59 TIME:   0.004 TIME LEFT:  2.00D  GRAD.:     0.085 HEAT: -7.329449
 CYCLE:    60 TIME:   0.008 TIME LEFT:  2.00D  GRAD.:     0.098 HEAT: -7.329472
 CYCLE:    61 TIME:   0.004 TIME LEFT:  2.00D  GRAD.:     0.109 HEAT: -7.329503
 CYCLE:    62 TIME:   0.008 TIME LEFT:  2.00D  GRAD.:     0.106 HEAT: -7.329543
 CYCLE:    63 TIME:   0.004 TIME LEFT:  2.00D  GRAD.:     0.077 HEAT: -7.329561
 CYCLE:    64 TIME:   0.004 TIME LEFT:  2.00D  GRAD.:     0.088 HEAT: -7.329566
 CYCLE:    65 TIME:   0.008 TIME LEFT:  2.00D  GRAD.:     0.044 HEAT: -7.329581

     GRADIENT =  0.04444  IS LESS THAN CUTOFF =  0.05000



 -------------------------------------------------------------------------------
 pm3  precise nosym THREADS=1
 InChI=1S/C7H12O4/c1-2-4-7-5-6(3-1)8-10-11-9-7/h6-7H,1-5H2



     GEOMETRY OPTIMISED USING EIGENVECTOR FOLLOWING (EF).     
     SCF FIELD WAS ACHIEVED                                   


                              PM3 CALCULATION
                                                       MOPAC2016 (Version: 18.184L)
                                                       Sat Jun 15 10:30:12 2019
                                                       No. of days remaining =  18




          FINAL HEAT OF FORMATION =         -7.32958 KCAL/MOL =     -30.66697 KJ/MOL


          TOTAL ENERGY            =      -2182.49262 EV
          ELECTRONIC ENERGY       =     -11812.87634 EV  POINT GROUP:     C1  
          CORE-CORE REPULSION     =       9630.38372 EV
          COSMO AREA              =        169.93 SQUARE ANGSTROMS
          COSMO VOLUME            =        182.88 CUBIC ANGSTROMS

          GRADIENT NORM           =          0.04444 = 0.00927 PER ATOM
          IONIZATION POTENTIAL    =         11.080551 EV
          HOMO LUMO ENERGIES (EV) =        -11.081 -0.008
          NO. OF FILLED LEVELS    =         32
          MOLECULAR WEIGHT        =        160.1694

          MOLECULAR DIMENSIONS (Angstroms)

            Atom       Atom       Distance
            H    15    O     4     5.48082
            H    20    H    12     5.32967
            H    16    H    22     3.72223


          SCF CALCULATIONS        =         73
 
          WALL-CLOCK TIME         =          0.395 SECONDS
          COMPUTATION TIME        =          0.366 SECONDS




   ATOM   CHEMICAL          X               Y               Z
  NUMBER   SYMBOL      (ANGSTROMS)     (ANGSTROMS)     (ANGSTROMS)
 
     1       O          2.28366278  *  -1.19409826  *   0.45966199  *
     2       O          1.01599843  *   1.51649313  *   0.85655699  *
     3       O          2.35014018  *  -0.06613568  *   1.58535889  *
     4       O          2.50552403  *   1.03010581  *   0.93995998  *
     5       C          1.07765322  *  -1.19016805  *  -0.24589621  *
     6       C          0.52344804  *   1.35067806  *  -0.45340648  *
     7       C          0.93224352  *   0.04287856  *  -1.14813518  *
     8       C         -0.14478514  *  -1.51943053  *   0.62876603  *
     9       C         -1.00659366  *   1.49550925  *  -0.36061782  *
    10       C         -1.46482543  *  -0.97487020  *   0.10745971  *
    11       C         -1.71034408  *   0.47126744  *   0.51339360  *
    12       H          1.31456290  *  -2.06939112  *  -0.90260233  *
    13       H          0.91869437  *   2.20004570  *  -1.06422866  *
    14       H         -1.52963268  *  -1.08595448  *  -0.99387646  *
    15       H         -2.28499064  *  -1.59869553  *   0.51596710  *
    16       H          0.01535894  *  -1.15792522  *   1.66597575  *
    17       H         -0.21727611  *  -2.62200186  *   0.71752807  *
    18       H         -1.42307854  *   0.61731492  *   1.57470496  *
    19       H         -2.79920547  *   0.67698312  *   0.47222588  *
    20       H         -1.25338934  *   2.51039831  *   0.01228781  *
    21       H          1.89112204  *   0.20556266  *  -1.68267354  *
    22       H          0.19025862  *  -0.18416389  *  -1.94093018  *
    23       H         -1.41062413  *   1.45063505  *  -1.39279923  *

                             CARTESIAN COORDINATES

   1    O        2.283662781    -1.194098262     0.459661986
   2    O        1.015998426     1.516493130     0.856556989
   3    O        2.350140181    -0.066135682     1.585358895
   4    O        2.505524028     1.030105809     0.939959979
   5    C        1.077653215    -1.190168046    -0.245896213
   6    C        0.523448040     1.350678064    -0.453406485
   7    C        0.932243517     0.042878562    -1.148135179
   8    C       -0.144785145    -1.519430526     0.628766034
   9    C       -1.006593658     1.495509247    -0.360617818
  10    C       -1.464825431    -0.974870202     0.107459714
  11    C       -1.710344081     0.471267437     0.513393599
  12    H        1.314562899    -2.069391122    -0.902602331
  13    H        0.918694367     2.200045695    -1.064228660
  14    H       -1.529632675    -1.085954482    -0.993876463
  15    H       -2.284990636    -1.598695527     0.515967102
  16    H        0.015358944    -1.157925221     1.665975752
  17    H       -0.217276110    -2.622001855     0.717528070
  18    H       -1.423078542     0.617314922     1.574704961
  19    H       -2.799205467     0.676983118     0.472225881
  20    H       -1.253389343     2.510398311     0.012287811
  21    H        1.891122039     0.205562656    -1.682673536
  22    H        0.190258622    -0.184163893    -1.940930184
  23    H       -1.410624130     1.450635054    -1.392799227


           Empirical Formula: C7 H12 O4  =    23 atoms



      MOLECULAR POINT GROUP   :   C1  


                  EIGENVALUES  
 -41.68202 -35.86478 -35.34489 -34.40687 -30.92381 -30.43991 -30.06417 -24.43764
 -23.51947 -20.40504 -19.81903 -18.81892 -18.56924 -18.10550 -17.21327 -16.53319
 -16.07308 -15.70979 -15.15542 -14.81854 -14.54798 -14.26171 -13.69215 -13.16785
 -12.63190 -12.57868 -12.19789 -11.91341 -11.64392 -11.56711 -11.47464 -11.08055
  -0.00778   0.13637   2.76027   2.85452   3.15252   3.23523   3.26719   3.36811
   3.49438   3.56058   3.68403   3.82376   3.87376   4.00039   4.12779   4.14876
   4.21211   4.38903   4.44027   4.71803   4.83791   4.90705   5.04037   5.14669


              NET ATOMIC CHARGES AND DIPOLE CONTRIBUTIONS

  ATOM NO.   TYPE          CHARGE      No. of ELECS.   s-Pop       p-Pop       
    1          O          -0.187211        6.1872     1.91545     4.27176
    2          O          -0.188769        6.1888     1.91388     4.27489
    3          O           0.025887        5.9741     1.94033     4.03378
    4          O           0.034777        5.9652     1.93865     4.02657
    5          C           0.077938        3.9221     1.17869     2.74337
    6          C           0.070804        3.9292     1.17824     2.75096
    7          C          -0.155886        4.1559     1.17871     2.97718
    8          C          -0.124887        4.1249     1.16929     2.95560
    9          C          -0.101931        4.1019     1.16667     2.93526
   10          C          -0.091959        4.0920     1.15944     2.93252
   11          C          -0.098229        4.0982     1.16107     2.93715
   12          H           0.078880        0.9211     0.92112
   13          H           0.049910        0.9501     0.95009
   14          H           0.053016        0.9470     0.94698
   15          H           0.050738        0.9493     0.94926
   16          H           0.079332        0.9207     0.92067
   17          H           0.054348        0.9457     0.94565
   18          H           0.066907        0.9331     0.93309
   19          H           0.048676        0.9513     0.95132
   20          H           0.060425        0.9396     0.93957
   21          H           0.070002        0.9300     0.93000
   22          H           0.071701        0.9283     0.92830
   23          H           0.055529        0.9445     0.94447
 DIPOLE           X         Y         Z       TOTAL
 POINT-CHG.    -1.776    -0.339    -1.601     2.415
 HYBRID        -0.270    -0.034    -0.509     0.577
 SUM           -2.046    -0.373    -2.110     2.963


          ATOMIC ORBITAL ELECTRON POPULATIONS

     Atom    s        px        py        pz   
    1  O   1.91545   1.35499   1.43827   1.47850
    2  O   1.91388   1.14712   1.84584   1.28193
    3  O   1.94033   1.88762   1.03986   1.10630
    4  O   1.93865   1.07790   1.22657   1.72210
    5  C   1.17869   0.87424   0.95325   0.91588
    6  C   1.17824   0.93229   0.95270   0.86597
    7  C   1.17871   1.03495   0.95201   0.99022
    8  C   1.16929   0.94064   1.01024   1.00473
    9  C   1.16667   0.93305   0.99819   1.00403
   10  C   1.15944   0.96424   0.96123   1.00705
   11  C   1.16107   0.99433   0.94097   1.00185
   12  H   0.92112
   13  H   0.95009
   14  H   0.94698
   15  H   0.94926
   16  H   0.92067
   17  H   0.94565
   18  H   0.93309
   19  H   0.95132
   20  H   0.93957
   21  H   0.93000
   22  H   0.92830
   23  H   0.94447
 *******************************************************************************
 ** Site#: 14399        For non-commercial use only    Version 18.184L 64BITS **
 *******************************************************************************
 ** Cite this program as: MOPAC2016, Version: 18.184L, James J. P. Stewart,   **
 ** Stewart Computational Chemistry, web: HTTP://OpenMOPAC.net. Days left:  18**
 *******************************************************************************
 **                                                                           **
 **                                MOPAC2016                                  **
 **                                                                           **
 *******************************************************************************

                              PM3 CALCULATION RESULTS

 *******************************************************************************
 *  CALCULATION DONE:                                Sat Jun 15 10:30:12 2019  *
 *  PM3        - The PM3 Hamiltonian to be used
 *  OLDGEO     - PREVIOUS GEOMETRY TO BE USED
 *  PRECISE    - CRITERIA TO BE INCREASED BY 100 TIMES
 *  NOSYM      - POINT-GROUP SYMMETRY SET TO C1
 *  THREADS=1  - MULTI-THREADING NOT USED
 *  T=         - A TIME OF 172800.0 SECONDS REQUESTED
 *  DUMP=N     - RESTART FILE WRITTEN EVERY  7200.000 SECONDS
 *  THERMO     - THERMODYNAMIC QUANTITIES TO BE CALCULATED
 *******************************************************************************
oldgeo thermo nosym precise THREADS=1  pm3
 InChI=1S/C7H12O4/c1-2-4-7-5-6(3-1)8-10-11-9-7/h6-7H,1-5H2

   ATOM   CHEMICAL          X               Y               Z
  NUMBER   SYMBOL      (ANGSTROMS)     (ANGSTROMS)     (ANGSTROMS)
 
     1       O          2.28366278  *  -1.19409826  *   0.45966199  *
     2       O          1.01599843  *   1.51649313  *   0.85655699  *
     3       O          2.35014018  *  -0.06613568  *   1.58535889  *
     4       O          2.50552403  *   1.03010581  *   0.93995998  *
     5       C          1.07765322  *  -1.19016805  *  -0.24589621  *
     6       C          0.52344804  *   1.35067806  *  -0.45340648  *
     7       C          0.93224352  *   0.04287856  *  -1.14813518  *
     8       C         -0.14478514  *  -1.51943053  *   0.62876603  *
     9       C         -1.00659366  *   1.49550925  *  -0.36061782  *
    10       C         -1.46482543  *  -0.97487020  *   0.10745971  *
    11       C         -1.71034408  *   0.47126744  *   0.51339360  *
    12       H          1.31456290  *  -2.06939112  *  -0.90260233  *
    13       H          0.91869437  *   2.20004570  *  -1.06422866  *
    14       H         -1.52963268  *  -1.08595448  *  -0.99387646  *
    15       H         -2.28499064  *  -1.59869553  *   0.51596710  *
    16       H          0.01535894  *  -1.15792522  *   1.66597575  *
    17       H         -0.21727611  *  -2.62200186  *   0.71752807  *
    18       H         -1.42307854  *   0.61731492  *   1.57470496  *
    19       H         -2.79920547  *   0.67698312  *   0.47222588  *
    20       H         -1.25338934  *   2.51039831  *   0.01228781  *
    21       H          1.89112204  *   0.20556266  *  -1.68267354  *
    22       H          0.19025862  *  -0.18416389  *  -1.94093018  *
    23       H         -1.41062413  *   1.45063505  *  -1.39279923  *
 


          CARTESIAN COORDINATES 

    NO.       ATOM           X           Y           Z

     1         O          2.2837     -1.1941      0.4597
     2         O          1.0160      1.5165      0.8566
     3         O          2.3501     -0.0661      1.5854
     4         O          2.5055      1.0301      0.9400
     5         C          1.0777     -1.1902     -0.2459
     6         C          0.5234      1.3507     -0.4534
     7         C          0.9322      0.0429     -1.1481
     8         C         -0.1448     -1.5194      0.6288
     9         C         -1.0066      1.4955     -0.3606
    10         C         -1.4648     -0.9749      0.1075
    11         C         -1.7103      0.4713      0.5134
    12         H          1.3146     -2.0694     -0.9026
    13         H          0.9187      2.2000     -1.0642
    14         H         -1.5296     -1.0860     -0.9939
    15         H         -2.2850     -1.5987      0.5160
    16         H          0.0154     -1.1579      1.6660
    17         H         -0.2173     -2.6220      0.7175
    18         H         -1.4231      0.6173      1.5747
    19         H         -2.7992      0.6770      0.4722
    20         H         -1.2534      2.5104      0.0123
    21         H          1.8911      0.2056     -1.6827
    22         H          0.1903     -0.1842     -1.9409
    23         H         -1.4106      1.4506     -1.3928

  H: (PM3): J. J. P. STEWART, J. COMP. CHEM. 10, 209 (1989).
  C: (PM3): J. J. P. STEWART, J. COMP. CHEM. 10, 209 (1989).
  O: (PM3): J. J. P. STEWART, J. COMP. CHEM. 10, 209 (1989).

           Empirical Formula: C7 H12 O4  =    23 atoms



      MOLECULAR POINT GROUP   :   C1  


      RHF CALCULATION, NO. OF DOUBLY OCCUPIED LEVELS = 32



          HEAT OF FORMATION =      -7.329580 KCALS/MOLE


          CARTESIAN COORDINATE DERIVATIVES

   NUMBER  ATOM         X            Y            Z

     1       O     -0.001888    -0.002024     0.012422
     2       O      0.009784    -0.003145     0.007834
     3       O     -0.001756     0.008784    -0.007783
     4       O     -0.010165    -0.000500    -0.008265
     5       C     -0.008452     0.001939     0.000410
     6       C     -0.000627    -0.002492    -0.005101
     7       C      0.001868     0.004196     0.002658
     8       C     -0.010833     0.001676     0.001262
     9       C      0.000829    -0.001771    -0.002717
    10       C      0.004669     0.003009     0.007185
    11       C      0.003448     0.002608     0.005377
    12       H     -0.008383     0.003419     0.000006
    13       H      0.005817    -0.009277    -0.004756
    14       H      0.007658    -0.002352     0.006203
    15       H      0.008824    -0.003716     0.002810
    16       H     -0.011465     0.004535     0.001526
    17       H     -0.005843    -0.000120     0.002797
    18       H      0.014854    -0.004356    -0.009134
    19       H      0.006477     0.004585    -0.004564
    20       H      0.000691    -0.003329    -0.001598
    21       H      0.003955     0.001157    -0.001043
    22       H      0.001285    -0.004894    -0.006541
    23       H     -0.010748     0.002066     0.001012
 


          GRADIENT NORM =   0.04788


          TIME FOR SCF CALCULATION =    0.00

          TIME FOR DERIVATIVES     =    0.00

          MOLECULAR WEIGHT =  160.17



          ROTATIONAL CONSTANTS IN CM(-1)

          A =    0.05613164   B =    0.03709474   C =    0.02905429



           PRINCIPAL MOMENTS OF INERTIA IN UNITS OF 10**(-40)*GRAM-CM**2

          A =      498.6987   B =      754.6293   C =      963.4644


          ORIENTATION OF MOLECULE IN FORCE CALCULATION

    NO.       ATOM         X         Y         Z

     1          O      -1.8287    0.8125    0.6306
     2          O       1.1899    0.8125    0.6306
     3          O      -0.6958    1.9351    0.6306
     4          O       0.1385    1.5566    1.5268
     5          C      -1.4115   -0.3836    0.0409
     6          C       1.0756   -0.5815    0.8035
     7          C      -0.3618   -1.1173    0.8867
     8          C      -1.0788   -0.2455   -1.4551
     9          C       1.8604   -1.2256   -0.3541
    10          C      -0.1040   -1.2830   -1.9880
    11          C       1.3511   -0.9060   -1.7493
    12          H      -2.3868   -0.9271    0.1579
    13          H       1.5920   -0.8384    1.7616
    14          H      -0.3213   -2.2835   -1.5622
    15          H      -0.2660   -1.3853   -3.0798
    16          H      -0.6850    0.7699   -1.6698
    17          H      -2.0268   -0.3119   -2.0258
    18          H       1.5011    0.1705   -1.9702
    19          H       1.9877   -1.4475   -2.4781
    20          H       2.9244   -0.9204   -0.2856
    21          H      -0.6887   -1.1032    1.9472
    22          H      -0.3583   -2.1879    0.5960
    23          H       1.8540   -2.3232   -0.1933


    FIRST DERIVATIVES WILL BE USED IN THE CALCULATION OF SECOND DERIVATIVES

          ESTIMATED TIME TO COMPLETE CALCULATION =        2.16 SECONDS

    FOR POINT-GROUP C1   THERE ARE   1 UNIQUE SYMMETRY FUNCTIONS.

 STEP:   1 TIME =     0.02 SECS, INTEGRAL =      0.02 TIME LEFT: 172799.97
 STEP:   2 TIME =     0.03 SECS, INTEGRAL =      0.05 TIME LEFT: 172799.94
 STEP:   3 TIME =     0.02 SECS, INTEGRAL =      0.07 TIME LEFT: 172799.92
 STEP:   4 TIME =     0.02 SECS, INTEGRAL =      0.10 TIME LEFT: 172799.89
 STEP:   5 TIME =     0.03 SECS, INTEGRAL =      0.12 TIME LEFT: 172799.87
 STEP:   6 TIME =     0.02 SECS, INTEGRAL =      0.15 TIME LEFT: 172799.84
 STEP:   7 TIME =     0.02 SECS, INTEGRAL =      0.17 TIME LEFT: 172799.82
 STEP:   8 TIME =     0.02 SECS, INTEGRAL =      0.20 TIME LEFT: 172799.80
 STEP:   9 TIME =     0.03 SECS, INTEGRAL =      0.22 TIME LEFT: 172799.77
 STEP:  10 TIME =     0.02 SECS, INTEGRAL =      0.25 TIME LEFT: 172799.75
 STEP:  11 TIME =     0.02 SECS, INTEGRAL =      0.27 TIME LEFT: 172799.72
 STEP:  12 TIME =     0.03 SECS, INTEGRAL =      0.30 TIME LEFT: 172799.70
 STEP:  13 TIME =     0.02 SECS, INTEGRAL =      0.32 TIME LEFT: 172799.68
 STEP:  14 TIME =     0.02 SECS, INTEGRAL =      0.34 TIME LEFT: 172799.65
 STEP:  15 TIME =     0.02 SECS, INTEGRAL =      0.36 TIME LEFT: 172799.63
 STEP:  16 TIME =     0.02 SECS, INTEGRAL =      0.39 TIME LEFT: 172799.61
 STEP:  17 TIME =     0.02 SECS, INTEGRAL =      0.41 TIME LEFT: 172799.58
 STEP:  18 TIME =     0.02 SECS, INTEGRAL =      0.43 TIME LEFT: 172799.56
 STEP:  19 TIME =     0.02 SECS, INTEGRAL =      0.46 TIME LEFT: 172799.54
 STEP:  20 TIME =     0.02 SECS, INTEGRAL =      0.48 TIME LEFT: 172799.51
 STEP:  21 TIME =     0.02 SECS, INTEGRAL =      0.50 TIME LEFT: 172799.49
 STEP:  22 TIME =     0.02 SECS, INTEGRAL =      0.53 TIME LEFT: 172799.46
 STEP:  23 TIME =     0.02 SECS, INTEGRAL =      0.55 TIME LEFT: 172799.44
 STEP:  24 TIME =     0.02 SECS, INTEGRAL =      0.57 TIME LEFT: 172799.42
 STEP:  25 TIME =     0.02 SECS, INTEGRAL =      0.60 TIME LEFT: 172799.39
 STEP:  26 TIME =     0.02 SECS, INTEGRAL =      0.62 TIME LEFT: 172799.37
 STEP:  27 TIME =     0.02 SECS, INTEGRAL =      0.64 TIME LEFT: 172799.35
 STEP:  28 TIME =     0.02 SECS, INTEGRAL =      0.67 TIME LEFT: 172799.32
 STEP:  29 TIME =     0.02 SECS, INTEGRAL =      0.69 TIME LEFT: 172799.30
 STEP:  30 TIME =     0.02 SECS, INTEGRAL =      0.71 TIME LEFT: 172799.28
 STEP:  31 TIME =     0.02 SECS, INTEGRAL =      0.74 TIME LEFT: 172799.25
 STEP:  32 TIME =     0.02 SECS, INTEGRAL =      0.76 TIME LEFT: 172799.23
 STEP:  33 TIME =     0.02 SECS, INTEGRAL =      0.79 TIME LEFT: 172799.21
 STEP:  34 TIME =     0.02 SECS, INTEGRAL =      0.81 TIME LEFT: 172799.18
 STEP:  35 TIME =     0.02 SECS, INTEGRAL =      0.83 TIME LEFT: 172799.16
 STEP:  36 TIME =     0.02 SECS, INTEGRAL =      0.86 TIME LEFT: 172799.14
 STEP:  37 TIME =     0.02 SECS, INTEGRAL =      0.88 TIME LEFT: 172799.11
 STEP:  38 TIME =     0.03 SECS, INTEGRAL =      0.91 TIME LEFT: 172799.09
 STEP:  39 TIME =     0.02 SECS, INTEGRAL =      0.93 TIME LEFT: 172799.06
 STEP:  40 TIME =     0.02 SECS, INTEGRAL =      0.95 TIME LEFT: 172799.04
 STEP:  41 TIME =     0.02 SECS, INTEGRAL =      0.98 TIME LEFT: 172799.02
 STEP:  42 TIME =     0.02 SECS, INTEGRAL =      1.00 TIME LEFT: 172798.99
 STEP:  43 TIME =     0.02 SECS, INTEGRAL =      1.02 TIME LEFT: 172798.97
 STEP:  44 TIME =     0.03 SECS, INTEGRAL =      1.05 TIME LEFT: 172798.94
 STEP:  45 TIME =     0.02 SECS, INTEGRAL =      1.07 TIME LEFT: 172798.92
 STEP:  46 TIME =     0.03 SECS, INTEGRAL =      1.10 TIME LEFT: 172798.89
 STEP:  47 TIME =     0.02 SECS, INTEGRAL =      1.12 TIME LEFT: 172798.87
 STEP:  48 TIME =     0.02 SECS, INTEGRAL =      1.14 TIME LEFT: 172798.85
 STEP:  49 TIME =     0.02 SECS, INTEGRAL =      1.17 TIME LEFT: 172798.82
 STEP:  50 TIME =     0.02 SECS, INTEGRAL =      1.19 TIME LEFT: 172798.80
 STEP:  51 TIME =     0.02 SECS, INTEGRAL =      1.21 TIME LEFT: 172798.78
 STEP:  52 TIME =     0.02 SECS, INTEGRAL =      1.24 TIME LEFT: 172798.75
 STEP:  53 TIME =     0.02 SECS, INTEGRAL =      1.26 TIME LEFT: 172798.73
 STEP:  54 TIME =     0.02 SECS, INTEGRAL =      1.29 TIME LEFT: 172798.71
 STEP:  55 TIME =     0.02 SECS, INTEGRAL =      1.31 TIME LEFT: 172798.68
 STEP:  56 TIME =     0.02 SECS, INTEGRAL =      1.33 TIME LEFT: 172798.66
 STEP:  57 TIME =     0.02 SECS, INTEGRAL =      1.36 TIME LEFT: 172798.64
 STEP:  58 TIME =     0.02 SECS, INTEGRAL =      1.38 TIME LEFT: 172798.61
 STEP:  59 TIME =     0.02 SECS, INTEGRAL =      1.40 TIME LEFT: 172798.59
 STEP:  60 TIME =     0.02 SECS, INTEGRAL =      1.43 TIME LEFT: 172798.57
 STEP:  61 TIME =     0.02 SECS, INTEGRAL =      1.45 TIME LEFT: 172798.54
 STEP:  62 TIME =     0.02 SECS, INTEGRAL =      1.47 TIME LEFT: 172798.52
 STEP:  63 TIME =     0.02 SECS, INTEGRAL =      1.50 TIME LEFT: 172798.50
 STEP:  64 TIME =     0.02 SECS, INTEGRAL =      1.52 TIME LEFT: 172798.47
 STEP:  65 TIME =     0.02 SECS, INTEGRAL =      1.54 TIME LEFT: 172798.45
 STEP:  66 TIME =     0.02 SECS, INTEGRAL =      1.57 TIME LEFT: 172798.43
 STEP:  67 TIME =     0.02 SECS, INTEGRAL =      1.59 TIME LEFT: 172798.40
 STEP:  68 TIME =     0.02 SECS, INTEGRAL =      1.61 TIME LEFT: 172798.38
 STEP:  69 TIME =     0.02 SECS, INTEGRAL =      1.64 TIME LEFT: 172798.36

(To convert to Hartree/Bohr^2, multiply by (10^(-21) x N x a0^2)/(4.184 x 627.51) =  0.0642)


           FORCE MATRIX IN MILLIDYNES/ANGSTROM


                  O  1       O  2       O  3       O  4       C  5       C  6
 ------------------------------------------------------------------------------
     O    1   7.730406
     O    2   0.156314   7.254134
     O    3   2.210457   1.423026   6.820201
     O    4   1.202561   2.364146   5.439752   6.559548
     C    5   5.112122   0.041404   1.020925   0.180542  14.150254
     C    6   0.041356   5.041645   0.262258   0.943619   0.540884  14.159558
     C    7   0.905769   0.782713   0.030986   0.091381   3.636063   3.622255
     C    8   0.852849   0.032999   0.066469   0.018041   3.546273   0.028159
     C    9   0.006427   0.874750   0.046912   0.105055   0.022096   3.527806
     C   10   0.065278   0.007435   0.007009   0.005302   0.545346   0.032748
     C   11   0.003289   0.061368   0.003955   0.007985   0.023026   0.558472
     H   12   0.847280   0.012459   0.122309   0.048580   4.032200   0.051188
     H   13   0.004218   0.454128   0.008096   0.030865   0.041100   4.126468
     H   14   0.004171   0.001583   0.001807   0.002038   0.030479   0.008816
     H   15   0.011853   0.001674   0.002065   0.001315   0.044137   0.003401
     H   16   0.066366   0.004742   0.054982   0.015708   0.460696   0.006635
     H   17   0.028055   0.002596   0.006151   0.003075   0.433491   0.004000
     H   18   0.001244   0.028508   0.003459   0.004610   0.003331   0.014158
     H   19   0.001703   0.004583   0.001048   0.002166   0.004085   0.051807
     H   20   0.001320   0.062617   0.005103   0.005969   0.003868   0.445153
     H   21   0.059931   0.019984   0.015416   0.019850   0.455849   0.434669
     H   22   0.067931   0.058460   0.010239   0.008622   0.412615   0.426437
     H   23   0.001856   0.060996   0.008493   0.016028   0.005290   0.436515


                  C  7       C  8       C  9       C 10       C 11       H 12
 ------------------------------------------------------------------------------
     C    7  14.037844
     C    8   0.498415  14.098444
     C    9   0.584335   0.020165  14.061537
     C   10   0.074508   4.177657   0.595634  14.230201
     C   11   0.026775   0.627924   4.200877   4.124528  14.267446
     H   12   0.405238   0.412766   0.006758   0.012057   0.001221   4.767072
     H   13   0.415770   0.001817   0.412446   0.002826   0.047941   0.008657
     H   14   0.039335   0.446230   0.027329   4.416810   0.448592   0.002675
     H   15   0.004226   0.427519   0.048789   4.459089   0.427894   0.001443
     H   16   0.011510   4.423543   0.003507   0.442023   0.050431   0.034515
     H   17   0.039655   4.464578   0.001701   0.432020   0.046208   0.028094
     H   18   0.001799   0.043709   0.445385   0.444751   4.439897   0.000618
     H   19   0.002768   0.047468   0.427955   0.428890   4.442796   0.000426
     H   20   0.045970   0.001611   4.453702   0.049539   0.427324   0.000861
     H   21   4.441910   0.045579   0.041259   0.005463   0.002453   0.036073
     H   22   4.436934   0.011900   0.060120   0.035908   0.007409   0.039268
     H   23   0.031211   0.000859   4.422067   0.017002   0.443955   0.001704


                  H 13       H 14       H 15       H 16       H 17       H 18
 ------------------------------------------------------------------------------
     H   13   4.533500
     H   14   0.000438   5.030327
     H   15   0.000406   0.573342   5.043527
     H   16   0.000876   0.041820   0.019947   5.049737
     H   17   0.000621   0.015688   0.033693   0.582380   5.051879
     H   18   0.002295   0.043217   0.019907   0.024349   0.002774   5.049422
     H   19   0.008382   0.017668   0.035978   0.002956   0.007130   0.570959
     H   20   0.036161   0.002754   0.008065   0.000451   0.000528   0.034532
     H   21   0.030174   0.000679   0.000471   0.002024   0.006481   0.000283
     H   22   0.018883   0.066013   0.000667   0.000979   0.000955   0.000771
     H   23   0.035352   0.018056   0.001962   0.000633   0.000186   0.046219


                  H 19       H 20       H 21       H 22       H 23
 ------------------------------------------------------------------
     H   19   5.040344
     H   20   0.038586   5.066732
     H   21   0.000407   0.006758   5.047732
     H   22   0.000566   0.002557   0.570700   5.025233
     H   23   0.035097   0.566729   0.001876   0.030187   5.030792


          HEAT OF FORMATION =      -7.329580 KCALS/MOLE

          ZERO POINT ENERGY     117.338 KCAL/MOL


           NORMAL COORDINATE ANALYSIS (Total motion = 1 Angstrom)


   Root No.       1         2         3         4         5         6         7         8

                 1 A       2 A       3 A       4 A       5 A       6 A       7 A       8 A   

                  97.9     136.3     197.8     209.4     287.6     317.6     341.0     359.3
  
           1    0.0155   -0.0028    0.0157   -0.0044   -0.0253   -0.0271    0.0047    0.0276
           2    0.0130   -0.0160   -0.0024   -0.0199    0.0113   -0.0326   -0.0168    0.0097
           3   -0.0191    0.0158    0.0401    0.0208   -0.0127    0.0047    0.0005    0.0077
           4    0.0271    0.0004   -0.0202    0.0367    0.0117    0.0556   -0.0132   -0.0093
           5   -0.0090   -0.0088   -0.0154    0.0021   -0.0154    0.0106   -0.0138   -0.0105
           6    0.0527   -0.0211   -0.0190    0.0628   -0.0114    0.0084    0.0057    0.0150
           7    0.0330   -0.0088    0.0046   -0.0087   -0.0092   -0.0226    0.0066   -0.0239
           8   -0.0104   -0.0084   -0.0039   -0.0249   -0.0071   -0.0052    0.0053    0.0536
           9   -0.0394   -0.0212   -0.0286   -0.0537   -0.0084    0.0347    0.0130    0.0035
          10   -0.0019    0.0083    0.0156   -0.0269   -0.0110    0.0288    0.0279   -0.0508
          11    0.0006    0.0146    0.0167    0.0200   -0.0323    0.0364    0.0463    0.0282
          12    0.0009   -0.0282   -0.0239   -0.0174   -0.0179   -0.0091    0.0054    0.0027
          13   -0.0069    0.0023   -0.0145    0.0032   -0.0061   -0.0100   -0.0014    0.0337
          14   -0.0056   -0.0142    0.0051   -0.0072    0.0092   -0.0027   -0.0153    0.0095
          15    0.0024    0.0129    0.0031    0.0016    0.0072   -0.0300   -0.0068    0.0093
          16   -0.0006   -0.0003   -0.0185    0.0073    0.0118    0.0094   -0.0298    0.0162
          17   -0.0118   -0.0054   -0.0132   -0.0027   -0.0147    0.0132   -0.0131   -0.0138
          18    0.0134    0.0091    0.0040    0.0068   -0.0106    0.0005    0.0004   -0.0018
          19   -0.0044   -0.0004   -0.0130    0.0081   -0.0009    0.0044   -0.0271    0.0242
          20   -0.0013   -0.0000   -0.0391   -0.0011    0.0169    0.0140   -0.0094   -0.0259
          21    0.0027    0.0284   -0.0391    0.0019    0.0156   -0.0342    0.0257   -0.0117
          22   -0.0450   -0.0009   -0.0049    0.0212    0.0184   -0.0142    0.0346    0.0137
          23   -0.0426    0.0058    0.0159    0.0421    0.0196    0.0052   -0.0091   -0.0083
          24   -0.0096    0.0130    0.0059    0.0114    0.0149   -0.0306    0.0004    0.0033
          25   -0.0058   -0.0181    0.0183   -0.0022    0.0090   -0.0079   -0.0213   -0.0131
          26    0.0163   -0.0310    0.0119    0.0129   -0.0118   -0.0275    0.0211   -0.0406
          27   -0.0060    0.0119    0.0147   -0.0114   -0.0158    0.0123   -0.0188   -0.0171
          28   -0.0004    0.0124    0.0054   -0.0248    0.0051   -0.0069    0.0107    0.0016
          29   -0.0027    0.0398    0.0086    0.0098   -0.0053   -0.0118   -0.0284   -0.0170
          30   -0.0033   -0.0256    0.0327   -0.0046    0.0418    0.0119   -0.0077   -0.0036
          31   -0.0172    0.0104    0.0068   -0.0134    0.0021   -0.0117   -0.0011   -0.0034
          32    0.0546    0.0214    0.0174   -0.0279    0.0339    0.0069    0.0208    0.0070
          33    0.0074    0.0141    0.0188   -0.0172   -0.0013    0.0218   -0.0262   -0.0096
          34   -0.0113    0.0063   -0.0240    0.0127    0.0008    0.0025   -0.0102    0.0258
          35    0.0084   -0.0214    0.0218   -0.0259   -0.0042   -0.0290   -0.0047    0.0223
          36    0.0351    0.0079   -0.0011   -0.0205   -0.0052   -0.0396   -0.0343    0.0214
          37   -0.0034    0.0073   -0.0409    0.0109    0.0184   -0.0146   -0.0177    0.0316
          38   -0.0449    0.0119   -0.0017   -0.0389   -0.0201    0.0027   -0.0293   -0.0159
          39    0.0062    0.0094    0.0182   -0.0042   -0.0155    0.0104   -0.0102   -0.0115
          40    0.0355    0.0046    0.0126   -0.0503    0.0270   -0.0091    0.0338    0.0120
          41   -0.0121    0.0124    0.0231    0.0162    0.0186    0.0055   -0.0210   -0.0120
          42   -0.0071   -0.0974    0.0749   -0.0032    0.1117    0.0545    0.0201    0.0155
          43    0.0096    0.0305    0.0026   -0.0391   -0.0222    0.0067   -0.0119   -0.0116
          44   -0.0068    0.1092   -0.0312    0.0161   -0.0771   -0.0599   -0.0589   -0.0338
          45   -0.0045   -0.0356    0.0377   -0.0030    0.0537    0.0152   -0.0009    0.0006
          46   -0.1087   -0.0208   -0.0036    0.0813    0.0509   -0.0143    0.0806    0.0154
          47   -0.0274    0.0159    0.0153    0.0278    0.0106    0.0041   -0.0194   -0.0117
          48   -0.0544    0.0233    0.0083    0.0522    0.0291   -0.0327    0.0310   -0.0105
          49   -0.0545   -0.0044    0.0034    0.0241    0.0284   -0.0085    0.0435    0.0043
          50   -0.1171   -0.0026    0.0119    0.1194    0.0520   -0.0013    0.0450   -0.0085
          51    0.0145    0.0192   -0.0066   -0.0020   -0.0047   -0.0388   -0.0196    0.0193
          52   -0.0647    0.0234   -0.0017    0.0159   -0.0318   -0.0313   -0.0360   -0.0268
          53    0.0704    0.0275    0.0195   -0.0401    0.0467    0.0175    0.0273    0.0199
          54    0.0524    0.0526    0.0230   -0.0573    0.0371    0.0595   -0.0206    0.0368
          55    0.0061    0.0183    0.0035   -0.0334    0.0035   -0.0020    0.0233    0.0075
          56    0.1133    0.0406    0.0257   -0.0734    0.0815    0.0444    0.0480    0.0531
          57   -0.0156    0.0067    0.0103   -0.0013   -0.0343    0.0031   -0.0246   -0.0334
          58   -0.0057   -0.0039    0.0087   -0.0078    0.0137    0.0061   -0.0271    0.0041
          59    0.0161   -0.0848    0.0436    0.0379   -0.0319   -0.0786    0.0386   -0.1065
          60   -0.0045    0.0288    0.0241   -0.0303   -0.0068    0.0100   -0.0027   -0.0132
          61   -0.0079    0.0024   -0.0186    0.0062    0.0123   -0.0080   -0.0308    0.0242
          62    0.0014    0.0352   -0.1239   -0.0021    0.0500   -0.0077    0.0404   -0.0747
          63    0.0018    0.0296   -0.0411    0.0016    0.0191   -0.0379    0.0247   -0.0123
          64   -0.0048   -0.0062    0.0004    0.0137   -0.0220    0.0185   -0.0323    0.0178
          65   -0.0018   -0.0102   -0.0160   -0.0015    0.0105    0.0174   -0.0218   -0.0129
          66    0.0046    0.0703   -0.1306    0.0030    0.0390   -0.0526    0.0755   -0.0655
          67   -0.0030   -0.0744    0.0515    0.0256   -0.0113   -0.0577   -0.0056   -0.0785
          68    0.0121   -0.0333    0.0108    0.0145   -0.0153   -0.0280    0.0187   -0.0437
          69   -0.0352   -0.0062    0.0053    0.0026   -0.0411    0.0103   -0.0363   -0.0349


   Root No.       9        10        11        12        13        14        15        16

                 9 A      10 A      11 A      12 A      13 A      14 A      15 A      16 A   

                 371.8     414.6     458.3     492.0     547.3     597.5     670.2     730.1
  
           1    0.0322    0.0107    0.0295   -0.0033   -0.0158    0.0418   -0.0387    0.0421
           2   -0.0148    0.0053   -0.0089   -0.0176    0.0054   -0.0330   -0.0271    0.0269
           3   -0.0047    0.0486    0.0449   -0.0232    0.0170   -0.0045    0.0307   -0.0202
           4   -0.0282    0.0006   -0.0059   -0.0269   -0.0154    0.0350    0.0243    0.0740
           5    0.0273    0.0320   -0.0212   -0.0090   -0.0051    0.0169   -0.0364   -0.0234
           6   -0.0123    0.0114   -0.0014   -0.0012   -0.0069   -0.0079   -0.0406   -0.0646
           7    0.0205    0.0056   -0.0240    0.0239    0.0220    0.0245    0.0639   -0.0279
           8   -0.0243   -0.0247    0.0061   -0.0121   -0.0162    0.0527    0.0281   -0.0712
           9   -0.0173   -0.0157    0.0018   -0.0051   -0.0096    0.0076   -0.0012    0.0102
          10    0.0004   -0.0071   -0.0104   -0.0078   -0.0177   -0.0337   -0.0477   -0.0526
          11   -0.0206   -0.0128   -0.0105    0.0372    0.0289   -0.0164   -0.0046    0.0362
          12    0.0169    0.0151   -0.0109    0.0287    0.0297   -0.0050    0.0061    0.0423
          13    0.0245   -0.0212    0.0226    0.0053   -0.0237   -0.0310   -0.0162    0.0289
          14   -0.0091    0.0126    0.0224   -0.0134    0.0076   -0.0492    0.0068    0.0121
          15   -0.0190    0.0002   -0.0307   -0.0080   -0.0012   -0.0113    0.0005    0.0064
          16    0.0046   -0.0166    0.0038    0.0095    0.0143   -0.0255    0.0204   -0.0260
          17    0.0255    0.0251   -0.0204   -0.0077   -0.0066    0.0134    0.0073    0.0096
          18    0.0153   -0.0290    0.0072   -0.0051   -0.0238   -0.0435    0.0495   -0.0126
          19    0.0154   -0.0167   -0.0062    0.0105    0.0016   -0.0233    0.0061   -0.0250
          20   -0.0025    0.0205    0.0254   -0.0024    0.0225   -0.0147    0.0209   -0.0107
          21    0.0022   -0.0109    0.0162    0.0076   -0.0172   -0.0040    0.0042    0.0135
          22    0.0126    0.0060   -0.0131   -0.0262    0.0047   -0.0147    0.0016    0.0176
          23    0.0207   -0.0166    0.0105    0.0222   -0.0076    0.0010   -0.0046    0.0025
          24   -0.0178   -0.0012   -0.0448   -0.0107    0.0036    0.0100   -0.0149    0.0153
          25   -0.0274   -0.0255    0.0161    0.0075    0.0412    0.0125   -0.0259   -0.0190
          26   -0.0026   -0.0159    0.0063   -0.0152   -0.0228   -0.0036    0.0285    0.0096
          27    0.0153   -0.0127    0.0024   -0.0109   -0.0044    0.0050    0.0104    0.0059
          28   -0.0228    0.0303   -0.0015   -0.0006   -0.0040   -0.0046    0.0064    0.0003
          29   -0.0151   -0.0090   -0.0037    0.0339   -0.0183    0.0135   -0.0099    0.0067
          30   -0.0011    0.0070   -0.0029    0.0333   -0.0129    0.0213   -0.0203    0.0070
          31   -0.0341    0.0339   -0.0034    0.0160   -0.0077    0.0013    0.0007   -0.0104
          32    0.0163   -0.0022   -0.0042   -0.0042   -0.0071    0.0000    0.0120    0.0052
          33    0.0212   -0.0278    0.0062   -0.0121    0.0204    0.0175   -0.0144    0.0050
          34    0.0269   -0.0286    0.0211    0.0169   -0.0195   -0.0507    0.0067    0.0012
          35   -0.0135    0.0280    0.0219   -0.0339    0.0030   -0.0103   -0.0389    0.0564
          36   -0.0288   -0.0013   -0.0397   -0.0054    0.0010    0.0010   -0.0179   -0.0078
          37    0.0143   -0.0164    0.0040    0.0236    0.0033   -0.0512    0.0162   -0.0577
          38    0.0571    0.0149   -0.0280   -0.0066   -0.0095    0.0119    0.0211    0.0208
          39    0.0177   -0.0313    0.0055   -0.0123   -0.0187   -0.0291    0.0557    0.0071
          40   -0.0330    0.0547   -0.0124    0.0019   -0.0205   -0.0094    0.0270   -0.0016
          41   -0.0004   -0.0018    0.0106    0.0602   -0.0403    0.0083   -0.0005    0.0040
          42    0.0282    0.0397    0.0245    0.1033   -0.0805    0.0048    0.0151    0.0007
          43   -0.0140    0.0083    0.0169   -0.0170    0.0220    0.0063   -0.0002   -0.0102
          44   -0.0482   -0.0430   -0.0419   -0.0389    0.0490    0.0261   -0.0484    0.0210
          45    0.0016    0.0139   -0.0023    0.0433   -0.0241    0.0185   -0.0153    0.0071
          46    0.0595   -0.0150   -0.0527   -0.0802    0.0507    0.0207    0.0135   -0.0288
          47    0.0076   -0.0131    0.0144    0.0374   -0.0195    0.0032   -0.0084    0.0087
          48    0.0007   -0.0166   -0.0897   -0.0300    0.0265    0.0768   -0.0053   -0.0389
          49    0.0101    0.0155   -0.0227   -0.0295    0.0155    0.0073    0.0083   -0.0038
          50    0.0789   -0.0547   -0.0453   -0.0347    0.0392    0.0575    0.0047   -0.0549
          51   -0.0194   -0.0124   -0.0235   -0.0003   -0.0184   -0.0320   -0.0258    0.0555
          52   -0.0676    0.0501   -0.0087    0.0685   -0.0614    0.0080    0.0176   -0.0069
          53    0.0289   -0.0075   -0.0041   -0.0194    0.0169    0.0017   -0.0044    0.0024
          54    0.0549   -0.0357    0.0026   -0.0407    0.0899    0.0281   -0.0767   -0.0091
          55   -0.0106    0.0335   -0.0030   -0.0272    0.0082   -0.0140    0.0182   -0.0076
          56    0.0616   -0.0189   -0.0033   -0.0590    0.0746    0.0019   -0.0383   -0.0056
          57    0.0094   -0.0159    0.0057   -0.0102   -0.0247    0.0033    0.0365    0.0156
          58   -0.0160   -0.0064    0.0037    0.0149    0.0338    0.0066   -0.0188   -0.0351
          59   -0.0423   -0.0959    0.0549   -0.0464    0.0082    0.0168    0.0049    0.0721
          60    0.0022    0.0238   -0.0064   -0.0017   -0.0222    0.0171    0.0051    0.0090
          61   -0.0057   -0.0018   -0.0190    0.0118    0.0258   -0.0038   -0.0186   -0.0340
          62   -0.0044    0.0222    0.1289    0.0376    0.0600    0.0759   -0.0480   -0.0516
          63   -0.0042   -0.0059    0.0137    0.0079   -0.0094    0.0032   -0.0041    0.0106
          64    0.0337   -0.0189   -0.0384    0.0031   -0.0185   -0.0092    0.0323   -0.0226
          65   -0.0041    0.0191    0.0013   -0.0119    0.0148   -0.0415    0.0379   -0.0007
          66    0.0076   -0.0068    0.1149    0.0436    0.0175    0.1030   -0.0634   -0.0281
          67   -0.0659   -0.1122    0.0650   -0.0251    0.0730    0.0311   -0.0493    0.0437
          68   -0.0027   -0.0168    0.0069   -0.0165   -0.0202   -0.0011    0.0264    0.0117
          69    0.0161   -0.0104    0.0012   -0.0150    0.0051    0.0188   -0.0033    0.0104


   Root No.      17        18        19        20        21        22        23        24

                17 A      18 A      19 A      20 A      21 A      22 A      23 A      24 A   

                 748.5     796.3     852.8     869.2     895.8     918.7     939.1     951.4
  
           1    0.0325    0.0027    0.0198    0.0059   -0.0010    0.0062    0.0063    0.0134
           2    0.0160    0.0161   -0.0181   -0.0054   -0.0106   -0.0163    0.0005   -0.0051
           3   -0.0060    0.0020   -0.0086   -0.0004   -0.0039   -0.0029   -0.0037   -0.0056
           4   -0.0047    0.0085   -0.0086    0.0012    0.0015   -0.0035   -0.0004   -0.0059
           5   -0.0178    0.0138   -0.0038    0.0115   -0.0038    0.0022   -0.0167   -0.0115
           6   -0.0045   -0.0025    0.0016   -0.0021    0.0004    0.0030    0.0003    0.0037
           7   -0.0244   -0.0056   -0.0027   -0.0002    0.0030    0.0007   -0.0016   -0.0033
           8   -0.0112   -0.0031    0.0023    0.0021   -0.0008    0.0002   -0.0025    0.0005
           9    0.0045    0.0005    0.0017    0.0005    0.0002    0.0002    0.0029    0.0026
          10    0.0020   -0.0010    0.0014   -0.0004   -0.0011    0.0006   -0.0010    0.0009
          11    0.0058    0.0010   -0.0028   -0.0015   -0.0021   -0.0003    0.0005    0.0007
          12    0.0029    0.0037   -0.0034   -0.0008   -0.0017   -0.0014   -0.0028   -0.0036
          13   -0.0325   -0.0236   -0.0014   -0.0169    0.0250    0.0164   -0.0039   -0.0211
          14   -0.0171   -0.0101   -0.0104    0.0013    0.0074    0.0092   -0.0025   -0.0159
          15   -0.0107    0.0121   -0.0044   -0.0182    0.0025    0.0022    0.0045    0.0121
          16    0.0272    0.0066   -0.0063    0.0202   -0.0163   -0.0134   -0.0097    0.0045
          17   -0.0046    0.0065    0.0015    0.0072    0.0074   -0.0027    0.0048    0.0009
          18    0.0293    0.0151    0.0222    0.0300    0.0043   -0.0182   -0.0058   -0.0154
          19    0.0080   -0.0097   -0.0016   -0.0257   -0.0160   -0.0138    0.0122   -0.0063
          20    0.0183   -0.0204    0.0525   -0.0095    0.0054    0.0297    0.0080    0.0204
          21   -0.0207    0.0388   -0.0121    0.0187   -0.0062    0.0361    0.0104    0.0084
          22   -0.0206   -0.0219    0.0046    0.0154   -0.0095   -0.0148   -0.0217    0.0272
          23   -0.0173    0.0084   -0.0036    0.0027    0.0030   -0.0145    0.0190    0.0109
          24    0.0030   -0.0280    0.0251    0.0037    0.0163   -0.0153   -0.0143    0.0048
          25    0.0057    0.0195   -0.0147    0.0211    0.0465    0.0134   -0.0135    0.0140
          26    0.0135   -0.0197   -0.0244   -0.0022    0.0128   -0.0083    0.0237    0.0184
          27    0.0028    0.0025   -0.0002   -0.0182    0.0145   -0.0100   -0.0054   -0.0002
          28   -0.0043   -0.0018    0.0030    0.0005   -0.0265   -0.0038    0.0053    0.0014
          29   -0.0004    0.0037    0.0135   -0.0008   -0.0123   -0.0011   -0.0127    0.0039
          30    0.0029   -0.0375   -0.0022    0.0264   -0.0152    0.0090    0.0261   -0.0257
          31    0.0042    0.0170    0.0060   -0.0074    0.0192   -0.0025    0.0262   -0.0155
          32    0.0155   -0.0095   -0.0135   -0.0068    0.0019    0.0172   -0.0283   -0.0054
          33   -0.0047   -0.0175   -0.0217   -0.0122   -0.0213    0.0156   -0.0098    0.0182
          34   -0.0472   -0.0369    0.0068   -0.0443    0.0324    0.0264    0.0121   -0.0355
          35    0.0246    0.0207   -0.0240    0.0352   -0.0135   -0.0129   -0.0198    0.0078
          36    0.0450    0.0233    0.0177   -0.0840   -0.0049    0.0017    0.0444    0.0043
          37    0.0145    0.0241   -0.0271    0.0366   -0.0954    0.0100    0.0191    0.0123
          38   -0.0144    0.0461   -0.0100    0.0338    0.0132   -0.0290   -0.0238   -0.0405
          39    0.0340    0.0149    0.0304    0.0255    0.0481   -0.0386   -0.0270   -0.0295
          40    0.0247    0.0103    0.0273   -0.0300   -0.0184    0.0117   -0.0816   -0.0590
          41   -0.0121    0.0463    0.0214   -0.0279   -0.0092   -0.0187   -0.0235    0.0468
          42   -0.0110    0.0730    0.0327   -0.0572   -0.0055   -0.0249   -0.0513    0.0504
          43   -0.0043   -0.0151   -0.0600    0.0011   -0.0896    0.0433    0.0676    0.0262
          44    0.0086   -0.1140   -0.0001    0.0958   -0.0149    0.0308    0.0687   -0.0746
          45    0.0020   -0.0223    0.0097    0.0149   -0.0050   -0.0013    0.0090   -0.0215
          46    0.0748    0.0115   -0.0250   -0.0323   -0.0001    0.0684   -0.0106   -0.0673
          47   -0.0340    0.0060    0.0101    0.0129   -0.0073   -0.0413    0.0186    0.0439
          48    0.0855    0.0229    0.0346   -0.0336   -0.0151    0.0024    0.0015   -0.0016
          49    0.0092   -0.0140    0.0004    0.0301   -0.0587   -0.0159   -0.0057    0.0282
          50    0.0952    0.0675   -0.0261   -0.0721    0.0313    0.0732    0.0374   -0.0842
          51   -0.0565   -0.0458    0.0341   -0.0157    0.0931   -0.0221   -0.0432    0.0144
          52    0.0438    0.0002   -0.0141   -0.0400   -0.0204    0.0618   -0.0933   -0.0384
          53   -0.0055    0.0070    0.0079   -0.0006    0.0071   -0.0026    0.0010   -0.0070
          54   -0.0708    0.0493    0.0615   -0.0086   -0.0162   -0.0308    0.0384   -0.0038
          55   -0.0166    0.0372    0.0156   -0.0400    0.0232   -0.0541    0.1001    0.0093
          56   -0.0537    0.0508    0.0592    0.0158    0.0347   -0.0564    0.0849   -0.0145
          57    0.0263   -0.0430   -0.0652   -0.0581   -0.0395    0.0230   -0.0279    0.0473
          58    0.0251    0.0105   -0.0430    0.0346    0.0723    0.0134   -0.0090    0.0364
          59   -0.0605    0.0159    0.0821   -0.0479   -0.1052   -0.0117   -0.0032   -0.0589
          60    0.0052   -0.0035   -0.0153   -0.0552    0.0900    0.0129    0.0378   -0.0165
          61   -0.0015   -0.0153   -0.0382   -0.0826   -0.0401   -0.0173    0.0293    0.0422
          62    0.0520   -0.0756   -0.0029   -0.0519    0.0192   -0.1122   -0.0360   -0.0276
          63   -0.0235    0.0362   -0.0230    0.0004   -0.0119    0.0346    0.0158    0.0222
          64    0.0100    0.0203    0.0274   -0.0008   -0.0298   -0.0063    0.0397   -0.0189
          65    0.0106   -0.0076    0.0697    0.0003    0.0030    0.0698    0.0161    0.0381
          66    0.0124   -0.0099   -0.0809   -0.0134    0.0026   -0.1211   -0.0225   -0.0596
          67   -0.0692    0.0628    0.0973   -0.0206   -0.0807    0.0156   -0.0601   -0.0673
          68    0.0088   -0.0159   -0.0192   -0.0034    0.0112   -0.0146    0.0255    0.0190
          69   -0.0222    0.0188    0.0205   -0.0307    0.0049   -0.0479    0.0085    0.0148


   Root No.      25        26        27        28        29        30        31        32

                25 A      26 A      27 A      28 A      29 A      30 A      31 A      32 A   

                1029.4    1037.0    1058.4    1074.5    1090.7    1106.8    1115.0    1129.9
  
           1   -0.0033   -0.0014   -0.0054   -0.0047    0.0064    0.0026    0.0050   -0.0076
           2    0.0158    0.0023   -0.0021    0.0147   -0.0026   -0.0012   -0.0023   -0.0048
           3    0.0061    0.0020    0.0010    0.0067   -0.0046   -0.0024   -0.0032    0.0027
           4    0.0002   -0.0028    0.0029   -0.0007   -0.0046    0.0012   -0.0039    0.0142
           5   -0.0113   -0.0271    0.0095   -0.0067   -0.0176    0.0090    0.0047   -0.0169
           6    0.0034    0.0084   -0.0056   -0.0020    0.0148   -0.0080    0.0002   -0.0092
           7   -0.0018    0.0023   -0.0002   -0.0013    0.0041   -0.0057    0.0085   -0.0331
           8    0.0014   -0.0037    0.0013    0.0022   -0.0060    0.0058   -0.0087    0.0348
           9   -0.0012    0.0047   -0.0042   -0.0026    0.0097   -0.0068    0.0139   -0.0474
          10    0.0019   -0.0006    0.0008    0.0017   -0.0029    0.0038   -0.0084    0.0301
          11   -0.0017    0.0000   -0.0016   -0.0004    0.0017   -0.0019    0.0027   -0.0125
          12    0.0019   -0.0075    0.0048    0.0030   -0.0129    0.0095   -0.0164    0.0586
          13   -0.0051    0.0065    0.0233    0.0043   -0.0060   -0.0122   -0.0146   -0.0071
          14   -0.0135    0.0069    0.0011   -0.0079   -0.0001   -0.0097   -0.0023   -0.0169
          15    0.0064   -0.0043    0.0108   -0.0136    0.0036    0.0089    0.0117   -0.0021
          16   -0.0300   -0.0100   -0.0003   -0.0025   -0.0052    0.0018    0.0014    0.0000
          17    0.0107    0.0188   -0.0002    0.0075    0.0114   -0.0022    0.0049   -0.0014
          18    0.0019   -0.0118    0.0145   -0.0072   -0.0052    0.0046    0.0128    0.0002
          19    0.0197    0.0030   -0.0167   -0.0024   -0.0068   -0.0021    0.0004    0.0005
          20    0.0076   -0.0019   -0.0023    0.0027    0.0040    0.0006   -0.0014    0.0052
          21    0.0021    0.0050   -0.0109    0.0016   -0.0050    0.0043   -0.0078   -0.0001
          22    0.0155   -0.0003   -0.0081   -0.0066   -0.0066   -0.0007    0.0107    0.0038
          23    0.0032   -0.0162   -0.0074   -0.0042    0.0214    0.0343    0.0057   -0.0024
          24   -0.0143   -0.0061   -0.0000    0.0150    0.0064   -0.0115   -0.0060   -0.0004
          25    0.0145    0.0035    0.0040   -0.0003    0.0016    0.0026   -0.0064   -0.0063
          26   -0.0134    0.0151    0.0044    0.0071   -0.0159   -0.0028    0.0070    0.0017
          27   -0.0027    0.0011   -0.0165   -0.0127   -0.0112    0.0027   -0.0086   -0.0027
          28    0.0007    0.0045    0.0190    0.0005    0.0108    0.0130   -0.0055   -0.0055
          29   -0.0009    0.0179    0.0107    0.0007   -0.0168   -0.0175   -0.0095   -0.0051
          30    0.0036    0.0026   -0.0005   -0.0069    0.0000    0.0025    0.0012    0.0050
          31   -0.0143   -0.0097   -0.0095    0.0050   -0.0005   -0.0084    0.0106    0.0095
          32    0.0096   -0.0099   -0.0135   -0.0065    0.0116    0.0016    0.0025    0.0088
          33   -0.0071   -0.0029    0.0033    0.0166    0.0027   -0.0002    0.0018   -0.0052
          34    0.0252    0.0050    0.0488    0.0130   -0.0057    0.0111   -0.0300   -0.0123
          35   -0.0460    0.0087   -0.0314   -0.0260   -0.0007   -0.0371    0.0241   -0.0193
          36    0.0479   -0.0153    0.0958   -0.0797    0.0181    0.0676    0.0377   -0.0800
          37   -0.1205    0.0063   -0.0640    0.0465    0.0233   -0.0724   -0.0137   -0.0108
          38    0.0410    0.0658   -0.0254   -0.0757    0.2126   -0.1456   -0.0471    0.0742
          39    0.0582   -0.0084    0.0406   -0.0550    0.0269    0.0100    0.0085    0.0253
          40   -0.0376    0.0783   -0.0326    0.0083    0.0366    0.1786   -0.0716   -0.0868
          41    0.0005    0.0067    0.0344    0.0098   -0.0320   -0.0765    0.0006    0.0104
          42   -0.0128    0.0157    0.0304    0.0201   -0.0250   -0.0538   -0.0091   -0.0007
          43    0.0359   -0.0435    0.1354    0.0131    0.0746   -0.0471    0.0790    0.0706
          44    0.0026    0.0172   -0.0361   -0.0333   -0.0172    0.0219   -0.0229   -0.0055
          45   -0.0041    0.0097   -0.0128   -0.0040   -0.0089    0.0069   -0.0106   -0.0059
          46   -0.0165    0.0373    0.0043   -0.0032   -0.0184   -0.0246    0.0421    0.0199
          47    0.0166   -0.0272    0.0027   -0.0056    0.0184    0.0312   -0.0293   -0.0197
          48   -0.0061    0.0063    0.0682    0.0164   -0.0295   -0.0735   -0.1053   -0.0471
          49    0.0511    0.0203    0.0047   -0.0442   -0.0588   -0.0272   -0.0546   -0.0496
          50   -0.0494    0.0057    0.0254    0.0270    0.0406    0.0217    0.0168    0.0191
          51   -0.0663   -0.0423   -0.0207    0.0730    0.0911    0.0331    0.1025    0.0850
          52   -0.0054    0.0372   -0.0398    0.0236   -0.0265   -0.0102    0.1301    0.0594
          53    0.0002    0.0038   -0.0073   -0.0038   -0.0004   -0.0022    0.0057    0.0084
          54   -0.0436    0.0904    0.0069    0.0427   -0.0737   -0.0163    0.0962    0.0209
          55   -0.0794   -0.0814   -0.0182    0.0354    0.0525   -0.0065   -0.0789   -0.0183
          56   -0.0208    0.0130    0.0028   -0.0051   -0.0195   -0.0136    0.0002    0.0071
          57   -0.0420   -0.0800   -0.0185    0.0418    0.0689    0.0118   -0.0756   -0.0288
          58    0.0095    0.0226    0.0161    0.0090    0.0014    0.0131   -0.0083   -0.0075
          59   -0.0142   -0.0351   -0.0245   -0.0156    0.0021   -0.0229    0.0134    0.0124
          60    0.0464   -0.0907   -0.1063   -0.0413   -0.0903   -0.0812   -0.0073   -0.0286
          61   -0.0051    0.0264   -0.0693   -0.1633   -0.0112    0.0160    0.0270    0.0681
          62   -0.0115   -0.0106    0.0315   -0.0189    0.0089   -0.0194    0.0158   -0.0009
          63   -0.0034    0.0118   -0.0251   -0.0471   -0.0064    0.0115    0.0007    0.0192
          64    0.1587    0.0114   -0.0709    0.1816    0.0051    0.0158    0.0059   -0.0280
          65   -0.0035   -0.0011   -0.0066   -0.0096    0.0029    0.0001   -0.0073    0.0125
          66    0.0400    0.0021    0.0022    0.0438    0.0039    0.0036    0.0167   -0.0266
          67    0.0200   -0.0532   -0.0250   -0.0155    0.0300   -0.0059   -0.0036   -0.0012
          68   -0.0205    0.0410    0.0067    0.0066   -0.0112    0.0057    0.0055    0.0114
          69   -0.0548    0.1733   -0.0051   -0.0055    0.0181    0.0689   -0.0285    0.0536


   Root No.      33        34        35        36        37        38        39        40

                33 A      34 A      35 A      36 A      37 A      38 A      39 A      40 A   

                1136.6    1153.8    1161.6    1172.6    1179.1    1240.6    1262.6    1265.7
  
           1   -0.0008    0.0006    0.0013   -0.0036   -0.0049   -0.0016    0.0076    0.0051
           2   -0.0011    0.0021    0.0096   -0.0189   -0.0262   -0.0001   -0.0087   -0.0072
           3    0.0013   -0.0001    0.0022   -0.0045   -0.0095    0.0017   -0.0042   -0.0068
           4    0.0046    0.0027   -0.0011    0.0008    0.0001    0.0026    0.0014    0.0027
           5   -0.0040   -0.0025    0.0031   -0.0029   -0.0057   -0.0003    0.0051   -0.0059
           6   -0.0004   -0.0003   -0.0002   -0.0007   -0.0004   -0.0028   -0.0020   -0.0024
           7   -0.0049   -0.0022    0.0028   -0.0030   -0.0033    0.0007   -0.0019   -0.0030
           8    0.0049    0.0019   -0.0027    0.0031    0.0018   -0.0009   -0.0002    0.0012
           9   -0.0066   -0.0028    0.0045   -0.0060   -0.0082   -0.0004   -0.0006   -0.0024
          10    0.0043    0.0014   -0.0031    0.0039    0.0046   -0.0005    0.0001    0.0016
          11   -0.0011   -0.0006    0.0018   -0.0015   -0.0022   -0.0009   -0.0001   -0.0026
          12    0.0091    0.0037   -0.0052    0.0064    0.0069    0.0005    0.0016    0.0030
          13   -0.0027   -0.0001    0.0030   -0.0047    0.0143   -0.0009   -0.0172    0.0089
          14   -0.0037   -0.0029   -0.0088    0.0148    0.0244    0.0139    0.0346    0.0010
          15   -0.0028   -0.0027   -0.0007    0.0007    0.0053   -0.0317   -0.0311    0.0464
          16    0.0014   -0.0038    0.0067    0.0002   -0.0010   -0.0241   -0.0013   -0.0291
          17   -0.0043   -0.0025   -0.0034    0.0018    0.0067    0.0108   -0.0061    0.0221
          18   -0.0035    0.0027   -0.0045   -0.0037   -0.0020    0.0166    0.0068    0.0225
          19   -0.0173    0.0021   -0.0034    0.0012    0.0081   -0.0079   -0.0064   -0.0115
          20   -0.0004    0.0015    0.0007   -0.0015   -0.0002   -0.0049   -0.0073    0.0017
          21   -0.0062   -0.0023   -0.0021   -0.0013    0.0016   -0.0007    0.0055   -0.0235
          22    0.0136   -0.0076   -0.0034    0.0070   -0.0108    0.0012   -0.0049   -0.0107
          23    0.0101    0.0094    0.0074   -0.0076    0.0163   -0.0061    0.0028    0.0086
          24   -0.0070    0.0060    0.0059   -0.0035    0.0125    0.0029    0.0323    0.0058
          25    0.0007    0.0009    0.0001    0.0025   -0.0014    0.0037    0.0064    0.0086
          26    0.0079    0.0151   -0.0102   -0.0048    0.0006   -0.0042   -0.0002   -0.0065
          27    0.0006   -0.0018    0.0204    0.0118   -0.0057    0.0104   -0.0088    0.0086
          28   -0.0083    0.0169    0.0027    0.0098   -0.0061    0.0123   -0.0210   -0.0139
          29   -0.0100    0.0011   -0.0138    0.0212   -0.0256   -0.0075    0.0077    0.0038
          30   -0.0019   -0.0065    0.0006    0.0003   -0.0052   -0.0041   -0.0019   -0.0034
          31    0.0046   -0.0151   -0.0033   -0.0106    0.0040    0.0113   -0.0133    0.0066
          32    0.0037   -0.0257    0.0181   -0.0054    0.0086    0.0043   -0.0025    0.0005
          33    0.0060    0.0077   -0.0191   -0.0055   -0.0002    0.0086   -0.0149   -0.0004
          34    0.0614    0.0002    0.0250   -0.0664   -0.0985    0.0210    0.0601    0.0048
          35   -0.0773   -0.0091   -0.0462    0.1179    0.1954   -0.0082   -0.0821   -0.0157
          36    0.2063   -0.0512   -0.0444    0.1053    0.0348    0.0515    0.0395   -0.0894
          37    0.1381    0.0409    0.0723    0.0507   -0.0235    0.0683   -0.0025    0.1223
          38    0.0782    0.0570   -0.0451   -0.0202   -0.0098   -0.0404   -0.0070   -0.0386
          39   -0.0579   -0.0067   -0.0482   -0.0353    0.0061   -0.0455    0.0083   -0.0744
          40   -0.0076    0.1428   -0.0266    0.0182    0.0070   -0.0546    0.0547    0.0302
          41   -0.0179   -0.0259   -0.0186    0.0343   -0.0457    0.0093   -0.0066   -0.0127
          42   -0.0188   -0.0024   -0.0260    0.0316   -0.0424    0.0024    0.0025   -0.0192
          43   -0.0798    0.0465    0.1064    0.0337    0.0305   -0.0510    0.1247    0.0277
          44    0.0102   -0.0289   -0.0276    0.0086   -0.0427    0.0012   -0.0439   -0.0325
          45    0.0059   -0.0079   -0.0151   -0.0018   -0.0103    0.0046   -0.0186   -0.0082
          46   -0.0122   -0.0319   -0.0485    0.0730   -0.0909   -0.0459    0.0467    0.0438
          47    0.0174    0.0252    0.0344   -0.0469    0.0695    0.0305   -0.0286   -0.0317
          48   -0.0178    0.0319    0.0523   -0.0718    0.1132    0.0871   -0.0169   -0.0816
          49    0.0327   -0.0244   -0.0054   -0.0294    0.0417   -0.0333    0.0345    0.0586
          50   -0.0419    0.0283    0.0050    0.0164   -0.0178    0.0227   -0.0609   -0.0312
          51   -0.0313    0.0318    0.0095    0.0577   -0.0711    0.0560   -0.0218   -0.1047
          52    0.0678   -0.0255   -0.0125   -0.1170    0.0982   -0.0243    0.0434   -0.0038
          53    0.0033   -0.0161    0.0092   -0.0039    0.0043   -0.0007   -0.0003   -0.0034
          54    0.0507    0.0564   -0.0692   -0.0743    0.0479   -0.0412    0.0335   -0.0309
          55   -0.0214   -0.0851   -0.0843   -0.0256   -0.0111   -0.0478    0.0689    0.0141
          56   -0.0061   -0.0071   -0.0014    0.0059   -0.0100   -0.0022    0.0102    0.0152
          57   -0.0081   -0.0669   -0.0751   -0.0256   -0.0008   -0.0395    0.0466   -0.0076
          58    0.0011   -0.0032   -0.0089   -0.0021   -0.0019    0.0135    0.0090    0.0198
          59    0.0034    0.0013    0.0107   -0.0018    0.0036   -0.0178   -0.0168   -0.0272
          60    0.0411    0.1082    0.0753    0.0633    0.0002   -0.0926    0.0467   -0.0624
          61   -0.1066    0.0280   -0.0378   -0.0379   -0.0332    0.1349    0.0791    0.0300
          62    0.0084    0.0078    0.0011    0.0037    0.0009   -0.0140   -0.0374    0.0568
          63   -0.0326    0.0047   -0.0132   -0.0132   -0.0104    0.0422    0.0325   -0.0117
          64   -0.0218   -0.0222   -0.0235    0.0668    0.0466    0.0394    0.0474    0.0124
          65   -0.0022    0.0046    0.0029   -0.0083   -0.0039   -0.0091   -0.0157   -0.0050
          66   -0.0020   -0.0120   -0.0124    0.0267    0.0219    0.0149    0.0336    0.0080
          67   -0.0058   -0.0259    0.0158    0.0033    0.0052    0.0142    0.0066    0.0301
          68    0.0058   -0.0039    0.0071   -0.0035    0.0036   -0.0127    0.0056   -0.0157
          69   -0.0148   -0.1336    0.1403    0.0272    0.0133   -0.0472    0.0391   -0.0485


   Root No.      41        42        43        44        45        46        47        48

                41 A      42 A      43 A      44 A      45 A      46 A      47 A      48 A   

                1300.2    1327.9    1333.5    1342.8    1368.8    1384.4    1390.9    1399.2
  
           1   -0.0094   -0.0086    0.0012    0.0055    0.0073   -0.0054    0.0056   -0.0011
           2    0.0114    0.0118    0.0004   -0.0061   -0.0086    0.0062   -0.0065    0.0006
           3    0.0076    0.0081    0.0003   -0.0041   -0.0055    0.0042   -0.0044    0.0012
           4   -0.0006    0.0032   -0.0053    0.0075   -0.0018   -0.0012    0.0004    0.0006
           5   -0.0090    0.0053   -0.0297    0.0149   -0.0094   -0.0007    0.0003    0.0017
           6    0.0001   -0.0018    0.0061   -0.0070    0.0025    0.0010   -0.0003   -0.0006
           7    0.0025    0.0038   -0.0032   -0.0001   -0.0033    0.0018   -0.0018    0.0004
           8    0.0001   -0.0004    0.0025   -0.0008    0.0005    0.0001   -0.0004    0.0001
           9    0.0005    0.0018   -0.0024    0.0004   -0.0015    0.0009   -0.0007    0.0002
          10    0.0003   -0.0024    0.0055   -0.0026    0.0022   -0.0002    0.0004   -0.0002
          11   -0.0016    0.0007   -0.0029   -0.0008   -0.0006    0.0004   -0.0003   -0.0000
          12   -0.0019   -0.0010    0.0005    0.0020    0.0013   -0.0013    0.0007    0.0001
          13    0.0173    0.0016   -0.0114   -0.0217   -0.0166    0.0138   -0.0124    0.0009
          14   -0.0268   -0.0249    0.0064    0.0166    0.0237   -0.0143    0.0184   -0.0016
          15   -0.0051   -0.0295   -0.0226    0.0002    0.0112   -0.0179    0.0148   -0.0040
          16   -0.0096   -0.0284    0.0128   -0.0509    0.0060    0.0131   -0.0000   -0.0041
          17    0.0345   -0.0130    0.0732   -0.0219    0.0172    0.0022    0.0013   -0.0026
          18    0.0213   -0.0029   -0.0046    0.0274   -0.0134   -0.0044    0.0030    0.0035
          19   -0.0108    0.0404    0.0236    0.0516    0.0097   -0.0216    0.0022    0.0018
          20   -0.0021    0.0001   -0.0158   -0.0054   -0.0096   -0.0199   -0.0105    0.0070
          21   -0.0063    0.0163    0.0138    0.0080    0.0055    0.0153    0.0032   -0.0052
          22    0.0152    0.0070   -0.0094   -0.0084    0.0009   -0.0124    0.0073    0.0142
          23   -0.0085    0.0030    0.0077    0.0027   -0.0049    0.0081    0.0023   -0.0189
          24   -0.0218    0.0045    0.0223    0.0107   -0.0042    0.0268   -0.0222    0.0153
          25    0.0117    0.0029   -0.0030    0.0135   -0.0032   -0.0079    0.0018    0.0105
          26   -0.0106    0.0053   -0.0153   -0.0028    0.0059    0.0028   -0.0057   -0.0080
          27   -0.0279    0.0285   -0.0135   -0.0398    0.0355   -0.0029   -0.0147   -0.0034
          28   -0.0103   -0.0308    0.0017    0.0294    0.0203    0.0048   -0.0264   -0.0148
          29    0.0045    0.0067   -0.0005   -0.0109   -0.0162   -0.0142   -0.0109   -0.0039
          30    0.0125    0.0048   -0.0091   -0.0089   -0.0028   -0.0119   -0.0077   -0.0059
          31   -0.0218    0.0036    0.0157   -0.0066   -0.0321    0.0082    0.0175    0.0018
          32    0.0002   -0.0037    0.0023    0.0059   -0.0009    0.0030   -0.0012   -0.0020
          33   -0.0133   -0.0081    0.0197    0.0047   -0.0270    0.0039    0.0224    0.0086
          34   -0.0238   -0.0401    0.0166   -0.0063    0.0213   -0.0036    0.0150   -0.0019
          35    0.0498    0.0581   -0.0326   -0.0155   -0.0466    0.0228   -0.0336    0.0054
          36    0.0295    0.0380    0.0208   -0.0294   -0.0199    0.0298   -0.0197    0.0135
          37    0.0409    0.0177   -0.0531    0.0448   -0.0087   -0.0233   -0.0082    0.0100
          38   -0.0487    0.0034   -0.0818    0.0077   -0.0220    0.0010   -0.0009    0.0012
          39   -0.0259   -0.0242   -0.0080   -0.0160   -0.0156    0.0151    0.0071   -0.0030
          40    0.0370    0.0616   -0.0103   -0.0549   -0.0233   -0.0049    0.0672    0.0314
          41    0.0010   -0.0168   -0.0043    0.0225    0.0424    0.0213    0.0199    0.0245
          42    0.0243   -0.0032   -0.0203    0.0240    0.0949    0.0578    0.0933    0.0713
          43    0.0302    0.0775   -0.0163   -0.0516    0.0155    0.0107    0.0306    0.0359
          44    0.0524   -0.0086   -0.0466    0.0253    0.1188    0.0540    0.1024    0.0591
          45    0.0052   -0.0091   -0.0044    0.0011   -0.0068   -0.0141   -0.0181   -0.0132
          46   -0.0259    0.0238    0.0286   -0.0085   -0.0365   -0.0101    0.0336   -0.1384
          47    0.0222   -0.0067   -0.0204   -0.0048    0.0142   -0.0126    0.0109    0.0295
          48    0.0474   -0.0028   -0.0401   -0.0339    0.0088   -0.0885    0.1038   -0.1064
          49   -0.0264    0.0038    0.0180   -0.0033   -0.0137    0.0335   -0.0202    0.0313
          50    0.0130   -0.0467   -0.0238    0.0325    0.0460    0.0267   -0.0792    0.1495
          51    0.0458    0.0195   -0.0194   -0.0057    0.0094   -0.0606    0.0468   -0.0611
          52    0.0345    0.0329   -0.0387   -0.0293    0.0783   -0.0227    0.0042    0.0289
          53    0.0028   -0.0092   -0.0021    0.0136   -0.0042    0.0067   -0.0133   -0.0132
          54    0.0432   -0.0302   -0.0387    0.0464    0.0230    0.0113   -0.0644   -0.0436
          55    0.0797    0.0380   -0.0394   -0.0236    0.0400   -0.0329   -0.0096    0.0133
          56   -0.0110    0.0517   -0.0076   -0.0669    0.0264   -0.0276    0.0422    0.0426
          57    0.0849   -0.0253   -0.0212    0.0511    0.0117   -0.0062   -0.0397   -0.0210
          58    0.0085    0.0221   -0.0276    0.0147    0.0275    0.0004   -0.0225   -0.0230
          59   -0.0182   -0.0336    0.0560   -0.0264   -0.0710   -0.0219    0.0599    0.0861
          60    0.0995   -0.1013    0.0341    0.0458   -0.0242    0.0117    0.0030   -0.0095
          61    0.0534   -0.0581   -0.0670   -0.0563   -0.0502    0.0409   -0.0136    0.0051
          62    0.0268    0.0314   -0.0257    0.0604    0.0241    0.1775    0.0691   -0.0542
          63    0.0117   -0.0167   -0.0116   -0.0275   -0.0142    0.0167   -0.0068    0.0007
          64   -0.0349   -0.0760   -0.1537   -0.0605   -0.0192    0.0906    0.0272   -0.0150
          65    0.0030    0.0237   -0.0148    0.0093   -0.0060    0.0411    0.0043   -0.0122
          66   -0.0209   -0.0678    0.0059   -0.0410   -0.0037   -0.1613   -0.0370    0.0477
          67    0.0404    0.0049    0.0139   -0.0101    0.0768    0.0276   -0.0579   -0.0914
          68   -0.0027   -0.0070   -0.0158    0.0157   -0.0141    0.0012    0.0034    0.0003
          69    0.0386   -0.0515   -0.0389    0.0950   -0.0689    0.0062    0.0199    0.0036


   Root No.      49        50        51        52        53        54        55        56

                49 A      50 A      51 A      52 A      53 A      54 A      55 A      56 A   

                1406.5    1409.8    1412.3    2831.2    2889.8    2941.3    2943.1    2944.9
  
           1    0.0005    0.0047   -0.0032    0.0000   -0.0012   -0.0001   -0.0001   -0.0002
           2   -0.0007   -0.0058    0.0038   -0.0001   -0.0058    0.0002    0.0001   -0.0001
           3   -0.0004   -0.0027    0.0020   -0.0000   -0.0018   -0.0001   -0.0000    0.0001
           4    0.0003   -0.0001    0.0001   -0.0000    0.0000    0.0000    0.0001    0.0000
           5    0.0008   -0.0009    0.0027    0.0000   -0.0000    0.0001   -0.0000    0.0001
           6   -0.0000    0.0000   -0.0006    0.0004   -0.0000   -0.0000   -0.0001   -0.0000
           7   -0.0000   -0.0016    0.0013    0.0000    0.0001   -0.0000    0.0000    0.0000
           8   -0.0001   -0.0002    0.0000   -0.0000    0.0006    0.0000    0.0000    0.0000
           9    0.0001   -0.0005    0.0006   -0.0000   -0.0000   -0.0000   -0.0000    0.0000
          10   -0.0001    0.0005   -0.0007    0.0001    0.0001    0.0000   -0.0000   -0.0000
          11   -0.0001   -0.0002    0.0003    0.0001   -0.0000    0.0000    0.0000    0.0000
          12   -0.0001    0.0007   -0.0005   -0.0000    0.0002    0.0000    0.0000   -0.0000
          13   -0.0014   -0.0143    0.0091    0.0001   -0.0525    0.0007    0.0001   -0.0026
          14    0.0031    0.0190   -0.0130   -0.0002   -0.0282    0.0001   -0.0001   -0.0015
          15   -0.0004    0.0084   -0.0053    0.0001    0.0066   -0.0002   -0.0001    0.0003
          16   -0.0011    0.0031   -0.0002   -0.0328    0.0007   -0.0002   -0.0001   -0.0001
          17    0.0008    0.0011   -0.0073    0.0154   -0.0002   -0.0000    0.0001   -0.0000
          18    0.0017   -0.0008    0.0037   -0.0610    0.0005   -0.0004   -0.0001   -0.0002
          19   -0.0020    0.0047   -0.0012   -0.0014   -0.0002    0.0030    0.0025    0.0025
          20   -0.0093   -0.0100    0.0128    0.0001    0.0018   -0.0111   -0.0091   -0.0084
          21    0.0062    0.0050   -0.0076    0.0019   -0.0012   -0.0124   -0.0108   -0.0103
          22   -0.0047    0.0251   -0.0106   -0.0001    0.0052    0.0054    0.0007   -0.0278
          23   -0.0004   -0.0248    0.0106   -0.0001    0.0041    0.0051    0.0007   -0.0234
          24    0.0000   -0.0114    0.0096    0.0000    0.0023    0.0010    0.0003   -0.0069
          25    0.0100   -0.0185   -0.0168    0.0014   -0.0000   -0.0036    0.0100   -0.0021
          26   -0.0045    0.0113    0.0128   -0.0010   -0.0000   -0.0058    0.0152   -0.0033
          27   -0.0068   -0.0116   -0.0197   -0.0005    0.0000    0.0005   -0.0012    0.0003
[...]
 FREQ.      1333.49         O  2 -- C  6         +18.3% ( 62.2%)     99.1%
 T-DIPOLE    0.4008         C  6 -- H 13         +14.8% ( 55.9%)      1.2%
 TRAVEL      0.0778         C  6 -- C  7         +13.4% ( 53.2%)      5.7%
 RED. MASS   1.8172         C  6 -- C  9         +13.2% ( 52.8%)     15.5%
 EFF. MASS   8.3436

 VIBRATION   44   44A         ATOM PAIR      ENERGY CONTRIBUTION    RADIAL
 FREQ.      1342.76         C  6 -- C  7         +15.6% ( 59.7%)     94.5%
 T-DIPOLE    0.1543         C  6 -- C  9         +12.5% ( 53.5%)     62.9%
 TRAVEL      0.0754         O  2 -- C  6          +9.1% ( 45.6%)     36.1%
 RED. MASS   1.4383         C  6 -- H 13          +8.2% ( 43.4%)      0.2%
 EFF. MASS   8.8362

 VIBRATION   45   45A         ATOM PAIR      ENERGY CONTRIBUTION    RADIAL
 FREQ.      1368.83         C  9 -- C 11         +12.0% ( 46.5%)     90.0%
 T-DIPOLE    0.2388         C 10 -- C 11          +8.9% ( 39.9%)     70.5%
 TRAVEL      0.0872         C 11 -- H 18          +8.6% ( 39.4%)      0.0%
 RED. MASS   0.6643         C  9 -- H 23          +8.0% ( 37.9%)      0.1%
 EFF. MASS   6.4819

 VIBRATION   46   46A         ATOM PAIR      ENERGY CONTRIBUTION    RADIAL
 FREQ.      1384.38         C  7 -- H 22         +18.2% ( 49.4%)      2.9%
 T-DIPOLE    0.1793         C  7 -- H 21         +17.0% ( 47.7%)      5.7%
 TRAVEL      0.1084         C  5 -- C  8          +8.1% ( 33.0%)     69.7%
 RED. MASS   0.3779         C  8 -- H 16          +7.8% ( 32.3%)      0.3%
 EFF. MASS   4.1462

 VIBRATION   47   47A         ATOM PAIR      ENERGY CONTRIBUTION    RADIAL
 FREQ.      1390.93         C 10 -- H 14         +10.3% ( 38.7%)      3.2%
 T-DIPOLE    0.1428         C 10 -- C 11          +9.6% ( 37.4%)     82.3%
 TRAVEL      0.1009         C 10 -- H 15          +9.0% ( 36.2%)      4.5%
 RED. MASS   0.3673         C  8 -- H 16          +8.4% ( 34.9%)      2.6%
 EFF. MASS   4.7600

 VIBRATION   48   48A         ATOM PAIR      ENERGY CONTRIBUTION    RADIAL
 FREQ.      1399.21         C  8 -- H 16         +25.3% ( 49.6%)      3.7%
 T-DIPOLE    0.0899         C  8 -- H 17         +21.5% ( 45.6%)      6.3%
 TRAVEL      0.1418         C  8 -- C 10          +7.4% ( 26.7%)     30.3%
 RED. MASS   0.2440         C  9 -- H 23          +6.5% ( 25.0%)      3.5%
 EFF. MASS   2.3980

 VIBRATION   49   49A         ATOM PAIR      ENERGY CONTRIBUTION    RADIAL
 FREQ.      1406.47         C 11 -- H 18         +24.0% ( 52.7%)      4.1%
 T-DIPOLE    0.1328         C 11 -- H 19         +21.3% ( 49.8%)      5.9%
 TRAVEL      0.1205         C 10 -- C 11         +14.3% ( 40.7%)     91.4%
 RED. MASS   0.4229         C 10 -- H 15          +8.7% ( 31.7%)      3.4%
 EFF. MASS   3.3039

 VIBRATION   50   50A         ATOM PAIR      ENERGY CONTRIBUTION    RADIAL
 FREQ.      1409.79         C  8 -- C 10         +12.7% ( 45.0%)     99.2%
 T-DIPOLE    0.1313         C  8 -- H 16         +10.1% ( 40.0%)      2.5%
 TRAVEL      0.0940         C  8 -- H 17          +8.5% ( 36.6%)      4.3%
 RED. MASS   0.4993         C  5 -- C  8          +8.3% ( 36.3%)     14.7%
 EFF. MASS   5.4153

 VIBRATION   51   51A         ATOM PAIR      ENERGY CONTRIBUTION    RADIAL
 FREQ.      1412.27         C  9 -- H 20         +12.9% ( 41.0%)      4.0%
 T-DIPOLE    0.2170         C  9 -- H 23         +12.4% ( 40.1%)      5.1%
 TRAVEL      0.1089         C  9 -- C 11         +10.3% ( 36.5%)     97.6%
 RED. MASS   0.2799         C 11 -- H 18          +8.6% ( 33.3%)      3.5%
 EFF. MASS   4.0252

 VIBRATION   52   52A         ATOM PAIR      ENERGY CONTRIBUTION    RADIAL
 FREQ.      2831.16         C  6 -- H 13         +96.6% ( 99.9%)    100.0%
 T-DIPOLE    0.0470         C  6 -- C  7          +1.1% ( 10.6%)      8.2%
 TRAVEL      0.1280         O  2 -- C  6          +1.1% ( 10.6%)      7.9%
 RED. MASS   0.9270         C  6 -- C  9          +1.1% ( 10.5%)      8.8%
 EFF. MASS   1.4544

 VIBRATION   53   53A         ATOM PAIR      ENERGY CONTRIBUTION    RADIAL
 FREQ.      2889.84         C  5 -- H 12         +96.2% ( 99.4%)     99.8%
 T-DIPOLE    0.2035         C  5 -- C  8          +0.9% (  9.8%)      8.7%
 TRAVEL      0.1289         C  5 -- C  7          +0.9% (  9.6%)      8.0%
 RED. MASS   0.9110         O  1 -- C  5          +0.9% (  9.6%)      0.0%
 EFF. MASS   1.4041

 VIBRATION   54   54A         ATOM PAIR      ENERGY CONTRIBUTION    RADIAL
 FREQ.      2941.28         C 10 -- H 14         +23.4% ( 50.4%)     97.8%
 T-DIPOLE    0.0796         C  7 -- H 22         +18.2% ( 44.5%)     97.6%
 TRAVEL      0.1214         C 10 -- H 15         +15.1% ( 40.5%)     94.9%
 RED. MASS   0.1586         C  7 -- H 21         +13.7% ( 38.5%)     95.4%
 EFF. MASS   1.5558

 VIBRATION   55   55A         ATOM PAIR      ENERGY CONTRIBUTION    RADIAL
 FREQ.      2943.08         C 11 -- H 18         +21.6% ( 48.3%)     96.5%
 T-DIPOLE    0.0711         C 11 -- H 19         +20.6% ( 47.3%)     96.2%
 TRAVEL      0.1217         C  9 -- H 23         +18.8% ( 45.1%)     97.3%
 RED. MASS   0.1753         C  9 -- H 20         +13.0% ( 37.5%)     95.2%
 EFF. MASS   1.5479         C  7 -- H 22         +10.2% ( 33.3%)     97.0%

 VIBRATION   56   56A         ATOM PAIR      ENERGY CONTRIBUTION    RADIAL
 FREQ.      2944.94         C  8 -- H 16         +45.0% ( 69.7%)     96.9%
 T-DIPOLE    0.1566         C  8 -- H 17         +39.0% ( 64.9%)     95.9%
 TRAVEL      0.1219         C  7 -- H 21          +5.6% ( 24.6%)     96.4%
 RED. MASS   0.3914         C  7 -- H 22          +5.6% ( 24.5%)     96.7%
 EFF. MASS   1.5418

 VIBRATION   57   57A         ATOM PAIR      ENERGY CONTRIBUTION    RADIAL
 FREQ.      2948.05         C 10 -- H 15         +27.6% ( 54.5%)     96.7%
 T-DIPOLE    0.1039         C 10 -- H 14         +25.1% ( 52.1%)     96.2%
 TRAVEL      0.1215         C  7 -- H 21         +18.3% ( 44.4%)     96.7%
 RED. MASS   0.2209         C  7 -- H 22         +16.6% ( 42.4%)     96.1%
 EFF. MASS   1.5485

 VIBRATION   58   58A         ATOM PAIR      ENERGY CONTRIBUTION    RADIAL
 FREQ.      2951.11         C  9 -- H 23         +29.5% ( 56.3%)     96.9%
 T-DIPOLE    0.0876         C  9 -- H 20         +26.9% ( 53.8%)     96.3%
 TRAVEL      0.1217         C 11 -- H 19         +22.3% ( 49.0%)     97.2%
 RED. MASS   0.2577         C 11 -- H 18         +16.7% ( 42.4%)     95.7%
 EFF. MASS   1.5422

 VIBRATION   59   59A         ATOM PAIR      ENERGY CONTRIBUTION    RADIAL
 FREQ.      3022.06         C  7 -- H 21         +19.7% ( 43.8%)     98.3%
 T-DIPOLE    0.1552         C 10 -- H 15         +18.5% ( 42.4%)     98.1%
 TRAVEL      0.1322         C 10 -- H 14         +16.5% ( 40.0%)     96.8%
 RED. MASS   0.1395         C  7 -- H 22         +14.9% ( 38.0%)     96.4%
 EFF. MASS   1.2766

 VIBRATION   60   60A         ATOM PAIR      ENERGY CONTRIBUTION    RADIAL
 FREQ.      3024.84         C  9 -- H 20         +24.2% ( 48.4%)     97.9%
 T-DIPOLE    0.0824         C  9 -- H 23         +22.0% ( 46.2%)     97.4%
 TRAVEL      0.1324         C 11 -- H 18         +13.7% ( 36.5%)     98.1%
 RED. MASS   0.1604         C 11 -- H 19         +11.5% ( 33.5%)     97.3%
 EFF. MASS   1.2718         C  7 -- H 21         +10.5% ( 31.9%)     97.9%

 VIBRATION   61   61A         ATOM PAIR      ENERGY CONTRIBUTION    RADIAL
 FREQ.      3028.83         C  7 -- H 22         +16.3% ( 39.7%)     97.7%
 T-DIPOLE    0.0480         C  7 -- H 21         +16.1% ( 39.4%)     97.7%
 TRAVEL      0.1322         C 10 -- H 14         +14.8% ( 37.8%)     98.4%
 RED. MASS   0.1145         C  9 -- H 20         +11.1% ( 32.7%)     98.5%
 EFF. MASS   1.2737         C 10 -- H 15         +10.3% ( 31.5%)     96.7%

 VIBRATION   62   62A         ATOM PAIR      ENERGY CONTRIBUTION    RADIAL
 FREQ.      3031.19         C 11 -- H 19         +24.2% ( 48.4%)     98.2%
 T-DIPOLE    0.1081         C 11 -- H 18         +19.8% ( 43.7%)     97.2%
 TRAVEL      0.1322         C  9 -- H 20         +13.6% ( 36.3%)     98.7%
 RED. MASS   0.1525         C 10 -- H 15         +12.8% ( 35.2%)     98.4%
 EFF. MASS   1.2726

 VIBRATION   63   63A         ATOM PAIR      ENERGY CONTRIBUTION    RADIAL
 FREQ.      3032.05         C  8 -- H 17         +46.2% ( 66.8%)     98.4%
 T-DIPOLE    0.1111         C  8 -- H 16         +37.7% ( 60.4%)     97.2%
 TRAVEL      0.1323         C 10 -- H 15          +5.7% ( 23.4%)     98.7%
 RED. MASS   0.3570         C 10 -- H 14          +3.4% ( 18.2%)     96.1%
 EFF. MASS   1.2714

      SYMMETRY NUMBER FOR POINT-GROUP C1  =  1


          SYSTEM IS A GROUND STATE



 InChI=1S/C7H12O4/c1-2-4-7-5-6(3-1)8-10-11-9-7/h6-7H,1-5H2


          MOLECULE IS NOT LINEAR

          THERE ARE 63 GENUINE VIBRATIONS IN THIS SYSTEM
          THIS THERMODYNAMICS CALCULATION IS LIMITED TO
          MOLECULES WHICH HAVE NO INTERNAL ROTATIONS




                    CALCULATED THERMODYNAMIC PROPERTIES
                                          *
   TEMP. (K)   PARTITION FUNCTION   H.O.F.    ENTHALPY  HEAT CAPACITY ENTROPY
                                   KCAL/MOL   CAL/MOLE    CAL/K/MOL  CAL/K/MOL


 298.00  VIB.     0.9324D+02                  4210.1489    33.1562    23.1403
         ROT.     0.6793D+06                   888.2813     2.9808    29.6666
         INT.     0.6333D+08                  5098.4302    36.1371    52.8069
         TRA.     0.1960D+28                  1480.4688     4.9680    41.1199
         TOT.                       -7.330    6578.8991    41.1051    93.9268

 200.00  VIB.     0.1048D+02                  1629.9818    19.7487    12.8187
         ROT.     0.3735D+06                   596.1620     2.9808    28.4779
         INT.     0.3914D+07                  2226.1438    22.7295    41.2966
         TRA.     0.1077D+28                   993.6033     4.9680    39.1388
         TOT.                      -10.689    3219.7470    27.6976    80.4353

 210.00  VIB.     0.1289D+02                  1833.8890    21.0364    13.8133
         ROT.     0.4018D+06                   625.9700     2.9808    28.6233
         INT.     0.5180D+07                  2459.8590    24.0172    42.4366
         TRA.     0.1159D+28                  1043.2834     4.9680    39.3812
         TOT.                      -10.405    3503.1424    28.9852    81.8178

 220.00  VIB.     0.1592D+02                  2050.7837    22.3463    14.8220
         ROT.     0.4309D+06                   655.7781     2.9808    28.7620
         INT.     0.6861D+07                  2706.5619    25.3271    43.5840
         TRA.     0.1243D+28                  1092.9636     4.9680    39.6123
         TOT.                      -10.109    3799.5255    30.2951    83.1963

 230.00  VIB.     0.1975D+02                  2280.8878    23.6781    15.8447
         ROT.     0.4606D+06                   685.5862     2.9808    28.8945
         INT.     0.9095D+07                  2966.4740    26.6589    44.7392
         TRA.     0.1329D+28                  1142.6437     4.9680    39.8331
         TOT.                       -9.799    4109.1178    31.6269    84.5723

 240.00  VIB.     0.2458D+02                  2524.4149    25.0306    16.8809
         ROT.     0.4909D+06                   715.3943     2.9808    29.0214
         INT.     0.1207D+08                  3239.8092    28.0114    45.9023
         TRA.     0.1416D+28                  1192.3239     4.9680    40.0446
         TOT.                       -9.476    4432.1331    32.9795    85.9468

 250.00  VIB.     0.3069D+02                  2781.5629    26.4019    17.9304
         ROT.     0.5220D+06                   745.2024     2.9808    29.1430
         INT.     0.1602D+08                  3526.7654    29.3827    47.0735
         TRA.     0.1506D+28                  1242.0041     4.9680    40.2474
         TOT.                       -9.140    4768.7694    34.3507    87.3209

 260.00  VIB.     0.3846D+02                  3052.5075    27.7895    18.9929
         ROT.     0.5536D+06                   775.0105     2.9808    29.2599
         INT.     0.2129D+08                  3827.5180    30.7703    48.2529
         TRA.     0.1597D+28                  1291.6842     4.9680    40.4422
         TOT.                       -8.789    5119.2022    35.7383    88.6951

 270.00  VIB.     0.4835D+02                  3337.3968    29.1904    20.0679
         ROT.     0.5858D+06                   804.8186     2.9808    29.3724
         INT.     0.2832D+08                  4142.2154    32.1712    49.4404
         TRA.     0.1690D+28                  1341.3644     4.9680    40.6297
         TOT.                       -8.425    5483.5798    37.1392    90.0701

 280.00  VIB.     0.6097D+02                  3636.3485    30.6014    21.1550
         ROT.     0.6187D+06                   834.6267     2.9808    29.4808
         INT.     0.3772D+08                  4470.9753    33.5822    50.6359
         TRA.     0.1785D+28                  1391.0445     4.9680    40.8104
         TOT.                       -8.046    5862.0198    38.5502    91.4462

 290.00  VIB.     0.7711D+02                  3949.4477    32.0193    22.2536
         ROT.     0.6521D+06                   864.4348     2.9808    29.5854
         INT.     0.5028D+08                  4813.8826    35.0001    51.8390
         TRA.     0.1881D+28                  1440.7247     4.9680    40.9847
         TOT.                       -7.654    6254.6073    39.9681    92.8237

 300.00  VIB.     0.9780D+02                  4276.7458    33.4406    23.3630
         ROT.     0.6861D+06                   894.2429     2.9808    29.6865
         INT.     0.6710D+08                  5170.9887    36.4214    53.0495
         TRA.     0.1979D+28                  1490.4049     4.9680    41.1532
         TOT.                       -7.247    6661.3936    41.3895    94.2027

 310.00  VIB.     0.1244D+03                  4618.2607    34.8621    24.4827
         ROT.     0.7207D+06                   924.0510     2.9808    29.7842
         INT.     0.8965D+08                  5542.3118    37.8429    54.2670
         TRA.     0.2079D+28                  1540.0850     4.9680    41.3161
         TOT.                       -6.826    7082.3968    42.8109    95.5830

 320.00  VIB.     0.1586D+03                  4973.9781    36.2806    25.6120
         ROT.     0.7559D+06                   953.8591     2.9808    29.8789
         INT.     0.1199D+09                  5927.8372    39.2614    55.4908
         TRA.     0.2181D+28                  1589.7652     4.9680    41.4738
         TOT.                       -6.391    7517.6024    44.2294    96.9646

 330.00  VIB.     0.2028D+03                  5343.8524    37.6930    26.7500
         ROT.     0.7916D+06                   983.6672     2.9808    29.9706
         INT.     0.1605D+09                  6327.5196    40.6738    56.7206
         TRA.     0.2284D+28                  1639.4454     4.9680    41.6267
         TOT.                       -5.942    7966.9650    45.6419    98.3473

 340.00  VIB.     0.2599D+03                  5727.8094    39.0967    27.8961
         ROT.     0.8278D+06                  1013.4753     2.9808    30.0596
         INT.     0.2152D+09                  6741.2847    42.0775    57.9557
         TRA.     0.2388D+28                  1689.1255     4.9680    41.7750
         TOT.                       -5.478    8430.4103    47.0455    99.7307

 350.00  VIB.     0.3339D+03                  6125.7482    40.4890    29.0496
         ROT.     0.8646D+06                  1043.2834     2.9808    30.1460
         INT.     0.2887D+09                  7169.0316    43.4698    59.1956
         TRA.     0.2494D+28                  1738.8057     4.9680    41.9190
         TOT.                       -5.001    8907.8373    48.4378   101.1145

 360.00  VIB.     0.4299D+03                  6537.5438    41.8677    30.2095
         ROT.     0.9019D+06                  1073.0915     2.9808    30.2300
         INT.     0.3878D+09                  7610.6353    44.8485    60.4395
         TRA.     0.2602D+28                  1788.4859     4.9680    42.0589
         TOT.                       -4.509    9399.1211    49.8165   102.4984

 370.00  VIB.     0.5548D+03                  6963.0498    43.2308    31.3753
         ROT.     0.9398D+06                  1102.8996     2.9808    30.3116
         INT.     0.5213D+09                  8065.9494    46.2116    61.6869
         TRA.     0.2711D+28                  1838.1660     4.9680    42.1951
         TOT.                       -4.004    9904.1154    51.1796   103.8820

 380.00  VIB.     0.7173D+03                  7402.1011    44.5765    32.5461
         ROT.     0.9781D+06                  1132.7077     2.9808    30.3911
         INT.     0.7016D+09                  8534.8088    47.5573    62.9372
         TRA.     0.2822D+28                  1887.8462     4.9680    42.3275
         TOT.                       -3.486   10422.6550    52.5253   105.2648

 390.00  VIB.     0.9293D+03                  7854.5162    45.9033    33.7212
         ROT.     0.1017D+07                  1162.5158     2.9808    30.4686
         INT.     0.9451D+09                  9017.0321    48.8841    64.1897
         TRA.     0.2934D+28                  1937.5263     4.9680    42.4566
         TOT.                       -2.954   10954.5584    53.8521   106.6463

 400.00  VIB.     0.1206D+04                  8320.1001    47.2100    34.8999
         ROT.     0.1056D+07                  1192.3239     2.9808    30.5440
         INT.     0.1274D+10                  9512.4240    50.1908    65.4439
         TRA.     0.3048D+28                  1987.2065     4.9680    42.5824
         TOT.                       -2.409   11499.6305    55.1588   108.0263

   *: NOTE: HEATS OF FORMATION ARE RELATIVE TO THE
            ELEMENTS IN THEIR STANDARD STATE AT 298K
              (=  Standard Enthalpy of Formation).

            Hvib:  Zero-point energy is not included.
                   frequencies of less than zero cm-1 are not included.
            Hrot = (3/2)RT
            Htra = (3/2)RT + pV = (5/2)RT

            Heat capacity is Cp, not Cv

          For more information, see: HTTP://OpenMOPAC.net/Manual/thermochemistry.html


           FORCE CONSTANT IN CARTESIAN COORDINATES (Millidynes/A)

    ATOM   CHEMICAL       X               Y               Z
   NUMBER   SYMBOL  FORCE CONSTANT  FORCE CONSTANT  FORCE CONSTANT

      1       O        3.762610        5.483665        2.195594
      2       O        2.482989        6.061178        2.100997
      3       O        3.284384        3.514341        3.217542
      4       O        2.765198        1.528799        5.223357
      5       C        8.389261        8.267141        7.800023
      6       C        7.880923        8.458455        8.142645
      7       C        7.744794        8.353659        8.182168
      8       C        8.428817        8.285990        7.681244
      9       C        8.247613        8.208438        7.879595
     10       C        7.997298        8.231927        8.411996
     11       C        8.235417        8.296028        8.175965
     12       H        3.508700        1.893970        0.733182
     13       H        1.513593        0.846148        3.469947
     14       H        0.881782        4.098671        1.345789
     15       H        0.815298        0.699110        4.840593
     16       H        1.306943        4.217882        0.918328
     17       H        3.847318        0.702878        1.806949
     18       H        0.798869        4.742939        0.851759
     19       H        2.074468        1.790541        2.499495
     20       H        4.578850        1.074740        0.770569
     21       H        1.104136        0.708776        4.592193
     22       H        0.764505        4.595672        0.959803
     23       H        0.702779        4.838384        0.827962

 **********************
 *                    *
 * JOB ENDED NORMALLY *
 *                    *
 **********************



 TOTAL JOB TIME:             2.45 SECONDS

 == MOPAC DONE ==
