 *******************************************************************************
 ** Site#: 14399        For non-commercial use only    Version 18.184L 64BITS **
 *******************************************************************************
 ** Cite this program as: MOPAC2016, Version: 18.184L, James J. P. Stewart,   **
 ** Stewart Computational Chemistry, web: HTTP://OpenMOPAC.net. Days left:  18**
 *******************************************************************************
 **                                                                           **
 **                                MOPAC2016                                  **
 **                                                                           **
 *******************************************************************************

                              PM3 CALCULATION RESULTS

 *******************************************************************************
 *  CALCULATION DONE:                                Sat Jun 15 10:09:25 2019  *
 *  PM3        - The PM3 Hamiltonian to be used
 *  PRECISE    - CRITERIA TO BE INCREASED BY 100 TIMES
 *  NOSYM      - POINT-GROUP SYMMETRY SET TO C1
 *  THREADS=1  - MULTI-THREADING NOT USED
 *  T=         - A TIME OF 172800.0 SECONDS REQUESTED
 *  DUMP=N     - RESTART FILE WRITTEN EVERY  7200.000 SECONDS
 *******************************************************************************
pm3  precise nosym THREADS=1
 InChI=1S/C10H12/c1-2-6-9(5-1)10-7-3-4-8-10/h1-6,9-10H,7-8H2

   ATOM   CHEMICAL          X               Y               Z
  NUMBER   SYMBOL      (ANGSTROMS)     (ANGSTROMS)     (ANGSTROMS)
 
     1       C         -0.47570000  *   0.20280000  *  -0.46750000  *
     2       C          0.83070000  *  -0.32040000  *   0.17140000  *
     3       C         -1.52770000  *  -0.90760000  *  -0.66150000  *
     4       C         -1.16960000  *   1.27640000  *   0.39470000  *
     5       C          1.86990000  *   0.75660000  *   0.27390000  *
     6       C          1.53250000  *  -1.30090000  *  -0.72100000  *
     7       C         -2.78510000  *  -0.32370000  *  -0.12890000  *
     8       C         -2.59220000  *   0.85250000  *   0.43980000  *
     9       C          2.73060000  *  -0.85250000  *  -1.05560000  *
    10       C          2.94230000  *   0.43870000  *  -0.43120000  *
    11       H         -0.24550000  *   0.64700000  *  -1.46410000  *
    12       H          0.64200000  *  -0.77220000  *   1.16980000  *
    13       H         -1.28640000  *  -1.82850000  *  -0.08740000  *
    14       H         -1.64710000  *  -1.15690000  *  -1.73770000  *
    15       H         -0.77120000  *   1.31330000  *   1.43180000  *
    16       H         -1.08360000  *   2.27920000  *  -0.07620000  *
    17       H         -3.75070000  *  -0.81700000  *  -0.16980000  *
    18       H         -3.38320000  *   1.42430000  *   0.91400000  *
    19       H          1.77220000  *   1.66810000  *   0.84920000  *
    20       H          1.12950000  *  -2.25130000  *  -1.04610000  *
    21       H          3.43550000  *  -1.37490000  *  -1.68840000  *
    22       H          3.83270000  *   1.04710000  *  -0.51720000  *
 


          CARTESIAN COORDINATES 

    NO.       ATOM           X           Y           Z

     1         C         -0.4757      0.2028     -0.4675
     2         C          0.8307     -0.3204      0.1714
     3         C         -1.5277     -0.9076     -0.6615
     4         C         -1.1696      1.2764      0.3947
     5         C          1.8699      0.7566      0.2739
     6         C          1.5325     -1.3009     -0.7210
     7         C         -2.7851     -0.3237     -0.1289
     8         C         -2.5922      0.8525      0.4398
     9         C          2.7306     -0.8525     -1.0556
    10         C          2.9423      0.4387     -0.4312
    11         H         -0.2455      0.6470     -1.4641
    12         H          0.6420     -0.7722      1.1698
    13         H         -1.2864     -1.8285     -0.0874
    14         H         -1.6471     -1.1569     -1.7377
    15         H         -0.7712      1.3133      1.4318
    16         H         -1.0836      2.2792     -0.0762
    17         H         -3.7507     -0.8170     -0.1698
    18         H         -3.3832      1.4243      0.9140
    19         H          1.7722      1.6681      0.8492
    20         H          1.1295     -2.2513     -1.0461
    21         H          3.4355     -1.3749     -1.6884
    22         H          3.8327      1.0471     -0.5172

  H: (PM3): J. J. P. STEWART, J. COMP. CHEM. 10, 209 (1989).
  C: (PM3): J. J. P. STEWART, J. COMP. CHEM. 10, 209 (1989).

           Empirical Formula: C10 H12  =    22 atoms



      MOLECULAR POINT GROUP   :   C1  


      RHF CALCULATION, NO. OF DOUBLY OCCUPIED LEVELS = 26


          Geometry optimization using EF

          DIAGONAL MATRIX USED AS START HESSIAN

 CYCLE:     1 TIME:   0.008 TIME LEFT:  2.00D  GRAD.:   108.234 HEAT:  48.00390
 CYCLE:     2 TIME:   0.012 TIME LEFT:  2.00D  GRAD.:    75.654 HEAT:  46.56023
 CYCLE:     3 TIME:   0.008 TIME LEFT:  2.00D  GRAD.:    43.313 HEAT:  45.24531
 CYCLE:     4 TIME:   0.008 TIME LEFT:  2.00D  GRAD.:    54.974 HEAT:  45.00137
 CYCLE:     5 TIME:   0.004 TIME LEFT:  2.00D  GRAD.:    42.071 HEAT:  44.56683
 CYCLE:     6 TIME:   0.008 TIME LEFT:  2.00D  GRAD.:    28.913 HEAT:  44.20983
 CYCLE:     7 TIME:   0.012 TIME LEFT:  2.00D  GRAD.:    21.110 HEAT:  44.04060
 CYCLE:     8 TIME:   0.004 TIME LEFT:  2.00D  GRAD.:    19.354 HEAT:  43.87876
 CYCLE:     9 TIME:   0.004 TIME LEFT:  2.00D  GRAD.:    27.285 HEAT:  43.82855
 CYCLE:    10 TIME:   0.004 TIME LEFT:  2.00D  GRAD.:    26.780 HEAT:  43.77841
 CYCLE:    11 TIME:   0.012 TIME LEFT:  2.00D  GRAD.:    18.542 HEAT:  43.67534
 CYCLE:    12 TIME:   0.004 TIME LEFT:  2.00D  GRAD.:    19.922 HEAT:  43.66822
 CYCLE:    13 TIME:   0.004 TIME LEFT:  2.00D  GRAD.:     8.573 HEAT:  43.58866
 CYCLE:    14 TIME:   0.008 TIME LEFT:  2.00D  GRAD.:     8.625 HEAT:  43.57994
 CYCLE:    15 TIME:   0.008 TIME LEFT:  2.00D  GRAD.:     7.544 HEAT:  43.56473
 CYCLE:    16 TIME:   0.004 TIME LEFT:  2.00D  GRAD.:    10.023 HEAT:  43.56459
 CYCLE:    17 TIME:   0.004 TIME LEFT:  2.00D  GRAD.:     8.323 HEAT:  43.54399
 CYCLE:    18 TIME:   0.008 TIME LEFT:  2.00D  GRAD.:     4.995 HEAT:  43.52928
 CYCLE:    19 TIME:   0.008 TIME LEFT:  2.00D  GRAD.:     2.983 HEAT:  43.51788
 CYCLE:    20 TIME:   0.004 TIME LEFT:  2.00D  GRAD.:     6.180 HEAT:  43.51201
 CYCLE:    21 TIME:   0.004 TIME LEFT:  2.00D  GRAD.:     6.785 HEAT:  43.50359
 CYCLE:    22 TIME:   0.004 TIME LEFT:  2.00D  GRAD.:     4.548 HEAT:  43.48892
 CYCLE:    23 TIME:   0.008 TIME LEFT:  2.00D  GRAD.:     3.924 HEAT:  43.47882
 CYCLE:    24 TIME:   0.004 TIME LEFT:  2.00D  GRAD.:     4.880 HEAT:  43.47511
 CYCLE:    25 TIME:   0.004 TIME LEFT:  2.00D  GRAD.:     3.370 HEAT:  43.46788
 CYCLE:    26 TIME:   0.004 TIME LEFT:  2.00D  GRAD.:     4.088 HEAT:  43.46487
 CYCLE:    27 TIME:   0.008 TIME LEFT:  2.00D  GRAD.:     2.730 HEAT:  43.45941
 CYCLE:    28 TIME:   0.004 TIME LEFT:  2.00D  GRAD.:     2.448 HEAT:  43.45582
 CYCLE:    29 TIME:   0.004 TIME LEFT:  2.00D  GRAD.:     1.908 HEAT:  43.45165
 CYCLE:    30 TIME:   0.004 TIME LEFT:  2.00D  GRAD.:     1.946 HEAT:  43.44518
 CYCLE:    31 TIME:   0.004 TIME LEFT:  2.00D  GRAD.:     2.566 HEAT:  43.43746
 CYCLE:    32 TIME:   0.008 TIME LEFT:  2.00D  GRAD.:     2.662 HEAT:  43.42973
 CYCLE:    33 TIME:   0.004 TIME LEFT:  2.00D  GRAD.:     1.966 HEAT:  43.42250
 CYCLE:    34 TIME:   0.004 TIME LEFT:  2.00D  GRAD.:     2.177 HEAT:  43.41489
 CYCLE:    35 TIME:   0.008 TIME LEFT:  2.00D  GRAD.:     2.746 HEAT:  43.41008
 CYCLE:    36 TIME:   0.004 TIME LEFT:  2.00D  GRAD.:     1.554 HEAT:  43.40532
 CYCLE:    37 TIME:   0.004 TIME LEFT:  2.00D  GRAD.:     1.164 HEAT:  43.40259
 CYCLE:    38 TIME:   0.004 TIME LEFT:  2.00D  GRAD.:     1.122 HEAT:  43.40078
 CYCLE:    39 TIME:   0.008 TIME LEFT:  2.00D  GRAD.:     1.106 HEAT:  43.39808
 CYCLE:    40 TIME:   0.004 TIME LEFT:  2.00D  GRAD.:     1.084 HEAT:  43.39463
 CYCLE:    41 TIME:   0.004 TIME LEFT:  2.00D  GRAD.:     0.895 HEAT:  43.39273
 CYCLE:    42 TIME:   0.008 TIME LEFT:  2.00D  GRAD.:     0.935 HEAT:  43.39053
 CYCLE:    43 TIME:   0.004 TIME LEFT:  2.00D  GRAD.:     1.250 HEAT:  43.38739
 CYCLE:    44 TIME:   0.004 TIME LEFT:  2.00D  GRAD.:     1.247 HEAT:  43.38392
 CYCLE:    45 TIME:   0.004 TIME LEFT:  2.00D  GRAD.:     1.156 HEAT:  43.38097
 CYCLE:    46 TIME:   0.008 TIME LEFT:  2.00D  GRAD.:     1.157 HEAT:  43.37796
 CYCLE:    47 TIME:   0.004 TIME LEFT:  2.00D  GRAD.:     1.356 HEAT:  43.37432
 CYCLE:    48 TIME:   0.004 TIME LEFT:  2.00D  GRAD.:     1.544 HEAT:  43.36984
 CYCLE:    49 TIME:   0.008 TIME LEFT:  2.00D  GRAD.:     1.298 HEAT:  43.36582
 CYCLE:    50 TIME:   0.004 TIME LEFT:  2.00D  GRAD.:     1.021 HEAT:  43.36257
 CYCLE:    51 TIME:   0.004 TIME LEFT:  2.00D  GRAD.:     0.983 HEAT:  43.36027
 CYCLE:    52 TIME:   0.004 TIME LEFT:  2.00D  GRAD.:     0.810 HEAT:  43.35849
 CYCLE:    53 TIME:   0.008 TIME LEFT:  2.00D  GRAD.:     0.647 HEAT:  43.35727
 CYCLE:    54 TIME:   0.004 TIME LEFT:  2.00D  GRAD.:     0.426 HEAT:  43.35661
 CYCLE:    55 TIME:   0.004 TIME LEFT:  2.00D  GRAD.:     0.259 HEAT:  43.35633
 CYCLE:    56 TIME:   0.004 TIME LEFT:  2.00D  GRAD.:     0.154 HEAT:  43.35623
 CYCLE:    57 TIME:   0.008 TIME LEFT:  2.00D  GRAD.:     0.122 HEAT:  43.35620
 CYCLE:    58 TIME:   0.004 TIME LEFT:  2.00D  GRAD.:     0.113 HEAT:  43.35616
 CYCLE:    59 TIME:   0.004 TIME LEFT:  2.00D  GRAD.:     0.100 HEAT:  43.35614
 CYCLE:    60 TIME:   0.004 TIME LEFT:  2.00D  GRAD.:     0.069 HEAT:  43.35612
 CYCLE:    61 TIME:   0.004 TIME LEFT:  2.00D  GRAD.:     0.070 HEAT:  43.35612
 CYCLE:    62 TIME:   0.008 TIME LEFT:  2.00D  GRAD.:     0.044 HEAT:  43.35611

     GRADIENT =  0.04422  IS LESS THAN CUTOFF =  0.05000



 -------------------------------------------------------------------------------
 pm3  precise nosym THREADS=1
 InChI=1S/C10H12/c1-2-6-9(5-1)10-7-3-4-8-10/h1-6,9-10H,7-8H2



     GEOMETRY OPTIMISED USING EIGENVECTOR FOLLOWING (EF).     
     SCF FIELD WAS ACHIEVED                                   


                              PM3 CALCULATION
                                                       MOPAC2016 (Version: 18.184L)
                                                       Sat Jun 15 10:09:26 2019
                                                       No. of days remaining =  18




          FINAL HEAT OF FORMATION =         43.35611 KCAL/MOL =     181.40195 KJ/MOL


          TOTAL ENERGY            =      -1368.51620 EV
          ELECTRONIC ENERGY       =      -7477.16264 EV  POINT GROUP:     C1  
          CORE-CORE REPULSION     =       6108.64644 EV
          COSMO AREA              =        178.47 SQUARE ANGSTROMS
          COSMO VOLUME            =        183.79 CUBIC ANGSTROMS

          GRADIENT NORM           =          0.04422 = 0.00943 PER ATOM
          IONIZATION POTENTIAL    =          9.267581 EV
          HOMO LUMO ENERGIES (EV) =         -9.268  0.284
          NO. OF FILLED LEVELS    =         26
          MOLECULAR WEIGHT        =        132.2048

          MOLECULAR DIMENSIONS (Angstroms)

            Atom       Atom       Distance
            H    22    H    17     7.86930
            H    20    H    16     5.00030
            H    12    H    14     2.98007


          SCF CALCULATIONS        =         71
 
          WALL-CLOCK TIME         =          0.348 SECONDS
          COMPUTATION TIME        =          0.323 SECONDS




   ATOM   CHEMICAL          X               Y               Z
  NUMBER   SYMBOL      (ANGSTROMS)     (ANGSTROMS)     (ANGSTROMS)
 
     1       C         -0.48766140  *   0.23116374  *  -0.52562915  *
     2       C          0.79857491  *  -0.28750432  *   0.11096697  *
     3       C         -1.54064300  *  -0.88568822  *  -0.70915475  *
     4       C         -1.18009080  *   1.30420245  *   0.34546328  *
     5       C          1.85246772  *   0.78571817  *   0.26776756  *
     6       C          1.51047485  *  -1.30762384  *  -0.74910029  *
     7       C         -2.77877375  *  -0.37077166  *  -0.05032488  *
     8       C         -2.58248824  *   0.82093004  *   0.52378764  *
     9       C          2.76916567  *  -0.89080025  *  -1.00480409  *
    10       C          2.98225106  *   0.41330129  *  -0.37121427  *
    11       H         -0.23162346  *   0.66723914  *  -1.51864856  *
    12       H          0.58231677  *  -0.73719459  *   1.11011662  *
    13       H         -1.22577155  *  -1.84150595  *  -0.24786086  *
    14       H         -1.72154283  *  -1.10596823  *  -1.77706156  *
    15       H         -0.68689669  *   1.43174587  *   1.32831183  *
    16       H         -1.16134355  *   2.29794185  *  -0.13806142  *
    17       H         -3.70600890  *  -0.94270832  *  -0.06418521  *
    18       H         -3.31825766  *   1.41051011  *   1.06977141  *
    19       H          1.67169852  *   1.70127138  *   0.82755313  *
    20       H          1.02980824  *  -2.22596349  *  -1.08057255  *
    21       H          3.53390700  *  -1.40687148  *  -1.58182669  *
    22       H          3.92079922  *   0.96067780  *  -0.43130548  *

                             CARTESIAN COORDINATES

   1    C       -0.487661397     0.231163743    -0.525629152
   2    C        0.798574913    -0.287504322     0.110966966
   3    C       -1.540642997    -0.885688219    -0.709154749
   4    C       -1.180090805     1.304202450     0.345463276
   5    C        1.852467720     0.785718168     0.267767563
   6    C        1.510474849    -1.307623840    -0.749100291
   7    C       -2.778773751    -0.370771659    -0.050324881
   8    C       -2.582488235     0.820930045     0.523787643
   9    C        2.769165665    -0.890800249    -1.004804093
  10    C        2.982251063     0.413301292    -0.371214271
  11    H       -0.231623463     0.667239138    -1.518648562
  12    H        0.582316766    -0.737194589     1.110116617
  13    H       -1.225771545    -1.841505945    -0.247860858
  14    H       -1.721542834    -1.105968229    -1.777061557
  15    H       -0.686896687     1.431745872     1.328311828
  16    H       -1.161343554     2.297941854    -0.138061421
  17    H       -3.706008897    -0.942708321    -0.064185209
  18    H       -3.318257661     1.410510110     1.069771408
  19    H        1.671698519     1.701271380     0.827553133
  20    H        1.029808244    -2.225963492    -1.080572554
  21    H        3.533906999    -1.406871476    -1.581826688
  22    H        3.920799220     0.960677802    -0.431305483


           Empirical Formula: C10 H12  =    22 atoms



      MOLECULAR POINT GROUP   :   C1  


                  EIGENVALUES  
 -41.87100 -37.46389 -29.32545 -28.67784 -26.84094 -24.54909 -20.30336 -19.20119
 -18.92274 -18.13092 -17.76540 -17.56441 -15.45631 -14.45336 -14.01024 -13.84834
 -13.54545 -13.50374 -13.24370 -12.62215 -12.53716 -12.12978 -12.01695 -11.02762
  -9.60970  -9.26758   0.28422   1.07077   1.99361   3.20837   3.22696   3.42339
   3.53495   3.62399   3.67393   3.80040   3.90451   3.95771   4.11735   4.21306
   4.30296   4.35885   4.42796   4.48915   4.63987   5.00954   5.20156   5.53288
   5.76415   5.77113   5.94191   6.12908


              NET ATOMIC CHARGES AND DIPOLE CONTRIBUTIONS

  ATOM NO.   TYPE          CHARGE      No. of ELECS.   s-Pop       p-Pop       
    1          C          -0.053427        4.0534     1.18064     2.87279
    2          C          -0.032032        4.0320     1.16778     2.86425
    3          C          -0.070172        4.0702     1.15785     2.91232
    4          C          -0.070179        4.0702     1.15784     2.91234
    5          C          -0.159764        4.1598     1.21002     2.94974
    6          C          -0.159762        4.1598     1.21002     2.94974
    7          C          -0.155075        4.1551     1.20189     2.95318
    8          C          -0.155070        4.1551     1.20189     2.95318
    9          C          -0.118431        4.1184     1.19239     2.92604
   10          C          -0.118447        4.1184     1.19239     2.92606
   11          H           0.072380        0.9276     0.92762
   12          H           0.094670        0.9053     0.90533
   13          H           0.061135        0.9389     0.93886
   14          H           0.058183        0.9418     0.94182
   15          H           0.061178        0.9388     0.93882
   16          H           0.058206        0.9418     0.94179
   17          H           0.111509        0.8885     0.88849
   18          H           0.111512        0.8885     0.88849
   19          H           0.117896        0.8821     0.88210
   20          H           0.117875        0.8821     0.88213
   21          H           0.113907        0.8861     0.88609
   22          H           0.113907        0.8861     0.88609
 DIPOLE           X         Y         Z       TOTAL
 POINT-CHG.    -0.277     0.000     0.093     0.292
 HYBRID         0.034    -0.036     0.063     0.080
 SUM           -0.243    -0.036     0.156     0.291


          ATOMIC ORBITAL ELECTRON POPULATIONS

     Atom    s        px        py        pz   
    1  C   1.18064   0.92586   0.95512   0.99181
    2  C   1.16778   0.94435   0.93755   0.98235
    3  C   1.15785   0.93766   0.97505   0.99960
    4  C   1.15784   0.94194   0.97635   0.99405
    5  C   1.21002   0.96255   0.98320   1.00399
    6  C   1.21002   0.96754   0.98870   0.99349
    7  C   1.20189   0.98043   0.97343   0.99932
    8  C   1.20189   0.97328   0.97447   1.00543
    9  C   1.19239   0.96765   0.96125   0.99715
   10  C   1.19239   0.97685   0.96230   0.98691
   11  H   0.92762
   12  H   0.90533
   13  H   0.93886
   14  H   0.94182
   15  H   0.93882
   16  H   0.94179
   17  H   0.88849
   18  H   0.88849
   19  H   0.88210
   20  H   0.88213
   21  H   0.88609
   22  H   0.88609
 *******************************************************************************
 ** Site#: 14399        For non-commercial use only    Version 18.184L 64BITS **
 *******************************************************************************
 ** Cite this program as: MOPAC2016, Version: 18.184L, James J. P. Stewart,   **
 ** Stewart Computational Chemistry, web: HTTP://OpenMOPAC.net. Days left:  18**
 *******************************************************************************
 **                                                                           **
 **                                MOPAC2016                                  **
 **                                                                           **
 *******************************************************************************

                              PM3 CALCULATION RESULTS

 *******************************************************************************
 *  CALCULATION DONE:                                Sat Jun 15 10:09:26 2019  *
 *  PM3        - The PM3 Hamiltonian to be used
 *  OLDGEO     - PREVIOUS GEOMETRY TO BE USED
 *  PRECISE    - CRITERIA TO BE INCREASED BY 100 TIMES
 *  NOSYM      - POINT-GROUP SYMMETRY SET TO C1
 *  THREADS=1  - MULTI-THREADING NOT USED
 *  T=         - A TIME OF 172800.0 SECONDS REQUESTED
 *  DUMP=N     - RESTART FILE WRITTEN EVERY  7200.000 SECONDS
 *  THERMO     - THERMODYNAMIC QUANTITIES TO BE CALCULATED
 *******************************************************************************
oldgeo thermo nosym precise THREADS=1  pm3
 InChI=1S/C10H12/c1-2-6-9(5-1)10-7-3-4-8-10/h1-6,9-10H,7-8H2

   ATOM   CHEMICAL          X               Y               Z
  NUMBER   SYMBOL      (ANGSTROMS)     (ANGSTROMS)     (ANGSTROMS)
 
     1       C         -0.48766140  *   0.23116374  *  -0.52562915  *
     2       C          0.79857491  *  -0.28750432  *   0.11096697  *
     3       C         -1.54064300  *  -0.88568822  *  -0.70915475  *
     4       C         -1.18009080  *   1.30420245  *   0.34546328  *
     5       C          1.85246772  *   0.78571817  *   0.26776756  *
     6       C          1.51047485  *  -1.30762384  *  -0.74910029  *
     7       C         -2.77877375  *  -0.37077166  *  -0.05032488  *
     8       C         -2.58248824  *   0.82093004  *   0.52378764  *
     9       C          2.76916567  *  -0.89080025  *  -1.00480409  *
    10       C          2.98225106  *   0.41330129  *  -0.37121427  *
    11       H         -0.23162346  *   0.66723914  *  -1.51864856  *
    12       H          0.58231677  *  -0.73719459  *   1.11011662  *
    13       H         -1.22577155  *  -1.84150595  *  -0.24786086  *
    14       H         -1.72154283  *  -1.10596823  *  -1.77706156  *
    15       H         -0.68689669  *   1.43174587  *   1.32831183  *
    16       H         -1.16134355  *   2.29794185  *  -0.13806142  *
    17       H         -3.70600890  *  -0.94270832  *  -0.06418521  *
    18       H         -3.31825766  *   1.41051011  *   1.06977141  *
    19       H          1.67169852  *   1.70127138  *   0.82755313  *
    20       H          1.02980824  *  -2.22596349  *  -1.08057255  *
    21       H          3.53390700  *  -1.40687148  *  -1.58182669  *
    22       H          3.92079922  *   0.96067780  *  -0.43130548  *
 


          CARTESIAN COORDINATES 

    NO.       ATOM           X           Y           Z

     1         C         -0.4877      0.2312     -0.5256
     2         C          0.7986     -0.2875      0.1110
     3         C         -1.5406     -0.8857     -0.7092
     4         C         -1.1801      1.3042      0.3455
     5         C          1.8525      0.7857      0.2678
     6         C          1.5105     -1.3076     -0.7491
     7         C         -2.7788     -0.3708     -0.0503
     8         C         -2.5825      0.8209      0.5238
     9         C          2.7692     -0.8908     -1.0048
    10         C          2.9823      0.4133     -0.3712
    11         H         -0.2316      0.6672     -1.5186
    12         H          0.5823     -0.7372      1.1101
    13         H         -1.2258     -1.8415     -0.2479
    14         H         -1.7215     -1.1060     -1.7771
    15         H         -0.6869      1.4317      1.3283
    16         H         -1.1613      2.2979     -0.1381
    17         H         -3.7060     -0.9427     -0.0642
    18         H         -3.3183      1.4105      1.0698
    19         H          1.6717      1.7013      0.8276
    20         H          1.0298     -2.2260     -1.0806
    21         H          3.5339     -1.4069     -1.5818
    22         H          3.9208      0.9607     -0.4313

  H: (PM3): J. J. P. STEWART, J. COMP. CHEM. 10, 209 (1989).
  C: (PM3): J. J. P. STEWART, J. COMP. CHEM. 10, 209 (1989).

           Empirical Formula: C10 H12  =    22 atoms



      MOLECULAR POINT GROUP   :   C1  


      RHF CALCULATION, NO. OF DOUBLY OCCUPIED LEVELS = 26



          HEAT OF FORMATION =      43.356107 KCALS/MOLE


          CARTESIAN COORDINATE DERIVATIVES

   NUMBER  ATOM         X            Y            Z

     1       C     -0.005432     0.004134     0.000577
     2       C      0.000422     0.000544     0.006926
     3       C     -0.004939     0.001743    -0.005132
     4       C     -0.000286    -0.002209     0.000795
     5       C      0.000222     0.005703    -0.000699
     6       C      0.000650    -0.006444     0.002315
     7       C     -0.009128    -0.008068    -0.003866
     8       C      0.001437    -0.005127    -0.004206
     9       C      0.006051    -0.013093    -0.005882
    10       C      0.000402     0.007720     0.003860
    11       H      0.011296     0.003729     0.009169
    12       H     -0.004364    -0.000356    -0.003096
    13       H      0.002969    -0.007547    -0.002406
    14       H      0.002183     0.017800     0.002448
    15       H      0.001302    -0.001706     0.003691
    16       H     -0.006691     0.004280     0.003798
    17       H     -0.007112    -0.007670    -0.005122
    18       H      0.010592     0.004637    -0.001466
    19       H      0.002246     0.012653    -0.006359
    20       H      0.000988    -0.004624     0.005862
    21       H     -0.000470    -0.005422     0.003152
    22       H     -0.002339    -0.000674    -0.004359
 


          GRADIENT NORM =   0.04593


          TIME FOR SCF CALCULATION =    0.00

          TIME FOR DERIVATIVES     =    0.00

          MOLECULAR WEIGHT =  132.20



          ROTATIONAL CONSTANTS IN CM(-1)

          A =    0.12081297   B =    0.02880082   C =    0.02428618



           PRINCIPAL MOMENTS OF INERTIA IN UNITS OF 10**(-40)*GRAM-CM**2

          A =      231.7034   B =      971.9437   C =     1152.6215


          ORIENTATION OF MOLECULE IN FORCE CALCULATION

    NO.       ATOM         X         Y         Z

     1          C      -0.7186   -0.0049    0.0111
     2          C       0.8074   -0.0049    0.0111
     3          C      -1.3031    1.4262    0.0111
     4          C      -1.3036   -0.6835   -1.2487
     5          C       1.3963   -1.3974    0.0444
     6          C       1.3953    0.6178    1.2576
     7          C      -2.2469    1.4654   -1.1464
     8          C      -2.2470    0.3174   -1.8321
     9          C       2.2079   -0.2689    1.8715
    10          C       2.2086   -1.5244    1.1156
    11          H      -1.0653   -0.5479    0.9204
    12          H       1.1947    0.5352   -0.8864
    13          H      -0.5204    2.2010   -0.1014
    14          H      -1.8262    1.6545    0.9577
    15          H      -0.5212   -0.9524   -1.9843
    16          H      -1.8273   -1.6246   -1.0004
    17          H      -2.8398    2.3536   -1.3624
    18          H      -2.8398    0.0865   -2.7167
    19          H       1.1663   -2.1447   -0.7126
    20          H       1.1641    1.6362    1.5637
    21          H       2.7872   -0.1183    2.7802
    22          H       2.7886   -2.3975    1.4078


    FIRST DERIVATIVES WILL BE USED IN THE CALCULATION OF SECOND DERIVATIVES

          ESTIMATED TIME TO COMPLETE CALCULATION =        2.06 SECONDS

    FOR POINT-GROUP C1   THERE ARE   1 UNIQUE SYMMETRY FUNCTIONS.

 STEP:   1 TIME =     0.02 SECS, INTEGRAL =      0.02 TIME LEFT: 172799.97
 STEP:   2 TIME =     0.02 SECS, INTEGRAL =      0.04 TIME LEFT: 172799.95
 STEP:   3 TIME =     0.02 SECS, INTEGRAL =      0.06 TIME LEFT: 172799.93
 STEP:   4 TIME =     0.02 SECS, INTEGRAL =      0.08 TIME LEFT: 172799.91
 STEP:   5 TIME =     0.02 SECS, INTEGRAL =      0.10 TIME LEFT: 172799.89
 STEP:   6 TIME =     0.02 SECS, INTEGRAL =      0.12 TIME LEFT: 172799.87
 STEP:   7 TIME =     0.02 SECS, INTEGRAL =      0.14 TIME LEFT: 172799.85
 STEP:   8 TIME =     0.02 SECS, INTEGRAL =      0.16 TIME LEFT: 172799.83
 STEP:   9 TIME =     0.02 SECS, INTEGRAL =      0.18 TIME LEFT: 172799.81
 STEP:  10 TIME =     0.02 SECS, INTEGRAL =      0.21 TIME LEFT: 172799.79
 STEP:  11 TIME =     0.02 SECS, INTEGRAL =      0.23 TIME LEFT: 172799.77
 STEP:  12 TIME =     0.02 SECS, INTEGRAL =      0.25 TIME LEFT: 172799.74
 STEP:  13 TIME =     0.02 SECS, INTEGRAL =      0.27 TIME LEFT: 172799.72
 STEP:  14 TIME =     0.02 SECS, INTEGRAL =      0.29 TIME LEFT: 172799.70
 STEP:  15 TIME =     0.02 SECS, INTEGRAL =      0.31 TIME LEFT: 172799.68
 STEP:  16 TIME =     0.02 SECS, INTEGRAL =      0.33 TIME LEFT: 172799.66
 STEP:  17 TIME =     0.02 SECS, INTEGRAL =      0.35 TIME LEFT: 172799.64
 STEP:  18 TIME =     0.02 SECS, INTEGRAL =      0.37 TIME LEFT: 172799.62
 STEP:  19 TIME =     0.02 SECS, INTEGRAL =      0.39 TIME LEFT: 172799.60
 STEP:  20 TIME =     0.02 SECS, INTEGRAL =      0.41 TIME LEFT: 172799.58
 STEP:  21 TIME =     0.02 SECS, INTEGRAL =      0.43 TIME LEFT: 172799.56
 STEP:  22 TIME =     0.02 SECS, INTEGRAL =      0.45 TIME LEFT: 172799.54
 STEP:  23 TIME =     0.02 SECS, INTEGRAL =      0.47 TIME LEFT: 172799.52
 STEP:  24 TIME =     0.02 SECS, INTEGRAL =      0.50 TIME LEFT: 172799.50
 STEP:  25 TIME =     0.02 SECS, INTEGRAL =      0.52 TIME LEFT: 172799.48
 STEP:  26 TIME =     0.02 SECS, INTEGRAL =      0.54 TIME LEFT: 172799.45
 STEP:  27 TIME =     0.02 SECS, INTEGRAL =      0.56 TIME LEFT: 172799.43
 STEP:  28 TIME =     0.02 SECS, INTEGRAL =      0.58 TIME LEFT: 172799.41
 STEP:  29 TIME =     0.02 SECS, INTEGRAL =      0.60 TIME LEFT: 172799.39
 STEP:  30 TIME =     0.02 SECS, INTEGRAL =      0.62 TIME LEFT: 172799.37
 STEP:  31 TIME =     0.02 SECS, INTEGRAL =      0.64 TIME LEFT: 172799.35
 STEP:  32 TIME =     0.02 SECS, INTEGRAL =      0.67 TIME LEFT: 172799.32
 STEP:  33 TIME =     0.02 SECS, INTEGRAL =      0.69 TIME LEFT: 172799.30
 STEP:  34 TIME =     0.02 SECS, INTEGRAL =      0.71 TIME LEFT: 172799.29
 STEP:  35 TIME =     0.02 SECS, INTEGRAL =      0.73 TIME LEFT: 172799.26
 STEP:  36 TIME =     0.02 SECS, INTEGRAL =      0.75 TIME LEFT: 172799.24
 STEP:  37 TIME =     0.02 SECS, INTEGRAL =      0.77 TIME LEFT: 172799.22
 STEP:  38 TIME =     0.02 SECS, INTEGRAL =      0.79 TIME LEFT: 172799.20
 STEP:  39 TIME =     0.02 SECS, INTEGRAL =      0.81 TIME LEFT: 172799.18
 STEP:  40 TIME =     0.02 SECS, INTEGRAL =      0.83 TIME LEFT: 172799.16
 STEP:  41 TIME =     0.02 SECS, INTEGRAL =      0.85 TIME LEFT: 172799.14
 STEP:  42 TIME =     0.02 SECS, INTEGRAL =      0.87 TIME LEFT: 172799.12
 STEP:  43 TIME =     0.02 SECS, INTEGRAL =      0.89 TIME LEFT: 172799.10
 STEP:  44 TIME =     0.02 SECS, INTEGRAL =      0.91 TIME LEFT: 172799.08
 STEP:  45 TIME =     0.02 SECS, INTEGRAL =      0.93 TIME LEFT: 172799.06
 STEP:  46 TIME =     0.02 SECS, INTEGRAL =      0.96 TIME LEFT: 172799.04
 STEP:  47 TIME =     0.02 SECS, INTEGRAL =      0.98 TIME LEFT: 172799.01
 STEP:  48 TIME =     0.02 SECS, INTEGRAL =      1.00 TIME LEFT: 172798.99
 STEP:  49 TIME =     0.02 SECS, INTEGRAL =      1.02 TIME LEFT: 172798.97
 STEP:  50 TIME =     0.02 SECS, INTEGRAL =      1.04 TIME LEFT: 172798.95
 STEP:  51 TIME =     0.02 SECS, INTEGRAL =      1.07 TIME LEFT: 172798.93
 STEP:  52 TIME =     0.02 SECS, INTEGRAL =      1.09 TIME LEFT: 172798.91
 STEP:  53 TIME =     0.02 SECS, INTEGRAL =      1.11 TIME LEFT: 172798.88
 STEP:  54 TIME =     0.02 SECS, INTEGRAL =      1.13 TIME LEFT: 172798.86
 STEP:  55 TIME =     0.02 SECS, INTEGRAL =      1.15 TIME LEFT: 172798.84
 STEP:  56 TIME =     0.02 SECS, INTEGRAL =      1.17 TIME LEFT: 172798.82
 STEP:  57 TIME =     0.02 SECS, INTEGRAL =      1.20 TIME LEFT: 172798.80
 STEP:  58 TIME =     0.02 SECS, INTEGRAL =      1.21 TIME LEFT: 172798.78
 STEP:  59 TIME =     0.02 SECS, INTEGRAL =      1.24 TIME LEFT: 172798.75
 STEP:  60 TIME =     0.02 SECS, INTEGRAL =      1.26 TIME LEFT: 172798.73
 STEP:  61 TIME =     0.02 SECS, INTEGRAL =      1.28 TIME LEFT: 172798.71
 STEP:  62 TIME =     0.02 SECS, INTEGRAL =      1.30 TIME LEFT: 172798.69
 STEP:  63 TIME =     0.02 SECS, INTEGRAL =      1.32 TIME LEFT: 172798.67
 STEP:  64 TIME =     0.02 SECS, INTEGRAL =      1.34 TIME LEFT: 172798.65
 STEP:  65 TIME =     0.02 SECS, INTEGRAL =      1.37 TIME LEFT: 172798.62
 STEP:  66 TIME =     0.02 SECS, INTEGRAL =      1.39 TIME LEFT: 172798.61

(To convert to Hartree/Bohr^2, multiply by (10^(-21) x N x a0^2)/(4.184 x 627.51) =  0.0642)


           FORCE MATRIX IN MILLIDYNES/ANGSTROM


                  C  1       C  2       C  3       C  4       C  5       C  6
 ------------------------------------------------------------------------------
     C    1  14.148062
     C    2   3.887346  14.835828
     C    3   3.456332   0.573276  14.610811
     C    4   3.457400   0.573025   0.724960  14.613048
     C    5   0.583263   4.086767   0.046426   0.056858  17.885990
     C    6   0.584169   4.086771   0.056361   0.046423   1.100397  17.891365
     C    7   0.855464   0.034742   4.762774   1.188456   0.006759   0.003726
     C    8   0.855134   0.035008   1.188576   4.765081   0.003726   0.007058
     C    9   0.049213   1.198237   0.008653   0.008915   1.577838   9.797712
     C   10   0.049561   1.199158   0.008819   0.008847   9.795677   1.576263
     H   11   4.328203   0.427919   0.422707   0.422414   0.018139   0.018623
     H   12   0.449226   4.212575   0.021334   0.020910   0.386623   0.386316
     H   13   0.446312   0.057925   4.468092   0.024360   0.002260   0.016187
     H   14   0.435348   0.025164   4.533053   0.031077   0.004446   0.002228
     H   15   0.446307   0.057693   0.024247   4.468451   0.016795   0.002280
     H   16   0.435502   0.025241   0.031248   4.532895   0.002285   0.004446
     H   17   0.042238   0.003943   0.412192   0.113713   0.001094   0.001398
     H   18   0.042397   0.004126   0.113958   0.412092   0.001421   0.001007
     H   19   0.010285   0.403275   0.001894   0.011216   5.059218   0.042273
     H   20   0.010310   0.403447   0.010969   0.001891   0.042712   5.059949
     H   21   0.015433   0.111933   0.000865   0.002310   0.049479   0.446630
     H   22   0.015651   0.112525   0.002366   0.000787   0.446708   0.049151


                  C  7       C  8       C  9       C 10       H 11       H 12
 ------------------------------------------------------------------------------
     C    7  18.407424
     C    8  10.598963  18.405544
     C    9   0.002195   0.002168  18.334428
     C   10   0.002209   0.001980   5.169049  18.335079
     H   11   0.023461   0.023854   0.005664   0.005515   4.773134
     H   12   0.002196   0.002227   0.050850   0.050751   0.042008   4.697276
     H   13   0.425952   0.036932   0.001551   0.001204   0.027983   0.024246
     H   14   0.431421   0.039227   0.000816   0.001121   0.029250   0.001521
     H   15   0.036807   0.426112   0.001234   0.001680   0.027921   0.023662
     H   16   0.039296   0.431288   0.001248   0.000782   0.029365   0.001486
     H   17   5.023055   0.450325   0.001048   0.000685   0.002416   0.000592
     H   18   0.450643   5.023465   0.000692   0.001380   0.002399   0.000623
     H   19   0.001465   0.001674   0.100240   0.442816   0.002252   0.011200
     H   20   0.001788   0.001451   0.442418   0.099879   0.002216   0.011061
     H   21   0.000670   0.000852   5.070640   0.419541   0.000570   0.013826
     H   22   0.000769   0.000522   0.419330   5.070644   0.000604   0.014149


                  H 13       H 14       H 15       H 16       H 17       H 18
 ------------------------------------------------------------------------------
     H   13   5.091131
     H   14   0.571144   5.136637
     H   15   0.001404   0.003643   5.091252
     H   16   0.003670   0.001148   0.570793   5.136148
     H   17   0.014172   0.015469   0.015347   0.014977   5.419147
     H   18   0.015549   0.014836   0.014217   0.015484   0.046658   5.419407
     H   19   0.000605   0.000278   0.024995   0.001721   0.000439   0.000548
     H   20   0.024710   0.001735   0.000593   0.000263   0.000573   0.000430
     H   21   0.000389   0.000295   0.000242   0.000252   0.000255   0.000285
     H   22   0.000206   0.000290   0.000341   0.000316   0.000234   0.000257


                  H 19       H 20       H 21       H 22
 ------------------------------------------------------
     H   19   5.460390
     H   20   0.010309   5.461531
     H   21   0.005365   0.041163   5.460983
     H   22   0.041546   0.005292   0.009508   5.460843


          HEAT OF FORMATION =      43.356107 KCALS/MOLE

          ZERO POINT ENERGY     119.119 KCAL/MOL


           NORMAL COORDINATE ANALYSIS (Total motion = 1 Angstrom)


   Root No.       1         2         3         4         5         6         7         8

                 1 A       2 A       3 A       4 A       5 A       6 A       7 A       8 A   

                  87.1      90.0     163.5     184.2     352.6     366.3     403.1     471.0
  
           1   -0.0028   -0.0197   -0.0213    0.0004   -0.0120   -0.0001    0.0001    0.0396
           2    0.0198   -0.0165    0.0021    0.0191   -0.0140    0.0131   -0.0257    0.0212
           3    0.0161    0.0203   -0.0029    0.0113    0.0230    0.0080   -0.0155   -0.0354
           4   -0.0027   -0.0191   -0.0227    0.0004   -0.0253   -0.0001    0.0001    0.0270
           5    0.0205   -0.0070   -0.0215    0.0215   -0.0002   -0.0120    0.0252    0.0126
           6    0.0136    0.0046    0.0365    0.0122    0.0007   -0.0072    0.0151   -0.0209
           7    0.0009   -0.0238    0.0011   -0.0356    0.0386    0.0003    0.0263    0.0014
           8    0.0217   -0.0178    0.0122    0.0028    0.0032    0.0157   -0.0223    0.0009
           9   -0.0226    0.0288   -0.0220    0.0086    0.0072   -0.0061   -0.0099    0.0083
          10   -0.0074   -0.0222    0.0019    0.0358    0.0384    0.0000   -0.0264    0.0014
          11   -0.0139   -0.0133    0.0139    0.0088   -0.0080    0.0020   -0.0192   -0.0077
          12    0.0367    0.0193   -0.0212   -0.0014    0.0003    0.0168   -0.0149    0.0032
          13    0.0054   -0.0070   -0.0131   -0.0389   -0.0344    0.0059   -0.0113   -0.0351
          14    0.0231   -0.0020   -0.0172    0.0036    0.0014   -0.0120    0.0277   -0.0128
          15   -0.0276    0.0019    0.0300    0.0077   -0.0112   -0.0004   -0.0016    0.0160
          16   -0.0070   -0.0046   -0.0119    0.0391   -0.0342   -0.0060    0.0114   -0.0350
          17   -0.0132    0.0034   -0.0181    0.0089    0.0094   -0.0058    0.0116   -0.0080
          18    0.0327   -0.0075    0.0293   -0.0010   -0.0062   -0.0105    0.0252    0.0186
          19    0.0078    0.0360   -0.0142   -0.0201    0.0284   -0.0428   -0.0003    0.0042
          20   -0.0044    0.0141    0.0060   -0.0175   -0.0109   -0.0159   -0.0089   -0.0041
          21   -0.0293   -0.0184   -0.0104   -0.0063    0.0192    0.0269    0.0151    0.0075
          22    0.0025    0.0371   -0.0137    0.0201    0.0279    0.0429    0.0002    0.0043
          23   -0.0241    0.0173    0.0061   -0.0141   -0.0118    0.0159    0.0091   -0.0046
          24    0.0038   -0.0235   -0.0105   -0.0120    0.0189   -0.0266   -0.0151    0.0071
          25   -0.0024    0.0149    0.0453    0.0279   -0.0188   -0.0099    0.0240    0.0028
          26   -0.0270    0.0141    0.0060   -0.0116    0.0143   -0.0015    0.0036    0.0071
          27    0.0067   -0.0180   -0.0106   -0.0144   -0.0225    0.0001   -0.0011   -0.0112
          28    0.0064    0.0133    0.0446   -0.0291   -0.0190    0.0097   -0.0240    0.0035
          29   -0.0039    0.0106    0.0062   -0.0184    0.0132   -0.0006    0.0007    0.0068
          30   -0.0316   -0.0120   -0.0105   -0.0031   -0.0232   -0.0015    0.0037   -0.0119
          31   -0.0012   -0.0080   -0.0574    0.0008   -0.0308   -0.0002    0.0002    0.0686
          32    0.0451   -0.0222    0.0082    0.0107   -0.0105    0.0287   -0.0350    0.0152
          33    0.0318    0.0210   -0.0134    0.0064    0.0169    0.0173   -0.0210   -0.0253
          34   -0.0047   -0.0342   -0.0032    0.0003   -0.0365   -0.0002    0.0002    0.0802
          35    0.0464   -0.0080   -0.0246    0.0160    0.0024   -0.0225    0.0477    0.0015
          36    0.0283   -0.0027    0.0410    0.0088   -0.0037   -0.0135    0.0286   -0.0028
          37    0.0039   -0.0208    0.0128   -0.0520    0.0611   -0.0018    0.0389   -0.0295
          38    0.0170   -0.0114   -0.0036    0.0216   -0.0247    0.0068   -0.0395    0.0375
          39   -0.0346    0.0951   -0.0510    0.0278   -0.0425   -0.0910   -0.0553    0.0558
          40   -0.0055   -0.0774    0.0209   -0.0587    0.0750    0.0645    0.0738   -0.0236
          41    0.0458   -0.0478    0.0409   -0.0162    0.0558    0.0585    0.0059   -0.0652
          42   -0.0319    0.0066   -0.0183    0.0005    0.0138    0.0178    0.0088    0.0115
          43   -0.0095   -0.0184    0.0140    0.0519    0.0609    0.0024   -0.0394   -0.0297
          44   -0.0430   -0.0683    0.0472    0.0345    0.0493   -0.0759   -0.0678   -0.0671
          45    0.0452    0.0437   -0.0208    0.0057    0.0011    0.0491   -0.0087   -0.0065
          46   -0.0159   -0.0754    0.0220    0.0590    0.0750   -0.0634   -0.0741   -0.0237
          47   -0.0015    0.0181   -0.0033   -0.0073   -0.0389    0.0428    0.0108    0.0208
          48    0.0656    0.0269   -0.0449   -0.0138   -0.0429    0.0423    0.0013    0.0630
          49    0.0155    0.0697   -0.0224   -0.0407    0.0201   -0.1053   -0.0069   -0.0019
          50   -0.0063    0.0308    0.0022   -0.0325   -0.0162   -0.0483   -0.0059   -0.0079
          51   -0.0581   -0.0425   -0.0035   -0.0113    0.0210    0.0655    0.0457    0.0089
          52    0.0048    0.0721   -0.0213    0.0407    0.0190    0.1058    0.0067   -0.0016
          53   -0.0455    0.0376    0.0016   -0.0258   -0.0110    0.0346    0.0374   -0.0039
          54    0.0078   -0.0522   -0.0042   -0.0228    0.0248   -0.0737   -0.0268    0.0109
          55    0.0124   -0.0127   -0.0406   -0.0762   -0.0512    0.0164   -0.0268   -0.1087
          56    0.0431   -0.0086   -0.0280    0.0057   -0.0019   -0.0168    0.0379   -0.0408
          57   -0.0496    0.0101    0.0490    0.0168   -0.0030    0.0013   -0.0072    0.0659
          58   -0.0150   -0.0077   -0.0381    0.0767   -0.0508   -0.0163    0.0265   -0.1075
          59   -0.0239    0.0025   -0.0295    0.0180    0.0037   -0.0065    0.0112   -0.0386
          60    0.0621   -0.0064    0.0475   -0.0036    0.0006   -0.0158    0.0372    0.0660
          61   -0.0042    0.0294    0.0809    0.0547   -0.0089   -0.0249    0.0626    0.0041
          62   -0.0514    0.0239    0.0214   -0.0227    0.0159    0.0019   -0.0034    0.0060
          63    0.0119   -0.0288   -0.0358   -0.0296   -0.0294    0.0090   -0.0243   -0.0120
          64    0.0122    0.0264    0.0799   -0.0572   -0.0093    0.0247   -0.0629    0.0059
          65   -0.0090    0.0173    0.0209   -0.0376    0.0183    0.0089   -0.0233    0.0085
          66   -0.0585   -0.0182   -0.0363   -0.0048   -0.0280   -0.0027    0.0088   -0.0120


   Root No.       9        10        11        12        13        14        15        16

                 9 A      10 A      11 A      12 A      13 A      14 A      15 A      16 A   

                 512.7     681.1     742.7     761.6     773.5     811.3     823.8     826.3
  
           1   -0.0002    0.0098    0.0197    0.0128    0.0003    0.0004   -0.0006    0.0049
           2   -0.0073   -0.0213   -0.0074    0.0064   -0.0426    0.0026   -0.0002    0.0034
           3   -0.0040    0.0356    0.0126   -0.0105   -0.0255    0.0011    0.0008   -0.0058
           4   -0.0001    0.0236    0.0055    0.0054    0.0000    0.0000   -0.0003    0.0032
           5    0.0123    0.0105   -0.0135   -0.0063    0.0017    0.0025   -0.0407   -0.0287
           6    0.0074   -0.0174    0.0224    0.0103    0.0015    0.0037   -0.0306    0.0433
           7    0.0079   -0.0050    0.0104   -0.0049   -0.0322    0.0033    0.0026    0.0002
           8   -0.0117   -0.0351   -0.0242   -0.0046   -0.0138    0.0044    0.0036    0.0082
           9   -0.0014   -0.0135   -0.0171    0.0040   -0.0461    0.0036   -0.0018    0.0002
          10   -0.0080   -0.0051    0.0103   -0.0051    0.0323   -0.0032   -0.0026   -0.0001
          11   -0.0067    0.0285    0.0266   -0.0010   -0.0469    0.0054    0.0009   -0.0042
          12   -0.0096    0.0245    0.0132    0.0058    0.0099    0.0021    0.0053   -0.0068
          13   -0.0384   -0.0010   -0.0087   -0.0077    0.0019    0.0314   -0.0225    0.0128
          14    0.0021   -0.0003   -0.0183   -0.0123    0.0031    0.0063   -0.0098   -0.0324
          15    0.0218    0.0007   -0.0102   -0.0026   -0.0008   -0.0142   -0.0529   -0.0339
          16    0.0390   -0.0014   -0.0083   -0.0071   -0.0020   -0.0310    0.0199    0.0160
          17    0.0203   -0.0005    0.0176    0.0081    0.0013   -0.0070   -0.0599    0.0408
          18   -0.0089    0.0006    0.0112    0.0095    0.0034    0.0132    0.0133    0.0134
          19    0.0046   -0.0147   -0.0021   -0.0103   -0.0494    0.0035   -0.0013   -0.0051
          20   -0.0044    0.0063    0.0064   -0.0047    0.0842   -0.0072    0.0003   -0.0024
          21    0.0027   -0.0136   -0.0130    0.0077   -0.0137    0.0012   -0.0012    0.0044
          22   -0.0047   -0.0149   -0.0021   -0.0107    0.0492   -0.0040    0.0024   -0.0049
          23    0.0003    0.0090    0.0084   -0.0047    0.0278   -0.0026   -0.0004   -0.0027
          24   -0.0052   -0.0119   -0.0121    0.0075    0.0807   -0.0065   -0.0000    0.0045
          25   -0.0333    0.0042   -0.0137   -0.0096   -0.0034   -0.0263    0.0442    0.0034
          26   -0.0193    0.0022    0.0060    0.0017   -0.0025   -0.0095    0.0218    0.0172
          27    0.0322   -0.0034   -0.0048    0.0004    0.0013    0.0012    0.0899   -0.0143
          28    0.0331    0.0046   -0.0142   -0.0103    0.0030    0.0256   -0.0442   -0.0013
          29    0.0193    0.0019    0.0016   -0.0009   -0.0001   -0.0031    0.0880    0.0123
          30   -0.0318   -0.0036   -0.0074   -0.0011   -0.0030   -0.0100   -0.0183   -0.0234
          31   -0.0002    0.0599    0.0259    0.0217    0.0003   -0.0011    0.0046   -0.0471
          32   -0.0154   -0.0295   -0.0091    0.0042   -0.0303    0.0049    0.0175    0.0129
          33   -0.0089    0.0492    0.0157   -0.0075   -0.0182    0.0020    0.0133   -0.0195
          34   -0.0004    0.0060    0.0289    0.0470    0.0004    0.0012   -0.0023    0.0187
          35   -0.0230    0.0132   -0.0182   -0.0145    0.0180    0.0551   -0.0065   -0.0315
          36   -0.0140   -0.0216    0.0292    0.0229    0.0115    0.0358   -0.0109    0.0484
          37    0.0133    0.0136    0.0040   -0.0142   -0.0076   -0.0014   -0.0018   -0.0146
          38   -0.0173   -0.0612   -0.0129   -0.0010   -0.0415    0.0100    0.0100    0.0241
          39   -0.0073   -0.0761    0.0302   -0.0436   -0.0499    0.0089    0.0214    0.0144
          40    0.0166    0.0272   -0.0316    0.0398   -0.0028   -0.0016   -0.0161   -0.0075
          41   -0.0060    0.0202   -0.0591    0.0022   -0.0383    0.0025   -0.0136   -0.0160
          42    0.0018   -0.0112   -0.0312    0.0260   -0.0267    0.0016   -0.0074    0.0025
          43   -0.0130    0.0136    0.0040   -0.0143    0.0071    0.0001    0.0049   -0.0145
          44   -0.0138    0.0961   -0.0201    0.0390   -0.0633    0.0115    0.0279   -0.0217
          45   -0.0117    0.0178    0.0257   -0.0200   -0.0132    0.0035    0.0017   -0.0147
          46   -0.0164    0.0271   -0.0315    0.0398    0.0031    0.0018    0.0171   -0.0057
          47   -0.0014    0.0004    0.0554   -0.0236   -0.0414    0.0033   -0.0138    0.0038
          48   -0.0068   -0.0230    0.0369    0.0106   -0.0203    0.0036   -0.0117    0.0142
          49    0.0091    0.0404   -0.0717    0.1091   -0.0585    0.0013   -0.0214    0.0280
          50    0.0006    0.0406   -0.0189    0.0521    0.0680   -0.0080   -0.0105    0.0110
          51    0.0112   -0.0225    0.0752   -0.0861   -0.0580    0.0041    0.0094   -0.0315
          52   -0.0091    0.0404   -0.0719    0.1091    0.0605    0.0020    0.0153    0.0299
          53    0.0102    0.0002   -0.0568    0.0506   -0.0181    0.0013   -0.0014    0.0226
          54   -0.0049   -0.0464    0.0520   -0.0872    0.0858   -0.0116   -0.0084   -0.0256
          55   -0.1023   -0.0748    0.0432    0.0522   -0.0399   -0.1787   -0.0145   -0.0451
          56   -0.0135   -0.0289    0.0124    0.0192   -0.0117   -0.0737   -0.0942   -0.0489
          57    0.0563    0.0513   -0.0565   -0.0520    0.0264    0.1289    0.0264   -0.0010
          58    0.1041   -0.0737    0.0407    0.0490    0.0414    0.1792    0.0218   -0.0511
          59    0.0441   -0.0312    0.0430    0.0355    0.0193    0.0827   -0.0261    0.0183
          60   -0.0395    0.0488   -0.0359   -0.0394   -0.0240   -0.1264   -0.1022    0.0397
          61   -0.1256   -0.0402    0.0483    0.0628    0.0107    0.0801    0.1013   -0.1178
          62   -0.0746   -0.0168    0.0128    0.0208   -0.0006    0.0498    0.0087   -0.0892
          63    0.1003    0.0280   -0.0457   -0.0490   -0.0080   -0.0767    0.0574    0.0807
          64    0.1253   -0.0404    0.0492    0.0639   -0.0089   -0.0813   -0.0786   -0.1216
          65    0.0535   -0.0172    0.0350    0.0345   -0.0062   -0.0434    0.0595   -0.0228
          66   -0.1130    0.0288   -0.0340   -0.0430    0.0022    0.0826   -0.0407    0.1105


   Root No.      17        18        19        20        21        22        23        24

                17 A      18 A      19 A      20 A      21 A      22 A      23 A      24 A   

                 869.2     903.9     958.0     982.1     993.7     996.6    1008.3    1014.4
  
           1   -0.0000   -0.0033   -0.0019    0.0000    0.0001    0.0004   -0.0145    0.0002
           2   -0.0011   -0.0059   -0.0060   -0.0033    0.0107   -0.0130    0.0120    0.0164
           3   -0.0007    0.0099    0.0099   -0.0027    0.0073    0.0208   -0.0196    0.0105
           4   -0.0003    0.0277    0.0018   -0.0002    0.0002    0.0071   -0.0137    0.0002
           5    0.0010    0.0047   -0.0005    0.0046    0.0011    0.0122    0.0118    0.0042
           6    0.0005   -0.0077    0.0010    0.0034   -0.0001   -0.0201   -0.0195    0.0027
           7    0.0266   -0.0231    0.0098    0.0021    0.0080    0.0104    0.0007   -0.0206
           8    0.0056    0.0191    0.0073    0.0036   -0.0076    0.0148   -0.0136   -0.0212
           9   -0.0255    0.0179   -0.0087    0.0006   -0.0203   -0.0108    0.0038   -0.0103
          10   -0.0261   -0.0234    0.0098   -0.0028   -0.0074    0.0105    0.0011    0.0208
          11   -0.0193   -0.0253    0.0044    0.0021   -0.0212    0.0037    0.0026   -0.0191
          12    0.0171   -0.0080   -0.0106    0.0040    0.0019   -0.0180    0.0134   -0.0145
          13    0.0001    0.0039    0.0202    0.0147   -0.0016   -0.0126    0.0030   -0.0005
          14    0.0030   -0.0239   -0.0008   -0.0076   -0.0013   -0.0145   -0.0162   -0.0062
          15    0.0039   -0.0099   -0.0161   -0.0150    0.0011    0.0091   -0.0012   -0.0026
          16   -0.0002    0.0038    0.0198   -0.0149    0.0008   -0.0127    0.0029    0.0003
          17    0.0044    0.0199    0.0144   -0.0174    0.0002   -0.0018    0.0085   -0.0054
          18    0.0004    0.0165   -0.0068   -0.0002   -0.0008    0.0168    0.0137   -0.0044
          19    0.0024    0.0120   -0.0078   -0.0002   -0.0217   -0.0097    0.0014    0.0203
          20    0.0040    0.0039   -0.0041   -0.0014   -0.0124   -0.0072    0.0054    0.0051
          21    0.0001   -0.0070    0.0059    0.0004    0.0273    0.0088   -0.0041    0.0031
          22   -0.0027    0.0120   -0.0078    0.0009    0.0211   -0.0105    0.0011   -0.0205
          23    0.0019    0.0044   -0.0033   -0.0000    0.0178   -0.0053    0.0013    0.0051
          24    0.0037   -0.0067    0.0063   -0.0021   -0.0231    0.0115   -0.0067    0.0034
          25   -0.0013   -0.0084   -0.0164    0.0325   -0.0022    0.0056   -0.0021   -0.0004
          26   -0.0007    0.0011   -0.0062    0.0161   -0.0012   -0.0001   -0.0077    0.0001
          27   -0.0046    0.0003    0.0098   -0.0246    0.0007   -0.0090   -0.0083    0.0008
          28    0.0015   -0.0084   -0.0172   -0.0320    0.0025    0.0052   -0.0022    0.0005
          29   -0.0044   -0.0009   -0.0062   -0.0143    0.0005    0.0078    0.0110    0.0005
          30    0.0017   -0.0007    0.0107    0.0255   -0.0017   -0.0037    0.0030   -0.0004
          31   -0.0005    0.0465   -0.0439    0.0001    0.0008    0.0267   -0.0316    0.0004
          32    0.0550   -0.0125    0.0012   -0.0087    0.1096   -0.0193    0.0153    0.0730
          33    0.0326    0.0221   -0.0022   -0.0059    0.0666    0.0253   -0.0235    0.0444
          34   -0.0008    0.0650   -0.0695    0.0018   -0.0009   -0.0325   -0.0612    0.0002
          35    0.0008   -0.0032    0.0139    0.1814    0.0121    0.0221    0.0210    0.0351
          36    0.0002    0.0058   -0.0207    0.1106    0.0061   -0.0295   -0.0337    0.0213
          37    0.0006    0.0068   -0.0007   -0.0110   -0.0583    0.0242    0.0145   -0.0133
          38    0.0469   -0.0178    0.0231    0.0168    0.0594    0.0088   -0.0265   -0.0352
          39    0.1089   -0.0426    0.0376   -0.0016   -0.0056    0.0542   -0.0008   -0.0655
          40   -0.0727   -0.0033   -0.0349    0.0100   -0.0049   -0.0805    0.0594   -0.0620
          41   -0.0940    0.1092   -0.0176   -0.0072   -0.0859    0.0313   -0.0373    0.0681
          42   -0.0529    0.0055   -0.0263    0.0076   -0.0065   -0.0644    0.0422   -0.0550
          43   -0.0004    0.0070   -0.0007    0.0100    0.0595    0.0222    0.0151    0.0127
          44    0.1174    0.0480   -0.0443    0.0098    0.0205   -0.0520    0.0117   -0.0756
          45   -0.0102   -0.0046   -0.0022    0.0148    0.0557    0.0165    0.0232   -0.0009
          46    0.0725   -0.0020   -0.0355   -0.0060    0.0001   -0.0825    0.0611    0.0594
          47   -0.0900   -0.0583    0.0320    0.0009   -0.0437    0.0445   -0.0201   -0.0147
          48   -0.0562   -0.0945    0.0028   -0.0077   -0.0757   -0.0570    0.0550    0.0844
          49   -0.1004   -0.0655    0.0257    0.0031    0.1421    0.0221    0.0032    0.0199
          50   -0.0412   -0.0431    0.0105   -0.0013    0.0821    0.0006    0.0170    0.0400
          51    0.0957    0.0095   -0.0265   -0.0078   -0.0365   -0.0470    0.0400    0.1401
          52    0.1024   -0.0642    0.0254   -0.0048   -0.1404    0.0287    0.0020   -0.0195
          53    0.0645    0.0138    0.0176   -0.0096    0.0115    0.0387   -0.0401    0.1449
          54   -0.0828    0.0413   -0.0215    0.0042    0.0875   -0.0265    0.0038   -0.0320
          55   -0.0003   -0.0033   -0.0850   -0.0522    0.0115    0.0867    0.0757    0.0079
          56    0.0130   -0.0361   -0.0548   -0.0466   -0.0047   -0.0242   -0.0877   -0.0126
          57   -0.0057    0.0039    0.0691    0.0442    0.0005   -0.0110    0.0482    0.0012
          58    0.0003   -0.0028   -0.0840    0.0515   -0.0066    0.0878    0.0759   -0.0089
          59    0.0005    0.0137   -0.0351    0.0176   -0.0004    0.0212   -0.0014   -0.0046
          60    0.0137    0.0334    0.0800   -0.0656   -0.0041    0.0150    0.0996   -0.0140
          61   -0.0072    0.0507    0.0883   -0.1552    0.0072   -0.0154    0.0261   -0.0049
          62   -0.0028   -0.0175    0.0177   -0.0202    0.0023   -0.0453   -0.0808    0.0179
          63   -0.0005   -0.0337   -0.0606    0.1006   -0.0059    0.0123   -0.0134    0.0005
          64    0.0069    0.0511    0.0917    0.1517   -0.0081   -0.0124    0.0265    0.0042
          65   -0.0023    0.0381    0.0468    0.0767   -0.0036    0.0121    0.0499    0.0077
          66   -0.0027   -0.0008   -0.0463   -0.0659    0.0072    0.0453    0.0648    0.0142


   Root No.      25        26        27        28        29        30        31        32

                25 A      26 A      27 A      28 A      29 A      30 A      31 A      32 A   

                1028.6    1052.6    1075.6    1091.3    1092.4    1103.6    1115.2    1120.4
  
           1   -0.0000   -0.0267   -0.0000    0.0006    0.0043   -0.0037   -0.0053    0.0001
           2   -0.0045    0.0104   -0.0027    0.0098   -0.0035   -0.0044   -0.0040    0.0141
           3   -0.0029   -0.0170   -0.0013    0.0060    0.0035    0.0079    0.0073    0.0085
           4    0.0000    0.0066    0.0001   -0.0003   -0.0020    0.0002    0.0277   -0.0005
           5    0.0127    0.0013    0.0017    0.0035   -0.0019   -0.0009    0.0064   -0.0022
           6    0.0079   -0.0021    0.0010    0.0024    0.0022    0.0018   -0.0106   -0.0011
           7    0.0038    0.0039    0.0051   -0.0031    0.0030    0.0092    0.0043    0.0022
           8    0.0037   -0.0079    0.0021   -0.0081    0.0058    0.0056    0.0109   -0.0198
           9    0.0012    0.0027   -0.0018    0.0026    0.0036    0.0065    0.0112    0.0100
          10   -0.0040    0.0041   -0.0048    0.0030    0.0025    0.0094    0.0043   -0.0022
          11    0.0028    0.0012   -0.0009   -0.0021   -0.0055   -0.0084   -0.0151   -0.0004
          12    0.0030    0.0080    0.0025   -0.0087   -0.0015   -0.0021   -0.0049   -0.0222
          13   -0.0215    0.0039   -0.0021   -0.0005    0.0012   -0.0009   -0.0046    0.0008
          14   -0.0279    0.0066   -0.0063   -0.0057   -0.0076    0.0066   -0.0181    0.0007
          15    0.0058   -0.0038   -0.0065   -0.0116   -0.0027    0.0014    0.0011    0.0041
          16    0.0219    0.0040    0.0021    0.0007    0.0010   -0.0008   -0.0046   -0.0007
          17   -0.0077    0.0002   -0.0085   -0.0115    0.0086   -0.0048    0.0075    0.0037
          18   -0.0276   -0.0077   -0.0024    0.0015    0.0054   -0.0051    0.0165   -0.0017
          19    0.0019   -0.0087   -0.0169    0.0072   -0.0063   -0.0127   -0.0138   -0.0055
          20    0.0012    0.0007   -0.0065    0.0055    0.0039    0.0076    0.0118    0.0043
          21   -0.0037    0.0044    0.0125   -0.0100   -0.0051   -0.0101   -0.0094   -0.0046
          22   -0.0016   -0.0089    0.0165   -0.0074   -0.0054   -0.0133   -0.0138    0.0058
          23   -0.0026   -0.0042    0.0080   -0.0059    0.0036    0.0047    0.0026   -0.0020
          24    0.0026    0.0016   -0.0120    0.0091   -0.0073   -0.0108   -0.0147    0.0061
          25   -0.0204   -0.0022    0.0002    0.0025   -0.0016   -0.0002    0.0059   -0.0019
          26   -0.0074   -0.0005    0.0011    0.0011    0.0063   -0.0028    0.0111    0.0005
          27    0.0136   -0.0004    0.0011    0.0005    0.0024   -0.0019    0.0110   -0.0011
          28    0.0202   -0.0022   -0.0002   -0.0028   -0.0010   -0.0003    0.0059    0.0017
          29    0.0083    0.0006    0.0014    0.0001   -0.0052    0.0030   -0.0149   -0.0002
          30   -0.0128    0.0002    0.0003   -0.0001   -0.0046    0.0017   -0.0047    0.0010
          31   -0.0010   -0.0525    0.0005    0.0027    0.0375    0.0381   -0.0840    0.0019
          32   -0.0360    0.0156   -0.0172    0.0627   -0.0153   -0.0114    0.0122    0.1864
          33   -0.0221   -0.0243   -0.0098    0.0385    0.0095    0.0208   -0.0140    0.1121
          34   -0.0003    0.1815    0.0003   -0.0031   -0.0259    0.0255   -0.0890    0.0011
          35    0.2335   -0.0315   -0.0062   -0.0589    0.0085   -0.0069    0.0284    0.0502
          36    0.1405    0.0528   -0.0036   -0.0363   -0.0010    0.0088   -0.0470    0.0311
          37   -0.0139    0.1004    0.0767   -0.0238    0.0152    0.0481    0.0239    0.0724
          38    0.0215   -0.0934   -0.0605    0.0093   -0.0033   -0.0246   -0.0009   -0.0827
          39   -0.0023    0.0752    0.0602   -0.0218    0.0226    0.0624    0.0516    0.0492
          40    0.0229   -0.0315   -0.0715    0.0648    0.0302    0.0626    0.0384    0.0331
          41   -0.0173    0.0402    0.0691   -0.0538   -0.0141   -0.0427    0.0022    0.0015
          42    0.0167   -0.0274   -0.0603    0.0517    0.0236    0.0484    0.0345    0.0237
          43    0.0128    0.1007   -0.0752    0.0231    0.0136    0.0503    0.0226   -0.0734
          44    0.0091   -0.0226    0.0228   -0.0152   -0.0160   -0.0441   -0.0451    0.0048
          45    0.0191    0.1178   -0.0803    0.0174    0.0135    0.0535    0.0234   -0.0973
          46   -0.0212   -0.0326    0.0730   -0.0613    0.0408    0.0587    0.0372   -0.0328
          47    0.0057    0.0053   -0.0209    0.0184   -0.0174   -0.0212   -0.0309    0.0218
          48   -0.0220   -0.0495    0.0908   -0.0691    0.0350    0.0561    0.0136   -0.0093
          49   -0.0163    0.0308    0.0280   -0.0245   -0.0275   -0.0612    0.0248   -0.0344
          50   -0.0125    0.0330    0.0117   -0.0124   -0.0204   -0.0487    0.0569   -0.0290
          51   -0.0092    0.0291   -0.0360    0.0046   -0.0481   -0.1101    0.0621   -0.0571
          52    0.0160    0.0309   -0.0296    0.0218   -0.0312   -0.0594    0.0255    0.0329
          53   -0.0154   -0.0409   -0.0229    0.0023    0.0532    0.1208   -0.0833   -0.0611
          54   -0.0062   -0.0154    0.0269   -0.0130   -0.0033   -0.0106   -0.0206    0.0021
          55    0.0577   -0.0001   -0.0508   -0.0676    0.0704   -0.0271   -0.0349    0.0296
          56   -0.0026   -0.0149    0.0483    0.0541   -0.0858    0.0324    0.0504   -0.0244
          57   -0.0428    0.0187   -0.0465   -0.0518    0.0533   -0.0159   -0.0595    0.0210
          58   -0.0602    0.0000    0.0523    0.0796    0.0543   -0.0246   -0.0353   -0.0278
          59   -0.0396   -0.0097   -0.0185   -0.0212   -0.0022   -0.0018    0.0291    0.0062
          60    0.0180    0.0220    0.0664    0.0895    0.0828   -0.0334   -0.0730   -0.0284
          61    0.0329   -0.0079   -0.0286   -0.0483   -0.0580    0.0216   -0.0006    0.0139
          62    0.0965    0.0306    0.0796    0.1221    0.1587   -0.0613    0.0276   -0.0373
          63   -0.0381   -0.0023    0.0065    0.0129    0.0126   -0.0061    0.0134   -0.0050
          64   -0.0313   -0.0079    0.0274    0.0369   -0.0676    0.0233   -0.0006   -0.0144
          65    0.0121   -0.0120    0.0411    0.0519   -0.0986    0.0364   -0.0249   -0.0217
          66    0.1021   -0.0273    0.0641    0.0757   -0.1531    0.0544   -0.0185   -0.0310


   Root No.      33        34        35        36        37        38        39        40

                33 A      34 A      35 A      36 A      37 A      38 A      39 A      40 A   

                1126.3    1154.9    1201.9    1221.0    1233.9    1253.6    1327.5    1343.5
  
           1    0.0117   -0.0053    0.0001    0.0589    0.0002    0.0001   -0.0000   -0.0148
           2   -0.0024   -0.0210   -0.0284    0.0015    0.0375    0.0346   -0.0299   -0.0038
           3    0.0040    0.0352   -0.0169   -0.0029    0.0224    0.0206   -0.0178    0.0067
           4   -0.0261    0.0136    0.0001    0.0174    0.0000    0.0000    0.0002    0.0497
           5   -0.0100    0.0040   -0.0317   -0.0167   -0.0015    0.0010    0.0952   -0.0139
           6    0.0166   -0.0066   -0.0190    0.0281   -0.0008    0.0007    0.0574    0.0223
           7    0.0046    0.0050   -0.0083   -0.0035   -0.0018    0.0199   -0.0097   -0.0335
           8    0.0223    0.0131    0.0111   -0.0040   -0.0026   -0.0274    0.0107    0.0239
           9    0.0092    0.0010    0.0035    0.0187   -0.0089    0.0060   -0.0085   -0.0317
          10    0.0047    0.0050    0.0083   -0.0035    0.0019   -0.0200    0.0092   -0.0335
          11   -0.0188   -0.0071    0.0082   -0.0146   -0.0092   -0.0077   -0.0022    0.0165
          12   -0.0152   -0.0110    0.0082    0.0124    0.0020   -0.0269    0.0129   -0.0362
          13    0.0033   -0.0033    0.0052   -0.0080    0.0075    0.0062    0.0197   -0.0045
          14    0.0121    0.0118   -0.0046    0.0255   -0.0117   -0.0098   -0.0580    0.0107
          15   -0.0011    0.0032    0.0117    0.0074    0.0023    0.0008   -0.0097    0.0060
          16    0.0033   -0.0034   -0.0053   -0.0078   -0.0076   -0.0062   -0.0197   -0.0044
          17   -0.0047   -0.0084    0.0081   -0.0186   -0.0035   -0.0039   -0.0359   -0.0101
          18   -0.0112   -0.0090   -0.0096   -0.0189   -0.0115   -0.0091   -0.0469   -0.0062
          19   -0.0141   -0.0045    0.0062   -0.0102   -0.0121    0.0038    0.0118    0.0178
          20    0.0115    0.0054   -0.0025    0.0067   -0.0028    0.0118   -0.0032   -0.0107
          21   -0.0083   -0.0065    0.0024   -0.0099   -0.0148    0.0112    0.0137    0.0165
          22   -0.0141   -0.0046   -0.0063   -0.0102    0.0120   -0.0038   -0.0115    0.0179
          23    0.0020    0.0032    0.0010    0.0056   -0.0143    0.0155    0.0104   -0.0096
          24   -0.0142   -0.0078   -0.0034   -0.0107    0.0045    0.0050   -0.0091    0.0174
          25   -0.0035   -0.0037   -0.0057   -0.0085   -0.0025   -0.0018    0.0004   -0.0063
          26   -0.0061   -0.0069    0.0146   -0.0124    0.0099    0.0078    0.0176   -0.0140
          27   -0.0054   -0.0104    0.0034   -0.0198    0.0021    0.0016    0.0098   -0.0183
          28   -0.0035   -0.0038    0.0057   -0.0086    0.0025    0.0018   -0.0004   -0.0063
          29    0.0076    0.0124    0.0099    0.0232    0.0066    0.0051    0.0171    0.0226
          30    0.0029    0.0013    0.0112    0.0016    0.0078    0.0062    0.0110    0.0037
          31    0.2360   -0.1237   -0.0007   -0.1307   -0.0003   -0.0000    0.0006    0.0287
          32   -0.0402   -0.0027    0.0761    0.0346   -0.1016   -0.0587    0.0531   -0.0105
          33    0.0670    0.0033    0.0452   -0.0569   -0.0609   -0.0352    0.0319    0.0170
          34   -0.0010    0.1586    0.0001   -0.1038   -0.0006   -0.0003   -0.0005   -0.0692
          35   -0.0147   -0.0245    0.0753    0.0069    0.0235    0.0086   -0.1033    0.0090
          36    0.0250    0.0398    0.0453   -0.0123    0.0140    0.0051   -0.0623   -0.0139
          37    0.0135   -0.0647   -0.0237    0.0253    0.0504   -0.0447    0.0068    0.0655
          38    0.0200    0.0800    0.0236   -0.0309   -0.0456    0.0238    0.0003   -0.0741
          39    0.0358   -0.0099   -0.0119    0.0168    0.0422   -0.0727    0.0234    0.0069
          40    0.0172    0.0324   -0.0036   -0.0173    0.0489   -0.0626    0.0170    0.0376
          41    0.0253   -0.0455    0.0257    0.0888   -0.0442   -0.0049    0.0075   -0.0995
          42    0.0164    0.0319    0.0029   -0.0102    0.0297   -0.0474    0.0080    0.0343
          43    0.0143   -0.0642    0.0239    0.0253   -0.0505    0.0451   -0.0058    0.0656
          44   -0.0412   -0.0295    0.0005    0.0001    0.0155   -0.0527    0.0212    0.0291
          45    0.0003   -0.0744    0.0267    0.0351   -0.0603    0.0558   -0.0098    0.0685
          46    0.0177    0.0325    0.0037   -0.0171   -0.0488    0.0624   -0.0165    0.0373
          47   -0.0268   -0.0068    0.0145   -0.0330    0.0049   -0.0441    0.0109    0.0172
          48   -0.0144    0.0546    0.0210   -0.0825   -0.0535    0.0177    0.0043    0.1039
          49    0.0485    0.0088    0.0041   -0.0146    0.0309   -0.0482   -0.0045    0.0283
          50    0.0824    0.0243   -0.0023    0.0055    0.0451   -0.0474   -0.0225   -0.0017
          51    0.1003    0.0291    0.0078   -0.0090    0.0630   -0.0875   -0.0194    0.0333
          52    0.0476    0.0088   -0.0043   -0.0147   -0.0306    0.0477    0.0048    0.0281
          53   -0.1270   -0.0373    0.0059    0.0052    0.0765   -0.0991   -0.0281   -0.0281
          54   -0.0246   -0.0076   -0.0058   -0.0091    0.0095    0.0000   -0.0103    0.0174
          55    0.0014    0.0391   -0.0874    0.0382   -0.0310   -0.0298   -0.0141    0.0103
          56   -0.0142   -0.0273    0.1060   -0.0176    0.0282    0.0255   -0.0268    0.0067
          57    0.0266    0.0307   -0.0708    0.0396   -0.0257   -0.0236   -0.0305    0.0082
          58    0.0017    0.0391    0.0877    0.0373    0.0311    0.0297    0.0143    0.0103
          59   -0.0169   -0.0143   -0.0130   -0.0265   -0.0096   -0.0090   -0.0396   -0.0101
          60    0.0254    0.0382    0.1269    0.0328    0.0370    0.0335   -0.0093   -0.0019
          61    0.0027   -0.0034    0.0370   -0.0089    0.0240    0.0166    0.0407   -0.0146
          62   -0.0244   -0.0090   -0.0928   -0.0169   -0.0613   -0.0425   -0.0923    0.0084
          63   -0.0069   -0.0114   -0.0054   -0.0219   -0.0028   -0.0017    0.0025   -0.0201
          64    0.0028   -0.0035   -0.0373   -0.0083   -0.0242   -0.0168   -0.0411   -0.0143
          65    0.0177    0.0142   -0.0484    0.0279   -0.0313   -0.0215   -0.0411    0.0141
          66    0.0187    0.0025   -0.0797    0.0057   -0.0529   -0.0368   -0.0830   -0.0163


   Root No.      41        42        43        44        45        46        47        48

                41 A      42 A      43 A      44 A      45 A      46 A      47 A      48 A   

                1371.8    1396.3    1404.4    1412.1    1424.4    1732.7    1790.0    1830.9
  
           1    0.0000    0.0579    0.0075    0.0001   -0.0467   -0.0025   -0.0000   -0.0074
           2   -0.0063   -0.0116   -0.0010   -0.0145    0.0084    0.0007   -0.0037    0.0030
           3   -0.0038    0.0196    0.0017   -0.0086   -0.0139   -0.0011   -0.0022   -0.0051
           4   -0.0001   -0.0422   -0.0048   -0.0000    0.0588   -0.0113   -0.0000    0.0015
           5    0.0091    0.0071    0.0011    0.0116   -0.0179    0.0061    0.0007   -0.0001
           6    0.0055   -0.0120   -0.0018    0.0070    0.0297   -0.0101    0.0004    0.0001
           7    0.0241   -0.0281    0.0121    0.0226    0.0125    0.0000   -0.0002    0.0072
           8   -0.0251    0.0136    0.0237    0.0149   -0.0105   -0.0003    0.0006    0.0099
           9    0.0167   -0.0209    0.0290    0.0370    0.0054   -0.0003   -0.0000    0.0149
          10   -0.0240   -0.0280    0.0121   -0.0228    0.0126   -0.0000    0.0002    0.0072
          11    0.0027    0.0116   -0.0367    0.0399   -0.0000    0.0004    0.0003   -0.0179
          12   -0.0300   -0.0219   -0.0071   -0.0045    0.0118    0.0001    0.0006   -0.0015
          13    0.0015   -0.0068   -0.0019    0.0012   -0.0200    0.0871   -0.0789    0.0001
          14   -0.0046    0.0086    0.0023   -0.0052    0.0329   -0.0170    0.0252   -0.0001
          15   -0.0009   -0.0082   -0.0013   -0.0008   -0.0048    0.1112   -0.0957    0.0001
          16   -0.0015   -0.0068   -0.0019   -0.0013   -0.0201    0.0871    0.0791    0.0001
          17   -0.0029    0.0033    0.0001   -0.0032   -0.0112   -0.0903   -0.0729   -0.0000
          18   -0.0036   -0.0114   -0.0026   -0.0044   -0.0313    0.0670    0.0672    0.0001
          19   -0.0267    0.0083   -0.0084   -0.0228   -0.0017    0.0001    0.0000   -0.0176
          20    0.0049   -0.0059    0.0069   -0.0021    0.0016    0.0001   -0.0001   -0.1885
          21   -0.0314    0.0064   -0.0063   -0.0299   -0.0011    0.0002   -0.0000   -0.1343
          22    0.0266    0.0081   -0.0084    0.0229   -0.0018    0.0002   -0.0000   -0.0173
          23   -0.0253   -0.0027    0.0023   -0.0274    0.0004   -0.0002   -0.0000    0.2077
          24    0.0192    0.0082   -0.0091    0.0124   -0.0020    0.0000   -0.0000    0.1020
          25    0.0002    0.0058    0.0008    0.0001   -0.0022   -0.0762   -0.0804   -0.0001
          26    0.0012    0.0427    0.0087    0.0014    0.0511    0.0961    0.0909    0.0000
          27    0.0008    0.0346    0.0064    0.0010    0.0268   -0.0497   -0.0586   -0.0001
          28   -0.0001    0.0058    0.0008   -0.0000   -0.0022   -0.0762    0.0803   -0.0001
          29    0.0013   -0.0506   -0.0097    0.0010   -0.0476   -0.0011   -0.0092    0.0001
          30    0.0007   -0.0215   -0.0047    0.0005   -0.0326   -0.1084    0.1077   -0.0001
          31   -0.0000   -0.0700   -0.0195    0.0000    0.0622    0.0019   -0.0000    0.0033
          32    0.0226    0.0094    0.0036    0.0479   -0.0099    0.0001    0.0007    0.0021
          33    0.0135   -0.0163   -0.0059    0.0286    0.0161   -0.0003    0.0004   -0.0035
          34    0.0002    0.0496    0.0014   -0.0000   -0.0543    0.0055    0.0000   -0.0009
          35   -0.0162   -0.0087    0.0008   -0.0071    0.0028   -0.0006   -0.0291    0.0004
          36   -0.0097    0.0149   -0.0010   -0.0043   -0.0049    0.0012   -0.0175   -0.0007
          37   -0.0845    0.0440    0.0686    0.0388   -0.0389   -0.0008   -0.0012    0.0222
          38    0.1054   -0.0472   -0.0809   -0.0424    0.0412    0.0007    0.0013   -0.0104
          39    0.0800    0.0444   -0.1602   -0.1294   -0.0040    0.0003   -0.0001    0.0216
          40    0.0356    0.0448   -0.1162   -0.1010   -0.0054    0.0003   -0.0001    0.0246
          41    0.1431   -0.0053   -0.1432   -0.0942    0.0184    0.0000    0.0005   -0.0099
          42   -0.0071    0.0248   -0.0182   -0.0183   -0.0093   -0.0001   -0.0000    0.0245
          43    0.0846    0.0443    0.0681   -0.0388   -0.0387   -0.0009    0.0013    0.0221
          44    0.1209   -0.0155    0.1782   -0.1346   -0.0151   -0.0006    0.0006   -0.0141
          45    0.0546    0.0624   -0.0051    0.0245   -0.0383   -0.0006    0.0012    0.0194
          46   -0.0362    0.0438   -0.1157    0.1016   -0.0059    0.0004    0.0001    0.0246
          47    0.0621   -0.0188    0.0836   -0.0613   -0.0002    0.0001    0.0002   -0.0169
          48    0.1297    0.0170    0.1169   -0.0747   -0.0200   -0.0000    0.0005    0.0205
          49    0.0111    0.0132   -0.0051    0.0187   -0.0048   -0.0000    0.0001    0.1100
          50    0.0494   -0.0008    0.0135    0.0458   -0.0023   -0.0001    0.0001   -0.1058
          51    0.0438    0.0169    0.0015    0.0505   -0.0074    0.0001    0.0004    0.0744
          52   -0.0109    0.0133   -0.0052   -0.0184   -0.0047   -0.0000   -0.0001    0.1095
          53    0.0618   -0.0150   -0.0077    0.0660    0.0073   -0.0000    0.0003   -0.0154
          54    0.0226    0.0086   -0.0112    0.0164   -0.0016    0.0002   -0.0001    0.1286
          55   -0.0019    0.0240    0.0073   -0.0002    0.0682   -0.0012    0.0008   -0.0005
          56   -0.0014   -0.0342   -0.0078   -0.0034   -0.0552    0.0989   -0.0808    0.0005
          57   -0.0031    0.0218    0.0056   -0.0023    0.0565    0.0590   -0.0473   -0.0003
          58    0.0019    0.0240    0.0073    0.0007    0.0681   -0.0013   -0.0009   -0.0005
          59   -0.0033   -0.0032   -0.0013   -0.0037   -0.0240   -0.0986   -0.0798    0.0001
          60    0.0002    0.0404    0.0095   -0.0014    0.0751   -0.0597   -0.0491   -0.0006
          61    0.0027    0.0390    0.0077    0.0026    0.0409   -0.0515   -0.0281   -0.0000
          62   -0.0056   -0.0445   -0.0091   -0.0056   -0.0585   -0.0091   -0.0783    0.0001
          63    0.0004    0.0328    0.0058    0.0006    0.0192   -0.0785   -0.0886   -0.0002
          64   -0.0027    0.0392    0.0077   -0.0022    0.0411   -0.0515    0.0280   -0.0001
          65   -0.0023   -0.0080   -0.0009   -0.0021    0.0106    0.0738   -0.1150    0.0002
          66   -0.0051    0.0548    0.0107   -0.0047    0.0607   -0.0286   -0.0279   -0.0002


   Root No.      49        50        51        52        53        54        55        56

                49 A      50 A      51 A      52 A      53 A      54 A      55 A      56 A   

                2885.6    2907.2    2969.9    2971.3    3049.9    3050.9    3116.1    3129.8
  
           1   -0.0028    0.0163   -0.0000   -0.0014   -0.0000    0.0005   -0.0000    0.0000
           2   -0.0057    0.0260   -0.0002   -0.0021   -0.0007    0.0001    0.0001    0.0001
           3    0.0095   -0.0436   -0.0001    0.0035   -0.0004   -0.0002    0.0000    0.0000
           4    0.0195    0.0041    0.0000    0.0003   -0.0000    0.0001    0.0000   -0.0000
           5    0.0291    0.0051   -0.0003   -0.0001   -0.0001    0.0001    0.0000    0.0002
           6   -0.0483   -0.0085   -0.0002    0.0002   -0.0000   -0.0001    0.0000    0.0001
           7    0.0010   -0.0039   -0.0231   -0.0215   -0.0017   -0.0018    0.0001   -0.0001
           8    0.0003   -0.0008   -0.0112   -0.0105   -0.0141   -0.0154   -0.0002   -0.0001
           9   -0.0005    0.0031    0.0169    0.0157   -0.0145   -0.0159   -0.0001   -0.0000
          10    0.0010   -0.0039    0.0227   -0.0218    0.0019   -0.0017   -0.0001    0.0001
          11    0.0003   -0.0023    0.0094   -0.0090   -0.0216    0.0192   -0.0002   -0.0001
          12   -0.0005    0.0022   -0.0176    0.0170   -0.0061    0.0055   -0.0001   -0.0001
          13   -0.0004    0.0001   -0.0000    0.0000   -0.0001    0.0001    0.0000    0.0043
          14    0.0009    0.0001   -0.0001    0.0001   -0.0002    0.0002    0.0001    0.0137
          15   -0.0002   -0.0001   -0.0001    0.0001   -0.0002    0.0002    0.0001    0.0140
          16   -0.0004    0.0001    0.0000    0.0000    0.0001    0.0001   -0.0000   -0.0037
          17   -0.0002    0.0000   -0.0002   -0.0002   -0.0003   -0.0003    0.0001    0.0162
          18   -0.0009   -0.0001   -0.0000   -0.0001   -0.0000   -0.0001    0.0000    0.0048
          19   -0.0000    0.0001    0.0000   -0.0002   -0.0004   -0.0007    0.0207   -0.0000
          20    0.0000   -0.0001    0.0000   -0.0001    0.0005    0.0007   -0.0310    0.0000
          21   -0.0000    0.0001   -0.0001    0.0000   -0.0003   -0.0005    0.0076   -0.0000
          22   -0.0000    0.0001   -0.0000   -0.0002    0.0005   -0.0007   -0.0206    0.0001
          23   -0.0000    0.0000   -0.0001    0.0000   -0.0000    0.0001   -0.0079    0.0000
          24   -0.0000    0.0001    0.0001    0.0001    0.0006   -0.0008   -0.0307    0.0001
          25    0.0004    0.0001   -0.0000   -0.0000   -0.0000    0.0000   -0.0000   -0.0101
          26   -0.0003   -0.0000    0.0000    0.0000    0.0000    0.0000   -0.0000   -0.0027
          27    0.0002    0.0000   -0.0000   -0.0000    0.0000    0.0000   -0.0000   -0.0159
          28    0.0004    0.0001    0.0000   -0.0000    0.0000    0.0000    0.0000    0.0113
          29   -0.0000    0.0000    0.0000    0.0000    0.0000   -0.0000   -0.0000   -0.0172
          30    0.0003    0.0000    0.0000   -0.0000    0.0000   -0.0000   -0.0000    0.0056
          31    0.0416   -0.2005    0.0001    0.0134    0.0001   -0.0022    0.0000   -0.0000
          32    0.0714   -0.3126    0.0031    0.0252   -0.0010   -0.0040    0.0002    0.0000
          33   -0.1196    0.5235    0.0014   -0.0422   -0.0011    0.0066    0.0001    0.0000
          34   -0.2525   -0.0479   -0.0000    0.0012    0.0000   -0.0006    0.0000    0.0000
          35   -0.3538   -0.0616   -0.0007    0.0001   -0.0003   -0.0011    0.0000    0.0009
          36    0.5882    0.1024   -0.0003   -0.0002   -0.0003    0.0018    0.0000    0.0004
          37   -0.0053    0.0265    0.1824    0.1701    0.1437    0.1539    0.0036    0.0018
          38   -0.0075    0.0227    0.1839    0.1715    0.1334    0.1425    0.0018    0.0015
          39    0.0003   -0.0036   -0.0249   -0.0230   -0.0331   -0.0355    0.0002   -0.0002
          40   -0.0025    0.0168    0.0951    0.0879   -0.1248   -0.1338   -0.0015   -0.0005
          41    0.0005   -0.0048   -0.0475   -0.0442    0.0396    0.0423    0.0001    0.0001
          42    0.0054   -0.0344   -0.1791   -0.1658    0.2079    0.2232    0.0051    0.0008
          43   -0.0051    0.0265   -0.1790    0.1728   -0.1594    0.1389   -0.0036   -0.0021
          44    0.0032   -0.0077    0.0643   -0.0623    0.0380   -0.0329    0.0010    0.0007
          45    0.0066   -0.0218    0.1706   -0.1647    0.1477   -0.1285    0.0015    0.0017
          46   -0.0025    0.0169   -0.0937    0.0897    0.1383   -0.1207    0.0015    0.0005
          47   -0.0049    0.0327   -0.1772    0.1700    0.2235   -0.1951    0.0045    0.0008
          48    0.0021   -0.0121    0.0425   -0.0405   -0.0707    0.0618   -0.0023   -0.0003
          49   -0.0003    0.0011   -0.0004   -0.0006    0.0014    0.0081   -0.2474    0.0003
          50    0.0003   -0.0015    0.0001   -0.0005   -0.0029   -0.0133    0.3673   -0.0004
          51   -0.0001    0.0007    0.0001    0.0006    0.0000    0.0022   -0.0922    0.0001
          52   -0.0003    0.0011    0.0004   -0.0007   -0.0023    0.0080    0.2457   -0.0006
          53   -0.0000    0.0001    0.0002   -0.0003   -0.0018    0.0042    0.0923   -0.0002
          54   -0.0003    0.0016    0.0000    0.0007   -0.0039    0.0125    0.3646   -0.0008
          55   -0.0008   -0.0000    0.0003   -0.0003    0.0005   -0.0004   -0.0002   -0.0487
          56   -0.0016   -0.0003    0.0015   -0.0014    0.0023   -0.0020   -0.0007   -0.1636
          57   -0.0036   -0.0007    0.0013   -0.0013    0.0022   -0.0019   -0.0007   -0.1636
          58   -0.0008   -0.0000   -0.0003   -0.0003   -0.0004   -0.0004    0.0002    0.0420
          59    0.0039    0.0007    0.0019    0.0017    0.0027    0.0028   -0.0012   -0.1904
          60   -0.0003   -0.0001    0.0007    0.0006    0.0009    0.0009   -0.0004   -0.0586
          61    0.0028    0.0004   -0.0000   -0.0001   -0.0001   -0.0003    0.0002    0.1184
[...]
 EFF. MASS  10.4799

 VIBRATION   40   40A         ATOM PAIR      ENERGY CONTRIBUTION    RADIAL
 FREQ.      1343.49         C  4 -- C  8          +8.0% ( 43.4%)     81.1%
 T-DIPOLE    0.1634         C  3 -- C  7          +7.9% ( 43.2%)     81.1%
 TRAVEL      0.0756         C  2 -- H 12          +7.6% ( 42.4%)      0.4%
 RED. MASS   1.1814         C  1 -- C  2          +7.5% ( 42.2%)     92.3%
 EFF. MASS   8.7823

 VIBRATION   41   41A         ATOM PAIR      ENERGY CONTRIBUTION    RADIAL
 FREQ.      1371.78         C  3 -- C  7         +12.6% ( 43.6%)     84.9%
 T-DIPOLE    0.0662         C  4 -- C  8         +12.5% ( 43.5%)     84.8%
 TRAVEL      0.0941         C  7 -- C  8         +11.3% ( 41.3%)      0.0%
 RED. MASS   0.5979         C  4 -- H 15         +11.0% ( 40.7%)      0.3%
 EFF. MASS   5.5497         C  3 -- H 13         +11.0% ( 40.7%)      0.3%

 VIBRATION   42   42A         ATOM PAIR      ENERGY CONTRIBUTION    RADIAL
 FREQ.      1396.30         C  9 -- C 10         +13.6% ( 59.9%)    100.0%
 T-DIPOLE    0.5274         C  1 -- C  2         +10.3% ( 52.0%)     88.2%
 TRAVEL      0.0692         C  1 -- C  3          +7.7% ( 45.2%)     32.2%
 RED. MASS   1.4206         C  1 -- C  4          +7.7% ( 45.1%)     32.7%
 EFF. MASS  10.0713

 VIBRATION   43   43A         ATOM PAIR      ENERGY CONTRIBUTION    RADIAL
 FREQ.      1404.37         C  3 -- H 13         +17.3% ( 45.6%)      4.9%
 T-DIPOLE    0.0229         C  4 -- H 15         +17.1% ( 45.4%)      4.9%
 TRAVEL      0.1177         C  3 -- H 14         +16.1% ( 44.0%)      6.0%
 RED. MASS   0.3778         C  4 -- H 16         +16.0% ( 43.8%)      5.9%
 EFF. MASS   3.4674

 VIBRATION   44   44A         ATOM PAIR      ENERGY CONTRIBUTION    RADIAL
 FREQ.      1412.13         C  4 -- C  8         +13.1% ( 47.6%)     94.0%
 T-DIPOLE    0.0558         C  3 -- C  7         +13.0% ( 47.3%)     93.9%
 TRAVEL      0.0872         C  4 -- H 15         +10.1% ( 41.7%)      5.9%
 RED. MASS   0.7155         C  3 -- H 13         +10.0% ( 41.5%)      5.9%
 EFF. MASS   6.2786

 VIBRATION   45   45A         ATOM PAIR      ENERGY CONTRIBUTION    RADIAL
 FREQ.      1424.36         C  9 -- C 10         +12.4% ( 56.8%)    100.0%
 T-DIPOLE    0.0930         C  1 -- C  2         +10.9% ( 53.1%)     81.1%
 TRAVEL      0.0697         C  2 -- C  5          +8.9% ( 48.0%)     61.3%
 RED. MASS   1.4427         C  2 -- C  6          +8.9% ( 48.0%)     61.3%
 EFF. MASS   9.7534

 VIBRATION   46   46A         ATOM PAIR      ENERGY CONTRIBUTION    RADIAL
 FREQ.      1732.72         C  5 -- C 10         +18.2% ( 72.7%)     99.9%
 T-DIPOLE    0.3972         C  6 -- C  9         +18.2% ( 72.6%)     99.9%
 TRAVEL      0.0569         C  6 -- C 10         +10.7% ( 55.7%)     25.9%
 RED. MASS   2.7227         C  5 -- C  9         +10.7% ( 55.7%)     25.9%
 EFF. MASS  12.0251

 VIBRATION   47   47A         ATOM PAIR      ENERGY CONTRIBUTION    RADIAL
 FREQ.      1789.98         C  6 -- C  9         +17.9% ( 70.2%)     99.8%
 T-DIPOLE    0.3005         C  5 -- C 10         +17.9% ( 70.1%)     99.8%
 TRAVEL      0.0565         C  9 -- C 10         +12.1% ( 57.7%)      0.0%
 RED. MASS   2.6859         C  5 -- C  9         +10.9% ( 54.7%)     66.0%
 EFF. MASS  11.7986         C  6 -- C 10         +10.9% ( 54.7%)     66.3%

 VIBRATION   48   48A         ATOM PAIR      ENERGY CONTRIBUTION    RADIAL
 FREQ.      1830.89         C  7 -- C  8         +45.8% (100.0%)    100.0%
 T-DIPOLE    0.1012         C  3 -- C  7         +13.9% ( 55.1%)     25.5%
 TRAVEL      0.0557         C  4 -- C  8         +13.9% ( 55.1%)     25.6%
 RED. MASS   5.3830         C  7 -- H 17         +13.0% ( 53.2%)      9.7%
 EFF. MASS  11.8689         C  8 -- H 18         +13.0% ( 53.2%)      9.7%

 VIBRATION   49   49A         ATOM PAIR      ENERGY CONTRIBUTION    RADIAL
 FREQ.      2885.63         C  2 -- H 12         +93.2% ( 98.1%)    100.0%
 T-DIPOLE    0.1917         C  1 -- H 11          +3.7% ( 19.6%)     99.9%
 TRAVEL      0.1275         C  1 -- C  2          +1.1% ( 10.5%)      9.9%
 RED. MASS   0.8613         C  2 -- C  6          +1.0% ( 10.0%)     10.7%
 EFF. MASS   1.4371

 VIBRATION   50   50A         ATOM PAIR      ENERGY CONTRIBUTION    RADIAL
 FREQ.      2907.17         C  1 -- H 11         +91.9% ( 97.4%)    100.0%
 T-DIPOLE    0.1212         C  2 -- H 12          +3.6% ( 19.4%)     99.9%
 TRAVEL      0.1265         C  1 -- C  4          +1.0% ( 10.3%)      9.0%
 RED. MASS   0.8386         C  1 -- C  3          +1.0% ( 10.3%)      9.0%
 EFF. MASS   1.4498

 VIBRATION   51   51A         ATOM PAIR      ENERGY CONTRIBUTION    RADIAL
 FREQ.      2969.87         C  3 -- H 13         +29.9% ( 56.7%)     97.6%
 T-DIPOLE    0.0131         C  4 -- H 15         +28.8% ( 55.7%)     97.6%
 TRAVEL      0.1216         C  3 -- H 14         +19.9% ( 46.2%)     95.2%
 RED. MASS   0.2686         C  4 -- H 16         +19.2% ( 45.5%)     95.3%
 EFF. MASS   1.5364

 VIBRATION   52   52A         ATOM PAIR      ENERGY CONTRIBUTION    RADIAL
 FREQ.      2971.26         C  4 -- H 15         +29.7% ( 56.4%)     97.7%
 T-DIPOLE    0.0784         C  3 -- H 13         +28.7% ( 55.5%)     97.7%
 TRAVEL      0.1217         C  4 -- H 16         +19.5% ( 45.8%)     95.2%
 RED. MASS   0.2624         C  3 -- H 14         +18.8% ( 44.9%)     95.2%
 EFF. MASS   1.5314

 VIBRATION   53   53A         ATOM PAIR      ENERGY CONTRIBUTION    RADIAL
 FREQ.      3049.88         C  4 -- H 16         +33.1% ( 56.8%)     98.6%
 T-DIPOLE    0.1338         C  3 -- H 14         +27.0% ( 51.3%)     98.6%
 TRAVEL      0.1316         C  4 -- H 15         +21.2% ( 45.5%)     96.0%
 RED. MASS   0.2544         C  3 -- H 13         +17.2% ( 41.0%)     96.0%
 EFF. MASS   1.2774

 VIBRATION   54   54A         ATOM PAIR      ENERGY CONTRIBUTION    RADIAL
 FREQ.      3050.85         C  3 -- H 14         +33.1% ( 56.8%)     98.6%
 T-DIPOLE    0.0492         C  4 -- H 16         +26.9% ( 51.2%)     98.6%
 TRAVEL      0.1308         C  3 -- H 13         +21.1% ( 45.3%)     95.8%
 RED. MASS   0.2537         C  4 -- H 15         +17.2% ( 40.9%)     95.8%
 EFF. MASS   1.2928

 VIBRATION   55   55A         ATOM PAIR      ENERGY CONTRIBUTION    RADIAL
 FREQ.      3116.13         C  7 -- H 17         +49.1% ( 71.1%)    100.0%
 T-DIPOLE    0.3726         C  8 -- H 18         +48.4% ( 70.6%)    100.0%
 TRAVEL      0.1216         C  7 -- C  8          +1.1% ( 10.7%)      0.0%
 RED. MASS   0.4648         C  3 -- C  7          +0.7% (  8.7%)     27.4%
 EFF. MASS   1.4623

 VIBRATION   56   56A         ATOM PAIR      ENERGY CONTRIBUTION    RADIAL
 FREQ.      3129.78         C 10 -- H 22         +28.5% ( 54.7%)    100.0%
 T-DIPOLE    0.1942         C  5 -- H 19         +25.6% ( 51.8%)    100.0%
 TRAVEL      0.1208         C  9 -- H 21         +22.7% ( 48.8%)    100.0%
 RED. MASS   0.2375         C  6 -- H 20         +19.0% ( 44.6%)    100.0%
 EFF. MASS   1.4776

 VIBRATION   57   57A         ATOM PAIR      ENERGY CONTRIBUTION    RADIAL
 FREQ.      3131.21         C  6 -- H 20         +30.1% ( 56.1%)    100.0%
 T-DIPOLE    0.4930         C  5 -- H 19         +24.4% ( 50.5%)    100.0%
 TRAVEL      0.1210         C  9 -- H 21         +24.0% ( 50.2%)    100.0%
 RED. MASS   0.2404         C 10 -- H 22         +17.4% ( 42.7%)    100.0%
 EFF. MASS   1.4710

 VIBRATION   58   58A         ATOM PAIR      ENERGY CONTRIBUTION    RADIAL
 FREQ.      3135.30         C  8 -- H 18         +48.0% ( 70.6%)     99.9%
 T-DIPOLE    0.3586         C  7 -- H 17         +47.4% ( 70.1%)     99.9%
 TRAVEL      0.1141         C  7 -- C  8          +2.5% ( 16.1%)    100.0%
 RED. MASS   0.4652         C  4 -- C  8          +1.0% (  9.9%)     20.6%
 EFF. MASS   1.6523

 VIBRATION   59   59A         ATOM PAIR      ENERGY CONTRIBUTION    RADIAL
 FREQ.      3142.69         C  6 -- H 20         +25.3% ( 51.7%)     99.9%
 T-DIPOLE    0.5193         C  5 -- H 19         +25.2% ( 51.6%)     99.9%
 TRAVEL      0.1157         C 10 -- H 22         +22.5% ( 48.8%)     99.9%
 RED. MASS   0.2345         C  9 -- H 21         +21.2% ( 47.4%)     99.9%
 EFF. MASS   1.6032

 VIBRATION   60   60A         ATOM PAIR      ENERGY CONTRIBUTION    RADIAL
 FREQ.      3153.28         C  9 -- H 21         +26.8% ( 53.3%)    100.0%
 T-DIPOLE    0.2479         C 10 -- H 22         +26.3% ( 52.8%)    100.0%
 TRAVEL      0.1121         C  6 -- H 20         +20.5% ( 46.6%)     99.9%
 RED. MASS   0.2391         C  5 -- H 19         +19.7% ( 45.7%)     99.9%
 EFF. MASS   1.7017

      SYMMETRY NUMBER FOR POINT-GROUP C1  =  1


          SYSTEM IS A GROUND STATE



 InChI=1S/C10H12/c1-2-6-9(5-1)10-7-3-4-8-10/h1-6,9-10H,7-8H2


          MOLECULE IS NOT LINEAR

          THERE ARE 60 GENUINE VIBRATIONS IN THIS SYSTEM
          THIS THERMODYNAMICS CALCULATION IS LIMITED TO
          MOLECULES WHICH HAVE NO INTERNAL ROTATIONS




                    CALCULATED THERMODYNAMIC PROPERTIES
                                          *
   TEMP. (K)   PARTITION FUNCTION   H.O.F.    ENTHALPY  HEAT CAPACITY ENTROPY
                                   KCAL/MOL   CAL/MOLE    CAL/K/MOL  CAL/K/MOL


 298.00  VIB.     0.7434D+02                  3459.8546    27.4623    20.1723
         ROT.     0.5747D+06                   888.2813     2.9808    29.3345
         INT.     0.4272D+08                  4348.1359    30.4431    49.5068
         TRA.     0.1470D+28                  1480.4688     4.9680    40.5480
         TOT.                       43.356    5828.6047    35.4111    90.0548

 200.00  VIB.     0.1216D+02                  1386.4634    15.3344    11.8961
         ROT.     0.3160D+06                   596.1620     2.9808    28.1458
         INT.     0.3842D+07                  1982.6253    18.3152    40.0419
         TRA.     0.8080D+27                   993.6033     4.9680    38.5668
         TOT.                       40.504    2976.2286    23.2833    78.6088

 210.00  VIB.     0.1449D+02                  1545.1632    16.4136    12.6702
         ROT.     0.3400D+06                   625.9700     2.9808    28.2912
         INT.     0.4925D+07                  2171.1333    19.3944    40.9615
         TRA.     0.8694D+27                  1043.2834     4.9680    38.8092
         TOT.                       40.742    3214.4167    24.3624    79.7707

 220.00  VIB.     0.1730D+02                  1714.8904    17.5394    13.4596
         ROT.     0.3646D+06                   655.7781     2.9808    28.4299
         INT.     0.6306D+07                  2370.6685    20.5202    41.8895
         TRA.     0.9322D+27                  1092.9636     4.9680    39.0403
         TOT.                       40.991    3463.6321    25.4882    80.9298

 230.00  VIB.     0.2069D+02                  1896.0965    18.7087    14.2649
         ROT.     0.3897D+06                   685.5862     2.9808    28.5624
         INT.     0.8065D+07                  2581.6827    21.6896    42.8273
         TRA.     0.9965D+27                  1142.6437     4.9680    39.2612
         TOT.                       41.252    3724.3264    26.6576    82.0885

 240.00  VIB.     0.2481D+02                  2089.1968    19.9175    15.0865
         ROT.     0.4154D+06                   715.3943     2.9808    28.6893
         INT.     0.1031D+08                  2804.5912    22.8984    43.7758
         TRA.     0.1062D+28                  1192.3239     4.9680    39.4726
         TOT.                       41.524    3996.9151    27.8664    83.2484

 250.00  VIB.     0.2981D+02                  2294.5639    21.1613    15.9247
         ROT.     0.4416D+06                   745.2024     2.9808    28.8110
         INT.     0.1317D+08                  3039.7663    24.1421    44.7357
         TRA.     0.1129D+28                  1242.0041     4.9680    39.6754
         TOT.                       41.809    4281.7704    29.1101    84.4111

 260.00  VIB.     0.3590D+02                  2512.5229    22.4351    16.7794
         ROT.     0.4684D+06                   775.0105     2.9808    28.9279
         INT.     0.1682D+08                  3287.5334    25.4159    45.7073
         TRA.     0.1198D+28                  1291.6842     4.9680    39.8703
         TOT.                       42.107    4579.2177    30.3839    85.5775

 270.00  VIB.     0.4334D+02                  2743.3498    23.7340    17.6504
         ROT.     0.4957D+06                   804.8186     2.9808    29.0404
         INT.     0.2148D+08                  3548.1684    26.7148    46.6907
         TRA.     0.1267D+28                  1341.3644     4.9680    40.0578
         TOT.                       42.417    4889.5328    31.6828    86.7485

 280.00  VIB.     0.5243D+02                  2987.2702    25.0530    18.5373
         ROT.     0.5235D+06                   834.6267     2.9808    29.1488
         INT.     0.2745D+08                  3821.8969    28.0338    47.6861
         TRA.     0.1338D+28                  1391.0445     4.9680    40.2384
         TOT.                       42.740    5212.9415    33.0018    87.9245

 290.00  VIB.     0.6359D+02                  3244.4604    26.3872    19.4397
         ROT.     0.5518D+06                   864.4348     2.9808    29.2534
         INT.     0.3509D+08                  4108.8952    29.3680    48.6931
         TRA.     0.1411D+28                  1440.7247     4.9680    40.4128
         TOT.                       43.077    5549.6199    34.3360    89.1058

 300.00  VIB.     0.7731D+02                  3515.0487    27.7319    20.3569
         ROT.     0.5805D+06                   894.2429     2.9808    29.3544
         INT.     0.4488D+08                  4409.2916    30.7127    49.7113
         TRA.     0.1484D+28                  1490.4049     4.9680    40.5812
         TOT.                       43.427    5899.6965    35.6807    90.2925

 310.00  VIB.     0.9422D+02                  3799.1180    29.0827    21.2882
         ROT.     0.6098D+06                   924.0510     2.9808    29.4522
         INT.     0.5745D+08                  4723.1690    32.0635    50.7404
         TRA.     0.1559D+28                  1540.0850     4.9680    40.7441
         TOT.                       43.791    6263.2541    37.0315    91.4845

 320.00  VIB.     0.1151D+03                  4096.7089    30.4355    22.2329
         ROT.     0.6395D+06                   953.8591     2.9808    29.5468
         INT.     0.7361D+08                  5050.5680    33.4163    51.7797
         TRA.     0.1635D+28                  1589.7652     4.9680    40.9018
         TOT.                       44.168    6640.3332    38.3843    92.6816

 330.00  VIB.     0.1409D+03                  4407.8227    31.7867    23.1902
         ROT.     0.6698D+06                   983.6672     2.9808    29.6385
         INT.     0.9438D+08                  5391.4899    34.7675    52.8287
         TRA.     0.1713D+28                  1639.4454     4.9680    41.0547
         TOT.                       44.558    7030.9353    39.7355    93.8834

 340.00  VIB.     0.1730D+03                  4732.4253    33.1327    24.1591
         ROT.     0.7004D+06                  1013.4753     2.9808    29.7275
         INT.     0.1211D+09                  5745.9006    36.1136    53.8866
         TRA.     0.1791D+28                  1689.1255     4.9680    41.2030
         TOT.                       44.963    7435.0262    41.0816    95.0896

 350.00  VIB.     0.2128D+03                  5070.4506    34.4707    25.1389
         ROT.     0.7316D+06                  1043.2834     2.9808    29.8139
         INT.     0.1557D+09                  6113.7340    37.4515    54.9528
         TRA.     0.1871D+28                  1738.8057     4.9680    41.3470
         TOT.                       45.380    7852.5397    42.4196    96.2998

 360.00  VIB.     0.2623D+03                  5421.8041    35.7980    26.1286
         ROT.     0.7631D+06                  1073.0915     2.9808    29.8979
         INT.     0.2002D+09                  6494.8957    38.7788    56.0265
         TRA.     0.1951D+28                  1788.4859     4.9680    41.4870
         TOT.                       45.811    8283.3815    43.7468    97.5134

 370.00  VIB.     0.3242D+03                  5786.3665    37.1121    27.1274
         ROT.     0.7951D+06                  1102.8996     2.9808    29.9796
         INT.     0.2578D+09                  6889.2661    40.0930    57.1069
         TRA.     0.2033D+28                  1838.1660     4.9680    41.6231
         TOT.                       46.255    8727.4322    45.0610    98.7300

 380.00  VIB.     0.4014D+03                  6163.9969    38.4113    28.1344
         ROT.     0.8276D+06                  1132.7077     2.9808    30.0591
         INT.     0.3322D+09                  7296.7046    41.3921    58.1934
         TRA.     0.2116D+28                  1887.8462     4.9680    41.7556
         TOT.                       46.712    9184.5508    46.3601    99.9490

 390.00  VIB.     0.4981D+03                  6554.5359    39.6936    29.1487
         ROT.     0.8605D+06                  1162.5158     2.9808    30.1365
         INT.     0.4286D+09                  7717.0517    42.6744    59.2852
         TRA.     0.2200D+28                  1937.5263     4.9680    41.8846
         TOT.                       47.182    9654.5780    47.6424   101.1698

 400.00  VIB.     0.6194D+03                  6957.8086    40.9578    30.1697
         ROT.     0.8938D+06                  1192.3239     2.9808    30.2120
         INT.     0.5536D+09                  8150.1325    43.9386    60.3816
         TRA.     0.2285D+28                  1987.2065     4.9680    42.0104
         TOT.                       47.665   10137.3390    48.9066   102.3920

   *: NOTE: HEATS OF FORMATION ARE RELATIVE TO THE
            ELEMENTS IN THEIR STANDARD STATE AT 298K
              (=  Standard Enthalpy of Formation).

            Hvib:  Zero-point energy is not included.
                   frequencies of less than zero cm-1 are not included.
            Hrot = (3/2)RT
            Htra = (3/2)RT + pV = (5/2)RT

            Heat capacity is Cp, not Cv

          For more information, see: HTTP://OpenMOPAC.net/Manual/thermochemistry.html


           FORCE CONSTANT IN CARTESIAN COORDINATES (Millidynes/A)

    ATOM   CHEMICAL       X               Y               Z
   NUMBER   SYMBOL  FORCE CONSTANT  FORCE CONSTANT  FORCE CONSTANT

      1       C        8.535636        7.537417        8.321926
      2       C        8.678079        8.159212        8.693286
      3       C        8.173628        7.993170        8.979415
      4       C        8.174267        9.423633        7.552310
      5       C        6.743182        8.682735       11.302706
      6       C        6.752317       12.724776        7.265044
      7       C        5.864208       13.782348        7.862800
      8       C        5.861732       11.996898        9.643419
      9       C        7.458948        9.805910       10.214727
     10       C        7.456877       10.321177        9.701056
     11       H        1.093037        1.647465        3.344496
     12       H        1.147782        1.545042        3.196740
     13       H        2.888886        2.799428        0.714996
     14       H        1.685254        0.863539        3.849685
     15       H        2.887136        0.883334        2.632902
     16       H        1.687075        3.754763        0.956069
     17       H        1.906863        3.745563        0.778392
     18       H        1.905651        0.869386        3.654396
     19       H        0.689080        2.905110        2.856338
     20       H        0.691590        4.778198        0.983334
     21       H        1.825831        0.754665        3.881540
     22       H        1.828667        3.700335        0.932313

 **********************
 *                    *
 * JOB ENDED NORMALLY *
 *                    *
 **********************



 TOTAL JOB TIME:             2.12 SECONDS

 == MOPAC DONE ==
