 *******************************************************************************
 ** Site#: 14399        For non-commercial use only    Version 18.184L 64BITS **
 *******************************************************************************
 ** Cite this program as: MOPAC2016, Version: 18.184L, James J. P. Stewart,   **
 ** Stewart Computational Chemistry, web: HTTP://OpenMOPAC.net. Days left:  18**
 *******************************************************************************
 **                                                                           **
 **                                MOPAC2016                                  **
 **                                                                           **
 *******************************************************************************

                              PM3 CALCULATION RESULTS

 *******************************************************************************
 *  CALCULATION DONE:                                Sat Jun 15 10:17:54 2019  *
 *  PM3        - The PM3 Hamiltonian to be used
 *  PRECISE    - CRITERIA TO BE INCREASED BY 100 TIMES
 *  NOSYM      - POINT-GROUP SYMMETRY SET TO C1
 *  THREADS=1  - MULTI-THREADING NOT USED
 *  T=         - A TIME OF 172800.0 SECONDS REQUESTED
 *  DUMP=N     - RESTART FILE WRITTEN EVERY  7200.000 SECONDS
 *******************************************************************************
pm3  precise nosym THREADS=1
 InChI=1S/C7H10/c1-5-2-6-4-7(6)3-5/h2,6-7H,3-4H2,1H3

   ATOM   CHEMICAL          X               Y               Z
  NUMBER   SYMBOL      (ANGSTROMS)     (ANGSTROMS)     (ANGSTROMS)
 
     1       C         -1.28120000  *  -0.56300000  *  -0.64860000  *
     2       C         -1.12640000  *   0.95410000  *  -0.58910000  *
     3       C         -2.08260000  *   0.24530000  *   0.36110000  *
     4       C          0.04520000  *  -1.16160000  *  -0.16950000  *
     5       C          2.31790000  *  -0.06120000  *   0.60210000  *
     6       C          0.90530000  *   0.02200000  *   0.11150000  *
     7       C          0.26700000  *   1.16420000  *  -0.10190000  *
     8       H         -1.79090000  *  -0.92860000  *  -1.56580000  *
     9       H         -1.49260000  *   1.43620000  *  -1.52020000  *
    10       H         -1.73880000  *   0.17400000  *   1.41600000  *
    11       H         -3.15260000  *   0.37130000  *   0.09490000  *
    12       H         -0.10310000  *  -1.76890000  *   0.74870000  *
    13       H          0.49850000  *  -1.78020000  *  -0.97250000  *
    14       H          2.40250000  *   0.43980000  *   1.58930000  *
    15       H          2.62540000  *  -1.12250000  *   0.71080000  *
    16       H          2.99640000  *   0.43670000  *  -0.12210000  *
    17       H          0.71000000  *   2.14240000  *   0.05540000  *
 


          CARTESIAN COORDINATES 

    NO.       ATOM           X           Y           Z

     1         C         -1.2812     -0.5630     -0.6486
     2         C         -1.1264      0.9541     -0.5891
     3         C         -2.0826      0.2453      0.3611
     4         C          0.0452     -1.1616     -0.1695
     5         C          2.3179     -0.0612      0.6021
     6         C          0.9053      0.0220      0.1115
     7         C          0.2670      1.1642     -0.1019
     8         H         -1.7909     -0.9286     -1.5658
     9         H         -1.4926      1.4362     -1.5202
    10         H         -1.7388      0.1740      1.4160
    11         H         -3.1526      0.3713      0.0949
    12         H         -0.1031     -1.7689      0.7487
    13         H          0.4985     -1.7802     -0.9725
    14         H          2.4025      0.4398      1.5893
    15         H          2.6254     -1.1225      0.7108
    16         H          2.9964      0.4367     -0.1221
    17         H          0.7100      2.1424      0.0554

  H: (PM3): J. J. P. STEWART, J. COMP. CHEM. 10, 209 (1989).
  C: (PM3): J. J. P. STEWART, J. COMP. CHEM. 10, 209 (1989).

           Empirical Formula: C7 H10  =    17 atoms



      MOLECULAR POINT GROUP   :   C1  


      RHF CALCULATION, NO. OF DOUBLY OCCUPIED LEVELS = 19


          Geometry optimization using EF

          DIAGONAL MATRIX USED AS START HESSIAN

 CYCLE:     1 TIME:   0.004 TIME LEFT:  2.00D  GRAD.:    90.515 HEAT:  36.80140
 CYCLE:     2 TIME:   0.004 TIME LEFT:  2.00D  GRAD.:   147.849 HEAT:  36.49217
 CYCLE:     3 TIME:   0.004 TIME LEFT:  2.00D  GRAD.:    71.536 HEAT:  32.49140
 CYCLE:     4 TIME:   0.004 TIME LEFT:  2.00D  GRAD.:    79.085 HEAT:  31.45165
 CYCLE:     5 TIME:   0.004 TIME LEFT:  2.00D  GRAD.:    92.820 HEAT:  31.30454
 CYCLE:     6 TIME:   0.004 TIME LEFT:  2.00D  GRAD.:    65.930 HEAT:  30.09567
 CYCLE:     7 TIME:   0.004 TIME LEFT:  2.00D  GRAD.:    62.193 HEAT:  29.76851
 CYCLE:     8 TIME:   0.004 TIME LEFT:  2.00D  GRAD.:    28.490 HEAT:  28.79490
 CYCLE:     9 TIME:   0.004 TIME LEFT:  2.00D  GRAD.:    16.914 HEAT:  28.57079
 CYCLE:    10 TIME:   0.004 TIME LEFT:  2.00D  GRAD.:    14.513 HEAT:  28.40937
 CYCLE:    11 TIME:   0.004 TIME LEFT:  2.00D  GRAD.:    21.181 HEAT:  28.35177
 CYCLE:    12 TIME:   0.004 TIME LEFT:  2.00D  GRAD.:    21.074 HEAT:  28.27472
 CYCLE:    13 TIME:   0.000 TIME LEFT:  2.00D  GRAD.:    19.325 HEAT:  28.25936
 CYCLE:    14 TIME:   0.008 TIME LEFT:  2.00D  GRAD.:     8.863 HEAT:  28.15574
 CYCLE:    15 TIME:   0.004 TIME LEFT:  2.00D  GRAD.:     5.861 HEAT:  28.13617
 CYCLE:    16 TIME:   0.004 TIME LEFT:  2.00D  GRAD.:     5.505 HEAT:  28.12872
 CYCLE:    17 TIME:   0.004 TIME LEFT:  2.00D  GRAD.:     8.332 HEAT:  28.12414
 CYCLE:    18 TIME:   0.000 TIME LEFT:  2.00D  GRAD.:     4.978 HEAT:  28.10934
 CYCLE:    19 TIME:   0.004 TIME LEFT:  2.00D  GRAD.:     4.813 HEAT:  28.09634
 CYCLE:    20 TIME:   0.004 TIME LEFT:  2.00D  GRAD.:     3.899 HEAT:  28.08015
 CYCLE:    21 TIME:   0.004 TIME LEFT:  2.00D  GRAD.:     2.745 HEAT:  28.06410
 CYCLE:    22 TIME:   0.000 TIME LEFT:  2.00D  GRAD.:     3.756 HEAT:  28.05173
 CYCLE:    23 TIME:   0.004 TIME LEFT:  2.00D  GRAD.:     2.926 HEAT:  28.04774
 CYCLE:    24 TIME:   0.004 TIME LEFT:  2.00D  GRAD.:     1.580 HEAT:  28.04402
 CYCLE:    25 TIME:   0.004 TIME LEFT:  2.00D  GRAD.:     1.096 HEAT:  28.04280
 CYCLE:    26 TIME:   0.000 TIME LEFT:  2.00D  GRAD.:     0.713 HEAT:  28.04167
 CYCLE:    27 TIME:   0.004 TIME LEFT:  2.00D  GRAD.:     0.747 HEAT:  28.04032
 CYCLE:    28 TIME:   0.004 TIME LEFT:  2.00D  GRAD.:     0.528 HEAT:  28.03980
 CYCLE:    29 TIME:   0.004 TIME LEFT:  2.00D  GRAD.:     0.409 HEAT:  28.03950
 CYCLE:    30 TIME:   0.004 TIME LEFT:  2.00D  GRAD.:     0.288 HEAT:  28.03937
 CYCLE:    31 TIME:   0.000 TIME LEFT:  2.00D  GRAD.:     0.196 HEAT:  28.03931
 CYCLE:    32 TIME:   0.004 TIME LEFT:  2.00D  GRAD.:     0.240 HEAT:  28.03919
 CYCLE:    33 TIME:   0.004 TIME LEFT:  2.00D  GRAD.:     0.332 HEAT:  28.03905
 CYCLE:    34 TIME:   0.004 TIME LEFT:  2.00D  GRAD.:     0.329 HEAT:  28.03890
 CYCLE:    35 TIME:   0.000 TIME LEFT:  2.00D  GRAD.:     0.271 HEAT:  28.03874
 CYCLE:    36 TIME:   0.004 TIME LEFT:  2.00D  GRAD.:     0.284 HEAT:  28.03858
 CYCLE:    37 TIME:   0.004 TIME LEFT:  2.00D  GRAD.:     0.317 HEAT:  28.03839
 CYCLE:    38 TIME:   0.004 TIME LEFT:  2.00D  GRAD.:     0.299 HEAT:  28.03818
 CYCLE:    39 TIME:   0.000 TIME LEFT:  2.00D  GRAD.:     0.229 HEAT:  28.03802
 CYCLE:    40 TIME:   0.004 TIME LEFT:  2.00D  GRAD.:     0.193 HEAT:  28.03791
 CYCLE:    41 TIME:   0.004 TIME LEFT:  2.00D  GRAD.:     0.183 HEAT:  28.03785
 CYCLE:    42 TIME:   0.004 TIME LEFT:  2.00D  GRAD.:     0.156 HEAT:  28.03779
 CYCLE:    43 TIME:   0.004 TIME LEFT:  2.00D  GRAD.:     0.149 HEAT:  28.03771
 CYCLE:    44 TIME:   0.000 TIME LEFT:  2.00D  GRAD.:     0.157 HEAT:  28.03765
 CYCLE:    45 TIME:   0.004 TIME LEFT:  2.00D  GRAD.:     0.166 HEAT:  28.03757
 CYCLE:    46 TIME:   0.004 TIME LEFT:  2.00D  GRAD.:     0.196 HEAT:  28.03748
 CYCLE:    47 TIME:   0.004 TIME LEFT:  2.00D  GRAD.:     0.268 HEAT:  28.03732
 CYCLE:    48 TIME:   0.000 TIME LEFT:  2.00D  GRAD.:     0.350 HEAT:  28.03710
 CYCLE:    49 TIME:   0.004 TIME LEFT:  2.00D  GRAD.:     0.481 HEAT:  28.03653
 CYCLE:    50 TIME:   0.004 TIME LEFT:  2.00D  GRAD.:     0.720 HEAT:  28.03599
 CYCLE:    51 TIME:   0.004 TIME LEFT:  2.00D  GRAD.:     0.641 HEAT:  28.03535
 CYCLE:    52 TIME:   0.004 TIME LEFT:  2.00D  GRAD.:     0.806 HEAT:  28.03301
 CYCLE:    53 TIME:   0.000 TIME LEFT:  2.00D  GRAD.:     3.531 HEAT:  28.03072
 CYCLE:    54 TIME:   0.004 TIME LEFT:  2.00D  GRAD.:     2.170 HEAT:  28.02608
 CYCLE:    55 TIME:   0.004 TIME LEFT:  2.00D  GRAD.:     2.158 HEAT:  28.01950
 CYCLE:    56 TIME:   0.004 TIME LEFT:  2.00D  GRAD.:     6.030 HEAT:  28.01285
 CYCLE:    57 TIME:   0.004 TIME LEFT:  2.00D  GRAD.:     3.211 HEAT:  28.00739
 CYCLE:    58 TIME:   0.004 TIME LEFT:  2.00D  GRAD.:     1.254 HEAT:  27.99562
 CYCLE:    59 TIME:   0.004 TIME LEFT:  2.00D  GRAD.:     2.806 HEAT:  27.98587
 CYCLE:    60 TIME:   0.004 TIME LEFT:  2.00D  GRAD.:     7.087 HEAT:  27.98132
 CYCLE:    61 TIME:   0.000 TIME LEFT:  2.00D  GRAD.:     1.497 HEAT:  27.96741
 CYCLE:    62 TIME:   0.004 TIME LEFT:  2.00D  GRAD.:     1.861 HEAT:  27.95593
 CYCLE:    63 TIME:   0.004 TIME LEFT:  2.00D  GRAD.:     8.522 HEAT:  27.94766
 CYCLE:    64 TIME:   0.004 TIME LEFT:  2.00D  GRAD.:     2.321 HEAT:  27.92943
 CYCLE:    65 TIME:   0.000 TIME LEFT:  2.00D  GRAD.:     2.377 HEAT:  27.91840
 CYCLE:    66 TIME:   0.008 TIME LEFT:  2.00D  GRAD.:     4.745 HEAT:  27.89198
 CYCLE:    67 TIME:   0.004 TIME LEFT:  2.00D  GRAD.:     5.505 HEAT:  27.87254
 CYCLE:    68 TIME:   0.000 TIME LEFT:  2.00D  GRAD.:     5.293 HEAT:  27.85538
 CYCLE:    69 TIME:   0.004 TIME LEFT:  2.00D  GRAD.:     5.591 HEAT:  27.82678
 CYCLE:    70 TIME:   0.004 TIME LEFT:  2.00D  GRAD.:     2.771 HEAT:  27.81201
 CYCLE:    71 TIME:   0.004 TIME LEFT:  2.00D  GRAD.:     3.331 HEAT:  27.78379
 CYCLE:    72 TIME:   0.000 TIME LEFT:  2.00D  GRAD.:     4.403 HEAT:  27.76311
 CYCLE:    73 TIME:   0.004 TIME LEFT:  2.00D  GRAD.:     3.075 HEAT:  27.74847
 CYCLE:    74 TIME:   0.004 TIME LEFT:  2.00D  GRAD.:     3.981 HEAT:  27.72520
 CYCLE:    75 TIME:   0.004 TIME LEFT:  2.00D  GRAD.:     2.736 HEAT:  27.70937
 CYCLE:    76 TIME:   0.004 TIME LEFT:  2.00D  GRAD.:     6.476 HEAT:  27.70710
 CYCLE:    77 TIME:   0.004 TIME LEFT:  2.00D  GRAD.:     1.915 HEAT:  27.68674
 CYCLE:    78 TIME:   0.000 TIME LEFT:  2.00D  GRAD.:     1.564 HEAT:  27.67677
 CYCLE:    79 TIME:   0.004 TIME LEFT:  2.00D  GRAD.:     4.463 HEAT:  27.65723
 CYCLE:    80 TIME:   0.004 TIME LEFT:  2.00D  GRAD.:     2.580 HEAT:  27.64715
 CYCLE:    81 TIME:   0.004 TIME LEFT:  2.00D  GRAD.:     1.406 HEAT:  27.63829
 CYCLE:    82 TIME:   0.004 TIME LEFT:  2.00D  GRAD.:     4.199 HEAT:  27.63073
 CYCLE:    83 TIME:   0.000 TIME LEFT:  2.00D  GRAD.:     1.484 HEAT:  27.62388
 CYCLE:    84 TIME:   0.004 TIME LEFT:  2.00D  GRAD.:     0.998 HEAT:  27.62044
 CYCLE:    85 TIME:   0.004 TIME LEFT:  2.00D  GRAD.:     2.099 HEAT:  27.61632
 CYCLE:    86 TIME:   0.004 TIME LEFT:  2.00D  GRAD.:     2.078 HEAT:  27.61297
 CYCLE:    87 TIME:   0.000 TIME LEFT:  2.00D  GRAD.:     1.129 HEAT:  27.60557
 CYCLE:    88 TIME:   0.004 TIME LEFT:  2.00D  GRAD.:     0.976 HEAT:  27.60371
 CYCLE:    89 TIME:   0.004 TIME LEFT:  2.00D  GRAD.:     0.675 HEAT:  27.60244
 CYCLE:    90 TIME:   0.004 TIME LEFT:  2.00D  GRAD.:     1.441 HEAT:  27.60234
 CYCLE:    91 TIME:   0.000 TIME LEFT:  2.00D  GRAD.:     0.596 HEAT:  27.60124
 CYCLE:    92 TIME:   0.004 TIME LEFT:  2.00D  GRAD.:     0.390 HEAT:  27.60061
 CYCLE:    93 TIME:   0.004 TIME LEFT:  2.00D  GRAD.:     0.558 HEAT:  27.59960
 CYCLE:    94 TIME:   0.000 TIME LEFT:  2.00D  GRAD.:     0.662 HEAT:  27.59906
 CYCLE:    95 TIME:   0.004 TIME LEFT:  2.00D  GRAD.:     0.763 HEAT:  27.59838
 CYCLE:    96 TIME:   0.004 TIME LEFT:  2.00D  GRAD.:     0.386 HEAT:  27.59801
 CYCLE:    97 TIME:   0.004 TIME LEFT:  2.00D  GRAD.:     0.316 HEAT:  27.59775
 CYCLE:    98 TIME:   0.004 TIME LEFT:  2.00D  GRAD.:     0.228 HEAT:  27.59766
 CYCLE:    99 TIME:   0.000 TIME LEFT:  2.00D  GRAD.:     0.245 HEAT:  27.59749
 CYCLE:   100 TIME:   0.004 TIME LEFT:  2.00D  GRAD.:     0.148 HEAT:  27.59745
 CYCLE:   101 TIME:   0.004 TIME LEFT:  2.00D  GRAD.:     0.136 HEAT:  27.59742
 CYCLE:   102 TIME:   0.004 TIME LEFT:  2.00D  GRAD.:     0.053 HEAT:  27.59740
 CYCLE:   103 TIME:   0.000 TIME LEFT:  2.00D  GRAD.:     0.031 HEAT:  27.59740

     GRADIENT =  0.03146  IS LESS THAN CUTOFF =  0.05000



 -------------------------------------------------------------------------------
 pm3  precise nosym THREADS=1
 InChI=1S/C7H10/c1-5-2-6-4-7(6)3-5/h2,6-7H,3-4H2,1H3



     GEOMETRY OPTIMISED USING EIGENVECTOR FOLLOWING (EF).     
     SCF FIELD WAS ACHIEVED                                   


                              PM3 CALCULATION
                                                       MOPAC2016 (Version: 18.184L)
                                                       Sat Jun 15 10:17:54 2019
                                                       No. of days remaining =  18




          FINAL HEAT OF FORMATION =         27.59740 KCAL/MOL =     115.46753 KJ/MOL


          TOTAL ENERGY            =       -982.61296 EV
          ELECTRONIC ENERGY       =      -4618.19250 EV  POINT GROUP:     C1  
          CORE-CORE REPULSION     =       3635.57954 EV
          COSMO AREA              =        142.45 SQUARE ANGSTROMS
          COSMO VOLUME            =        135.49 CUBIC ANGSTROMS

          GRADIENT NORM           =          0.03146 = 0.00763 PER ATOM
          IONIZATION POTENTIAL    =          9.327319 EV
          HOMO LUMO ENERGIES (EV) =         -9.327  0.930
          NO. OF FILLED LEVELS    =         19
          MOLECULAR WEIGHT        =         94.1560

          MOLECULAR DIMENSIONS (Angstroms)

            Atom       Atom       Distance
            H    15    H    11     6.11609
            H    17    H    12     4.12634
            H     8    H    14     3.37882


          SCF CALCULATIONS        =        113
 
          WALL-CLOCK TIME         =          0.336 SECONDS
          COMPUTATION TIME        =          0.300 SECONDS




   ATOM   CHEMICAL          X               Y               Z
  NUMBER   SYMBOL      (ANGSTROMS)     (ANGSTROMS)     (ANGSTROMS)
 
     1       C         -1.27909947  *  -0.59124276  *  -0.60666997  *
     2       C         -1.10930995  *   0.91884090  *  -0.67998881  *
     3       C         -2.04026046  *   0.30263783  *   0.33253821  *
     4       C          0.03353674  *  -1.16312002  *  -0.09217529  *
     5       C          2.29092473  *  -0.08903416  *   0.60138827  *
     6       C          0.90989764  *   0.04945922  *   0.10786458  *
     7       C          0.27385858  *   1.19352783  *  -0.20850083  *
     8       H         -1.80705599  *  -1.18084862  *  -1.36787692  *
     9       H         -1.49244216  *   1.54674636  *  -1.49513234  *
    10       H         -1.79011352  *   0.32374045  *   1.39943818  *
    11       H         -3.12122905  *   0.41918323  *   0.20018038  *
    12       H         -0.10098705  *  -1.72177678  *   0.85212317  *
    13       H          0.48766560  *  -1.86316139  *  -0.81645566  *
    14       H          2.30275641  *  -0.55339789  *   1.59673049  *
    15       H          2.88025416  *  -0.72785325  *  -0.07019511  *
    16       H          2.79903213  *   0.88079122  *   0.67622224  *
    17       H          0.67834805  *   2.20335497  *  -0.15685705  *

                             CARTESIAN COORDINATES

   1    C       -1.279099465    -0.591242757    -0.606669968
   2    C       -1.109309949     0.918840900    -0.679988808
   3    C       -2.040260457     0.302637832     0.332538215
   4    C        0.033536738    -1.163120025    -0.092175292
   5    C        2.290924732    -0.089034165     0.601388275
   6    C        0.909897635     0.049459216     0.107864583
   7    C        0.273858582     1.193527830    -0.208500827
   8    H       -1.807055989    -1.180848617    -1.367876920
   9    H       -1.492442163     1.546746357    -1.495132344
  10    H       -1.790113520     0.323740447     1.399438182
  11    H       -3.121229053     0.419183232     0.200180375
  12    H       -0.100987052    -1.721776778     0.852123170
  13    H        0.487665604    -1.863161392    -0.816455660
  14    H        2.302756413    -0.553397894     1.596730492
  15    H        2.880254161    -0.727853250    -0.070195108
  16    H        2.799032135     0.880791221     0.676222241
  17    H        0.678348054     2.203354966    -0.156857052


           Empirical Formula: C7 H10  =    17 atoms



      MOLECULAR POINT GROUP   :   C1  


                  EIGENVALUES  
 -41.83589 -33.26866 -27.74160 -26.59024 -21.38414 -19.76449 -18.57963 -17.45366
 -15.74293 -14.70352 -14.51191 -14.02623 -13.47484 -12.98831 -12.60496 -12.13193
 -11.96884 -11.04977  -9.32732   0.93040   2.95157   3.17952   3.28057   3.46298
   3.62520   3.89562   4.00212   4.07124   4.27884   4.38260   4.42485   4.53873
   4.63539   4.95222   5.03261   5.28899   5.68861   6.06493


              NET ATOMIC CHARGES AND DIPOLE CONTRIBUTIONS

  ATOM NO.   TYPE          CHARGE      No. of ELECS.   s-Pop       p-Pop       
    1          C          -0.149891        4.1499     1.18622     2.96367
    2          C          -0.106994        4.1070     1.17305     2.93394
    3          C          -0.132364        4.1324     1.16283     2.96953
    4          C          -0.028993        4.0290     1.14720     2.88180
    5          C          -0.051769        4.0518     1.11772     2.93405
    6          C          -0.137246        4.1372     1.20856     2.92869
    7          C          -0.129223        4.1292     1.19311     2.93611
    8          H           0.103154        0.8968     0.89685
    9          H           0.104635        0.8954     0.89536
   10          H           0.081937        0.9181     0.91806
   11          H           0.075319        0.9247     0.92468
   12          H           0.062881        0.9371     0.93712
   13          H           0.058891        0.9411     0.94111
   14          H           0.044712        0.9553     0.95529
   15          H           0.045225        0.9548     0.95477
   16          H           0.042827        0.9572     0.95717
   17          H           0.116898        0.8831     0.88310
 DIPOLE           X         Y         Z       TOTAL
 POINT-CHG.     0.149    -0.263     0.096     0.317
 HYBRID        -0.023     0.005     0.004     0.024
 SUM            0.126    -0.258     0.099     0.303


          ATOMIC ORBITAL ELECTRON POPULATIONS

     Atom    s        px        py        pz   
    1  C   1.18622   0.99319   0.93945   1.03103
    2  C   1.17305   0.95803   0.95978   1.01614
    3  C   1.16283   0.97235   1.03034   0.96684
    4  C   1.14720   0.92691   0.95254   1.00235
    5  C   1.11772   0.92958   1.00956   0.99492
    6  C   1.20856   0.96170   0.96021   1.00678
    7  C   1.19311   0.95081   0.96982   1.01548
    8  H   0.89685
    9  H   0.89536
   10  H   0.91806
   11  H   0.92468
   12  H   0.93712
   13  H   0.94111
   14  H   0.95529
   15  H   0.95477
   16  H   0.95717
   17  H   0.88310
 *******************************************************************************
 ** Site#: 14399        For non-commercial use only    Version 18.184L 64BITS **
 *******************************************************************************
 ** Cite this program as: MOPAC2016, Version: 18.184L, James J. P. Stewart,   **
 ** Stewart Computational Chemistry, web: HTTP://OpenMOPAC.net. Days left:  18**
 *******************************************************************************
 **                                                                           **
 **                                MOPAC2016                                  **
 **                                                                           **
 *******************************************************************************

                              PM3 CALCULATION RESULTS

 *******************************************************************************
 *  CALCULATION DONE:                                Sat Jun 15 10:17:54 2019  *
 *  PM3        - The PM3 Hamiltonian to be used
 *  OLDGEO     - PREVIOUS GEOMETRY TO BE USED
 *  PRECISE    - CRITERIA TO BE INCREASED BY 100 TIMES
 *  NOSYM      - POINT-GROUP SYMMETRY SET TO C1
 *  THREADS=1  - MULTI-THREADING NOT USED
 *  T=         - A TIME OF 172800.0 SECONDS REQUESTED
 *  DUMP=N     - RESTART FILE WRITTEN EVERY  7200.000 SECONDS
 *  THERMO     - THERMODYNAMIC QUANTITIES TO BE CALCULATED
 *******************************************************************************
oldgeo thermo nosym precise THREADS=1  pm3
 InChI=1S/C7H10/c1-5-2-6-4-7(6)3-5/h2,6-7H,3-4H2,1H3

   ATOM   CHEMICAL          X               Y               Z
  NUMBER   SYMBOL      (ANGSTROMS)     (ANGSTROMS)     (ANGSTROMS)
 
     1       C         -1.27909947  *  -0.59124276  *  -0.60666997  *
     2       C         -1.10930995  *   0.91884090  *  -0.67998881  *
     3       C         -2.04026046  *   0.30263783  *   0.33253821  *
     4       C          0.03353674  *  -1.16312002  *  -0.09217529  *
     5       C          2.29092473  *  -0.08903416  *   0.60138827  *
     6       C          0.90989764  *   0.04945922  *   0.10786458  *
     7       C          0.27385858  *   1.19352783  *  -0.20850083  *
     8       H         -1.80705599  *  -1.18084862  *  -1.36787692  *
     9       H         -1.49244216  *   1.54674636  *  -1.49513234  *
    10       H         -1.79011352  *   0.32374045  *   1.39943818  *
    11       H         -3.12122905  *   0.41918323  *   0.20018038  *
    12       H         -0.10098705  *  -1.72177678  *   0.85212317  *
    13       H          0.48766560  *  -1.86316139  *  -0.81645566  *
    14       H          2.30275641  *  -0.55339789  *   1.59673049  *
    15       H          2.88025416  *  -0.72785325  *  -0.07019511  *
    16       H          2.79903213  *   0.88079122  *   0.67622224  *
    17       H          0.67834805  *   2.20335497  *  -0.15685705  *
 


          CARTESIAN COORDINATES 

    NO.       ATOM           X           Y           Z

     1         C         -1.2791     -0.5912     -0.6067
     2         C         -1.1093      0.9188     -0.6800
     3         C         -2.0403      0.3026      0.3325
     4         C          0.0335     -1.1631     -0.0922
     5         C          2.2909     -0.0890      0.6014
     6         C          0.9099      0.0495      0.1079
     7         C          0.2739      1.1935     -0.2085
     8         H         -1.8071     -1.1808     -1.3679
     9         H         -1.4924      1.5467     -1.4951
    10         H         -1.7901      0.3237      1.3994
    11         H         -3.1212      0.4192      0.2002
    12         H         -0.1010     -1.7218      0.8521
    13         H          0.4877     -1.8632     -0.8165
    14         H          2.3028     -0.5534      1.5967
    15         H          2.8803     -0.7279     -0.0702
    16         H          2.7990      0.8808      0.6762
    17         H          0.6783      2.2034     -0.1569

  H: (PM3): J. J. P. STEWART, J. COMP. CHEM. 10, 209 (1989).
  C: (PM3): J. J. P. STEWART, J. COMP. CHEM. 10, 209 (1989).

           Empirical Formula: C7 H10  =    17 atoms



      MOLECULAR POINT GROUP   :   C1  


      RHF CALCULATION, NO. OF DOUBLY OCCUPIED LEVELS = 19



          HEAT OF FORMATION =      27.597403 KCALS/MOLE


          CARTESIAN COORDINATE DERIVATIVES

   NUMBER  ATOM         X            Y            Z

     1       C     -0.001048    -0.005032     0.001019
     2       C      0.000021     0.001138     0.004518
     3       C     -0.002936    -0.003140    -0.002313
     4       C     -0.000010    -0.001908     0.001732
     5       C     -0.004809     0.000000    -0.004711
     6       C      0.007974    -0.005935    -0.002252
     7       C     -0.002303     0.002633     0.001354
     8       H     -0.002560     0.005657    -0.003499
     9       H     -0.000132    -0.005907     0.007929
    10       H     -0.005344     0.001316     0.003163
    11       H     -0.000093    -0.000132     0.001252
    12       H      0.001013     0.005513    -0.004018
    13       H     -0.001665    -0.001570     0.002546
    14       H     -0.000303     0.003653     0.003103
    15       H      0.001101     0.008290    -0.013909
    16       H      0.009095    -0.000896    -0.000546
    17       H      0.002000    -0.003680     0.004631
 


          GRADIENT NORM =   0.03003


          TIME FOR SCF CALCULATION =    0.00

          TIME FOR DERIVATIVES     =    0.00

          MOLECULAR WEIGHT =   94.16



          ROTATIONAL CONSTANTS IN CM(-1)

          A =    0.19789332   B =    0.07474138   C =    0.06244924



           PRINCIPAL MOMENTS OF INERTIA IN UNITS OF 10**(-40)*GRAM-CM**2

          A =      141.4539   B =      374.5284   C =      448.2484


          ORIENTATION OF MOLECULE IN FORCE CALCULATION

    NO.       ATOM         X         Y         Z

     1          C      -0.7627    0.2794   -1.2035
     2          C       0.7587    0.2794   -1.2035
     3          C      -0.0056    1.5784   -1.2035
     4          C      -1.2086   -0.2514    0.1508
     5          C       0.0760   -1.0823    2.2460
     6          C       0.0831   -0.5387    0.8769
     7          C       1.1630   -0.2368    0.1310
     8          H      -1.3702   -0.0133   -2.0702
     9          H       1.3785   -0.0146   -2.0608
    10          H      -0.0082    2.2192   -0.3144
    11          H      -0.0042    2.1954   -2.1084
    12          H      -1.8237    0.4841    0.7008
    13          H      -1.8179   -1.1679    0.0516
    14          H      -0.4316   -0.3933    2.9346
    15          H      -0.4599   -2.0404    2.2798
    16          H       1.0917   -1.2505    2.6259
    17          H       2.2080   -0.3506    0.4157


    FIRST DERIVATIVES WILL BE USED IN THE CALCULATION OF SECOND DERIVATIVES

          ESTIMATED TIME TO COMPLETE CALCULATION =        0.80 SECONDS

    FOR POINT-GROUP C1   THERE ARE   1 UNIQUE SYMMETRY FUNCTIONS.

 STEP:   1 TIME =     0.02 SECS, INTEGRAL =      0.02 TIME LEFT: 172799.98
 STEP:   2 TIME =     0.01 SECS, INTEGRAL =      0.03 TIME LEFT: 172799.97
 STEP:   3 TIME =     0.01 SECS, INTEGRAL =      0.04 TIME LEFT: 172799.96
 STEP:   4 TIME =     0.01 SECS, INTEGRAL =      0.05 TIME LEFT: 172799.95
 STEP:   5 TIME =     0.01 SECS, INTEGRAL =      0.06 TIME LEFT: 172799.93
 STEP:   6 TIME =     0.01 SECS, INTEGRAL =      0.07 TIME LEFT: 172799.92
 STEP:   7 TIME =     0.01 SECS, INTEGRAL =      0.09 TIME LEFT: 172799.91
 STEP:   8 TIME =     0.01 SECS, INTEGRAL =      0.10 TIME LEFT: 172799.90
 STEP:   9 TIME =     0.01 SECS, INTEGRAL =      0.11 TIME LEFT: 172799.89
 STEP:  10 TIME =     0.02 SECS, INTEGRAL =      0.12 TIME LEFT: 172799.87
 STEP:  11 TIME =     0.01 SECS, INTEGRAL =      0.14 TIME LEFT: 172799.86
 STEP:  12 TIME =     0.01 SECS, INTEGRAL =      0.15 TIME LEFT: 172799.85
 STEP:  13 TIME =     0.01 SECS, INTEGRAL =      0.16 TIME LEFT: 172799.84
 STEP:  14 TIME =     0.01 SECS, INTEGRAL =      0.17 TIME LEFT: 172799.82
 STEP:  15 TIME =     0.01 SECS, INTEGRAL =      0.18 TIME LEFT: 172799.81
 STEP:  16 TIME =     0.01 SECS, INTEGRAL =      0.20 TIME LEFT: 172799.80
 STEP:  17 TIME =     0.01 SECS, INTEGRAL =      0.21 TIME LEFT: 172799.79
 STEP:  18 TIME =     0.02 SECS, INTEGRAL =      0.22 TIME LEFT: 172799.77
 STEP:  19 TIME =     0.01 SECS, INTEGRAL =      0.23 TIME LEFT: 172799.76
 STEP:  20 TIME =     0.01 SECS, INTEGRAL =      0.25 TIME LEFT: 172799.75
 STEP:  21 TIME =     0.01 SECS, INTEGRAL =      0.26 TIME LEFT: 172799.74
 STEP:  22 TIME =     0.01 SECS, INTEGRAL =      0.27 TIME LEFT: 172799.73
 STEP:  23 TIME =     0.01 SECS, INTEGRAL =      0.28 TIME LEFT: 172799.71
 STEP:  24 TIME =     0.01 SECS, INTEGRAL =      0.29 TIME LEFT: 172799.70
 STEP:  25 TIME =     0.02 SECS, INTEGRAL =      0.31 TIME LEFT: 172799.69
 STEP:  26 TIME =     0.01 SECS, INTEGRAL =      0.32 TIME LEFT: 172799.68
 STEP:  27 TIME =     0.01 SECS, INTEGRAL =      0.33 TIME LEFT: 172799.66
 STEP:  28 TIME =     0.01 SECS, INTEGRAL =      0.34 TIME LEFT: 172799.65
 STEP:  29 TIME =     0.01 SECS, INTEGRAL =      0.36 TIME LEFT: 172799.64
 STEP:  30 TIME =     0.01 SECS, INTEGRAL =      0.37 TIME LEFT: 172799.63
 STEP:  31 TIME =     0.01 SECS, INTEGRAL =      0.38 TIME LEFT: 172799.62
 STEP:  32 TIME =     0.01 SECS, INTEGRAL =      0.39 TIME LEFT: 172799.61
 STEP:  33 TIME =     0.01 SECS, INTEGRAL =      0.40 TIME LEFT: 172799.60
 STEP:  34 TIME =     0.01 SECS, INTEGRAL =      0.41 TIME LEFT: 172799.59
 STEP:  35 TIME =     0.01 SECS, INTEGRAL =      0.42 TIME LEFT: 172799.57
 STEP:  36 TIME =     0.01 SECS, INTEGRAL =      0.43 TIME LEFT: 172799.56
 STEP:  37 TIME =     0.01 SECS, INTEGRAL =      0.45 TIME LEFT: 172799.55
 STEP:  38 TIME =     0.01 SECS, INTEGRAL =      0.46 TIME LEFT: 172799.54
 STEP:  39 TIME =     0.01 SECS, INTEGRAL =      0.47 TIME LEFT: 172799.53
 STEP:  40 TIME =     0.01 SECS, INTEGRAL =      0.48 TIME LEFT: 172799.52
 STEP:  41 TIME =     0.01 SECS, INTEGRAL =      0.49 TIME LEFT: 172799.50
 STEP:  42 TIME =     0.02 SECS, INTEGRAL =      0.51 TIME LEFT: 172799.49
 STEP:  43 TIME =     0.01 SECS, INTEGRAL =      0.52 TIME LEFT: 172799.48
 STEP:  44 TIME =     0.01 SECS, INTEGRAL =      0.53 TIME LEFT: 172799.46
 STEP:  45 TIME =     0.01 SECS, INTEGRAL =      0.54 TIME LEFT: 172799.45
 STEP:  46 TIME =     0.01 SECS, INTEGRAL =      0.55 TIME LEFT: 172799.44
 STEP:  47 TIME =     0.01 SECS, INTEGRAL =      0.57 TIME LEFT: 172799.43
 STEP:  48 TIME =     0.01 SECS, INTEGRAL =      0.58 TIME LEFT: 172799.42
 STEP:  49 TIME =     0.01 SECS, INTEGRAL =      0.59 TIME LEFT: 172799.41
 STEP:  50 TIME =     0.01 SECS, INTEGRAL =      0.60 TIME LEFT: 172799.39
 STEP:  51 TIME =     0.01 SECS, INTEGRAL =      0.61 TIME LEFT: 172799.38

(To convert to Hartree/Bohr^2, multiply by (10^(-21) x N x a0^2)/(4.184 x 627.51) =  0.0642)


           FORCE MATRIX IN MILLIDYNES/ANGSTROM


                  C  1       C  2       C  3       C  4       C  5       C  6
 ------------------------------------------------------------------------------
     C    1  15.395654
     C    2   4.191936  15.698235
     C    3   4.874051   4.692039  15.263715
     C    4   4.052371   0.781689   0.569147  14.690131
     C    5   0.049288   0.125272   0.020271   0.506520  14.858038
     C    6   0.925379   1.242692   0.090661   4.225091   5.449427  18.645836
     C    7   0.931615   4.844683   0.623690   1.072628   0.714775  10.000803
     H    8   4.784671   0.416139   0.430175   0.413746   0.006456   0.036877
     H    9   0.400988   4.779292   0.432588   0.039188   0.012148   0.040762
     H   10   0.464053   0.460254   4.818558   0.021757   0.001637   0.008170
     H   11   0.456082   0.458512   4.842919   0.046172   0.004649   0.006209
     H   12   0.436598   0.041245   0.016722   4.517186   0.011488   0.437627
     H   13   0.435498   0.016534   0.043612   4.541996   0.012087   0.435865
     H   14   0.003027   0.017383   0.002891   0.012763   4.701412   0.449688
     H   15   0.002124   0.016944   0.002845   0.015410   4.704008   0.449888
     H   16   0.007722   0.002680   0.001168   0.042081   4.752473   0.471320
     H   17   0.041457   0.412184   0.013224   0.104724   0.053036   0.458080


                  C  7       H  8       H  9       H 10       H 11       H 12
 ------------------------------------------------------------------------------
     C    7  18.278744
     H    8   0.037899   5.321281
     H    9   0.416310   0.013996   5.313502
     H   10   0.028539   0.035669   0.034783   5.429224
     H   11   0.045070   0.018452   0.017901   0.486573   5.439743
     H   12   0.036605   0.014531   0.006569   0.009860   0.003739   5.122029
     H   13   0.034329   0.030618   0.001724   0.004943   0.006726   0.550886
     H   14   0.028846   0.000559   0.001194   0.000404   0.000937   0.005281
     H   15   0.033350   0.000491   0.002233   0.000197   0.000417   0.001115
     H   16   0.027627   0.001310   0.000522   0.000230   0.000381   0.001329
     H   17   5.037513   0.003534   0.013556   0.003394   0.001074   0.014158


                  H 13       H 14       H 15       H 16       H 17
 ------------------------------------------------------------------
     H   13   5.135799
     H   14   0.001100   5.411920
     H   15   0.006153   0.570817   5.413262
     H   16   0.001321   0.558178   0.557227   5.456051
     H   17   0.014621   0.006474   0.006577   0.012693   5.434238


          HEAT OF FORMATION =      27.597403 KCALS/MOLE

          ZERO POINT ENERGY      94.272 KCAL/MOL


           NORMAL COORDINATE ANALYSIS (Total motion = 1 Angstrom)


   Root No.       1         2         3         4         5         6         7         8

                 1 A       2 A       3 A       4 A       5 A       6 A       7 A       8 A   

                 129.4     160.6     326.1     351.9     415.3     489.0     621.3     703.4
  
           1   -0.0035   -0.0034   -0.0058    0.0162   -0.0011   -0.0048   -0.0043   -0.0453
           2    0.0063    0.0131    0.0225   -0.0202   -0.0304   -0.0079    0.0085    0.0240
           3    0.0041   -0.0020   -0.0004   -0.0253   -0.0169    0.0009   -0.0545   -0.0351
           4   -0.0035   -0.0037   -0.0065    0.0162   -0.0002   -0.0042   -0.0239   -0.0416
           5   -0.0083   -0.0022   -0.0170    0.0158   -0.0345   -0.0175   -0.0067   -0.0286
           6   -0.0037   -0.0099    0.0039    0.0179   -0.0206   -0.0090   -0.0313    0.0634
           7    0.0091    0.0090    0.0355   -0.0192    0.0048    0.0129   -0.0041   -0.0152
           8   -0.0009    0.0064    0.0029   -0.0020   -0.0339   -0.0142    0.0120   -0.0060
           9   -0.0032    0.0500   -0.0128    0.0120    0.0568    0.0190   -0.0027    0.0035
          10   -0.0016   -0.0018   -0.0254   -0.0170   -0.0076   -0.0068    0.0411    0.0182
          11    0.0125   -0.0368   -0.0190    0.0293    0.0152    0.0065    0.0107    0.0175
          12    0.0071   -0.0217   -0.0188   -0.0120   -0.0046    0.0036   -0.0257   -0.0282
          13    0.0009    0.0011    0.0438    0.0359    0.0015   -0.0005   -0.0007    0.0086
          14   -0.0037    0.0548   -0.0082    0.0056   -0.0015    0.0060   -0.0272    0.0078
          15   -0.0012    0.0128    0.0040    0.0026   -0.0257   -0.0125    0.0689   -0.0211
          16   -0.0006   -0.0008   -0.0328   -0.0279   -0.0020    0.0002    0.0140    0.0235
          17    0.0019   -0.0166    0.0072   -0.0116    0.0771   -0.0515   -0.0139    0.0014
          18    0.0011   -0.0152    0.0083   -0.0053    0.0100   -0.0317    0.0423   -0.0099
          19   -0.0015   -0.0012   -0.0276   -0.0157    0.0043    0.0024   -0.0241    0.0479
          20   -0.0069   -0.0318    0.0202   -0.0275    0.0217    0.0463    0.0079   -0.0149
          21   -0.0037   -0.0221    0.0215    0.0057   -0.0032    0.0121   -0.0085    0.0348
          22   -0.0108   -0.0110   -0.0095    0.0503   -0.0066   -0.0118   -0.0303   -0.0368
          23    0.0106    0.0566    0.0513   -0.0501   -0.0044    0.0100    0.0385    0.0323
          24    0.0078   -0.0113   -0.0084   -0.0381   -0.0202    0.0003   -0.0458   -0.0439
          25   -0.0107   -0.0101   -0.0089    0.0497   -0.0011   -0.0104   -0.0067   -0.0569
          26   -0.0171    0.0238   -0.0591    0.0592   -0.0196   -0.0401    0.0052   -0.0596
          27   -0.0059   -0.0229    0.0169    0.0268   -0.0245   -0.0048   -0.0227    0.0624
          28    0.0203    0.0214    0.0637   -0.0779    0.0130    0.0380   -0.0217   -0.1436
          29    0.0015   -0.0340    0.0158   -0.0165   -0.1141   -0.0442   -0.0460    0.0096
          30   -0.0050    0.0795   -0.0226    0.0228    0.1178    0.0423    0.0410   -0.0085
          31    0.0103    0.0093    0.0511    0.0028    0.0023    0.0066    0.0278    0.1622
          32   -0.0034    0.0475   -0.0107    0.0131    0.0479    0.0174    0.0717   -0.0234
          33   -0.0049    0.0783   -0.0224    0.0227    0.1155    0.0419    0.0400   -0.0083
          34    0.0085   -0.0359   -0.0757    0.0302   -0.0354    0.0996    0.0622    0.0186
          35    0.0191   -0.0740   -0.0615    0.0886    0.0275    0.0745    0.0426   -0.0079
          36    0.0097   -0.0107   -0.0206   -0.0366   -0.0518    0.0370   -0.0449    0.0047
          37   -0.0110    0.0329    0.0177   -0.0764    0.0197   -0.1113    0.0183    0.0408
          38    0.0184   -0.0565   -0.0431    0.0669   -0.0076    0.0752    0.0273    0.0040
          39    0.0113   -0.0551   -0.0675    0.0196    0.0384    0.0353   -0.0179   -0.0375
          40   -0.2361   -0.0112    0.0752    0.0565    0.0058    0.0000   -0.0036    0.0031
          41   -0.1349    0.0889   -0.0297    0.0059   -0.0626    0.0531   -0.0365    0.0168
          42   -0.0450   -0.0299    0.0476    0.0170    0.0368   -0.0580    0.0769   -0.0347
          43    0.2330    0.0142    0.0689    0.0644   -0.0008   -0.0031   -0.0040    0.0028
          44   -0.1358    0.0497   -0.0211   -0.0079   -0.0043    0.0105   -0.0263    0.0114
          45   -0.0621    0.0676    0.0241    0.0491   -0.1116    0.0479    0.0663   -0.0292
          46    0.0052    0.0019    0.0723    0.0608    0.0028   -0.0012   -0.0075    0.0037
          47    0.2417    0.0920    0.0070    0.0388   -0.0403    0.0303   -0.0371    0.0049
          48    0.0958    0.0270   -0.0619   -0.0460   -0.0464   -0.0005    0.0839   -0.0091
          49   -0.0011   -0.0008   -0.0312   -0.0226    0.0032    0.0031   -0.0092    0.0548
          50   -0.0112   -0.0375    0.0499   -0.0698    0.0132    0.1976    0.0653   -0.0022
          51   -0.0069   -0.0259    0.0475    0.0159   -0.0035    0.0691   -0.0406    0.0145


   Root No.       9        10        11        12        13        14        15        16

                 9 A      10 A      11 A      12 A      13 A      14 A      15 A      16 A   

                 849.4     867.7     878.3     889.9     942.9     964.5     981.7     990.7
  
           1   -0.0122   -0.0073    0.0200   -0.0122   -0.0057    0.0054   -0.0264   -0.0197
           2   -0.0159    0.0052    0.0048    0.0054   -0.0045   -0.0161    0.0003    0.0018
           3   -0.0110    0.0003    0.0095   -0.0056    0.0020    0.0001   -0.0235    0.0009
           4   -0.0090    0.0120    0.0004    0.0226   -0.0012   -0.0234   -0.0143    0.0008
           5    0.0203   -0.0029   -0.0076   -0.0024    0.0012   -0.0003    0.0115    0.0069
           6    0.0023   -0.0022   -0.0053   -0.0126    0.0061    0.0083    0.0168    0.0039
           7    0.0360   -0.0059   -0.0075   -0.0042    0.0032    0.0066    0.0057    0.0035
           8    0.0019   -0.0111    0.0129   -0.0291   -0.0100    0.0107    0.0033   -0.0168
           9   -0.0011    0.0089   -0.0046   -0.0040    0.0129    0.0204   -0.0210    0.0020
          10   -0.0143    0.0070   -0.0055    0.0074   -0.0440    0.0196    0.0068   -0.0173
          11   -0.0262   -0.0098    0.0267    0.0355    0.0159    0.0055    0.0025    0.0115
          12    0.0288   -0.0063    0.0145    0.0183   -0.0130   -0.0030    0.0084   -0.0072
          13    0.0018   -0.0016   -0.0005   -0.0028    0.0275   -0.0152    0.0105   -0.0264
          14    0.0033    0.0133    0.0035   -0.0158   -0.0146   -0.0156    0.0068    0.0035
          15   -0.0007    0.0031    0.0020   -0.0054    0.0168   -0.0138   -0.0086    0.0206
          16    0.0026   -0.0027   -0.0017   -0.0042    0.0176   -0.0027   -0.0002    0.0096
          17    0.0038    0.0083   -0.0036   -0.0092    0.0002    0.0088   -0.0034   -0.0065
          18    0.0019    0.0025   -0.0013   -0.0044    0.0013    0.0045    0.0016   -0.0112
          19   -0.0205    0.0002   -0.0016   -0.0066    0.0157   -0.0055   -0.0034    0.0286
          20    0.0102   -0.0297   -0.0351    0.0129    0.0014   -0.0077   -0.0204    0.0089
          21   -0.0246   -0.0065   -0.0176    0.0029   -0.0101   -0.0063    0.0100   -0.0046
          22    0.0104   -0.0925    0.0874   -0.0968    0.0300    0.0128    0.0244    0.0461
          23   -0.0619    0.1201   -0.1167    0.0538    0.0135   -0.0263   -0.0809   -0.0673
          24   -0.0082    0.0216    0.0026    0.0387   -0.0309   -0.0014   -0.0317   -0.0235
          25    0.0465    0.0800   -0.0550    0.1027    0.0135   -0.0208    0.0796    0.0108
          26    0.1096    0.1133   -0.0386    0.0857    0.0556    0.0301    0.0689    0.0774
          27    0.0096    0.0078   -0.0359    0.0163   -0.0028   -0.0008    0.0672   -0.0138
          28   -0.0858   -0.0099   -0.0904   -0.0532    0.0484    0.0701    0.2038    0.0788
          29    0.0073    0.0577   -0.0181   -0.0505    0.0426    0.0844   -0.0674   -0.0130
          30   -0.0057   -0.0446    0.0190    0.0125   -0.0279   -0.0367    0.0343   -0.0008
          31    0.2727   -0.0218    0.0369    0.0256   -0.0187    0.0050   -0.0635    0.0071
          32   -0.0022   -0.0805    0.0437   -0.0082   -0.0673   -0.0673    0.0817   -0.0248
          33   -0.0041   -0.0425    0.0183    0.0109   -0.0286   -0.0357    0.0351   -0.0036
          34    0.0196    0.0479   -0.0892   -0.0887   -0.1090   -0.0253    0.0031   -0.0204
          35   -0.0086    0.0226   -0.0564   -0.0629    0.0193    0.0458   -0.0178   -0.0342
          36    0.0448   -0.0011    0.0267    0.0371   -0.0906   -0.1087    0.0293    0.0502
          37   -0.0300   -0.0304    0.0698    0.1166   -0.0391    0.0708    0.0513   -0.0221
          38   -0.0224    0.0141   -0.0178   -0.0340    0.0147   -0.0377   -0.0331    0.0199
          39    0.0926    0.0137   -0.0642   -0.0403   -0.0413    0.0847    0.0611   -0.0666
          40   -0.0125    0.0036   -0.0003    0.0037   -0.0359    0.0205   -0.0123    0.0339
          41   -0.0029   -0.0502   -0.0183    0.0515    0.0364    0.0437    0.0100   -0.0726
          42   -0.0049    0.0680    0.0231   -0.0657   -0.0778   -0.0458   -0.0295    0.1404
          43   -0.0125    0.0038   -0.0002    0.0028   -0.0367    0.0187   -0.0120    0.0357
          44    0.0093    0.0062    0.0015   -0.0136    0.0191   -0.0274    0.0174   -0.0310
          45   -0.0345   -0.0756   -0.0263    0.0985   -0.0132    0.1247   -0.0598    0.0551
          46   -0.0112    0.0037   -0.0003    0.0032   -0.0398    0.0211   -0.0087    0.0263
          47   -0.0148   -0.0194   -0.0103    0.0308   -0.0574    0.0590   -0.0169    0.0254
          48    0.0229   -0.0247   -0.0047   -0.0003    0.1724   -0.0749    0.0288   -0.1015
          49   -0.0106   -0.0050   -0.0002   -0.0153    0.0326    0.0084   -0.0119    0.0531
          50    0.0190    0.1342    0.2124   -0.0212    0.0476    0.0723    0.0326    0.0097
          51   -0.0588    0.0788    0.0755    0.0220   -0.0508   -0.0278    0.0616   -0.0884


   Root No.      17        18        19        20        21        22        23        24

                17 A      18 A      19 A      20 A      21 A      22 A      23 A      24 A   

                1015.0    1052.4    1078.3    1092.7    1111.8    1142.2    1159.7    1195.0
  
           1   -0.0090   -0.0039   -0.0269    0.0230   -0.0250   -0.0243   -0.0187   -0.0010
           2    0.0044    0.0160    0.0046   -0.0135   -0.0031    0.0735   -0.0061   -0.0150
           3   -0.0031   -0.0040    0.0038    0.0279    0.0234    0.0324   -0.0046   -0.0168
           4    0.0164    0.0026    0.0126   -0.0306    0.0225    0.0172   -0.0201   -0.0129
           5    0.0150   -0.0135    0.0193   -0.0254    0.0504   -0.0401    0.0079   -0.0015
           6   -0.0037   -0.0046   -0.0190   -0.0061    0.0220   -0.0132    0.0101   -0.0128
           7    0.0028   -0.0058   -0.0025   -0.0081    0.0062   -0.0102    0.0838    0.0126
           8    0.0075   -0.0026   -0.0139    0.0210   -0.0314   -0.0103   -0.0053    0.0283
           9   -0.0300    0.0042    0.0129   -0.0212   -0.0049   -0.0002   -0.0040    0.0201
          10   -0.0328   -0.0015    0.0124    0.0057    0.0206    0.0082    0.0038   -0.0125
          11   -0.0207   -0.0173    0.0038   -0.0058   -0.0027   -0.0187    0.0023    0.0031
          12    0.0050   -0.0054   -0.0146   -0.0085   -0.0246   -0.0156   -0.0099   -0.0064
          13   -0.0105    0.0008    0.0053    0.0010    0.0023   -0.0008    0.0029   -0.0022
          14   -0.0178   -0.0257   -0.0028    0.0008   -0.0044   -0.0001    0.0010   -0.0041
          15    0.0077   -0.0086    0.0101   -0.0088   -0.0038    0.0022   -0.0023    0.0092
          16    0.0074   -0.0005   -0.0050   -0.0003   -0.0034    0.0030   -0.0052    0.0094
          17    0.0195    0.0458   -0.0001    0.0022    0.0140   -0.0039   -0.0012    0.0091
          18   -0.0019    0.0171   -0.0091    0.0086    0.0108   -0.0030    0.0034   -0.0174
          19    0.0373   -0.0009    0.0081    0.0114   -0.0188   -0.0056   -0.0004    0.0157
          20   -0.0203   -0.0119    0.0044   -0.0010   -0.0139    0.0110   -0.0019    0.0022
          21    0.0039   -0.0048    0.0073    0.0184   -0.0183   -0.0077    0.0136   -0.0149
          22   -0.0509    0.0844    0.0024   -0.0913   -0.1008    0.1059   -0.0360   -0.1177
          23    0.0784   -0.0365   -0.1010   -0.0527   -0.0769   -0.1707   -0.0794   -0.1184
          24    0.0025   -0.0501    0.0183    0.1221    0.1037    0.0237    0.0338    0.1015
          25   -0.0335    0.0209   -0.1496    0.0221   -0.0237    0.1534   -0.0760    0.1164
          26   -0.0234    0.0458    0.0572    0.1700   -0.1290    0.0249    0.1237   -0.1079
          27   -0.0276   -0.0116   -0.1517   -0.0343    0.0510    0.0660   -0.0725    0.1196
          28   -0.0381    0.0049    0.0517    0.0345    0.0293   -0.0910   -0.2156   -0.0187
          29   -0.0733    0.0146    0.0266   -0.0371   -0.0743   -0.0222   -0.0160    0.0841
          30    0.0326   -0.0093   -0.0178    0.0229    0.0300    0.0104    0.0032   -0.0205
          31    0.0046   -0.0186    0.0806    0.0738    0.0361   -0.0216   -0.2607   -0.0273
          32    0.1038   -0.0206   -0.0548    0.0843   -0.0073   -0.0031    0.0027   -0.0046
          33    0.0379   -0.0092   -0.0171    0.0252    0.0147    0.0057    0.0013   -0.0041
          34   -0.0367    0.1121    0.0157   -0.0135    0.0388    0.0074    0.0176   -0.0152
          35    0.0348   -0.0483    0.0165    0.0319    0.0366    0.0835   -0.0045   -0.0325
          36   -0.0686    0.1659   -0.0278   -0.0797   -0.0562   -0.1508    0.0141    0.0392
          37   -0.0515   -0.0841    0.0256   -0.0675   -0.0306   -0.0003    0.0132   -0.0258
          38   -0.0216    0.0484   -0.0081    0.0556    0.0406   -0.0245   -0.0055    0.0092
          39    0.1239   -0.0843    0.0150   -0.1361   -0.1048    0.1066    0.0014   -0.0087
          40    0.0155    0.0015   -0.0028    0.0006   -0.0029    0.0005   -0.0022    0.0063
          41    0.0112    0.0686   -0.0097    0.0160    0.0198   -0.0063    0.0078   -0.0282
          42    0.0001   -0.0989    0.0120   -0.0253   -0.0318    0.0093   -0.0135    0.0432
          43    0.0140   -0.0033   -0.0024   -0.0002   -0.0042    0.0009   -0.0023    0.0065
          44   -0.0273   -0.0167    0.0003    0.0027    0.0006   -0.0014    0.0040   -0.0099
          45    0.1158    0.1177    0.0049   -0.0087    0.0093    0.0031   -0.0161    0.0542
          46    0.0072   -0.0013   -0.0087    0.0046    0.0002   -0.0005    0.0007   -0.0109
          47    0.0249    0.0286   -0.0189    0.0095    0.0059   -0.0021   -0.0007   -0.0132
          48   -0.0152    0.0211    0.0431   -0.0157    0.0041    0.0012    0.0015    0.0355
          49    0.0306   -0.0067   -0.0622    0.0125    0.0063   -0.0063    0.0118   -0.0208
          50    0.0398    0.0254   -0.0914   -0.0219    0.0786   -0.0140    0.0082   -0.0417
          51    0.0607    0.0314    0.2257    0.0056   -0.0756   -0.0140   -0.0294    0.1048


   Root No.      25        26        27        28        29        30        31        32

                25 A      26 A      27 A      28 A      29 A      30 A      31 A      32 A   

                1228.5    1275.4    1349.4    1367.7    1390.5    1392.1    1394.7    1398.0
  
           1   -0.0162    0.0115    0.0052   -0.0297    0.0001    0.0081   -0.0108    0.0090
           2   -0.0109   -0.0184    0.0156   -0.0197    0.0002    0.0082   -0.0094    0.0083
           3    0.0082    0.0449   -0.0277    0.0138   -0.0003   -0.0126    0.0137   -0.0180
           4   -0.0214   -0.0239    0.0073    0.0060    0.0003   -0.0010    0.0046    0.0229
           5    0.0124   -0.0031   -0.0082    0.0087   -0.0005   -0.0009   -0.0034   -0.0271
           6    0.0024    0.0223    0.0184   -0.0358    0.0007    0.0048    0.0031    0.0517
           7    0.0163    0.0036   -0.0027    0.0048   -0.0001   -0.0012    0.0009   -0.0049
           8   -0.0078   -0.0045   -0.0027   -0.0012   -0.0004    0.0056   -0.0128   -0.0160
           9   -0.0045   -0.0153    0.0011    0.0038   -0.0000    0.0010   -0.0021   -0.0033
          10    0.0125   -0.0002    0.0239   -0.0080    0.0004   -0.0133    0.0299   -0.0220
          11   -0.0065    0.0137   -0.0186   -0.0014    0.0001   -0.0079    0.0071   -0.0046
          12    0.0294   -0.0352    0.0463    0.0118    0.0006    0.0181   -0.0154    0.0073
          13   -0.0101    0.0044    0.0099    0.0044   -0.0041   -0.0259   -0.0110   -0.0036
          14    0.0017   -0.0013    0.0129    0.0020   -0.0401    0.0013    0.0043   -0.0047
          15   -0.0040    0.0030   -0.0330   -0.0048   -0.0163    0.0031   -0.0071    0.0116
          16    0.0274   -0.0084   -0.0224   -0.0182   -0.0002   -0.0025   -0.0037    0.0201
          17   -0.0027    0.0121    0.0094    0.0011   -0.0007    0.0030    0.0009   -0.0004
          18    0.0092   -0.0293   -0.0240   -0.0037   -0.0009   -0.0073   -0.0023    0.0007
          19   -0.0041   -0.0037   -0.0028    0.0132   -0.0003    0.0025   -0.0069   -0.0155
          20    0.0058    0.0074    0.0010   -0.0122   -0.0000    0.0014    0.0001    0.0183
          21   -0.0256   -0.0265    0.0008    0.0304   -0.0004   -0.0029   -0.0002   -0.0428
          22    0.0979    0.0514   -0.0199    0.0424   -0.0003   -0.0177    0.0224   -0.0565
          23    0.0775    0.0817   -0.0176    0.0122   -0.0001   -0.0134    0.0192   -0.0183
          24   -0.1038   -0.0162    0.0022   -0.0503    0.0001    0.0134   -0.0197    0.0382
          25    0.0458    0.0181   -0.0422    0.0502   -0.0011   -0.0098    0.0004   -0.0641
          26   -0.0198    0.0334    0.0165   -0.0316    0.0008    0.0015    0.0056    0.0363
          27    0.0637    0.0425   -0.0262    0.0091   -0.0008   -0.0025   -0.0028   -0.0337
          28   -0.0360   -0.0158    0.0170   -0.0204    0.0003    0.0064   -0.0045    0.0257
          29   -0.0240   -0.0634   -0.0055    0.1299    0.0024   -0.0515    0.0982    0.1174
          30    0.0070    0.0278    0.0026   -0.0852   -0.0019    0.0394   -0.0766   -0.0919
          31   -0.0242    0.0121   -0.0248    0.0225   -0.0004   -0.0082    0.0048   -0.0317
          32   -0.0027    0.0174   -0.0122    0.1115    0.0026   -0.0580    0.1117    0.1396
          33   -0.0004    0.0034   -0.0055    0.0736    0.0019   -0.0396    0.0775    0.0969
          34   -0.0542    0.0900   -0.0310    0.1006   -0.0019    0.0593   -0.1015    0.0557
          35    0.0396    0.0213    0.0183    0.1029   -0.0005    0.0693   -0.1055    0.0604
          36   -0.1071    0.0484   -0.0636   -0.0238   -0.0016   -0.0169    0.0090   -0.0069
          37   -0.0509    0.0935   -0.0352    0.1061    0.0004    0.0570   -0.0993    0.0529
          38    0.0546   -0.0510    0.0317   -0.0537   -0.0003   -0.0387    0.0708   -0.0414
          39   -0.1360    0.0343   -0.0628   -0.1057    0.0007   -0.0579    0.0747   -0.0432
          40    0.0062    0.0033   -0.0171   -0.0013    0.2368    0.1701    0.0862   -0.0161
          41    0.0029   -0.0550   -0.1249   -0.0102    0.0117    0.1275    0.0458    0.0090
          42    0.0051    0.0648    0.1065    0.0054    0.1457    0.0063    0.0186   -0.0143
          43    0.0060    0.0041   -0.0157   -0.0010   -0.1874    0.1857    0.0961   -0.0154
          44   -0.0057   -0.0047    0.0189    0.0039    0.0872   -0.1114   -0.0542    0.0030
          45    0.0023    0.0852    0.1622    0.0100   -0.1145   -0.0753   -0.0132   -0.0148
          46    0.0129   -0.0320   -0.0592   -0.0097   -0.0002   -0.0482   -0.0354    0.0197
          47    0.0226   -0.0378   -0.0540   -0.0117    0.3897   -0.0535   -0.0385    0.0187
          48   -0.0561    0.0971    0.1411    0.0292    0.1703    0.0843    0.0674   -0.0500
          49   -0.0572   -0.0273    0.0092    0.0392   -0.0003    0.0018   -0.0045   -0.0403
          50   -0.0490   -0.0126    0.0153    0.0172    0.0009    0.0001    0.0045   -0.0127
          51    0.1461    0.0449   -0.0411   -0.0473   -0.0002   -0.0006   -0.0116    0.0315


   Root No.      33        34        35        36        37        38        39        40

                33 A      34 A      35 A      36 A      37 A      38 A      39 A      40 A   

                1471.0    1548.7    1859.8    2982.4    3052.0    3067.5    3077.6    3078.2
  
           1   -0.0025   -0.1024    0.0049    0.0013    0.0016   -0.0000    0.0126   -0.0003
           2   -0.0019   -0.0730   -0.0028    0.0004    0.0007   -0.0000    0.0057   -0.0002
           3   -0.0013    0.0202    0.0071    0.0015    0.0031   -0.0001    0.0175   -0.0004
           4   -0.0080    0.1041    0.0061   -0.0000   -0.0003   -0.0001    0.0240    0.0006
           5   -0.0074   -0.0704    0.0009   -0.0001    0.0004   -0.0000   -0.0108   -0.0003
           6    0.0165    0.0326   -0.0100    0.0001    0.0005    0.0001   -0.0320   -0.0007
           7    0.0015    0.0023   -0.0022    0.0001    0.0001   -0.0000    0.0004    0.0000
           8    0.0014    0.1278    0.0017    0.0000    0.0002    0.0000    0.0005    0.0000
           9   -0.0014   -0.0045   -0.0005   -0.0001    0.0002    0.0000    0.0072    0.0006
          10    0.0521    0.0159   -0.0094    0.0011   -0.0373    0.0002    0.0003   -0.0001
          11   -0.0133    0.0107   -0.0036   -0.0553   -0.0069    0.0001    0.0010   -0.0001
          12    0.0364   -0.0100    0.0084   -0.0220    0.0133   -0.0000    0.0004    0.0003
          13    0.0104   -0.0008   -0.0083   -0.0000    0.0002    0.0001    0.0007   -0.0494
          14   -0.0375    0.0005   -0.0206   -0.0002   -0.0003   -0.0533   -0.0001   -0.0001
          15    0.0942   -0.0025    0.0517   -0.0001   -0.0001   -0.0212   -0.0001   -0.0001
          16   -0.0849    0.0032    0.1827    0.0000   -0.0008    0.0000   -0.0001   -0.0003
          17    0.0360   -0.0038    0.0731   -0.0001    0.0001   -0.0001   -0.0002   -0.0001
          18   -0.0914    0.0041   -0.1813   -0.0001   -0.0002   -0.0000    0.0002    0.0003
          19    0.0364   -0.0189   -0.1591    0.0000   -0.0002    0.0000   -0.0017   -0.0005
          20    0.0074    0.0119   -0.0549   -0.0002    0.0001   -0.0002    0.0001    0.0003
          21   -0.0198   -0.0198    0.1393   -0.0001   -0.0003   -0.0001   -0.0005   -0.0006
          22    0.0171   -0.0125    0.0058   -0.0147   -0.0238    0.0005   -0.1512    0.0035
          23    0.0139    0.0179    0.0009   -0.0086   -0.0112    0.0002   -0.0735    0.0016
          24   -0.0189   -0.0817    0.0094   -0.0168   -0.0303    0.0006   -0.2125    0.0049
          25    0.0052   -0.0026   -0.0257   -0.0004    0.0068    0.0009   -0.2834   -0.0067
          26    0.0021    0.0146    0.0181    0.0002   -0.0030   -0.0004    0.1338    0.0031
          27    0.0248   -0.0811   -0.0334    0.0007   -0.0088   -0.0013    0.3839    0.0090
          28    0.0010    0.0011    0.0002    0.0004   -0.0005   -0.0000   -0.0024   -0.0000
          29   -0.0026   -0.0582   -0.0025    0.0005   -0.0022   -0.0001   -0.0332   -0.0027
          30    0.0017    0.1261    0.0025   -0.0000   -0.0023   -0.0001   -0.0446   -0.0036
          31   -0.0084   -0.0069    0.0042    0.0003    0.0002    0.0000    0.0021    0.0000
          32    0.0053   -0.0407   -0.0010    0.0018    0.0005    0.0001    0.0308    0.0024
          33    0.0018   -0.1131   -0.0027   -0.0020   -0.0003   -0.0001   -0.0434   -0.0034
          34   -0.0322   -0.0122   -0.0239   -0.2647    0.2197   -0.0007    0.0011    0.0011
          35   -0.0186   -0.0085    0.0091    0.3046   -0.3029    0.0009    0.0000   -0.0014
          36   -0.0403   -0.0121   -0.0326    0.2315   -0.2120    0.0003   -0.0005   -0.0007
          37   -0.0328    0.0009   -0.0249    0.2494    0.2282   -0.0017   -0.0076    0.0011
          38    0.0434    0.0216    0.0156    0.3616    0.3844   -0.0032   -0.0121    0.0016
          39   -0.0245   -0.0449   -0.0298    0.0358    0.0537   -0.0001    0.0001    0.0005
          40   -0.0556    0.0030   -0.0064   -0.0003   -0.0014   -0.2240   -0.0019    0.0880
          41    0.0930   -0.0010   -0.0029    0.0004    0.0017    0.2827    0.0031   -0.1567
          42   -0.1046    0.0024    0.0240    0.0009    0.0014    0.2808    0.0030   -0.1466
          43   -0.0586    0.0026   -0.0070    0.0005    0.0008    0.2310   -0.0010    0.1017
          44    0.0070   -0.0016   -0.0140    0.0012    0.0017    0.3819   -0.0026    0.2240
          45   -0.1418    0.0042    0.0207   -0.0004   -0.0004   -0.0129    0.0001   -0.0005
          46    0.0659   -0.0025    0.0330    0.0001   -0.0028   -0.0088   -0.0062    0.3991
          47    0.0275   -0.0008    0.0174   -0.0001    0.0003   -0.0254    0.0010   -0.0656
          48   -0.0694    0.0027   -0.0435   -0.0000   -0.0011   -0.0137   -0.0023    0.1467
          49    0.0406   -0.0127   -0.1320   -0.0004    0.0100   -0.0003    0.0195    0.0080
          50    0.0112    0.0130    0.0324   -0.0005   -0.0009    0.0005   -0.0018   -0.0006
          51   -0.0261   -0.0423   -0.0912   -0.0003    0.0025    0.0001    0.0037    0.0015


   Root No.      41        42        43        44        45

                41 A      42 A      43 A      44 A      45 A   

                3079.2    3094.4    3130.3    3131.1    3166.2
  
           1   -0.0182   -0.0079   -0.0006    0.0017    0.0000
           2   -0.0087   -0.0039   -0.0001    0.0003    0.0000
           3   -0.0244   -0.0111    0.0000    0.0017    0.0000
           4    0.0086    0.0074    0.0003   -0.0022    0.0000
           5   -0.0041   -0.0035    0.0001    0.0006    0.0000
           6   -0.0112   -0.0103    0.0005    0.0027   -0.0000
           7   -0.0001    0.0001    0.0000    0.0000    0.0000
           8    0.0012   -0.0019    0.0324   -0.0156   -0.0000
           9    0.0205   -0.0377   -0.0027    0.0025   -0.0000
          10   -0.0018   -0.0011    0.0005    0.0012   -0.0000
          11   -0.0012   -0.0009   -0.0001    0.0003   -0.0000
          12    0.0000    0.0002   -0.0002   -0.0003    0.0001
          13    0.0010    0.0001    0.0002    0.0005   -0.0018
          14   -0.0000   -0.0000    0.0000   -0.0000    0.0092
          15   -0.0000   -0.0001   -0.0000    0.0000   -0.0230
          16    0.0000    0.0001    0.0012    0.0029    0.0000
          17   -0.0002   -0.0002    0.0005    0.0011    0.0001
          18    0.0005    0.0003   -0.0011   -0.0026   -0.0002
          19   -0.0012   -0.0016   -0.0192   -0.0449    0.0003
          20    0.0002   -0.0001    0.0016    0.0040   -0.0001
          21   -0.0003   -0.0003   -0.0041   -0.0098    0.0003
          22    0.2105    0.0934    0.0005   -0.0105   -0.0001
          23    0.0996    0.0463    0.0000   -0.0051   -0.0000
          24    0.2945    0.1287    0.0011   -0.0150   -0.0001
          25   -0.0977   -0.0883    0.0034    0.0181   -0.0000
          26    0.0446    0.0432   -0.0018   -0.0085   -0.0000
          27    0.1317    0.1175   -0.0054   -0.0275    0.0001
          28    0.0009   -0.0004    0.0006   -0.0002   -0.0000
          29   -0.0940    0.1848   -0.1870    0.0831    0.0001
          30   -0.1257    0.2411   -0.2781    0.1252    0.0002
          31   -0.0003   -0.0004   -0.0005    0.0003    0.0000
          32    0.0881   -0.1553   -0.1983    0.0991    0.0001
          33   -0.1239    0.2119    0.3104   -0.1539   -0.0002
          34    0.0039    0.0022   -0.0022   -0.0029    0.0004
          35   -0.0071   -0.0048    0.0034    0.0038   -0.0006
          36   -0.0042   -0.0026    0.0021    0.0028   -0.0006
          37    0.0151    0.0081   -0.0011   -0.0038    0.0004
          38    0.0243    0.0132   -0.0021   -0.0062    0.0009
          39    0.0008    0.0010   -0.0003   -0.0007   -0.0000
          40   -0.0018   -0.0003   -0.0012   -0.0024   -0.1468
          41    0.0032    0.0005    0.0017    0.0037    0.2071
          42    0.0029    0.0004    0.0017    0.0036    0.1809
          43   -0.0020   -0.0001   -0.0012   -0.0026   -0.1551
          44   -0.0044   -0.0002   -0.0024   -0.0051   -0.2708
          45    0.0000   -0.0000    0.0001    0.0002   -0.0089
          46   -0.0077   -0.0006   -0.0009   -0.0023    0.3237
          47    0.0012    0.0001    0.0000    0.0001   -0.0463
          48   -0.0028   -0.0002   -0.0001   -0.0003    0.1025
          49    0.0176    0.0221    0.2107    0.4925   -0.0048
          50   -0.0019   -0.0024   -0.0229   -0.0536    0.0007
          51    0.0044    0.0057    0.0574    0.1344   -0.0018


           MASS-WEIGHTED COORDINATE ANALYSIS (NORMAL COORDINATES)


   Root No.       1         2         3         4         5         6         7         8

                 1 A       2 A       3 A       4 A       5 A       6 A       7 A       8 A   

                 129.4     160.6     326.1     351.9     415.3     489.0     621.3     703.4
  
           1   -0.0252   -0.0274   -0.0499    0.1434   -0.0073   -0.0385   -0.0307   -0.2980
           2    0.0455    0.1066    0.1930   -0.1797   -0.2103   -0.0628    0.0596    0.1577
           3    0.0293   -0.0162   -0.0034   -0.2250   -0.1170    0.0069   -0.3845   -0.2307
           4   -0.0253   -0.0300   -0.0554    0.1441   -0.0014   -0.0334   -0.1687   -0.2734
           5   -0.0596   -0.0177   -0.1454    0.1403   -0.2387   -0.1398   -0.0474   -0.1881
           6   -0.0268   -0.0801    0.0331    0.1589   -0.1429   -0.0719   -0.2204    0.4168
           7    0.0659    0.0730    0.3046   -0.1704    0.0336    0.1031   -0.0290   -0.1002
           8   -0.0068    0.0519    0.0245   -0.0181   -0.2350   -0.1130    0.0848   -0.0398
           9   -0.0233    0.4057   -0.1100    0.1064    0.3935    0.1510   -0.0191    0.0233
          10   -0.0115   -0.0150   -0.2176   -0.1513   -0.0528   -0.0542    0.2900    0.1195
          11    0.0898   -0.2986   -0.1629    0.2604    0.1055    0.0517    0.0755    0.1151
          12    0.0512   -0.1762   -0.1608   -0.1068   -0.0322    0.0289   -0.1811   -0.1851
          13    0.0065    0.0086    0.3755    0.3185    0.0103   -0.0043   -0.0050    0.0563
          14   -0.0264    0.4443   -0.0706    0.0493   -0.0104    0.0482   -0.1920    0.0516
          15   -0.0084    0.1042    0.0345    0.0227   -0.1783   -0.0995    0.4861   -0.1385
          16   -0.0041   -0.0067   -0.2810   -0.2480   -0.0141    0.0013    0.0988    0.1544
          17    0.0139   -0.1347    0.0614   -0.1033    0.5342   -0.4103   -0.0980    0.0090
          18    0.0079   -0.1236    0.0708   -0.0469    0.0695   -0.2524    0.2982   -0.0648
          19   -0.0109   -0.0097   -0.2370   -0.1390    0.0301    0.0195   -0.1703    0.3146
          20   -0.0496   -0.2583    0.1729   -0.2445    0.1501    0.3689    0.0555   -0.0977
          21   -0.0269   -0.1795    0.1842    0.0510   -0.0220    0.0963   -0.0597    0.2285
          22   -0.0226   -0.0259   -0.0235    0.1292   -0.0133   -0.0272   -0.0619   -0.0702
          23    0.0221    0.1329    0.1274   -0.1288   -0.0087    0.0231    0.0787    0.0615
          24    0.0162   -0.0265   -0.0210   -0.0981   -0.0406    0.0008   -0.0937   -0.0836
          25   -0.0223   -0.0238   -0.0220    0.1277   -0.0022   -0.0240   -0.0136   -0.1084
          26   -0.0356    0.0559   -0.1468    0.1523   -0.0393   -0.0924    0.0107   -0.1136
          27   -0.0122   -0.0538    0.0420    0.0689   -0.0492   -0.0111   -0.0464    0.1188
          28    0.0424    0.0503    0.1582   -0.2005    0.0262    0.0878   -0.0444   -0.2736
          29    0.0031   -0.0800    0.0393   -0.0424   -0.2291   -0.1021   -0.0939    0.0184
          30   -0.0104    0.1868   -0.0562    0.0587    0.2364    0.0976    0.0837   -0.0162
          31    0.0215    0.0218    0.1269    0.0073    0.0046    0.0152    0.0568    0.3090
          32   -0.0071    0.1115   -0.0267    0.0337    0.0961    0.0401    0.1464   -0.0446
          33   -0.0103    0.1841   -0.0557    0.0585    0.2319    0.0967    0.0818   -0.0159
          34    0.0177   -0.0844   -0.1881    0.0777   -0.0711    0.2298    0.1270    0.0355
          35    0.0398   -0.1739   -0.1528    0.2279    0.0552    0.1720    0.0869   -0.0150
          36    0.0203   -0.0251   -0.0511   -0.0942   -0.1040    0.0853   -0.0918    0.0090
          37   -0.0229    0.0772    0.0440   -0.1964    0.0395   -0.2569    0.0375    0.0777
          38    0.0383   -0.1328   -0.1070    0.1721   -0.0152    0.1736    0.0558    0.0075
          39    0.0236   -0.1296   -0.1677    0.0505    0.0771    0.0814   -0.0367   -0.0714
          40   -0.4930   -0.0263    0.1867    0.1454    0.0116    0.0000   -0.0074    0.0058
          41   -0.2817    0.2090   -0.0737    0.0151   -0.1256    0.1226   -0.0746    0.0321
          42   -0.0939   -0.0703    0.1182    0.0437    0.0739   -0.1338    0.1570   -0.0661
          43    0.4867    0.0334    0.1712    0.1656   -0.0017   -0.0072   -0.0081    0.0053
          44   -0.2836    0.1168   -0.0524   -0.0204   -0.0085    0.0243   -0.0538    0.0216
          45   -0.1296    0.1589    0.0599    0.1263   -0.2239    0.1105    0.1354   -0.0556
          46    0.0108    0.0045    0.1795    0.1563    0.0056   -0.0027   -0.0153    0.0070
          47    0.5047    0.2162    0.0175    0.0997   -0.0810    0.0700   -0.0757    0.0093
          48    0.2001    0.0635   -0.1538   -0.1183   -0.0931   -0.0012    0.1714   -0.0174
          49   -0.0023   -0.0020   -0.0775   -0.0582    0.0065    0.0072   -0.0189    0.1044
          50   -0.0234   -0.0880    0.1239   -0.1794    0.0265    0.4561    0.1334   -0.0043
          51   -0.0145   -0.0608    0.1180    0.0410   -0.0069    0.1595   -0.0829    0.0276


   Root No.       9        10        11        12        13        14        15        16

                 9 A      10 A      11 A      12 A      13 A      14 A      15 A      16 A   

                 849.4     867.7     878.3     889.9     942.9     964.5     981.7     990.7
  
           1   -0.0992   -0.0722    0.1763   -0.1150   -0.0518    0.0544   -0.2420   -0.1914
           2   -0.1290    0.0513    0.0423    0.0504   -0.0407   -0.1606    0.0029    0.0172
           3   -0.0894    0.0027    0.0838   -0.0530    0.0185    0.0010   -0.2160    0.0086
           4   -0.0734    0.1191    0.0032    0.2126   -0.0105   -0.2337   -0.1311    0.0078
           5    0.1644   -0.0289   -0.0669   -0.0222    0.0112   -0.0034    0.1052    0.0674
           6    0.0185   -0.0216   -0.0467   -0.1186    0.0546    0.0823    0.1539    0.0379
           7    0.2921   -0.0589   -0.0659   -0.0399    0.0286    0.0661    0.0521    0.0341
           8    0.0151   -0.1098    0.1135   -0.2731   -0.0906    0.1066    0.0299   -0.1638
           9   -0.0092    0.0882   -0.0410   -0.0379    0.1169    0.2039   -0.1930    0.0195
          10   -0.1164    0.0695   -0.0487    0.0697   -0.3970    0.1959    0.0623   -0.1682
          11   -0.2123   -0.0974    0.2352    0.3337    0.1439    0.0544    0.0231    0.1122
          12    0.2333   -0.0624    0.1274    0.1720   -0.1173   -0.0295    0.0770   -0.0702
          13    0.0146   -0.0154   -0.0046   -0.0264    0.2479   -0.1521    0.0964   -0.2571
          14    0.0265    0.1319    0.0310   -0.1480   -0.1317   -0.1557    0.0621    0.0340
          15   -0.0056    0.0308    0.0178   -0.0506    0.1516   -0.1376   -0.0790    0.2002
          16    0.0214   -0.0272   -0.0152   -0.0392    0.1588   -0.0274   -0.0017    0.0936
          17    0.0306    0.0823   -0.0321   -0.0865    0.0017    0.0875   -0.0314   -0.0630
          18    0.0153    0.0252   -0.0111   -0.0413    0.0120    0.0453    0.0145   -0.1086
          19   -0.1663    0.0022   -0.0144   -0.0623    0.1414   -0.0549   -0.0314    0.2779
          20    0.0825   -0.2940   -0.3093    0.1209    0.0122   -0.0767   -0.1875    0.0862
          21   -0.1995   -0.0641   -0.1556    0.0273   -0.0912   -0.0630    0.0914   -0.0444
          22    0.0245   -0.2655    0.2232   -0.2633    0.0784    0.0370    0.0649    0.1299
          23   -0.1454    0.3449   -0.2979    0.1463    0.0354   -0.0760   -0.2149   -0.1896
          24   -0.0193    0.0621    0.0067    0.1052   -0.0808   -0.0040   -0.0843   -0.0661
          25    0.1094    0.2297   -0.1404    0.2794    0.0353   -0.0601    0.2115    0.0304
          26    0.2576    0.3253   -0.0985    0.2333    0.1453    0.0870    0.1830    0.2180
          27    0.0227    0.0224   -0.0916    0.0443   -0.0074   -0.0023    0.1785   -0.0388
          28   -0.2018   -0.0284   -0.2307   -0.1446    0.1265    0.2027    0.5415    0.2219
          29    0.0171    0.1658   -0.0462   -0.1374    0.1114    0.2440   -0.1791   -0.0366
          30   -0.0134   -0.1282    0.0485    0.0340   -0.0730   -0.1062    0.0911   -0.0022
          31    0.6409   -0.0625    0.0942    0.0696   -0.0489    0.0144   -0.1687    0.0199
          32   -0.0051   -0.2311    0.1115   -0.0223   -0.1760   -0.1946    0.2170   -0.0697
          33   -0.0098   -0.1219    0.0468    0.0296   -0.0748   -0.1031    0.0933   -0.0102
          34    0.0461    0.1376   -0.2277   -0.2414   -0.2849   -0.0732    0.0082   -0.0575
          35   -0.0202    0.0649   -0.1439   -0.1712    0.0506    0.1323   -0.0474   -0.0963
          36    0.1053   -0.0031    0.0681    0.1011   -0.2369   -0.3141    0.0778    0.1413
          37   -0.0705   -0.0872    0.1782    0.3173   -0.1023    0.2046    0.1363   -0.0622
          38   -0.0526    0.0405   -0.0456   -0.0925    0.0383   -0.1089   -0.0881    0.0560
          39    0.2177    0.0394   -0.1640   -0.1097   -0.1080    0.2448    0.1624   -0.1877
          40   -0.0293    0.0104   -0.0007    0.0101   -0.0939    0.0592   -0.0327    0.0955
          41   -0.0068   -0.1441   -0.0468    0.1402    0.0952    0.1263    0.0265   -0.2045
          42   -0.0115    0.1954    0.0589   -0.1788   -0.2035   -0.1324   -0.0785    0.3953
          43   -0.0294    0.0110   -0.0006    0.0077   -0.0959    0.0541   -0.0318    0.1006
          44    0.0219    0.0177    0.0040   -0.0371    0.0499   -0.0791    0.0463   -0.0873
          45   -0.0811   -0.2171   -0.0671    0.2679   -0.0345    0.3606   -0.1589    0.1552
          46   -0.0262    0.0106   -0.0009    0.0088   -0.1042    0.0609   -0.0230    0.0741
          47   -0.0348   -0.0556   -0.0262    0.0837   -0.1502    0.1704   -0.0448    0.0714
          48    0.0537   -0.0708   -0.0120   -0.0008    0.4508   -0.2165    0.0765   -0.2858
          49   -0.0250   -0.0143   -0.0006   -0.0417    0.0853    0.0243   -0.0317    0.1497
          50    0.0447    0.3853    0.5423   -0.0578    0.1245    0.2090    0.0866    0.0272
          51   -0.1383    0.2263    0.1928    0.0599   -0.1329   -0.0803    0.1638   -0.2489


   Root No.      17        18        19        20        21        22        23        24

                17 A      18 A      19 A      20 A      21 A      22 A      23 A      24 A   

                1015.0    1052.4    1078.3    1092.7    1111.8    1142.2    1159.7    1195.0
  
           1   -0.0807   -0.0343   -0.2225    0.1950   -0.2009   -0.1704   -0.1286   -0.0087
           2    0.0396    0.1402    0.0384   -0.1144   -0.0246    0.5143   -0.0417   -0.1333
           3   -0.0273   -0.0350    0.0314    0.2366    0.1880    0.2267   -0.0315   -0.1491
           4    0.1472    0.0226    0.1047   -0.2592    0.1809    0.1205   -0.1384   -0.1146
           5    0.1342   -0.1184    0.1595   -0.2150    0.4052   -0.2810    0.0542   -0.0133
           6   -0.0330   -0.0407   -0.1576   -0.0512    0.1767   -0.0926    0.0696   -0.1134
           7    0.0252   -0.0509   -0.0205   -0.0685    0.0497   -0.0712    0.5760    0.1116
           8    0.0675   -0.0227   -0.1153    0.1774   -0.2524   -0.0719   -0.0367    0.2511
           9   -0.2689    0.0368    0.1065   -0.1793   -0.0392   -0.0012   -0.0273    0.1780
          10   -0.2940   -0.0131    0.1027    0.0480    0.1656    0.0572    0.0264   -0.1108
          11   -0.1852   -0.1514    0.0318   -0.0489   -0.0217   -0.1308    0.0156    0.0272
          12    0.0449   -0.0474   -0.1212   -0.0717   -0.1977   -0.1095   -0.0683   -0.0570
          13   -0.0940    0.0072    0.0441    0.0083    0.0183   -0.0054    0.0202   -0.0198
          14   -0.1589   -0.2249   -0.0231    0.0070   -0.0357   -0.0006    0.0069   -0.0365
          15    0.0687   -0.0756    0.0832   -0.0748   -0.0306    0.0151   -0.0156    0.0816
          16    0.0664   -0.0046   -0.0413   -0.0028   -0.0276    0.0211   -0.0360    0.0831
          17    0.1743    0.4013   -0.0006    0.0189    0.1123   -0.0270   -0.0084    0.0807
          18   -0.0166    0.1501   -0.0752    0.0728    0.0872   -0.0207    0.0235   -0.1540
          19    0.3341   -0.0076    0.0673    0.0964   -0.1512   -0.0390   -0.0028    0.1389
          20   -0.1820   -0.1043    0.0366   -0.0085   -0.1120    0.0769   -0.0132    0.0198
          21    0.0352   -0.0417    0.0602    0.1557   -0.1469   -0.0538    0.0936   -0.1317
          22   -0.1319    0.2143    0.0057   -0.2241   -0.2348    0.2147   -0.0717   -0.3023
          23    0.2032   -0.0927   -0.2422   -0.1292   -0.1790   -0.3463   -0.1581   -0.3040
          24    0.0065   -0.1273    0.0439    0.2996    0.2416    0.0481    0.0672    0.2606
          25   -0.0870    0.0530   -0.3588    0.0543   -0.0551    0.3111   -0.1512    0.2987
          26   -0.0606    0.1163    0.1371    0.4170   -0.3004    0.0505    0.2462   -0.2771
          27   -0.0716   -0.0295   -0.3638   -0.0841    0.1188    0.1338   -0.1443    0.3071
          28   -0.0988    0.0124    0.1240    0.0846    0.0682   -0.1846   -0.4291   -0.0480
          29   -0.1901    0.0371    0.0637   -0.0911   -0.1730   -0.0449   -0.0318    0.2159
          30    0.0846   -0.0237   -0.0428    0.0562    0.0699    0.0211    0.0063   -0.0526
          31    0.0120   -0.0472    0.1934    0.1811    0.0841   -0.0438   -0.5190   -0.0701
          32    0.2691   -0.0524   -0.1313    0.2069   -0.0170   -0.0062    0.0055   -0.0117
          33    0.0984   -0.0234   -0.0411    0.0618    0.0342    0.0115    0.0025   -0.0104
          34   -0.0953    0.2847    0.0376   -0.0330    0.0903    0.0149    0.0350   -0.0390
          35    0.0903   -0.1228    0.0396    0.0782    0.0853    0.1693   -0.0089   -0.0834
          36   -0.1779    0.4214   -0.0668   -0.1954   -0.1309   -0.3059    0.0281    0.1007
          37   -0.1336   -0.2136    0.0614   -0.1657   -0.0712   -0.0005    0.0264   -0.0662
          38   -0.0561    0.1228   -0.0193    0.1365    0.0946   -0.0497   -0.0110    0.0236
          39    0.3212   -0.2141    0.0359   -0.3339   -0.2440    0.2163    0.0027   -0.0224
          40    0.0402    0.0037   -0.0067    0.0014   -0.0068    0.0010   -0.0044    0.0162
          41    0.0290    0.1741   -0.0233    0.0393    0.0461   -0.0127    0.0154   -0.0723
          42    0.0004   -0.2512    0.0288   -0.0620   -0.0740    0.0188   -0.0269    0.1108
          43    0.0363   -0.0084   -0.0057   -0.0005   -0.0099    0.0018   -0.0045    0.0168
          44   -0.0707   -0.0424    0.0008    0.0066    0.0013   -0.0029    0.0079   -0.0254
          45    0.3004    0.2989    0.0117   -0.0213    0.0217    0.0064   -0.0320    0.1392
          46    0.0186   -0.0034   -0.0210    0.0112    0.0006   -0.0010    0.0014   -0.0279
          47    0.0647    0.0726   -0.0453    0.0233    0.0137   -0.0042   -0.0013   -0.0339
          48   -0.0395    0.0536    0.1033   -0.0386    0.0096    0.0023    0.0029    0.0911
          49    0.0795   -0.0170   -0.1492    0.0307    0.0146   -0.0127    0.0236   -0.0533
          50    0.1031    0.0644   -0.2193   -0.0538    0.1831   -0.0284    0.0163   -0.1070
          51    0.1575    0.0797    0.5414    0.0138   -0.1761   -0.0284   -0.0586    0.2689


   Root No.      25        26        27        28        29        30        31        32

                25 A      26 A      27 A      28 A      29 A      30 A      31 A      32 A   

                1228.5    1275.4    1349.4    1367.7    1390.5    1392.1    1394.7    1398.0
  
           1   -0.1418    0.1006    0.0416   -0.2566    0.0006    0.0702   -0.1028    0.0723
           2   -0.0950   -0.1606    0.1261   -0.1701    0.0009    0.0715   -0.0897    0.0669
           3    0.0721    0.3923   -0.2231    0.1190   -0.0018   -0.1100    0.1305   -0.1453
           4   -0.1869   -0.2086    0.0585    0.0514    0.0016   -0.0085    0.0439    0.1848
           5    0.1083   -0.0270   -0.0663    0.0755   -0.0028   -0.0081   -0.0325   -0.2188
           6    0.0210    0.1944    0.1485   -0.3093    0.0039    0.0420    0.0294    0.4179
           7    0.1425    0.0318   -0.0216    0.0417   -0.0005   -0.0101    0.0089   -0.0395
           8   -0.0682   -0.0397   -0.0216   -0.0104   -0.0024    0.0492   -0.1219   -0.1290
           9   -0.0394   -0.1338    0.0088    0.0332   -0.0001    0.0085   -0.0197   -0.0263
          10    0.1095   -0.0014    0.1930   -0.0692    0.0026   -0.1157    0.2845   -0.1776
          11   -0.0566    0.1198   -0.1502   -0.0119    0.0004   -0.0691    0.0680   -0.0375
          12    0.2567   -0.3079    0.3732    0.1020    0.0034    0.1581   -0.1464    0.0592
          13   -0.0879    0.0383    0.0796    0.0378   -0.0242   -0.2259   -0.1048   -0.0293
          14    0.0146   -0.0114    0.1042    0.0171   -0.2385    0.0117    0.0406   -0.0379
          15   -0.0349    0.0258   -0.2661   -0.0413   -0.0972    0.0269   -0.0676    0.0938
          16    0.2396   -0.0734   -0.1804   -0.1574   -0.0012   -0.0219   -0.0352    0.1624
          17   -0.0240    0.1058    0.0761    0.0093   -0.0043    0.0263    0.0085   -0.0033
          18    0.0803   -0.2561   -0.1939   -0.0324   -0.0053   -0.0639   -0.0223    0.0060
          19   -0.0356   -0.0319   -0.0226    0.1138   -0.0018    0.0222   -0.0661   -0.1255
          20    0.0505    0.0648    0.0084   -0.1056   -0.0001    0.0121    0.0009    0.1480
          21   -0.2242   -0.2317    0.0068    0.2630   -0.0026   -0.0255   -0.0024   -0.3454
          22    0.2479    0.1300   -0.0464    0.1062   -0.0006   -0.0448    0.0619   -0.1322
          23    0.1962    0.2067   -0.0410    0.0304   -0.0002   -0.0338    0.0531   -0.0427
          24   -0.2630   -0.0409    0.0050   -0.1260    0.0002    0.0337   -0.0542    0.0894
          25    0.1161    0.0459   -0.0986    0.1258   -0.0019   -0.0249    0.0012   -0.1500
          26   -0.0501    0.0846    0.0386   -0.0792    0.0013    0.0038    0.0153    0.0849
          27    0.1614    0.1075   -0.0612    0.0229   -0.0014   -0.0062   -0.0078   -0.0790
          28   -0.0913   -0.0400    0.0397   -0.0510    0.0006    0.0163   -0.0125    0.0601
          29   -0.0608   -0.1604   -0.0129    0.3253    0.0042   -0.1301    0.2709    0.2746
          30    0.0176    0.0705    0.0061   -0.2135   -0.0033    0.0996   -0.2115   -0.2151
          31   -0.0613    0.0307   -0.0579    0.0562   -0.0006   -0.0208    0.0132   -0.0742
          32   -0.0067    0.0441   -0.0286    0.2792    0.0045   -0.1464    0.3082    0.3266
[...]
 EFF. MASS   4.6117

 VIBRATION   24   24A         ATOM PAIR      ENERGY CONTRIBUTION    RADIAL
 FREQ.      1194.99         C  2 -- H  9         +17.0% ( 52.6%)      0.1%
 T-DIPOLE    0.0548         C  1 -- H  8         +15.8% ( 50.6%)      4.7%
 TRAVEL      0.1201         C  1 -- C  3         +10.6% ( 41.6%)     57.3%
 RED. MASS   0.3461         C  7 -- H 17          +8.5% ( 37.2%)      2.1%
 EFF. MASS   3.9124

 VIBRATION   25   25A         ATOM PAIR      ENERGY CONTRIBUTION    RADIAL
 FREQ.      1228.46         C  4 -- H 13         +13.9% ( 46.9%)      0.1%
 T-DIPOLE    0.0464         C  7 -- H 17         +13.8% ( 46.7%)      1.2%
 TRAVEL      0.1208         C  1 -- H  8         +12.9% ( 45.3%)      0.2%
 RED. MASS   0.3106         C  4 -- H 12         +10.5% ( 40.7%)      0.1%
 EFF. MASS   3.7617

 VIBRATION   26   26A         ATOM PAIR      ENERGY CONTRIBUTION    RADIAL
 FREQ.      1275.45         C  1 -- C  4         +14.9% ( 55.4%)     82.5%
 T-DIPOLE    0.0881         C  1 -- C  2         +11.2% ( 48.1%)     62.7%
 TRAVEL      0.0859         C  1 -- H  8          +8.8% ( 42.7%)     16.0%
 RED. MASS   0.8119         C  1 -- C  3          +8.5% ( 41.8%)      1.6%
 EFF. MASS   7.1724

 VIBRATION   27   27A         ATOM PAIR      ENERGY CONTRIBUTION    RADIAL
 FREQ.      1349.41         C  4 -- C  6         +13.8% ( 48.8%)     78.8%
 T-DIPOLE    0.0739         C  1 -- C  4         +12.3% ( 46.1%)     74.7%
 TRAVEL      0.0945         C  5 -- H 16         +11.3% ( 44.2%)      0.3%
 RED. MASS   0.7707         C  5 -- H 14         +10.5% ( 42.5%)      3.9%
 EFF. MASS   5.5978         C  5 -- H 15         +10.4% ( 42.4%)      3.8%

 VIBRATION   28   28A         ATOM PAIR      ENERGY CONTRIBUTION    RADIAL
 FREQ.      1367.70         C  2 -- C  7         +14.4% ( 46.2%)     96.7%
 T-DIPOLE    0.1412         C  1 -- C  2         +11.9% ( 42.0%)     28.0%
 TRAVEL      0.1014         C  4 -- H 13          +8.1% ( 34.7%)      1.0%
 RED. MASS   0.4709         C  1 -- H  8          +7.7% ( 33.7%)      1.6%
 EFF. MASS   4.7982

 VIBRATION   29   29A         ATOM PAIR      ENERGY CONTRIBUTION    RADIAL
 FREQ.      1390.47         C  5 -- H 16         +54.1% ( 63.7%)      0.0%
 T-DIPOLE    0.0666         C  5 -- H 14         +23.5% ( 41.9%)      8.7%
 TRAVEL      0.1755         C  5 -- H 15         +17.2% ( 36.0%)     15.4%
 RED. MASS   0.4256         C  5 -- C  6          +5.2% ( 19.7%)      0.0%
 EFF. MASS   1.5744

 VIBRATION   30   30A         ATOM PAIR      ENERGY CONTRIBUTION    RADIAL
 FREQ.      1392.05         C  5 -- H 15         +27.9% ( 50.4%)      1.3%
 T-DIPOLE    0.0568         C  5 -- H 14         +24.1% ( 46.8%)      2.5%
 TRAVEL      0.1467         C  4 -- H 12          +7.6% ( 26.2%)      4.3%
 RED. MASS   0.2715         C  4 -- H 13          +7.2% ( 25.6%)      5.3%
 EFF. MASS   2.2518

 VIBRATION   31   31A         ATOM PAIR      ENERGY CONTRIBUTION    RADIAL
 FREQ.      1394.69         C  4 -- H 12         +17.4% ( 43.8%)      5.4%
 T-DIPOLE    0.0466         C  4 -- H 13         +16.6% ( 42.8%)      6.4%
 TRAVEL      0.1307         C  1 -- C  4         +11.1% ( 35.0%)     68.5%
 RED. MASS   0.2631         C  3 -- H 11         +10.5% ( 34.0%)      1.0%
 EFF. MASS   2.8315

 VIBRATION   32   32A         ATOM PAIR      ENERGY CONTRIBUTION    RADIAL
 FREQ.      1397.99         C  2 -- C  7         +22.7% ( 65.1%)     98.9%
 T-DIPOLE    0.1488         C  2 -- H  9         +11.8% ( 46.9%)      3.1%
 TRAVEL      0.0844         C  1 -- C  2         +10.6% ( 44.4%)      3.1%
 RED. MASS   1.1764         C  2 -- C  3          +9.5% ( 42.0%)     14.3%
 EFF. MASS   6.7753

 VIBRATION   33   33A         ATOM PAIR      ENERGY CONTRIBUTION    RADIAL
 FREQ.      1471.01         C  5 -- C  6         +27.0% ( 78.6%)     81.0%
 T-DIPOLE    0.0610         C  4 -- C  6         +19.3% ( 66.6%)     94.3%
 TRAVEL      0.0664         C  6 -- C  7         +14.9% ( 58.4%)     12.7%
 RED. MASS   3.2274         C  5 -- H 15          +9.2% ( 45.9%)      3.1%
 EFF. MASS  10.3980

 VIBRATION   34   34A         ATOM PAIR      ENERGY CONTRIBUTION    RADIAL
 FREQ.      1548.72         C  1 -- C  3         +19.1% ( 72.4%)     98.6%
 T-DIPOLE    0.0920         C  2 -- C  3         +18.9% ( 72.0%)     97.0%
 TRAVEL      0.0614         C  1 -- C  2         +17.2% ( 68.7%)     99.6%
 RED. MASS   3.2096         C  2 -- C  7          +8.1% ( 47.1%)     48.3%
 EFF. MASS  11.5339

 VIBRATION   35   35A         ATOM PAIR      ENERGY CONTRIBUTION    RADIAL
 FREQ.      1859.81         C  6 -- C  7         +43.2% ( 97.3%)     97.8%
 T-DIPOLE    0.2855         C  5 -- C  6         +18.6% ( 63.9%)     63.8%
 TRAVEL      0.0553         C  4 -- C  6         +16.6% ( 60.4%)      4.4%
 RED. MASS   5.6094         C  2 -- C  7         +10.3% ( 47.5%)     22.3%
 EFF. MASS  11.8667

 VIBRATION   36   36A         ATOM PAIR      ENERGY CONTRIBUTION    RADIAL
 FREQ.      2982.44         C  4 -- H 12         +51.2% ( 74.2%)     96.9%
 T-DIPOLE    0.0492         C  4 -- H 13         +46.4% ( 70.6%)     96.4%
 TRAVEL      0.1211         C  1 -- C  4          +1.1% ( 11.0%)      0.1%
 RED. MASS   0.5186         C  4 -- C  6          +1.1% ( 11.0%)      0.0%
 EFF. MASS   1.5427

 VIBRATION   37   37A         ATOM PAIR      ENERGY CONTRIBUTION    RADIAL
 FREQ.      3052.01         C  4 -- H 13         +51.4% ( 70.8%)     97.7%
 T-DIPOLE    0.0921         C  4 -- H 12         +46.6% ( 67.5%)     97.1%
 TRAVEL      0.1312         C  1 -- C  4          +0.7% (  8.3%)     31.8%
 RED. MASS   0.4804         C  4 -- C  6          +0.7% (  8.2%)     35.1%
 EFF. MASS   1.2834

 VIBRATION   38   38A         ATOM PAIR      ENERGY CONTRIBUTION    RADIAL
 FREQ.      3067.53         C  5 -- H 14         +50.2% ( 73.1%)     97.2%
 T-DIPOLE    0.0252         C  5 -- H 15         +47.9% ( 71.4%)     96.9%
 TRAVEL      0.1209         C  5 -- C  6          +1.0% ( 10.2%)      0.0%
 RED. MASS   0.5098         C  5 -- H 16          +0.9% ( 10.0%)      0.5%
 EFF. MASS   1.5035

 VIBRATION   39   39A         ATOM PAIR      ENERGY CONTRIBUTION    RADIAL
 FREQ.      3077.58         C  2 -- H  9         +72.7% ( 86.9%)    100.0%
 T-DIPOLE    0.2452         C  1 -- H  8         +21.7% ( 47.5%)    100.0%
 TRAVEL      0.1225         C  1 -- C  2          +1.1% ( 10.8%)      4.6%
 RED. MASS   0.5765         C  2 -- C  3          +1.0% ( 10.1%)     21.1%
 EFF. MASS   1.4597

 VIBRATION   40   40A         ATOM PAIR      ENERGY CONTRIBUTION    RADIAL
 FREQ.      3078.22         C  5 -- H 16         +60.9% ( 80.5%)     98.7%
 T-DIPOLE    0.0370         C  5 -- H 15         +20.1% ( 46.2%)     86.7%
 TRAVEL      0.1203         C  5 -- H 14         +17.9% ( 43.7%)     84.8%
 RED. MASS   0.4746         C  5 -- C  6          +1.0% ( 10.5%)      0.0%
 EFF. MASS   1.5134

 VIBRATION   41   41A         ATOM PAIR      ENERGY CONTRIBUTION    RADIAL
 FREQ.      3079.21         C  1 -- H  8         +61.1% ( 80.1%)    100.0%
 T-DIPOLE    0.2042         C  2 -- H  9         +12.6% ( 36.3%)    100.0%
 TRAVEL      0.1206         C  3 -- H 10         +11.4% ( 34.7%)     97.4%
 RED. MASS   0.4236         C  3 -- H 11         +10.7% ( 33.6%)     96.4%
 EFF. MASS   1.5063

 VIBRATION   42   42A         ATOM PAIR      ENERGY CONTRIBUTION    RADIAL
 FREQ.      3094.43         C  3 -- H 10         +42.4% ( 66.9%)     97.8%
 T-DIPOLE    0.3015         C  3 -- H 11         +32.5% ( 58.6%)     96.5%
 TRAVEL      0.1193         C  1 -- H  8         +11.9% ( 35.5%)    100.0%
 RED. MASS   0.3323         C  2 -- H  9         +10.2% ( 32.9%)    100.0%
 EFF. MASS   1.5318

 VIBRATION   43   43A         ATOM PAIR      ENERGY CONTRIBUTION    RADIAL
 FREQ.      3130.32         C  3 -- H 11         +44.5% ( 66.6%)     97.1%
 T-DIPOLE    0.2345         C  3 -- H 10         +36.5% ( 60.3%)     95.5%
 TRAVEL      0.1268         C  7 -- H 17         +16.9% ( 41.0%)    100.0%
 RED. MASS   0.3639         C  1 -- C  3          +0.7% (  8.2%)     75.7%
 EFF. MASS   1.3400

 VIBRATION   44   44A         ATOM PAIR      ENERGY CONTRIBUTION    RADIAL
 FREQ.      3131.11         C  7 -- H 17         +80.3% ( 90.8%)    100.0%
 T-DIPOLE    0.3626         C  3 -- H 11          +9.6% ( 31.4%)     97.6%
 TRAVEL      0.1190         C  3 -- H 10          +6.4% ( 25.6%)     94.3%
 RED. MASS   0.6484         C  6 -- C  7          +1.5% ( 12.4%)     48.5%
 EFF. MASS   1.5199

 VIBRATION   45   45A         ATOM PAIR      ENERGY CONTRIBUTION    RADIAL
 FREQ.      3166.24         C  5 -- H 16         +37.9% ( 59.3%)     97.7%
 T-DIPOLE    0.0513         C  5 -- H 15         +30.9% ( 53.6%)     96.7%
 TRAVEL      0.1367         C  5 -- H 14         +30.8% ( 53.5%)     96.7%
 RED. MASS   0.3296         C  5 -- C  6          +0.3% (  5.5%)     99.4%
 EFF. MASS   1.1396

      SYMMETRY NUMBER FOR POINT-GROUP C1  =  1


          SYSTEM IS A GROUND STATE



 InChI=1S/C7H10/c1-5-2-6-4-7(6)3-5/h2,6-7H,3-4H2,1H3


          MOLECULE IS NOT LINEAR

          THERE ARE 45 GENUINE VIBRATIONS IN THIS SYSTEM
          THIS THERMODYNAMICS CALCULATION IS LIMITED TO
          MOLECULES WHICH HAVE NO INTERNAL ROTATIONS




                    CALCULATED THERMODYNAMIC PROPERTIES
                                          *
   TEMP. (K)   PARTITION FUNCTION   H.O.F.    ENTHALPY  HEAT CAPACITY ENTROPY
                                   KCAL/MOL   CAL/MOLE    CAL/K/MOL  CAL/K/MOL


 298.00  VIB.     0.9955D+01                  2213.5936    18.7432    11.9950
         ROT.     0.1738D+06                   888.2813     2.9808    26.9582
         INT.     0.1731D+07                  3101.8749    21.7240    38.9532
         TRA.     0.8833D+27                  1480.4688     4.9680    39.5363
         TOT.                       27.597    4582.3438    26.6920    78.4895

 200.00  VIB.     0.3248D+01                   817.8118    10.0982     6.4298
         ROT.     0.9558D+05                   596.1620     2.9808    25.7695
         INT.     0.3104D+06                  1413.9738    13.0791    32.1994
         TRA.     0.4856D+27                   993.6033     4.9680    37.5551
         TOT.                       25.423    2407.5770    18.0471    69.7545

 210.00  VIB.     0.3604D+01                   922.6155    10.8678     6.9410
         ROT.     0.1028D+06                   625.9700     2.9808    25.9150
         INT.     0.3706D+06                  1548.5855    13.8486    32.8560
         TRA.     0.5225D+27                  1043.2834     4.9680    37.7975
         TOT.                       25.607    2591.8690    18.8166    70.6535

 220.00  VIB.     0.4009D+01                  1035.2717    11.6686     7.4649
         ROT.     0.1103D+06                   655.7781     2.9808    26.0537
         INT.     0.4420D+06                  1691.0498    14.6494    33.5186
         TRA.     0.5603D+27                  1092.9636     4.9680    38.0286
         TOT.                       25.799    2784.0134    19.6174    71.5472

 230.00  VIB.     0.4469D+01                  1156.0870    12.4993     8.0018
         ROT.     0.1179D+06                   685.5862     2.9808    26.1862
         INT.     0.5268D+06                  1841.6732    15.4801    34.1880
         TRA.     0.5989D+27                  1142.6437     4.9680    38.2495
         TOT.                       25.999    2984.3170    20.4481    72.4375

 240.00  VIB.     0.4995D+01                  1285.3508    13.3579     8.5518
         ROT.     0.1256D+06                   715.3943     2.9808    26.3130
         INT.     0.6276D+06                  2000.7451    16.3387    34.8649
         TRA.     0.6384D+27                  1192.3239     4.9680    38.4609
         TOT.                       26.208    3193.0690    21.3067    73.3258

 250.00  VIB.     0.5595D+01                  1423.3298    14.2419     9.1150
         ROT.     0.1336D+06                   745.2024     2.9808    26.4347
         INT.     0.7473D+06                  2168.5323    17.2227    35.5497
         TRA.     0.6787D+27                  1242.0041     4.9680    38.6637
         TOT.                       26.426    3410.5363    22.1907    74.2134

 260.00  VIB.     0.6281D+01                  1570.2639    15.1484     9.6912
         ROT.     0.1417D+06                   775.0105     2.9808    26.5516
         INT.     0.8899D+06                  2345.2744    18.1292    36.2428
         TRA.     0.7198D+27                  1291.6842     4.9680    38.8586
         TOT.                       26.652    3636.9586    23.0972    75.1013

 270.00  VIB.     0.7068D+01                  1726.3629    16.0744    10.2802
         ROT.     0.1499D+06                   804.8186     2.9808    26.6641
         INT.     0.1060D+07                  2531.1815    19.0552    36.9443
         TRA.     0.7618D+27                  1341.3644     4.9680    39.0461
         TOT.                       26.888    3872.5459    24.0232    75.9903

 280.00  VIB.     0.7972D+01                  1891.8053    17.0166    10.8817
         ROT.     0.1583D+06                   834.6267     2.9808    26.7725
         INT.     0.1262D+07                  2726.4320    19.9974    37.6542
         TRA.     0.8045D+27                  1391.0445     4.9680    39.2267
         TOT.                       27.133    4117.4766    24.9654    76.8810

 290.00  VIB.     0.9011D+01                  2066.7374    17.9718    11.4955
         ROT.     0.1669D+06                   864.4348     2.9808    26.8771
         INT.     0.1504D+07                  2931.1722    20.9526    38.3726
         TRA.     0.8479D+27                  1440.7247     4.9680    39.4011
         TOT.                       27.387    4371.8970    25.9206    77.7737

 300.00  VIB.     0.1021D+02                  2251.2736    18.9369    12.1210
         ROT.     0.1756D+06                   894.2429     2.9808    26.9782
         INT.     0.1793D+07                  3145.5166    21.9177    39.0992
         TRA.     0.8922D+27                  1490.4049     4.9680    39.5695
         TOT.                       27.651    4635.9214    26.8857    78.6687

 310.00  VIB.     0.1159D+02                  2445.4973    19.9088    12.7578
         ROT.     0.1844D+06                   924.0510     2.9808    27.0759
         INT.     0.2138D+07                  3369.5483    22.8896    39.8337
         TRA.     0.9372D+27                  1540.0850     4.9680    39.7324
         TOT.                       27.925    4909.6334    27.8576    79.5661

 320.00  VIB.     0.1319D+02                  2649.4620    20.8846    13.4053
         ROT.     0.1934D+06                   953.8591     2.9808    27.1705
         INT.     0.2551D+07                  3603.3211    23.8654    40.5758
         TRA.     0.9829D+27                  1589.7652     4.9680    39.8901
         TOT.                       28.208    5193.0863    28.8334    80.4659

 330.00  VIB.     0.1504D+02                  2863.1935    21.8617    14.0629
         ROT.     0.2026D+06                   983.6672     2.9808    27.2623
         INT.     0.3046D+07                  3846.8608    24.8425    41.3251
         TRA.     0.1029D+28                  1639.4454     4.9680    40.0430
         TOT.                       28.501    5486.3061    29.8105    81.3681

 340.00  VIB.     0.1718D+02                  3086.6918    22.8376    14.7300
         ROT.     0.2119D+06                  1013.4753     2.9808    27.3513
         INT.     0.3640D+07                  4100.1671    25.8184    42.0813
         TRA.     0.1076D+28                  1689.1255     4.9680    40.1913
         TOT.                       28.804    5789.2926    30.7864    82.2726

 350.00  VIB.     0.1967D+02                  3319.9330    23.8099    15.4060
         ROT.     0.2213D+06                  1043.2834     2.9808    27.4377
         INT.     0.4353D+07                  4363.2164    26.7907    42.8437
         TRA.     0.1124D+28                  1738.8057     4.9680    40.3353
         TOT.                       29.117    6102.0221    31.7588    83.1790

 360.00  VIB.     0.2257D+02                  3562.8720    24.7768    16.0904
         ROT.     0.2308D+06                  1073.0915     2.9808    27.5216
         INT.     0.5210D+07                  4635.9635    27.7576    43.6120
         TRA.     0.1173D+28                  1788.4859     4.9680    40.4753
         TOT.                       29.440    6424.4493    32.7256    84.0873

 370.00  VIB.     0.2595D+02                  3815.4445    25.7364    16.7823
         ROT.     0.2405D+06                  1102.8996     2.9808    27.6033
         INT.     0.6240D+07                  4918.3441    28.7172    44.3856
         TRA.     0.1222D+28                  1838.1660     4.9680    40.6114
         TOT.                       29.772    6756.5101    33.6852    84.9970

 380.00  VIB.     0.2988D+02                  4077.5694    26.6870    17.4813
         ROT.     0.2503D+06                  1132.7077     2.9808    27.6828
         INT.     0.7479D+07                  5210.2771    29.6678    45.1641
         TRA.     0.1272D+28                  1887.8462     4.9680    40.7439
         TOT.                       30.113    7098.1233    34.6359    85.9080

 390.00  VIB.     0.3447D+02                  4349.1509    27.6275    18.1867
         ROT.     0.2603D+06                  1162.5158     2.9808    27.7602
         INT.     0.8972D+07                  5511.6667    30.6083    45.9469
         TRA.     0.1322D+28                  1937.5263     4.9680    40.8729
         TOT.                       30.464    7449.1930    35.5763    86.8199

 400.00  VIB.     0.3984D+02                  4630.0805    28.5565    18.8979
         ROT.     0.2703D+06                  1192.3239     2.9808    27.8357
         INT.     0.1077D+08                  5822.4044    31.5373    46.7336
         TRA.     0.1374D+28                  1987.2065     4.9680    40.9987
         TOT.                       30.825    7809.6109    36.5053    87.7323

   *: NOTE: HEATS OF FORMATION ARE RELATIVE TO THE
            ELEMENTS IN THEIR STANDARD STATE AT 298K
              (=  Standard Enthalpy of Formation).

            Hvib:  Zero-point energy is not included.
                   frequencies of less than zero cm-1 are not included.
            Hrot = (3/2)RT
            Htra = (3/2)RT + pV = (5/2)RT

            Heat capacity is Cp, not Cv

          For more information, see: HTTP://OpenMOPAC.net/Manual/thermochemistry.html


           FORCE CONSTANT IN CARTESIAN COORDINATES (Millidynes/A)

    ATOM   CHEMICAL       X               Y               Z
   NUMBER   SYMBOL  FORCE CONSTANT  FORCE CONSTANT  FORCE CONSTANT

      1       C        9.354281        6.698914        9.210925
      2       C        9.319456        6.430309        9.930051
      3       C        4.404725       11.581554        8.911729
      4       C        9.335377        8.159271        7.813585
      5       C        8.436475        8.145376        9.100188
      6       C       11.747801        4.296633       12.131182
      7       C       14.456334        3.553068        9.529728
      8       H        2.089277        0.929028        3.502780
      9       H        2.149152        0.911888        3.425222
     10       H        0.526974        2.349052        3.764011
     11       H        0.527336        2.220071        3.895748
     12       H        1.944941        2.677853        1.726775
     13       H        1.918817        3.737870        0.734673
     14       H        1.661120        2.583351        2.393159
     15       H        1.778090        4.207776        0.656186
     16       H        4.771539        0.761195        1.206207
     17       H        5.006780        0.436930        0.978749

 **********************
 *                    *
 * JOB ENDED NORMALLY *
 *                    *
 **********************



 TOTAL JOB TIME:             1.31 SECONDS

 == MOPAC DONE ==
