 *******************************************************************************
 ** Site#: 14399        For non-commercial use only    Version 18.184L 64BITS **
 *******************************************************************************
 ** Cite this program as: MOPAC2016, Version: 18.184L, James J. P. Stewart,   **
 ** Stewart Computational Chemistry, web: HTTP://OpenMOPAC.net. Days left:  18**
 *******************************************************************************
 **                                                                           **
 **                                MOPAC2016                                  **
 **                                                                           **
 *******************************************************************************

                              PM3 CALCULATION RESULTS

 *******************************************************************************
 *  CALCULATION DONE:                                Sat Jun 15 11:02:02 2019  *
 *  PM3        - The PM3 Hamiltonian to be used
 *  PRECISE    - CRITERIA TO BE INCREASED BY 100 TIMES
 *  NOSYM      - POINT-GROUP SYMMETRY SET TO C1
 *  THREADS=1  - MULTI-THREADING NOT USED
 *  T=         - A TIME OF 172800.0 SECONDS REQUESTED
 *  DUMP=N     - RESTART FILE WRITTEN EVERY  7200.000 SECONDS
 *******************************************************************************
pm3  precise nosym THREADS=1
 InChI=1S/C7H12O2/c1-3-5-7-6(4-2)8-9-7/h3,6-7H,1,4-5H2,2H3

   ATOM   CHEMICAL          X               Y               Z
  NUMBER   SYMBOL      (ANGSTROMS)     (ANGSTROMS)     (ANGSTROMS)
 
     1       O         -0.98720000  *  -1.88170000  *  -1.15670000  *
     2       O         -0.15290000  *  -2.49760000  *  -0.31020000  *
     3       C         -0.77390000  *  -0.62850000  *  -0.57520000  *
     4       C          0.14430000  *  -1.31630000  *   0.37550000  *
     5       C         -2.06170000  *  -0.08150000  *   0.05310000  *
     6       C          1.62130000  *  -0.94010000  *   0.22110000  *
     7       C         -1.79700000  *   1.21660000  *   0.81050000  *
     8       C          1.87620000  *   0.41720000  *   0.81690000  *
     9       C          2.31030000  *   1.44320000  *   0.07970000  *
    10       H         -0.28760000  *   0.06890000  *  -1.29360000  *
    11       H         -0.20480000  *  -1.36700000  *   1.43130000  *
    12       H         -2.51170000  *  -0.82900000  *   0.74310000  *
    13       H         -2.79510000  *   0.12050000  *  -0.75680000  *
    14       H          2.23990000  *  -1.68410000  *   0.76600000  *
    15       H          1.92010000  *  -0.97660000  *  -0.85090000  *
    16       H         -1.09830000  *   1.03770000  *   1.65490000  *
    17       H         -1.36010000  *   1.97820000  *   0.12980000  *
    18       H         -2.75170000  *   1.60990000  *   1.21870000  *
    19       H          1.69490000  *   0.56740000  *   1.87730000  *
    20       H          2.47890000  *   2.40990000  *   0.54310000  *
    21       H          2.49600000  *   1.33280000  *  -0.98420000  *
 


          CARTESIAN COORDINATES 

    NO.       ATOM           X           Y           Z

     1         O         -0.9872     -1.8817     -1.1567
     2         O         -0.1529     -2.4976     -0.3102
     3         C         -0.7739     -0.6285     -0.5752
     4         C          0.1443     -1.3163      0.3755
     5         C         -2.0617     -0.0815      0.0531
     6         C          1.6213     -0.9401      0.2211
     7         C         -1.7970      1.2166      0.8105
     8         C          1.8762      0.4172      0.8169
     9         C          2.3103      1.4432      0.0797
    10         H         -0.2876      0.0689     -1.2936
    11         H         -0.2048     -1.3670      1.4313
    12         H         -2.5117     -0.8290      0.7431
    13         H         -2.7951      0.1205     -0.7568
    14         H          2.2399     -1.6841      0.7660
    15         H          1.9201     -0.9766     -0.8509
    16         H         -1.0983      1.0377      1.6549
    17         H         -1.3601      1.9782      0.1298
    18         H         -2.7517      1.6099      1.2187
    19         H          1.6949      0.5674      1.8773
    20         H          2.4789      2.4099      0.5431
    21         H          2.4960      1.3328     -0.9842

  H: (PM3): J. J. P. STEWART, J. COMP. CHEM. 10, 209 (1989).
  C: (PM3): J. J. P. STEWART, J. COMP. CHEM. 10, 209 (1989).
  O: (PM3): J. J. P. STEWART, J. COMP. CHEM. 10, 209 (1989).

           Empirical Formula: C7 H12 O2  =    21 atoms



      MOLECULAR POINT GROUP   :   C1  


      RHF CALCULATION, NO. OF DOUBLY OCCUPIED LEVELS = 26


          Geometry optimization using EF

          DIAGONAL MATRIX USED AS START HESSIAN

 CYCLE:     1 TIME:   0.008 TIME LEFT:  2.00D  GRAD.:   276.508 HEAT:  16.60610
 CYCLE:     2 TIME:   0.004 TIME LEFT:  2.00D  GRAD.:   136.522 HEAT:  1.142858
 CYCLE:     3 TIME:   0.008 TIME LEFT:  2.00D  GRAD.:    97.276 HEAT: -2.219545
 CYCLE:     4 TIME:   0.008 TIME LEFT:  2.00D  GRAD.:    70.913 HEAT: -3.480907
 CYCLE:     5 TIME:   0.004 TIME LEFT:  2.00D  GRAD.:    52.541 HEAT: -3.963342
 CYCLE:     6 TIME:   0.004 TIME LEFT:  2.00D  GRAD.:    47.586 HEAT: -4.154018
 CYCLE:     7 TIME:   0.008 TIME LEFT:  2.00D  GRAD.:    21.042 HEAT: -4.748842
 CYCLE:     8 TIME:   0.008 TIME LEFT:  2.00D  GRAD.:    14.839 HEAT: -4.870820
 CYCLE:     9 TIME:   0.004 TIME LEFT:  2.00D  GRAD.:    10.248 HEAT: -4.987451
 CYCLE:    10 TIME:   0.008 TIME LEFT:  2.00D  GRAD.:    11.726 HEAT: -5.045179
 CYCLE:    11 TIME:   0.004 TIME LEFT:  2.00D  GRAD.:    16.728 HEAT: -5.056829
 CYCLE:    12 TIME:   0.004 TIME LEFT:  2.00D  GRAD.:    18.243 HEAT: -5.070972
 CYCLE:    13 TIME:   0.008 TIME LEFT:  2.00D  GRAD.:     7.213 HEAT: -5.154602
 CYCLE:    14 TIME:   0.008 TIME LEFT:  2.00D  GRAD.:     7.127 HEAT: -5.168205
 CYCLE:    15 TIME:   0.004 TIME LEFT:  2.00D  GRAD.:     5.987 HEAT: -5.184923
 CYCLE:    16 TIME:   0.004 TIME LEFT:  2.00D  GRAD.:     6.005 HEAT: -5.202672
 CYCLE:    17 TIME:   0.008 TIME LEFT:  2.00D  GRAD.:     6.942 HEAT: -5.215238
 CYCLE:    18 TIME:   0.004 TIME LEFT:  2.00D  GRAD.:     7.529 HEAT: -5.223048
 CYCLE:    19 TIME:   0.004 TIME LEFT:  2.00D  GRAD.:     4.669 HEAT: -5.236884
 CYCLE:    20 TIME:   0.004 TIME LEFT:  2.00D  GRAD.:     3.353 HEAT: -5.243671
 CYCLE:    21 TIME:   0.004 TIME LEFT:  2.00D  GRAD.:     5.029 HEAT: -5.243043
 CYCLE:    22 TIME:   0.004 TIME LEFT:  2.00D  GRAD.:     2.194 HEAT: -5.252086
 CYCLE:    23 TIME:   0.004 TIME LEFT:  2.00D  GRAD.:     2.276 HEAT: -5.255661
 CYCLE:    24 TIME:   0.004 TIME LEFT:  2.00D  GRAD.:     2.034 HEAT: -5.261375
 CYCLE:    25 TIME:   0.008 TIME LEFT:  2.00D  GRAD.:     3.875 HEAT: -5.264691
 CYCLE:    26 TIME:   0.004 TIME LEFT:  2.00D  GRAD.:     3.113 HEAT: -5.269597
 CYCLE:    27 TIME:   0.004 TIME LEFT:  2.00D  GRAD.:     2.059 HEAT: -5.274865
 CYCLE:    28 TIME:   0.004 TIME LEFT:  2.00D  GRAD.:     2.097 HEAT: -5.279554
 CYCLE:    29 TIME:   0.004 TIME LEFT:  2.00D  GRAD.:     4.193 HEAT: -5.291725
 CYCLE:    30 TIME:   0.004 TIME LEFT:  2.00D  GRAD.:     4.733 HEAT: -5.307446
 CYCLE:    31 TIME:   0.004 TIME LEFT:  2.00D  GRAD.:     3.208 HEAT: -5.321945
 CYCLE:    32 TIME:   0.008 TIME LEFT:  2.00D  GRAD.:     2.722 HEAT: -5.334174
 CYCLE:    33 TIME:   0.004 TIME LEFT:  2.00D  GRAD.:     4.229 HEAT: -5.348666
 CYCLE:    34 TIME:   0.004 TIME LEFT:  2.00D  GRAD.:     3.604 HEAT: -5.363702
 CYCLE:    35 TIME:   0.004 TIME LEFT:  2.00D  GRAD.:     3.252 HEAT: -5.383802
 CYCLE:    36 TIME:   0.004 TIME LEFT:  2.00D  GRAD.:     4.097 HEAT: -5.417409
 CYCLE:    37 TIME:   0.004 TIME LEFT:  2.00D  GRAD.:     4.572 HEAT: -5.439659
 CYCLE:    38 TIME:   0.004 TIME LEFT:  2.00D  GRAD.:     4.043 HEAT: -5.459094
 CYCLE:    39 TIME:   0.004 TIME LEFT:  2.00D  GRAD.:     2.945 HEAT: -5.476671
 CYCLE:    40 TIME:   0.004 TIME LEFT:  2.00D  GRAD.:     3.625 HEAT: -5.493625
 CYCLE:    41 TIME:   0.008 TIME LEFT:  2.00D  GRAD.:     2.623 HEAT: -5.503707
 CYCLE:    42 TIME:   0.004 TIME LEFT:  2.00D  GRAD.:     2.126 HEAT: -5.508930
 CYCLE:    43 TIME:   0.004 TIME LEFT:  2.00D  GRAD.:     1.073 HEAT: -5.511979
 CYCLE:    44 TIME:   0.004 TIME LEFT:  2.00D  GRAD.:     0.824 HEAT: -5.513137
 CYCLE:    45 TIME:   0.004 TIME LEFT:  2.00D  GRAD.:     1.005 HEAT: -5.515396
 CYCLE:    46 TIME:   0.004 TIME LEFT:  2.00D  GRAD.:     0.946 HEAT: -5.516635
 CYCLE:    47 TIME:   0.004 TIME LEFT:  2.00D  GRAD.:     0.860 HEAT: -5.518471
 CYCLE:    48 TIME:   0.004 TIME LEFT:  2.00D  GRAD.:     0.816 HEAT: -5.519475
 CYCLE:    49 TIME:   0.004 TIME LEFT:  2.00D  GRAD.:     1.461 HEAT: -5.522841
 CYCLE:    50 TIME:   0.008 TIME LEFT:  2.00D  GRAD.:     1.191 HEAT: -5.524339
 CYCLE:    51 TIME:   0.004 TIME LEFT:  2.00D  GRAD.:     1.709 HEAT: -5.529634
 CYCLE:    52 TIME:   0.004 TIME LEFT:  2.00D  GRAD.:     1.087 HEAT: -5.531487
 CYCLE:    53 TIME:   0.004 TIME LEFT:  2.00D  GRAD.:     0.888 HEAT: -5.534472
 CYCLE:    54 TIME:   0.004 TIME LEFT:  2.00D  GRAD.:     0.999 HEAT: -5.536226
 CYCLE:    55 TIME:   0.004 TIME LEFT:  2.00D  GRAD.:     1.479 HEAT: -5.541363
 CYCLE:    56 TIME:   0.004 TIME LEFT:  2.00D  GRAD.:     1.294 HEAT: -5.544260
 CYCLE:    57 TIME:   0.004 TIME LEFT:  2.00D  GRAD.:     2.578 HEAT: -5.555940
 CYCLE:    58 TIME:   0.004 TIME LEFT:  2.00D  GRAD.:     1.410 HEAT: -5.561160
 CYCLE:    59 TIME:   0.004 TIME LEFT:  2.00D  GRAD.:     1.146 HEAT: -5.563802
 CYCLE:    60 TIME:   0.008 TIME LEFT:  2.00D  GRAD.:     1.181 HEAT: -5.567682
 CYCLE:    61 TIME:   0.004 TIME LEFT:  2.00D  GRAD.:     1.370 HEAT: -5.573173
 CYCLE:    62 TIME:   0.004 TIME LEFT:  2.00D  GRAD.:     1.061 HEAT: -5.574946
 CYCLE:    63 TIME:   0.004 TIME LEFT:  2.00D  GRAD.:     0.822 HEAT: -5.577397
 CYCLE:    64 TIME:   0.004 TIME LEFT:  2.00D  GRAD.:     0.844 HEAT: -5.579272
 CYCLE:    65 TIME:   0.004 TIME LEFT:  2.00D  GRAD.:     0.833 HEAT: -5.580801
 CYCLE:    66 TIME:   0.004 TIME LEFT:  2.00D  GRAD.:     0.810 HEAT: -5.582058
 CYCLE:    67 TIME:   0.004 TIME LEFT:  2.00D  GRAD.:     0.648 HEAT: -5.583684
 CYCLE:    68 TIME:   0.004 TIME LEFT:  2.00D  GRAD.:     0.487 HEAT: -5.584483
 CYCLE:    69 TIME:   0.008 TIME LEFT:  2.00D  GRAD.:     0.539 HEAT: -5.585323
 CYCLE:    70 TIME:   0.004 TIME LEFT:  2.00D  GRAD.:     0.397 HEAT: -5.585662
 CYCLE:    71 TIME:   0.004 TIME LEFT:  2.00D  GRAD.:     0.325 HEAT: -5.586186
 CYCLE:    72 TIME:   0.004 TIME LEFT:  2.00D  GRAD.:     0.296 HEAT: -5.586456
 CYCLE:    73 TIME:   0.004 TIME LEFT:  2.00D  GRAD.:     0.381 HEAT: -5.587004
 CYCLE:    74 TIME:   0.004 TIME LEFT:  2.00D  GRAD.:     0.417 HEAT: -5.587334
 CYCLE:    75 TIME:   0.004 TIME LEFT:  2.00D  GRAD.:     0.620 HEAT: -5.588243
 CYCLE:    76 TIME:   0.004 TIME LEFT:  2.00D  GRAD.:     0.590 HEAT: -5.588788
 CYCLE:    77 TIME:   0.004 TIME LEFT:  2.00D  GRAD.:     0.589 HEAT: -5.589966
 CYCLE:    78 TIME:   0.004 TIME LEFT:  2.00D  GRAD.:     0.458 HEAT: -5.590370
 CYCLE:    79 TIME:   0.008 TIME LEFT:  2.00D  GRAD.:     0.666 HEAT: -5.591519
 CYCLE:    80 TIME:   0.004 TIME LEFT:  2.00D  GRAD.:     0.558 HEAT: -5.592148
 CYCLE:    81 TIME:   0.004 TIME LEFT:  2.00D  GRAD.:     0.892 HEAT: -5.594608
 CYCLE:    82 TIME:   0.004 TIME LEFT:  2.00D  GRAD.:     1.010 HEAT: -5.596273
 CYCLE:    83 TIME:   0.004 TIME LEFT:  2.00D  GRAD.:     1.069 HEAT: -5.600613
 CYCLE:    84 TIME:   0.004 TIME LEFT:  2.00D  GRAD.:     0.879 HEAT: -5.602287
 CYCLE:    85 TIME:   0.004 TIME LEFT:  2.00D  GRAD.:     0.616 HEAT: -5.604013
 CYCLE:    86 TIME:   0.004 TIME LEFT:  2.00D  GRAD.:     0.522 HEAT: -5.604641
 CYCLE:    87 TIME:   0.004 TIME LEFT:  2.00D  GRAD.:     0.505 HEAT: -5.605426
 CYCLE:    88 TIME:   0.008 TIME LEFT:  2.00D  GRAD.:     0.355 HEAT: -5.605685
 CYCLE:    89 TIME:   0.004 TIME LEFT:  2.00D  GRAD.:     0.382 HEAT: -5.606074
 CYCLE:    90 TIME:   0.004 TIME LEFT:  2.00D  GRAD.:     0.308 HEAT: -5.606259
 CYCLE:    91 TIME:   0.004 TIME LEFT:  2.00D  GRAD.:     0.345 HEAT: -5.606702
 CYCLE:    92 TIME:   0.004 TIME LEFT:  2.00D  GRAD.:     0.392 HEAT: -5.607074
 CYCLE:    93 TIME:   0.004 TIME LEFT:  2.00D  GRAD.:     0.804 HEAT: -5.608789
 CYCLE:    94 TIME:   0.008 TIME LEFT:  2.00D  GRAD.:     0.715 HEAT: -5.609649
 CYCLE:    95 TIME:   0.004 TIME LEFT:  2.00D  GRAD.:     0.991 HEAT: -5.611773
 CYCLE:    96 TIME:   0.004 TIME LEFT:  2.00D  GRAD.:     0.706 HEAT: -5.612812
 CYCLE:    97 TIME:   0.004 TIME LEFT:  2.00D  GRAD.:     0.531 HEAT: -5.613750
 CYCLE:    98 TIME:   0.004 TIME LEFT:  2.00D  GRAD.:     0.347 HEAT: -5.614622
 CYCLE:    99 TIME:   0.004 TIME LEFT:  2.00D  GRAD.:     0.207 HEAT: -5.614794
 CYCLE:   100 TIME:   0.004 TIME LEFT:  2.00D  GRAD.:     0.167 HEAT: -5.614872
 CYCLE:   101 TIME:   0.004 TIME LEFT:  2.00D  GRAD.:     0.147 HEAT: -5.614940
 CYCLE:   102 TIME:   0.004 TIME LEFT:  2.00D  GRAD.:     0.249 HEAT: -5.614953
 CYCLE:   103 TIME:   0.008 TIME LEFT:  2.00D  GRAD.:     0.134 HEAT: -5.614986
 CYCLE:   104 TIME:   0.004 TIME LEFT:  2.00D  GRAD.:     0.052 HEAT: -5.615001
 CYCLE:   105 TIME:   0.004 TIME LEFT:  2.00D  GRAD.:     0.051 HEAT: -5.615014
 CYCLE:   106 TIME:   0.004 TIME LEFT:  2.00D  GRAD.:     1.411 HEAT: -5.607536
 CYCLE:   107 TIME:   0.004 TIME LEFT:  2.00D  GRAD.:     0.068 HEAT: -5.615032
 CYCLE:   108 TIME:   0.004 TIME LEFT:  2.00D  GRAD.:     0.052 HEAT: -5.615038
 CYCLE:   109 TIME:   0.004 TIME LEFT:  2.00D  GRAD.:     0.154 HEAT: -5.615043
 CYCLE:   110 TIME:   0.004 TIME LEFT:  2.00D  GRAD.:     0.124 HEAT: -5.615053
 CYCLE:   111 TIME:   0.004 TIME LEFT:  2.00D  GRAD.:     0.059 HEAT: -5.615060
 CYCLE:   112 TIME:   0.004 TIME LEFT:  2.00D  GRAD.:     0.046 HEAT: -5.615064

     GRADIENT =  0.04624  IS LESS THAN CUTOFF =  0.05000



 -------------------------------------------------------------------------------
 pm3  precise nosym THREADS=1
 InChI=1S/C7H12O2/c1-3-5-7-6(4-2)8-9-7/h3,6-7H,1,4-5H2,2H3



     GEOMETRY OPTIMISED USING EIGENVECTOR FOLLOWING (EF).     
     SCF FIELD WAS ACHIEVED                                   


                              PM3 CALCULATION
                                                       MOPAC2016 (Version: 18.184L)
                                                       Sat Jun 15 11:02:03 2019
                                                       No. of days remaining =  18




          FINAL HEAT OF FORMATION =         -5.61506 KCAL/MOL =     -23.49343 KJ/MOL


          TOTAL ENERGY            =      -1598.56841 EV
          ELECTRONIC ENERGY       =      -7743.37621 EV  POINT GROUP:     C1  
          CORE-CORE REPULSION     =       6144.80780 EV
          COSMO AREA              =        172.40 SQUARE ANGSTROMS
          COSMO VOLUME            =        176.72 CUBIC ANGSTROMS

          GRADIENT NORM           =          0.04624 = 0.01009 PER ATOM
          IONIZATION POTENTIAL    =         10.436260 EV
          HOMO LUMO ENERGIES (EV) =        -10.436  0.501
          NO. OF FILLED LEVELS    =         26
          MOLECULAR WEIGHT        =        128.1706

          MOLECULAR DIMENSIONS (Angstroms)

            Atom       Atom       Distance
            H    20    H    13     6.35980
            H    18    O     2     5.20431
            H    21    H    11     3.19386


          SCF CALCULATIONS        =        121
 
          WALL-CLOCK TIME         =          0.523 SECONDS
          COMPUTATION TIME        =          0.479 SECONDS




   ATOM   CHEMICAL          X               Y               Z
  NUMBER   SYMBOL      (ANGSTROMS)     (ANGSTROMS)     (ANGSTROMS)
 
     1       O         -1.14655977  *  -1.96385072  *  -1.18934125  *
     2       O         -0.06495939  *  -2.60455262  *  -0.25322867  *
     3       C         -0.89679541  *  -0.67739601  *  -0.57825825  *
     4       C          0.17792865  *  -1.30674993  *   0.33531582  *
     5       C         -2.12723432  *  -0.11358691  *   0.11675103  *
     6       C          1.61101413  *  -0.83685468  *   0.12608385  *
     7       C         -1.83522849  *   1.24822928  *   0.70431649  *
     8       C          1.84949892  *   0.46417427  *   0.80786477  *
     9       C          2.56266550  *   1.44313133  *   0.26354156  *
    10       H         -0.50950659  *   0.03113654  *  -1.34369219  *
    11       H         -0.08268537  *  -1.33234757  *   1.41725140  *
    12       H         -2.47788488  *  -0.80627725  *   0.90809833  *
    13       H         -2.96066989  *  -0.04845677  *  -0.61061176  *
    14       H          2.30996059  *  -1.59000233  *   0.54446731  *
    15       H          1.84944403  *  -0.77529649  *  -0.95549296  *
    16       H         -0.99917715  *   1.20696878  *   1.41752030  *
    17       H         -1.56545447  *   1.97711178  *  -0.07158091  *
    18       H         -2.70749597  *   1.64454409  *   1.23897022  *
    19       H          1.40973279  *   0.57420886  *   1.80768204  *
    20       H          2.75063133  *   2.38271411  *   0.77413753  *
    21       H          3.01100469  *   1.37679738  *  -0.72432590  *

                             CARTESIAN COORDINATES

   1    O       -1.146559774    -1.963850721    -1.189341249
   2    O       -0.064959390    -2.604552617    -0.253228675
   3    C       -0.896795407    -0.677396008    -0.578258248
   4    C        0.177928646    -1.306749934     0.335315823
   5    C       -2.127234325    -0.113586913     0.116751033
   6    C        1.611014129    -0.836854683     0.126083850
   7    C       -1.835228492     1.248229276     0.704316487
   8    C        1.849498917     0.464174266     0.807864770
   9    C        2.562665500     1.443131334     0.263541563
  10    H       -0.509506593     0.031136543    -1.343692192
  11    H       -0.082685367    -1.332347573     1.417251402
  12    H       -2.477884877    -0.806277246     0.908098332
  13    H       -2.960669888    -0.048456770    -0.610611760
  14    H        2.309960591    -1.590002334     0.544467311
  15    H        1.849444026    -0.775296490    -0.955492958
  16    H       -0.999177149     1.206968784     1.417520300
  17    H       -1.565454473     1.977111777    -0.071580913
  18    H       -2.707495968     1.644544089     1.238970219
  19    H        1.409732787     0.574208859     1.807682037
  20    H        2.750631329     2.382714110     0.774137529
  21    H        3.011004692     1.376797375    -0.724325897


           Empirical Formula: C7 H12 O2  =    21 atoms



      MOLECULAR POINT GROUP   :   C1  


                  EIGENVALUES  
 -40.72685 -35.42469 -34.01518 -31.94026 -28.36166 -25.26983 -22.37307 -20.58197
 -20.15692 -17.93043 -17.49974 -16.87425 -16.02885 -15.60949 -15.36290 -14.64569
 -14.35982 -13.72771 -13.50517 -13.12933 -12.83131 -12.41767 -12.22796 -11.83527
 -11.03546 -10.43626   0.50099   0.83035   2.53985   2.72221   3.09045   3.17454
   3.35125   3.42038   3.57163   3.65552   3.73363   3.76288   3.91654   4.06420
   4.19096   4.25496   4.41657   4.60319   4.64050   4.82253   5.27885   5.53402


              NET ATOMIC CHARGES AND DIPOLE CONTRIBUTIONS

  ATOM NO.   TYPE          CHARGE      No. of ELECS.   s-Pop       p-Pop       
    1          O          -0.130884        6.1309     1.92656     4.20432
    2          O          -0.132920        6.1329     1.92650     4.20642
    3          C           0.024879        3.9751     1.19284     2.78228
    4          C           0.028006        3.9720     1.19204     2.77995
    5          C          -0.116258        4.1163     1.16139     2.95487
    6          C          -0.087088        4.0871     1.15269     2.93440
    7          C          -0.110499        4.1105     1.13746     2.97304
    8          C          -0.145557        4.1456     1.19399     2.95157
    9          C          -0.154884        4.1549     1.18272     2.97216
   10          H           0.080763        0.9192     0.91924
   11          H           0.079017        0.9210     0.92098
   12          H           0.064662        0.9353     0.93534
   13          H           0.064408        0.9356     0.93559
   14          H           0.072200        0.9278     0.92780
   15          H           0.071403        0.9286     0.92860
   16          H           0.040788        0.9592     0.95921
   17          H           0.041880        0.9581     0.95812
   18          H           0.043986        0.9560     0.95601
   19          H           0.100561        0.8994     0.89944
   20          H           0.081535        0.9185     0.91846
   21          H           0.084003        0.9160     0.91600
 DIPOLE           X         Y         Z       TOTAL
 POINT-CHG.     0.379     2.165     1.013     2.420
 HYBRID         0.096     0.308     0.161     0.360
 SUM            0.475     2.473     1.174     2.778


          ATOMIC ORBITAL ELECTRON POPULATIONS

     Atom    s        px        py        pz   
    1  O   1.92656   1.50395   1.21105   1.48932
    2  O   1.92650   1.50338   1.19267   1.51037
    3  C   1.19284   0.95063   0.88574   0.94591
    4  C   1.19204   0.94761   0.85387   0.97847
    5  C   1.16139   0.96836   0.97679   1.00972
    6  C   1.15269   0.95397   0.96535   1.01509
    7  C   1.13746   1.01240   0.95704   1.00360
    8  C   1.19399   1.00080   0.95715   0.99361
    9  C   1.18272   0.98975   0.97832   1.00409
   10  H   0.91924
   11  H   0.92098
   12  H   0.93534
   13  H   0.93559
   14  H   0.92780
   15  H   0.92860
   16  H   0.95921
   17  H   0.95812
   18  H   0.95601
   19  H   0.89944
   20  H   0.91846
   21  H   0.91600
 *******************************************************************************
 ** Site#: 14399        For non-commercial use only    Version 18.184L 64BITS **
 *******************************************************************************
 ** Cite this program as: MOPAC2016, Version: 18.184L, James J. P. Stewart,   **
 ** Stewart Computational Chemistry, web: HTTP://OpenMOPAC.net. Days left:  18**
 *******************************************************************************
 **                                                                           **
 **                                MOPAC2016                                  **
 **                                                                           **
 *******************************************************************************

                              PM3 CALCULATION RESULTS

 *******************************************************************************
 *  CALCULATION DONE:                                Sat Jun 15 11:02:03 2019  *
 *  PM3        - The PM3 Hamiltonian to be used
 *  OLDGEO     - PREVIOUS GEOMETRY TO BE USED
 *  PRECISE    - CRITERIA TO BE INCREASED BY 100 TIMES
 *  NOSYM      - POINT-GROUP SYMMETRY SET TO C1
 *  THREADS=1  - MULTI-THREADING NOT USED
 *  T=         - A TIME OF 172800.0 SECONDS REQUESTED
 *  DUMP=N     - RESTART FILE WRITTEN EVERY  7200.000 SECONDS
 *  THERMO     - THERMODYNAMIC QUANTITIES TO BE CALCULATED
 *******************************************************************************
oldgeo thermo nosym precise THREADS=1  pm3
 InChI=1S/C7H12O2/c1-3-5-7-6(4-2)8-9-7/h3,6-7H,1,4-5H2,2H3

   ATOM   CHEMICAL          X               Y               Z
  NUMBER   SYMBOL      (ANGSTROMS)     (ANGSTROMS)     (ANGSTROMS)
 
     1       O         -1.14655977  *  -1.96385072  *  -1.18934125  *
     2       O         -0.06495939  *  -2.60455262  *  -0.25322867  *
     3       C         -0.89679541  *  -0.67739601  *  -0.57825825  *
     4       C          0.17792865  *  -1.30674993  *   0.33531582  *
     5       C         -2.12723432  *  -0.11358691  *   0.11675103  *
     6       C          1.61101413  *  -0.83685468  *   0.12608385  *
     7       C         -1.83522849  *   1.24822928  *   0.70431649  *
     8       C          1.84949892  *   0.46417427  *   0.80786477  *
     9       C          2.56266550  *   1.44313133  *   0.26354156  *
    10       H         -0.50950659  *   0.03113654  *  -1.34369219  *
    11       H         -0.08268537  *  -1.33234757  *   1.41725140  *
    12       H         -2.47788488  *  -0.80627725  *   0.90809833  *
    13       H         -2.96066989  *  -0.04845677  *  -0.61061176  *
    14       H          2.30996059  *  -1.59000233  *   0.54446731  *
    15       H          1.84944403  *  -0.77529649  *  -0.95549296  *
    16       H         -0.99917715  *   1.20696878  *   1.41752030  *
    17       H         -1.56545447  *   1.97711178  *  -0.07158091  *
    18       H         -2.70749597  *   1.64454409  *   1.23897022  *
    19       H          1.40973279  *   0.57420886  *   1.80768204  *
    20       H          2.75063133  *   2.38271411  *   0.77413753  *
    21       H          3.01100469  *   1.37679738  *  -0.72432590  *
 


          CARTESIAN COORDINATES 

    NO.       ATOM           X           Y           Z

     1         O         -1.1466     -1.9639     -1.1893
     2         O         -0.0650     -2.6046     -0.2532
     3         C         -0.8968     -0.6774     -0.5783
     4         C          0.1779     -1.3067      0.3353
     5         C         -2.1272     -0.1136      0.1168
     6         C          1.6110     -0.8369      0.1261
     7         C         -1.8352      1.2482      0.7043
     8         C          1.8495      0.4642      0.8079
     9         C          2.5627      1.4431      0.2635
    10         H         -0.5095      0.0311     -1.3437
    11         H         -0.0827     -1.3323      1.4173
    12         H         -2.4779     -0.8063      0.9081
    13         H         -2.9607     -0.0485     -0.6106
    14         H          2.3100     -1.5900      0.5445
    15         H          1.8494     -0.7753     -0.9555
    16         H         -0.9992      1.2070      1.4175
    17         H         -1.5655      1.9771     -0.0716
    18         H         -2.7075      1.6445      1.2390
    19         H          1.4097      0.5742      1.8077
    20         H          2.7506      2.3827      0.7741
    21         H          3.0110      1.3768     -0.7243

  H: (PM3): J. J. P. STEWART, J. COMP. CHEM. 10, 209 (1989).
  C: (PM3): J. J. P. STEWART, J. COMP. CHEM. 10, 209 (1989).
  O: (PM3): J. J. P. STEWART, J. COMP. CHEM. 10, 209 (1989).

           Empirical Formula: C7 H12 O2  =    21 atoms



      MOLECULAR POINT GROUP   :   C1  


      RHF CALCULATION, NO. OF DOUBLY OCCUPIED LEVELS = 26



          HEAT OF FORMATION =      -5.615065 KCALS/MOLE


          CARTESIAN COORDINATE DERIVATIVES

   NUMBER  ATOM         X            Y            Z

     1       O      0.004165     0.000668     0.004343
     2       O     -0.000147     0.002464    -0.003484
     3       C     -0.000825    -0.000425     0.000558
     4       C     -0.002219     0.003064     0.001366
     5       C     -0.005016     0.002325     0.005335
     6       C      0.003386     0.001846    -0.003061
     7       C     -0.000453    -0.009612    -0.006438
     8       C      0.002533     0.002734    -0.013159
     9       C     -0.007840     0.000054     0.014032
    10       H     -0.003999    -0.007366     0.006903
    11       H     -0.000222     0.002398    -0.001330
    12       H     -0.007772    -0.004801    -0.001932
    13       H      0.008587     0.004249    -0.002734
    14       H     -0.002443    -0.005973    -0.004501
    15       H     -0.004745     0.003527     0.007021
    16       H     -0.016318    -0.002196     0.008890
    17       H      0.017219    -0.004304    -0.001601
    18       H     -0.004376     0.004967     0.000539
    19       H      0.011819     0.002024    -0.003411
    20       H      0.007562     0.001029    -0.006348
    21       H      0.001106     0.003328    -0.000987
 


          GRADIENT NORM =   0.04661


          TIME FOR SCF CALCULATION =    0.00

          TIME FOR DERIVATIVES     =    0.00

          MOLECULAR WEIGHT =  128.17



          ROTATIONAL CONSTANTS IN CM(-1)

          A =    0.06532734   B =    0.04177639   C =    0.02835129



           PRINCIPAL MOMENTS OF INERTIA IN UNITS OF 10**(-40)*GRAM-CM**2

          A =      428.5002   B =      670.0620   C =      987.3544


          ORIENTATION OF MOLECULE IN FORCE CALCULATION

    NO.       ATOM         X         Y         Z

     1          O      -0.9036   -1.9888    0.2345
     2          O       0.6638   -1.9888    0.2345
     3          C      -0.8921   -0.5429    0.2345
     4          C       0.6524   -0.5434    0.2217
     5          C      -1.5566    0.0452    1.4704
     6          C       1.3243    0.0285   -1.0192
     7          C      -1.5608    1.5556    1.4103
     8          C       1.3642    1.5151   -0.9656
     9          C       1.1311    2.2811   -2.0249
    10          H      -1.3716   -0.1653   -0.6958
    11          H       1.1292   -0.1577    1.1507
    12          H      -1.0428   -0.3013    2.3896
    13          H      -2.5928   -0.3401    1.5470
    14          H       2.3644   -0.3523   -1.0830
    15          H       0.8177   -0.3286   -1.9391
    16          H      -0.5411    1.9566    1.3177
    17          H      -2.1360    1.9273    0.5518
    18          H      -2.0054    1.9870    2.3159
    19          H       1.6129    1.9576    0.0078
    20          H       1.1817    3.3649   -1.9848
    21          H       0.8776    1.8840   -3.0044


    FIRST DERIVATIVES WILL BE USED IN THE CALCULATION OF SECOND DERIVATIVES

          ESTIMATED TIME TO COMPLETE CALCULATION =        1.97 SECONDS

    FOR POINT-GROUP C1   THERE ARE   1 UNIQUE SYMMETRY FUNCTIONS.

 STEP:   1 TIME =     0.02 SECS, INTEGRAL =      0.02 TIME LEFT: 172799.97
 STEP:   2 TIME =     0.02 SECS, INTEGRAL =      0.04 TIME LEFT: 172799.96
 STEP:   3 TIME =     0.02 SECS, INTEGRAL =      0.05 TIME LEFT: 172799.94
 STEP:   4 TIME =     0.02 SECS, INTEGRAL =      0.07 TIME LEFT: 172799.92
 STEP:   5 TIME =     0.02 SECS, INTEGRAL =      0.09 TIME LEFT: 172799.90
 STEP:   6 TIME =     0.02 SECS, INTEGRAL =      0.11 TIME LEFT: 172799.88
 STEP:   7 TIME =     0.02 SECS, INTEGRAL =      0.13 TIME LEFT: 172799.86
 STEP:   8 TIME =     0.02 SECS, INTEGRAL =      0.15 TIME LEFT: 172799.84
 STEP:   9 TIME =     0.02 SECS, INTEGRAL =      0.17 TIME LEFT: 172799.82
 STEP:  10 TIME =     0.02 SECS, INTEGRAL =      0.19 TIME LEFT: 172799.80
 STEP:  11 TIME =     0.02 SECS, INTEGRAL =      0.20 TIME LEFT: 172799.79
 STEP:  12 TIME =     0.02 SECS, INTEGRAL =      0.22 TIME LEFT: 172799.77
 STEP:  13 TIME =     0.02 SECS, INTEGRAL =      0.24 TIME LEFT: 172799.75
 STEP:  14 TIME =     0.02 SECS, INTEGRAL =      0.26 TIME LEFT: 172799.73
 STEP:  15 TIME =     0.02 SECS, INTEGRAL =      0.28 TIME LEFT: 172799.71
 STEP:  16 TIME =     0.02 SECS, INTEGRAL =      0.29 TIME LEFT: 172799.70
 STEP:  17 TIME =     0.02 SECS, INTEGRAL =      0.31 TIME LEFT: 172799.68
 STEP:  18 TIME =     0.02 SECS, INTEGRAL =      0.33 TIME LEFT: 172799.66
 STEP:  19 TIME =     0.02 SECS, INTEGRAL =      0.34 TIME LEFT: 172799.65
 STEP:  20 TIME =     0.02 SECS, INTEGRAL =      0.36 TIME LEFT: 172799.63
 STEP:  21 TIME =     0.02 SECS, INTEGRAL =      0.38 TIME LEFT: 172799.61
 STEP:  22 TIME =     0.02 SECS, INTEGRAL =      0.40 TIME LEFT: 172799.59
 STEP:  23 TIME =     0.02 SECS, INTEGRAL =      0.42 TIME LEFT: 172799.57
 STEP:  24 TIME =     0.02 SECS, INTEGRAL =      0.44 TIME LEFT: 172799.55
 STEP:  25 TIME =     0.02 SECS, INTEGRAL =      0.45 TIME LEFT: 172799.54
 STEP:  26 TIME =     0.02 SECS, INTEGRAL =      0.47 TIME LEFT: 172799.52
 STEP:  27 TIME =     0.02 SECS, INTEGRAL =      0.49 TIME LEFT: 172799.50
 STEP:  28 TIME =     0.02 SECS, INTEGRAL =      0.50 TIME LEFT: 172799.49
 STEP:  29 TIME =     0.02 SECS, INTEGRAL =      0.52 TIME LEFT: 172799.47
 STEP:  30 TIME =     0.02 SECS, INTEGRAL =      0.54 TIME LEFT: 172799.45
 STEP:  31 TIME =     0.02 SECS, INTEGRAL =      0.56 TIME LEFT: 172799.43
 STEP:  32 TIME =     0.02 SECS, INTEGRAL =      0.58 TIME LEFT: 172799.41
 STEP:  33 TIME =     0.02 SECS, INTEGRAL =      0.60 TIME LEFT: 172799.39
 STEP:  34 TIME =     0.02 SECS, INTEGRAL =      0.61 TIME LEFT: 172799.38
 STEP:  35 TIME =     0.02 SECS, INTEGRAL =      0.63 TIME LEFT: 172799.36
 STEP:  36 TIME =     0.02 SECS, INTEGRAL =      0.65 TIME LEFT: 172799.34
 STEP:  37 TIME =     0.02 SECS, INTEGRAL =      0.67 TIME LEFT: 172799.32
 STEP:  38 TIME =     0.02 SECS, INTEGRAL =      0.69 TIME LEFT: 172799.30
 STEP:  39 TIME =     0.02 SECS, INTEGRAL =      0.71 TIME LEFT: 172799.29
 STEP:  40 TIME =     0.02 SECS, INTEGRAL =      0.72 TIME LEFT: 172799.27
 STEP:  41 TIME =     0.02 SECS, INTEGRAL =      0.74 TIME LEFT: 172799.25
 STEP:  42 TIME =     0.02 SECS, INTEGRAL =      0.76 TIME LEFT: 172799.23
 STEP:  43 TIME =     0.02 SECS, INTEGRAL =      0.78 TIME LEFT: 172799.21
 STEP:  44 TIME =     0.02 SECS, INTEGRAL =      0.80 TIME LEFT: 172799.20
 STEP:  45 TIME =     0.02 SECS, INTEGRAL =      0.82 TIME LEFT: 172799.18
 STEP:  46 TIME =     0.02 SECS, INTEGRAL =      0.83 TIME LEFT: 172799.16
 STEP:  47 TIME =     0.02 SECS, INTEGRAL =      0.85 TIME LEFT: 172799.14
 STEP:  48 TIME =     0.02 SECS, INTEGRAL =      0.87 TIME LEFT: 172799.12
 STEP:  49 TIME =     0.02 SECS, INTEGRAL =      0.89 TIME LEFT: 172799.10
 STEP:  50 TIME =     0.02 SECS, INTEGRAL =      0.91 TIME LEFT: 172799.09
 STEP:  51 TIME =     0.02 SECS, INTEGRAL =      0.93 TIME LEFT: 172799.07
 STEP:  52 TIME =     0.02 SECS, INTEGRAL =      0.94 TIME LEFT: 172799.05
 STEP:  53 TIME =     0.02 SECS, INTEGRAL =      0.96 TIME LEFT: 172799.04
 STEP:  54 TIME =     0.02 SECS, INTEGRAL =      0.98 TIME LEFT: 172799.02
 STEP:  55 TIME =     0.02 SECS, INTEGRAL =      1.00 TIME LEFT: 172799.00
 STEP:  56 TIME =     0.02 SECS, INTEGRAL =      1.01 TIME LEFT: 172798.98
 STEP:  57 TIME =     0.02 SECS, INTEGRAL =      1.03 TIME LEFT: 172798.96
 STEP:  58 TIME =     0.02 SECS, INTEGRAL =      1.05 TIME LEFT: 172798.94
 STEP:  59 TIME =     0.02 SECS, INTEGRAL =      1.07 TIME LEFT: 172798.93
 STEP:  60 TIME =     0.02 SECS, INTEGRAL =      1.09 TIME LEFT: 172798.91
 STEP:  61 TIME =     0.02 SECS, INTEGRAL =      1.11 TIME LEFT: 172798.89
 STEP:  62 TIME =     0.02 SECS, INTEGRAL =      1.12 TIME LEFT: 172798.87
 STEP:  63 TIME =     0.02 SECS, INTEGRAL =      1.14 TIME LEFT: 172798.85

(To convert to Hartree/Bohr^2, multiply by (10^(-21) x N x a0^2)/(4.184 x 627.51) =  0.0642)


           FORCE MATRIX IN MILLIDYNES/ANGSTROM


                  O  1       O  2       C  3       C  4       C  5       C  6
 ------------------------------------------------------------------------------
     O    1   7.706034
     O    2   2.622411   7.714343
     C    3   4.408815   2.144396  14.621738
     C    4   2.144393   4.420306   3.445273  14.606596
     C    5   0.728256   0.059694   4.045855   0.515490  14.411386
     C    6   0.059371   0.731600   0.507361   4.008850   0.038652  14.700437
     C    7   0.063901   0.005956   0.660452   0.028246   4.482535   0.001238
     C    8   0.008792   0.066375   0.020603   0.691669   0.003252   4.957426
     C    9   0.002048   0.011722   0.004660   0.044788   0.002015   0.846928
     H   10   0.340743   0.050329   4.327218   0.426423   0.423961   0.022016
     H   11   0.050051   0.341611   0.425297   4.307908   0.024035   0.425290
     H   12   0.029845   0.002222   0.461994   0.026684   4.458647   0.001720
     H   13   0.037289   0.004603   0.445850   0.047048   4.475867   0.006876
     H   14   0.004226   0.036292   0.046394   0.451961   0.007066   4.421282
     H   15   0.002077   0.030482   0.025477   0.458604   0.001877   4.438134
     H   16   0.003525   0.001614   0.026199   0.007369   0.462116   0.002574
     H   17   0.003260   0.000927   0.027396   0.002749   0.463302   0.000705
     H   18   0.010853   0.001219   0.050165   0.002947   0.451683   0.000361
     H   19   0.002566   0.004485   0.005229   0.041861   0.000699   0.432253
     H   20   0.000861   0.003737   0.001247   0.015604   0.000459   0.140678
     H   21   0.001106   0.002779   0.001812   0.008790   0.000756   0.100591


                  C  7       C  8       C  9       H 10       H 11       H 12
 ------------------------------------------------------------------------------
     C    7  14.374377
     C    8   0.012086  18.165454
     C    9   0.001321  11.066683  18.027243
     H   10   0.028192   0.003302   0.002155   4.727656
     H   11   0.006269   0.035341   0.001964   0.031737   4.713349
     H   12   0.436117   0.000785   0.000511   0.041520   0.023481   5.077393
     H   13   0.440094   0.001087   0.000635   0.022597   0.002590   0.571032
     H   14   0.000356   0.411583   0.030508   0.002601   0.022552   0.000503
     H   15   0.000403   0.456393   0.045790   0.021702   0.040751   0.000521
     H   16   4.675367   0.007935   0.001493   0.001918   0.006302   0.022789
     H   17   4.727893   0.000969   0.000770   0.019131   0.000559   0.047525
     H   18   4.767623   0.001455   0.000450   0.001636   0.000501   0.031556
     H   19   0.008958   4.758647   0.454937   0.000866   0.028342   0.000521
     H   20   0.000374   0.461097   5.107781   0.000448   0.000508   0.000153
     H   21   0.000447   0.490850   5.071766   0.000489   0.000700   0.000197


                  H 13       H 14       H 15       H 16       H 17       H 18
 ------------------------------------------------------------------------------
     H   13   5.087629
     H   14   0.001441   5.013852
     H   15   0.000553   0.561652   5.050075
     H   16   0.048494   0.000255   0.000317   5.408952
     H   17   0.025705   0.000169   0.000301   0.574635   5.466631
     H   18   0.027574   0.000102   0.000121   0.565653   0.572271   5.494662
     H   19   0.000360   0.013586   0.037562   0.011354   0.000646   0.000471
     H   20   0.000134   0.018854   0.004499   0.000369   0.000247   0.000180
     H   21   0.000171   0.013090   0.028160   0.000287   0.000306   0.000133


                  H 19       H 20       H 21
 ------------------------------------------
     H   19   5.135714
     H   20   0.081884   5.492007
     H   21   0.120254   0.423197   5.463444


          HEAT OF FORMATION =      -5.615065 KCALS/MOLE

          ZERO POINT ENERGY     110.559 KCAL/MOL


           NORMAL COORDINATE ANALYSIS (Total motion = 1 Angstrom)


   Root No.       1         2         3         4         5         6         7         8

                 1 A       2 A       3 A       4 A       5 A       6 A       7 A       8 A   

                  45.9      55.1      80.1     111.2     176.9     222.0     264.4     309.6
  
           1    0.0052   -0.0025    0.0110    0.0023    0.0004   -0.0005   -0.0078   -0.0125
           2   -0.0097    0.0117   -0.0176    0.0136    0.0065    0.0081   -0.0106   -0.0091
           3    0.0202   -0.0326    0.0154   -0.0253    0.0113   -0.0524   -0.0273    0.0236
           4    0.0049   -0.0025    0.0111    0.0019   -0.0003    0.0028   -0.0067   -0.0130
           5    0.0083    0.0086    0.0138    0.0183   -0.0054   -0.0014    0.0096    0.0121
           6   -0.0046    0.0117    0.0232    0.0285   -0.0155    0.0675   -0.0040    0.0216
           7   -0.0115    0.0004   -0.0175   -0.0023    0.0103    0.0103   -0.0206   -0.0259
           8   -0.0095    0.0118   -0.0173    0.0135    0.0068    0.0067   -0.0130   -0.0080
           9    0.0145   -0.0065   -0.0105   -0.0052    0.0087   -0.0093    0.0111   -0.0322
          10   -0.0116    0.0007   -0.0175   -0.0017    0.0100    0.0081   -0.0217   -0.0253
          11    0.0082    0.0087    0.0132    0.0179   -0.0050   -0.0043    0.0112    0.0102
          12   -0.0092    0.0133   -0.0039   -0.0001   -0.0045    0.0041    0.0137   -0.0373
          13   -0.0001   -0.0130   -0.0317   -0.0057    0.0017    0.0323    0.0192    0.0295
          14   -0.0140   -0.0135   -0.0076   -0.0139    0.0050    0.0010   -0.0134   -0.0049
          15    0.0228   -0.0013   -0.0229    0.0068    0.0049    0.0045    0.0325   -0.0017
          16   -0.0338    0.0162   -0.0230   -0.0004    0.0007   -0.0306   -0.0076    0.0415
          17    0.0094    0.0039    0.0045   -0.0135   -0.0056   -0.0176    0.0207   -0.0045
          18   -0.0206    0.0193   -0.0111   -0.0148   -0.0104   -0.0237    0.0279   -0.0088
          19   -0.0313    0.0115    0.0471   -0.0366   -0.0222    0.0124    0.0218    0.0011
          20   -0.0145   -0.0117   -0.0062   -0.0136    0.0046    0.0009   -0.0149   -0.0066
          21    0.0130    0.0465    0.0052    0.0279    0.0095   -0.0171   -0.0319    0.0108
          22   -0.0029   -0.0229    0.0110    0.0602    0.0083   -0.0398    0.0182    0.0037
          23    0.0082    0.0058    0.0034   -0.0153   -0.0063   -0.0173    0.0210   -0.0022
          24   -0.0130   -0.0114   -0.0053   -0.0214   -0.0053    0.0046    0.0036   -0.0052
          25    0.0809    0.0101    0.0030   -0.0108   -0.0035    0.0030   -0.0001   -0.0011
          26    0.0160   -0.0249    0.0146   -0.0080   -0.0003    0.0162   -0.0088    0.0126
          27   -0.0259   -0.0409    0.0046   -0.0006    0.0017    0.0203   -0.0149    0.0072
          28   -0.0305    0.0122   -0.0215   -0.0040    0.0117    0.0113   -0.0367   -0.0562
          29   -0.0187    0.0309   -0.0423    0.0265    0.0072    0.0311   -0.0019   -0.0363
          30    0.0205   -0.0046   -0.0185    0.0013    0.0074    0.0001    0.0243   -0.0257
          31   -0.0023   -0.0092   -0.0298   -0.0029    0.0214    0.0184   -0.0323   -0.0538
          32    0.0158    0.0085    0.0388    0.0388   -0.0136    0.0232    0.0086    0.0402
          33   -0.0170    0.0182   -0.0081   -0.0085   -0.0071   -0.0130    0.0207   -0.0325
          34    0.0235   -0.0359   -0.0806    0.0078   -0.0031    0.0615    0.0604    0.0861
          35    0.0022   -0.0500   -0.0502   -0.0161    0.0119    0.0186    0.0165    0.0022
          36    0.0157   -0.0022   -0.0116   -0.0015    0.0100   -0.0053    0.0206   -0.0293
          37    0.0088   -0.0206   -0.0533    0.0026    0.0054    0.0401    0.0254    0.0402
          38   -0.0339    0.0005    0.0424   -0.0359   -0.0085   -0.0126   -0.0165   -0.0218
          39    0.0444   -0.0328   -0.0666    0.0094   -0.0062    0.0362    0.0881    0.0586
          40   -0.0419    0.0275   -0.0318   -0.0166   -0.0022   -0.0340   -0.0099    0.0547
          41   -0.0088    0.0291   -0.0172   -0.0551   -0.0113   -0.0173    0.0107    0.0171
          42   -0.0495    0.0524   -0.0274   -0.0316   -0.0229   -0.0674    0.0416    0.0736
          43   -0.0626    0.0480   -0.0433   -0.0308   -0.0111   -0.0664   -0.0000    0.1147
          44    0.0263   -0.0274    0.0192    0.0018    0.0000   -0.0075    0.0201   -0.0248
          45   -0.0113    0.0139   -0.0056   -0.0040   -0.0062   -0.0075    0.0235   -0.0394
          46   -0.0408    0.0200    0.0717   -0.0470   -0.0111    0.0094    0.0269   -0.0061
          47    0.0053   -0.0238   -0.0559    0.0065    0.0303    0.0150   -0.0213    0.0165
          48   -0.0047    0.0889    0.0587    0.0006    0.2508    0.0118   -0.0077    0.0332
          49   -0.0518    0.0418    0.1050   -0.0712    0.1702    0.0363    0.0604    0.0078
          50   -0.0315    0.0243    0.0388   -0.0129   -0.0050   -0.0202   -0.0546   -0.0108
          51    0.0193    0.0419   -0.0140    0.0514   -0.1241   -0.0425   -0.0756    0.0047
          52   -0.0264   -0.0079    0.0283   -0.0163   -0.2467   -0.0251   -0.0169   -0.0241
          53   -0.0176   -0.0341   -0.0008   -0.0347   -0.0115    0.0080    0.0297   -0.0259
          54    0.0169    0.0477   -0.0067    0.0480   -0.0929   -0.0390   -0.0728    0.0079
          55   -0.0498   -0.0812    0.0447    0.1636    0.0189   -0.0835    0.0599   -0.0304
          56    0.0013    0.0339   -0.0069   -0.0244   -0.0121   -0.0377    0.0383   -0.0052
          57    0.0022   -0.0093   -0.0091   -0.0439   -0.0054    0.0259   -0.0157    0.0056
          58    0.1064   -0.0181    0.0289    0.0323   -0.0000   -0.0048    0.0269   -0.0414
          59    0.0146   -0.0227    0.0132   -0.0098   -0.0006    0.0152   -0.0086    0.0136
          60   -0.0212   -0.0645    0.0095   -0.0064    0.0068    0.0622   -0.0577    0.0360
          61    0.1296    0.0674   -0.0297   -0.1168   -0.0177    0.0504   -0.0439    0.0343
          62    0.0239   -0.0545    0.0260    0.0004    0.0057    0.0495   -0.0387    0.0278
          63   -0.0417   -0.0437    0.0084    0.0234    0.0029   -0.0051    0.0082   -0.0078


   Root No.       9        10        11        12        13        14        15        16

                 9 A      10 A      11 A      12 A      13 A      14 A      15 A      16 A   

                 403.6     413.7     461.8     542.3     601.8     768.3     813.0     827.5
  
           1   -0.0220    0.0160   -0.0153    0.0025    0.0058   -0.0372   -0.0205    0.1013
           2    0.0141    0.0140    0.0368    0.0155    0.0082   -0.0445    0.0149   -0.0021
           3    0.0103   -0.0087    0.0331    0.0197   -0.0026   -0.0062    0.0019   -0.0019
           4   -0.0229    0.0132   -0.0168    0.0010    0.0069   -0.0318    0.0361   -0.0902
           5   -0.0190    0.0363    0.0110    0.0172   -0.0017    0.0489   -0.0100   -0.0203
           6    0.0174   -0.0269    0.0049   -0.0247    0.0078   -0.0050    0.0004    0.0035
           7    0.0159   -0.0133    0.0149    0.0032    0.0011    0.0298    0.0071    0.0003
           8    0.0070    0.0115    0.0267    0.0138    0.0070   -0.0331    0.0049    0.0234
           9    0.0222    0.0257   -0.0177   -0.0306    0.0071    0.0322    0.0006   -0.0036
          10    0.0191   -0.0091    0.0145   -0.0057    0.0006    0.0189   -0.0245   -0.0148
          11   -0.0122    0.0280    0.0103    0.0152   -0.0065    0.0345   -0.0092    0.0135
          12    0.0086   -0.0034   -0.0134    0.0416   -0.0323    0.0150   -0.0128   -0.0086
          13   -0.0192   -0.0276    0.0056    0.0245   -0.0099    0.0336    0.0275    0.0263
          14   -0.0227   -0.0081   -0.0319   -0.0103    0.0002   -0.0001   -0.0004   -0.0009
          15    0.0150    0.0325   -0.0075   -0.0252    0.0121   -0.0132    0.0072    0.0090
          16    0.0231    0.0163   -0.0052   -0.0221    0.0045    0.0150   -0.0258   -0.0152
          17    0.0011   -0.0310    0.0124   -0.0193    0.0014    0.0004    0.0016   -0.0003
          18   -0.0003   -0.0154   -0.0167    0.0326   -0.0174   -0.0172    0.0076    0.0066
          19    0.0060    0.0063    0.0101    0.0060   -0.0016    0.0046    0.0061    0.0076
          20   -0.0276   -0.0092   -0.0424   -0.0158    0.0003    0.0013   -0.0034   -0.0002
          21   -0.0179   -0.0151   -0.0170   -0.0032   -0.0004   -0.0037    0.0001    0.0010
          22    0.0032   -0.0060    0.0038   -0.0266   -0.0398   -0.0078    0.0065    0.0018
          23    0.0083   -0.0385    0.0112   -0.0264   -0.0012   -0.0040   -0.0009    0.0009
          24   -0.0435   -0.0027    0.0337   -0.0182    0.0213    0.0045   -0.0016    0.0000
          25    0.0001   -0.0008   -0.0018    0.0043    0.0085    0.0005    0.0011    0.0003
          26    0.0500   -0.0111   -0.0296    0.0084   -0.0107   -0.0049   -0.0006    0.0006
          27   -0.0150    0.0194    0.0064    0.0016    0.0065    0.0046    0.0003    0.0003
          28    0.0345   -0.0292    0.0232    0.0274   -0.0132    0.0518   -0.0077   -0.0589
          29    0.0309    0.0195    0.0338    0.0092    0.0118   -0.0278    0.0305   -0.0214
          30    0.0213    0.0368   -0.0198   -0.0449    0.0162    0.0226    0.0166    0.0097
          31    0.0373   -0.0074    0.0272   -0.0288    0.0130    0.0538   -0.0521   -0.0034
          32   -0.0270    0.0383    0.0086    0.0083    0.0045    0.0430    0.0240   -0.0190
          33    0.0044   -0.0079   -0.0193    0.0566   -0.0425   -0.0056   -0.0105   -0.0019
          34   -0.0537   -0.0441    0.0066    0.0639   -0.0275   -0.0753   -0.0930   -0.0865
          35   -0.0287   -0.0054   -0.0472   -0.0147   -0.0029   -0.0313   -0.0762   -0.0873
          36    0.0309    0.0414   -0.0135   -0.0468    0.0198    0.0334    0.0421    0.0354
          37   -0.0246   -0.0329    0.0100    0.0353   -0.0133    0.0064   -0.0090   -0.0097
          38   -0.0170    0.0049   -0.0475   -0.0320    0.0048    0.0422    0.0625    0.0632
          39   -0.0243    0.0206   -0.0202    0.0074   -0.0071   -0.1285   -0.1212   -0.1148
          40    0.0351    0.0166   -0.0179   -0.0143    0.0411    0.0172   -0.0180   -0.0158
          41    0.0284   -0.0376   -0.0094   -0.0034    0.0852    0.0096    0.0056   -0.0103
          42    0.0303    0.0206   -0.0761    0.0512    0.0500   -0.0358    0.0894    0.0542
          43    0.0512    0.0370   -0.0522   -0.0152    0.0939    0.0027    0.0379    0.0136
          44   -0.0301   -0.0500    0.0538   -0.0684   -0.0327   -0.0100   -0.0137   -0.0101
          45   -0.0020   -0.0186   -0.0086    0.0477   -0.0512   -0.0064   -0.0201   -0.0047
          46    0.0158    0.0188    0.0145   -0.0001    0.0029   -0.0300   -0.0322   -0.0330
          47   -0.0551   -0.0437   -0.0536    0.0022   -0.0121    0.0845    0.0824    0.0901
          48   -0.0346   -0.0335   -0.0239    0.0073   -0.0076    0.0003   -0.0217   -0.0257
          49    0.0132    0.0181    0.0142    0.0016    0.0031   -0.0341   -0.0350   -0.0351
          50   -0.0419   -0.0284   -0.0527   -0.0096   -0.0074   -0.0227   -0.0829   -0.0919
          51   -0.0296   -0.0319   -0.0248    0.0027   -0.0072    0.0109   -0.0099   -0.0135
          52    0.0185    0.0201    0.0133   -0.0033    0.0025   -0.0277   -0.0327   -0.0337
          53    0.0118    0.0438   -0.0255   -0.0432    0.0201   -0.0578   -0.0125   -0.0012
          54   -0.0316   -0.0346   -0.0246    0.0051   -0.0083    0.0099   -0.0147   -0.0193
          55    0.0142   -0.0577   -0.0172    0.0206    0.0454   -0.0160    0.0317    0.0146
          56    0.0062   -0.0525    0.0129   -0.0280   -0.0155   -0.0122   -0.0027    0.0013
          57   -0.0440    0.0181    0.0368   -0.0279    0.0060    0.0105   -0.0071   -0.0034
          58    0.0144   -0.0596   -0.0414    0.1210    0.2371    0.0441   -0.0472   -0.0202
          59    0.0484   -0.0104   -0.0268    0.0024   -0.0193   -0.0068    0.0011    0.0014
          60    0.0404    0.0742   -0.0487    0.0421   -0.0669   -0.0101    0.0142    0.0038
          61   -0.0156    0.0627    0.0290   -0.0696   -0.1499   -0.0249    0.0323    0.0154
          62    0.1049    0.0193   -0.0889    0.0702   -0.0235   -0.0109   -0.0007   -0.0016
          63   -0.0322   -0.0087    0.0213   -0.0029    0.0523    0.0136   -0.0077   -0.0027


   Root No.      17        18        19        20        21        22        23        24

                17 A      18 A      19 A      20 A      21 A      22 A      23 A      24 A   

                 866.5     930.5     933.2     953.8     971.0     986.7    1018.0    1022.9
  
           1   -0.0030   -0.0040    0.0004   -0.0006    0.0003    0.0066    0.0036   -0.0019
           2    0.0052   -0.0070   -0.0002   -0.0310   -0.0131   -0.0155   -0.0080    0.0067
           3    0.0005    0.0012   -0.0011    0.0053    0.0019    0.0045    0.0036   -0.0021
           4    0.0078    0.0003   -0.0031   -0.0006   -0.0034    0.0061   -0.0016    0.0000
           5   -0.0034    0.0080    0.0045    0.0160   -0.0124    0.0220   -0.0195   -0.0024
           6   -0.0006   -0.0005    0.0042    0.0022   -0.0035    0.0051   -0.0037   -0.0002
           7   -0.0152   -0.0106    0.0056    0.0064    0.0194   -0.0156   -0.0050    0.0057
           8   -0.0009   -0.0009    0.0001    0.0152    0.0053    0.0201    0.0014   -0.0072
           9   -0.0153   -0.0203    0.0084   -0.0218   -0.0034    0.0061    0.0011    0.0050
          10    0.0041    0.0161   -0.0008   -0.0033   -0.0139   -0.0156    0.0012    0.0034
          11   -0.0044   -0.0041   -0.0011   -0.0090    0.0090   -0.0226    0.0084    0.0062
          12   -0.0006    0.0086   -0.0206   -0.0011   -0.0055   -0.0119    0.0132    0.0023
          13    0.0038   -0.0056    0.0018   -0.0042    0.0076    0.0017   -0.0195   -0.0104
          14    0.0008    0.0005   -0.0000   -0.0016   -0.0014   -0.0012   -0.0026    0.0011
          15    0.0132    0.0096   -0.0030    0.0083    0.0049   -0.0018    0.0015   -0.0061
          16    0.0353    0.0080   -0.0022   -0.0144    0.0123    0.0136    0.0034   -0.0081
          17   -0.0033    0.0007    0.0275    0.0065   -0.0082   -0.0095    0.0053   -0.0008
          18    0.0114   -0.0037    0.0154   -0.0018    0.0051    0.0093   -0.0144   -0.0029
          19    0.0029   -0.0002   -0.0023   -0.0061   -0.0110    0.0078    0.0170    0.0052
          20    0.0024    0.0063   -0.0017    0.0111    0.0062   -0.0063   -0.0021   -0.0003
          21    0.0062    0.0143   -0.0048    0.0187    0.0044   -0.0176   -0.0090    0.0074
          22   -0.0023   -0.0246   -0.0052    0.0148   -0.0117   -0.0071    0.0002    0.0149
          23    0.0005   -0.0013   -0.0083   -0.0016    0.0040    0.0028    0.0015    0.0035
          24   -0.0016    0.0043    0.0074   -0.0022    0.0032   -0.0009    0.0037   -0.0004
          25   -0.0039   -0.0046   -0.0060    0.0062   -0.0108   -0.0121    0.0033   -0.0336
          26   -0.0013    0.0011   -0.0457   -0.0070    0.0058    0.0109   -0.0079   -0.0004
          27   -0.0054    0.0028   -0.0136   -0.0033    0.0016    0.0008   -0.0017    0.0057
          28   -0.0486    0.0033   -0.0154    0.1070    0.0454    0.0113    0.0974    0.0396
          29   -0.0259   -0.0207   -0.0001    0.1156    0.0778    0.1600    0.1328   -0.0638
          30   -0.0069   -0.0342    0.0189   -0.0368    0.0100    0.0440   -0.0022   -0.0339
          31   -0.0448    0.0157    0.0219    0.0373   -0.0955    0.0393   -0.0540    0.0624
          32   -0.0000   -0.0274   -0.0174   -0.0653    0.1262   -0.1490    0.1384    0.0006
          33    0.0223    0.0167   -0.0257   -0.0006   -0.0074    0.0074   -0.0086   -0.0258
          34   -0.0368    0.0017   -0.0047    0.0111   -0.0202   -0.0054    0.0328    0.0345
          35   -0.0540   -0.0537    0.0266   -0.0438    0.0344    0.0047   -0.0244   -0.0259
          36    0.0132   -0.0161    0.0109   -0.0174    0.0335    0.0046   -0.0346   -0.0408
          37   -0.0199   -0.0194    0.0096    0.0012    0.0297   -0.0041   -0.0405   -0.0171
          38    0.0544    0.0407   -0.0240   -0.0138   -0.0701    0.0115    0.0753    0.0319
          39   -0.0172    0.0254   -0.0170    0.0029   -0.0530   -0.0032    0.1032    0.0500
          40    0.0034    0.0297    0.0008   -0.0079   -0.0171   -0.0112    0.0159   -0.0365
          41   -0.0621    0.0710    0.0403    0.0163   -0.0838   -0.0726    0.0432   -0.0971
          42   -0.1165   -0.0610   -0.0052    0.0370   -0.0099   -0.0152   -0.0276    0.0810
          43   -0.0823   -0.0165   -0.0066    0.0257   -0.0214   -0.0183    0.0148    0.0384
          44    0.0589   -0.0300    0.0933    0.0100    0.0299    0.0333    0.0071    0.0401
          45    0.0486    0.0215   -0.0077   -0.0249    0.0075    0.0089   -0.0211   -0.0438
          46   -0.0171   -0.0083    0.0069    0.0068    0.0209   -0.0089   -0.0258   -0.0090
          47    0.0435    0.0163   -0.0201   -0.0308   -0.0703    0.0416    0.1041    0.0292
          48   -0.0197   -0.0259    0.0101   -0.0330   -0.0040    0.0211    0.0096   -0.0105
          49   -0.0169   -0.0046    0.0062    0.0121    0.0232   -0.0129   -0.0280   -0.0080
          50   -0.0679   -0.0775    0.0371   -0.0679    0.0314    0.0460   -0.0190   -0.0526
          51   -0.0134   -0.0217    0.0076   -0.0303   -0.0067    0.0196    0.0127   -0.0077
          52   -0.0173   -0.0117    0.0070    0.0077    0.0234   -0.0116   -0.0285   -0.0098
          53    0.0324    0.0795   -0.0230    0.1380    0.0632   -0.1074   -0.0849    0.0187
          54   -0.0184   -0.0277    0.0103   -0.0379   -0.0072    0.0229    0.0105   -0.0095
          55   -0.0951    0.2053    0.0618   -0.0845    0.0458    0.0364    0.0021   -0.0441
          56    0.0316   -0.0267    0.0588    0.0040    0.0193    0.0006    0.0090    0.0232
          57    0.0080   -0.0432   -0.0395    0.0208   -0.0186   -0.0118    0.0001    0.0057
          58    0.0720   -0.0095    0.0397   -0.0219    0.0484    0.0458   -0.0076    0.1371
          59   -0.0045    0.0012   -0.0540   -0.0070    0.0046    0.0104   -0.0086   -0.0067
          60    0.0120   -0.0056    0.2191    0.0339   -0.0289   -0.0497    0.0315   -0.0243
          61   -0.0656    0.1304    0.0246   -0.0691    0.0626    0.0630   -0.0164    0.1149
          62    0.0386   -0.0164    0.1618    0.0212   -0.0043   -0.0137    0.0166    0.0098
          63   -0.0050   -0.0252   -0.1008    0.0053   -0.0137   -0.0097   -0.0059   -0.0368


   Root No.      25        26        27        28        29        30        31        32

                25 A      26 A      27 A      28 A      29 A      30 A      31 A      32 A   

                1052.6    1121.8    1124.2    1133.0    1153.1    1167.5    1189.1    1200.3
  
           1    0.0011    0.0023    0.0021    0.0002   -0.0028   -0.0015    0.0040    0.0044
           2   -0.0031    0.0023   -0.0015    0.0088   -0.0024   -0.0058    0.0045    0.0007
           3    0.0018   -0.0020   -0.0007    0.0016    0.0016    0.0031   -0.0028   -0.0016
           4    0.0002   -0.0002   -0.0006    0.0020   -0.0038    0.0044    0.0001   -0.0018
           5   -0.0039    0.0020   -0.0006   -0.0066    0.0096   -0.0061    0.0093    0.0136
           6    0.0003    0.0018   -0.0001    0.0006   -0.0007   -0.0041    0.0001   -0.0029
           7   -0.0074    0.0084   -0.0010   -0.0057    0.0078   -0.0335    0.0058   -0.0130
           8    0.0035    0.0027   -0.0006   -0.0065   -0.0036    0.0033    0.0078    0.0122
           9   -0.0080    0.0043   -0.0156   -0.0028   -0.0464   -0.0208    0.0225    0.0070
          10   -0.0002   -0.0173   -0.0012   -0.0054    0.0192    0.0223   -0.0244   -0.0051
          11   -0.0015   -0.0022    0.0006    0.0069   -0.0047   -0.0025   -0.0141   -0.0332
          12    0.0099    0.0049    0.0173    0.0314   -0.0141    0.0408    0.0013    0.0142
          13    0.0090   -0.0179    0.0223    0.0048   -0.0121    0.0055    0.0027    0.0038
          14   -0.0014    0.0155    0.0312   -0.0310   -0.0191    0.0058    0.0030    0.0051
          15    0.0065   -0.0101    0.0165    0.0133    0.0480   -0.0054   -0.0001    0.0045
          16   -0.0084    0.0068    0.0018    0.0079   -0.0128   -0.0051   -0.0007   -0.0040
          17    0.0142    0.0072    0.0045    0.0103   -0.0066   -0.0166   -0.0287   -0.0091
          18   -0.0097   -0.0109   -0.0167   -0.0297    0.0113   -0.0284   -0.0229    0.0156
          19   -0.0046    0.0245   -0.0237   -0.0013    0.0092    0.0047   -0.0023    0.0000
          20    0.0011   -0.0162   -0.0336    0.0323    0.0142   -0.0065    0.0014   -0.0005
          21   -0.0052    0.0163   -0.0051   -0.0127   -0.0159    0.0066   -0.0033   -0.0031
          22    0.0334   -0.0031   -0.0038   -0.0076    0.0032    0.0032    0.0078    0.0003
          23   -0.0078   -0.0025    0.0021    0.0021    0.0023    0.0184    0.0222   -0.0293
          24   -0.0114   -0.0017    0.0025    0.0031    0.0015    0.0165    0.0195   -0.0158
          25   -0.0294    0.0006    0.0010    0.0018   -0.0006   -0.0003   -0.0004    0.0026
          26   -0.0048   -0.0013   -0.0026   -0.0047    0.0014   -0.0044   -0.0030    0.0096
          27    0.0104   -0.0026   -0.0039   -0.0068    0.0024   -0.0028    0.0006    0.0140
          28   -0.0337    0.0571    0.0643    0.0058    0.0766   -0.1294    0.0901    0.0337
          29    0.0385   -0.0440   -0.0245   -0.0230   -0.0677    0.0726   -0.0729   -0.0560
          30    0.0189   -0.0399   -0.0586   -0.0136   -0.1069    0.0546   -0.0514   -0.0434
          31   -0.0595   -0.0888   -0.0401   -0.0585    0.0274    0.0861   -0.0926    0.0296
          32   -0.0105   -0.0698   -0.0374   -0.0791    0.0149    0.0393   -0.0537    0.0934
          33    0.0439    0.0681    0.0523    0.0931   -0.0275   -0.0087    0.0496   -0.0532
          34   -0.0282   -0.0160   -0.0388   -0.0069   -0.0953   -0.0356    0.0278    0.0038
          35    0.0133    0.1864    0.0369   -0.1065    0.0759    0.0923   -0.0646   -0.0242
          36    0.0324    0.0535    0.0527   -0.0071    0.1307    0.0477   -0.0377   -0.0063
          37    0.0117    0.0231   -0.0376    0.0203   -0.0089    0.0198    0.0091    0.0157
          38   -0.0184   -0.0956    0.1961   -0.0810   -0.0341   -0.0462   -0.0143   -0.0357
          39   -0.0353   -0.0172    0.0250   -0.0196    0.0306   -0.0597   -0.0075   -0.0357
          40    0.0466    0.0052   -0.0096   -0.0097   -0.0158   -0.0078    0.0157    0.0311
          41    0.1767    0.0072   -0.0321   -0.0457   -0.0205   -0.0382    0.0218    0.1013
          42   -0.0568   -0.0222    0.0115    0.0108    0.0333    0.0170   -0.0639   -0.0475
          43   -0.0119    0.0136    0.0401    0.0643   -0.0135    0.0668    0.0116    0.0436
          44   -0.0646    0.0463    0.0545    0.0960   -0.0496   -0.0262   -0.1306    0.1961
          45    0.0239   -0.0306   -0.0576   -0.0940    0.0275   -0.0640    0.0059   -0.0894
          46    0.0062   -0.0121    0.0216   -0.0049   -0.0137    0.0006    0.0036    0.0032
          47   -0.0218    0.0660   -0.1420    0.0484    0.0811    0.0008   -0.0124   -0.0076
          48    0.0073   -0.0146    0.0168    0.0089    0.0254   -0.0070    0.0003    0.0009
          49    0.0057   -0.0208    0.0127    0.0059   -0.0113   -0.0032    0.0040    0.0010
          50    0.0386   -0.1309    0.0331    0.0950    0.0805   -0.0370    0.0093    0.0031
          51    0.0050   -0.0036    0.0021    0.0099    0.0283   -0.0020   -0.0033   -0.0013
          52    0.0092   -0.0219    0.0174    0.0074   -0.0029   -0.0059    0.0036    0.0015
          53   -0.0074   -0.0161   -0.0437    0.0136   -0.0589    0.0062   -0.0106   -0.0172
          54    0.0060   -0.0065    0.0203    0.0015    0.0177   -0.0050    0.0043    0.0048
          55   -0.0833    0.0102    0.0118    0.0236   -0.0082    0.0013   -0.0051   -0.0160
          56   -0.0461   -0.0534   -0.0301   -0.0709    0.0525    0.1200    0.2054    0.0824
          57    0.0366    0.0179    0.0129    0.0281   -0.0184   -0.0298   -0.0618   -0.0649
          58    0.1106   -0.0023   -0.0029   -0.0043    0.0004    0.0034    0.0047   -0.0147
          59   -0.0118   -0.0017   -0.0028   -0.0052    0.0019   -0.0035   -0.0014    0.0126
          60   -0.0081   -0.0009    0.0040    0.0066    0.0005    0.0140    0.0146   -0.0555
          61    0.0962   -0.0043   -0.0077   -0.0132    0.0051   -0.0047    0.0007    0.0107
          62   -0.0157   -0.0004    0.0097    0.0134    0.0008    0.0382    0.0404   -0.0356
          63   -0.0171   -0.0023   -0.0071   -0.0112    0.0017   -0.0184   -0.0158    0.0287


   Root No.      33        34        35        36        37        38        39        40

                33 A      34 A      35 A      36 A      37 A      38 A      39 A      40 A   

                1222.4    1229.3    1243.4    1300.0    1330.6    1370.5    1391.7    1401.5
  
           1    0.0065   -0.0074   -0.0124   -0.0021    0.0015   -0.0009   -0.0019    0.0005
           2    0.0227   -0.0312   -0.0241   -0.0021   -0.0007   -0.0066   -0.0030   -0.0024
           3    0.0006   -0.0030    0.0004    0.0009    0.0002   -0.0008   -0.0002   -0.0005
           4    0.0086    0.0103    0.0092    0.0021    0.0003    0.0024    0.0001    0.0005
           5   -0.0282   -0.0139   -0.0300   -0.0039    0.0064   -0.0026   -0.0035    0.0002
           6    0.0010   -0.0018    0.0030   -0.0009   -0.0012    0.0005    0.0010    0.0007
           7   -0.0413   -0.0025    0.0318    0.0307    0.0103   -0.0223   -0.0060   -0.0115
           8   -0.0343    0.0615    0.0294    0.0071    0.0164    0.0234    0.0000    0.0137
           9    0.0062    0.0026   -0.0138   -0.0074    0.0039    0.0151    0.0005    0.0113
          10   -0.0429   -0.0161   -0.0127   -0.0302   -0.0237    0.0097    0.0175    0.0009
          11    0.0418    0.0041    0.0576    0.0137   -0.0220   -0.0067    0.0121   -0.0112
          12    0.0068    0.0131    0.0003    0.0059    0.0143    0.0009   -0.0132    0.0014
          13    0.0179   -0.0068   -0.0108    0.0005    0.0070    0.0064   -0.0093    0.0150
          14   -0.0020    0.0246    0.0035   -0.0234   -0.0283   -0.0190    0.0022   -0.0065
          15    0.0007    0.0185    0.0064   -0.0091   -0.0137   -0.0050    0.0171   -0.0255
          16    0.0176    0.0085    0.0038   -0.0016    0.0053    0.0097   -0.0174    0.0003
          17    0.0051    0.0015    0.0191   -0.0263    0.0010    0.0192    0.0127    0.0395
          18    0.0012   -0.0021   -0.0091    0.0090   -0.0017   -0.0190    0.0296    0.0030
          19   -0.0036    0.0048    0.0028   -0.0014   -0.0025   -0.0026   -0.0004   -0.0048
          20    0.0024   -0.0071   -0.0028   -0.0004   -0.0048   -0.0185   -0.0181    0.0083
          21    0.0029   -0.0109   -0.0034    0.0029    0.0036    0.0027    0.0006   -0.0049
          22   -0.0039    0.0011   -0.0097    0.0057   -0.0016   -0.0024    0.0007   -0.0025
          23   -0.0042    0.0161   -0.0329    0.0025    0.0173   -0.0134   -0.0067   -0.0183
          24   -0.0033    0.0082   -0.0207    0.0152   -0.0081   -0.0005   -0.0033   -0.0055
          25    0.0019   -0.0028    0.0075   -0.0013   -0.0023    0.0028    0.0003    0.0031
          26   -0.0007   -0.0033    0.0017   -0.0013    0.0059   -0.0059   -0.0000   -0.0063
          27    0.0037   -0.0126    0.0260   -0.0031   -0.0115    0.0106    0.0032    0.0132
          28    0.1784   -0.0141   -0.0911   -0.0495   -0.0196    0.0303    0.0040    0.0115
          29    0.0466   -0.1157   -0.0202   -0.0130   -0.0338   -0.0322    0.0034   -0.0144
          30   -0.0818   -0.0607    0.0307    0.0264    0.0001   -0.0348   -0.0027   -0.0121
          31    0.2005    0.0875    0.0211    0.0541    0.0315   -0.0190   -0.0275   -0.0011
          32   -0.0503    0.0542   -0.1153   -0.0205    0.0333    0.0145   -0.0105    0.0213
          33   -0.0878   -0.0595    0.0516   -0.0241   -0.0368    0.0074    0.0202   -0.0109
          34   -0.0144    0.0186   -0.0004   -0.0169   -0.0090    0.0500    0.1096   -0.1192
          35    0.0319   -0.0713   -0.0101    0.0502    0.0609    0.0612    0.0333   -0.0240
          36    0.0297   -0.0308   -0.0038    0.0280    0.0277   -0.0051   -0.0483    0.0543
          37    0.0234    0.0244   -0.0125   -0.0280   -0.0241   -0.0187   -0.0199    0.0222
          38   -0.0292   -0.0738    0.0142    0.0683    0.0679    0.0521    0.0292   -0.0253
          39   -0.0782   -0.0449    0.0409    0.0590    0.0311   -0.0610   -0.1186    0.1199
          40    0.0221    0.0026   -0.0004    0.0272   -0.0032    0.0026   -0.0420   -0.0362
          41    0.0282   -0.0134    0.0085    0.0650   -0.0207   -0.0033   -0.0661   -0.0731
          42   -0.0699   -0.0184    0.0100   -0.0625   -0.0504    0.1024   -0.1637   -0.0697
          43   -0.0202   -0.0053   -0.0115    0.0222    0.0322   -0.0871    0.1697    0.0748
          44   -0.0298   -0.0405    0.0345    0.0361   -0.0210   -0.0033   -0.0653   -0.0829
          45    0.0343    0.0224   -0.0076   -0.0283   -0.0113    0.0505   -0.0607    0.0001
          46    0.0033    0.0080   -0.0013   -0.0132   -0.0197   -0.0339   -0.0273    0.0107
          47   -0.0150   -0.0150    0.0079    0.0348    0.0485    0.0780    0.0609   -0.0129
          48   -0.0022    0.0048    0.0030    0.0020    0.0002   -0.0069   -0.0168    0.0739
          49    0.0054   -0.0055   -0.0039    0.0056    0.0131    0.0312    0.0319   -0.0239
          50    0.0059   -0.0116    0.0005    0.0325    0.0490    0.0765    0.0566   -0.0526
          51   -0.0013   -0.0034    0.0024    0.0097    0.0121    0.0138    0.0052   -0.0099
          52    0.0045   -0.0026   -0.0035    0.0066    0.0127    0.0228    0.0126    0.0561
          53    0.0176   -0.0774   -0.0209    0.0513    0.0713    0.0812    0.0313    0.0184
          54   -0.0006    0.0167    0.0024   -0.0144   -0.0206   -0.0264   -0.0132    0.0218
          55    0.0025    0.0093   -0.0125    0.0031    0.0022    0.0000   -0.0029   -0.0025
          56    0.0068   -0.1086    0.1681   -0.0178   -0.0199    0.0200   -0.0093    0.0083
          57   -0.0100    0.0652   -0.1156    0.0265    0.0078   -0.0169   -0.0013   -0.0185
          58    0.0042    0.0041    0.0060   -0.0298    0.0394   -0.0142   -0.0066   -0.0146
          59   -0.0020   -0.0039   -0.0020    0.0100   -0.0081   -0.0009    0.0016   -0.0017
          60    0.0129    0.0109    0.0289   -0.1219    0.1605   -0.0632   -0.0201   -0.0612
          61   -0.0015   -0.0081    0.0107   -0.0077    0.0061   -0.0030    0.0024   -0.0005
          62   -0.0211    0.0331   -0.1065    0.1331   -0.1452    0.0518    0.0122    0.0451
          63    0.0137   -0.0265    0.0721   -0.0614    0.0535   -0.0132   -0.0028   -0.0082


   Root No.      41        42        43        44        45        46        47        48

                41 A      42 A      43 A      44 A      45 A      46 A      47 A      48 A   

                1403.8    1409.3    1422.7    1433.1    1860.5    2889.2    2898.4    2945.3
  
           1   -0.0003    0.0001    0.0026    0.0053    0.0002    0.0004    0.0003    0.0001
           2    0.0009   -0.0003    0.0061    0.0121    0.0002    0.0006   -0.0001    0.0000
           3    0.0001    0.0001    0.0013    0.0006   -0.0000   -0.0003    0.0003   -0.0000
           4   -0.0001    0.0001   -0.0028   -0.0052    0.0001   -0.0001    0.0004   -0.0001
           5   -0.0006    0.0001    0.0080    0.0115    0.0012    0.0005   -0.0003    0.0000
           6   -0.0002    0.0000   -0.0006   -0.0010   -0.0003    0.0004    0.0000    0.0000
           7    0.0028   -0.0002    0.0211    0.0326    0.0002    0.0099   -0.0208    0.0002
           8   -0.0066    0.0017   -0.0080   -0.0324   -0.0002   -0.0081    0.0152    0.0001
           9   -0.0040    0.0003   -0.0125   -0.0223   -0.0001    0.0189   -0.0384   -0.0004
          10    0.0018   -0.0010   -0.0238   -0.0322   -0.0003   -0.0204   -0.0105   -0.0021
          11    0.0064   -0.0015   -0.0241   -0.0274   -0.0039   -0.0160   -0.0074   -0.0014
          12   -0.0018    0.0007    0.0166    0.0210    0.0005   -0.0383   -0.0190   -0.0034
          13   -0.0059    0.0028   -0.0110   -0.0129   -0.0000   -0.0018    0.0033   -0.0003
          14    0.0081   -0.0044   -0.0239    0.0473    0.0000    0.0002   -0.0001    0.0000
          15    0.0079   -0.0058    0.0180    0.0161    0.0000   -0.0010    0.0017   -0.0002
          16   -0.0012    0.0006    0.0104    0.0123   -0.0004    0.0037    0.0018   -0.0494
          17   -0.0175    0.0032    0.0299    0.0288   -0.0383    0.0003   -0.0001    0.0013
          18    0.0004   -0.0004   -0.0139   -0.0160    0.0095    0.0019    0.0009   -0.0261
          19   -0.0210   -0.0269   -0.0009    0.0016    0.0000   -0.0001   -0.0004    0.0000
          20   -0.0090    0.0104    0.0348   -0.0416    0.0000   -0.0000   -0.0001    0.0000
          21   -0.0217    0.0264   -0.0038    0.0000    0.0000    0.0001   -0.0002    0.0000
          22    0.0008   -0.0000   -0.0022   -0.0023   -0.0333   -0.0000   -0.0000    0.0004
          23    0.0079   -0.0014   -0.0110   -0.0096    0.1682    0.0000   -0.0000    0.0011
          24    0.0024   -0.0005   -0.0035   -0.0032   -0.1625   -0.0004   -0.0002    0.0015
          25   -0.0013    0.0002    0.0023    0.0022    0.0346    0.0000   -0.0000   -0.0002
          26    0.0029   -0.0005   -0.0052   -0.0049   -0.1195   -0.0000    0.0000   -0.0003
          27   -0.0057    0.0009    0.0089    0.0080    0.1592    0.0000    0.0000   -0.0001
          28   -0.0058   -0.0018   -0.0305   -0.0419   -0.0003   -0.1184    0.2446    0.0020
          29    0.0125    0.0012    0.0004    0.0304   -0.0001    0.0872   -0.1746   -0.0007
          30    0.0077    0.0003    0.0183    0.0427    0.0004   -0.2305    0.4607    0.0009
          31   -0.0002    0.0027    0.0270    0.0451   -0.0020    0.2417    0.1224    0.0190
          32   -0.0115    0.0024    0.0245    0.0237   -0.0036    0.1786    0.0877    0.0149
          33    0.0064   -0.0031   -0.0297   -0.0413   -0.0000    0.4625    0.2267    0.0437
          34    0.0315   -0.0396    0.1149   -0.0198    0.0001    0.0083   -0.0168    0.0013
          35   -0.0021   -0.0003    0.0664   -0.0829   -0.0001   -0.0067    0.0118   -0.0010
          36   -0.0204    0.0231   -0.0315   -0.0249   -0.0001    0.0149   -0.0239    0.0028
          37   -0.0029    0.0027   -0.0429    0.0277   -0.0000    0.0086   -0.0242    0.0022
          38   -0.0035   -0.0043    0.0700   -0.0711   -0.0000    0.0037   -0.0095    0.0008
          39   -0.0383    0.0417   -0.1015    0.0231   -0.0000    0.0002    0.0003   -0.0002
          40    0.0141   -0.0020   -0.0112   -0.0077    0.0034   -0.0250   -0.0170    0.4154
          41    0.0293   -0.0044   -0.0333   -0.0285   -0.0070    0.0097    0.0063   -0.1519
          42    0.0233   -0.0023    0.0014    0.0044   -0.0097   -0.0000    0.0004   -0.0310
          43   -0.0245    0.0020   -0.0072   -0.0144   -0.0005   -0.0175   -0.0089    0.1795
          44    0.0345   -0.0056   -0.0469   -0.0442    0.0420   -0.0135   -0.0060    0.1340
          45   -0.0035    0.0018    0.0251    0.0274   -0.0216   -0.0281   -0.0115    0.3410
          46   -0.0275   -0.0572    0.0372   -0.0439   -0.0003    0.0011    0.0029   -0.0002
          47    0.1024    0.0735   -0.0751    0.0930   -0.0002    0.0011    0.0012   -0.0000
          48    0.2251   -0.2366    0.0229   -0.0158   -0.0006   -0.0001   -0.0005   -0.0000
          49    0.0267    0.3013   -0.0264    0.0339    0.0002   -0.0008    0.0020   -0.0001
          50   -0.0980   -0.0085   -0.0922    0.0941    0.0000    0.0007   -0.0018    0.0000
          51   -0.0697   -0.2048   -0.0300    0.0259   -0.0002   -0.0005    0.0020   -0.0001
          52    0.2694    0.0839    0.0012    0.0109   -0.0001   -0.0002    0.0003    0.0000
          53    0.0473   -0.1446   -0.0822    0.0582   -0.0002    0.0002   -0.0006   -0.0000
          54    0.1026    0.1253    0.0459   -0.0349    0.0001    0.0003   -0.0010   -0.0000
          55    0.0040   -0.0014   -0.0012    0.0004   -0.0238    0.0012    0.0006   -0.0063
          56   -0.0030   -0.0001    0.0098    0.0092   -0.1133    0.0027    0.0015   -0.0064
          57    0.0069   -0.0007   -0.0140   -0.0133   -0.0792    0.0023    0.0015   -0.0201
          58    0.0057   -0.0010   -0.0069   -0.0054   -0.0185   -0.0000    0.0000   -0.0005
          59    0.0009   -0.0002   -0.0029   -0.0031   -0.1382   -0.0002    0.0000   -0.0021
          60    0.0261   -0.0044   -0.0336   -0.0279   -0.0611   -0.0000   -0.0000    0.0003
          61    0.0006   -0.0004   -0.0014   -0.0013    0.0280    0.0001    0.0000    0.0010
          62   -0.0194    0.0031    0.0255    0.0212    0.1219    0.0001    0.0000    0.0002
          63    0.0035   -0.0005   -0.0032   -0.0021    0.0970    0.0003    0.0000    0.0028


   Root No.      49        50        51        52        53        54        55        56

                49 A      50 A      51 A      52 A      53 A      54 A      55 A      56 A   

                2957.7    3023.4    3034.0    3038.4    3068.7    3085.1    3134.6    3146.3
  
           1   -0.0001    0.0000    0.0000   -0.0001   -0.0000   -0.0000   -0.0000    0.0000
           2   -0.0000   -0.0000    0.0000    0.0001    0.0000   -0.0000   -0.0000    0.0000
           3    0.0000    0.0000   -0.0000    0.0002    0.0000    0.0000   -0.0000   -0.0000
           4    0.0001   -0.0001    0.0000    0.0000    0.0000    0.0000   -0.0000   -0.0000
           5   -0.0000   -0.0001    0.0000    0.0000    0.0000   -0.0000   -0.0000    0.0000
           6   -0.0000    0.0002   -0.0000    0.0000    0.0000    0.0000    0.0000   -0.0000
           7   -0.0018   -0.0000    0.0000   -0.0002    0.0000   -0.0001    0.0000   -0.0000
           8    0.0012    0.0002   -0.0001    0.0002   -0.0002    0.0004    0.0000   -0.0000
           9   -0.0031   -0.0003    0.0000    0.0008    0.0001    0.0001   -0.0000    0.0000
          10    0.0002   -0.0002    0.0001   -0.0000    0.0001   -0.0000    0.0000   -0.0000
          11   -0.0001   -0.0002   -0.0002   -0.0002    0.0000    0.0000    0.0001   -0.0001
          12   -0.0003    0.0010    0.0000   -0.0003    0.0001   -0.0000    0.0001    0.0000
          13   -0.0476   -0.0001    0.0003   -0.0160   -0.0032    0.0004   -0.0000    0.0000
          14   -0.0006   -0.0001    0.0006   -0.0207   -0.0011    0.0016   -0.0000    0.0000
          15   -0.0269    0.0000   -0.0009    0.0273   -0.0000   -0.0026    0.0000   -0.0000
          16    0.0003   -0.0130    0.0009    0.0001    0.0000   -0.0000    0.0001   -0.0004
          17   -0.0000    0.0204   -0.0042   -0.0002    0.0000   -0.0000    0.0005    0.0003
          18    0.0002    0.0278   -0.0070   -0.0003    0.0001   -0.0000    0.0000   -0.0005
          19    0.0027   -0.0004   -0.0029    0.0032   -0.0493    0.0071    0.0000    0.0001
          20    0.0001   -0.0001   -0.0003   -0.0006   -0.0025   -0.0003   -0.0000   -0.0001
          21    0.0014   -0.0000    0.0001   -0.0038   -0.0074   -0.0489   -0.0000   -0.0000
          22    0.0000   -0.0021   -0.0124   -0.0003    0.0006   -0.0001    0.0004   -0.0022
          23    0.0000   -0.0027   -0.0186   -0.0005    0.0008   -0.0001   -0.0032    0.0018
          24    0.0001   -0.0086   -0.0491   -0.0013    0.0022   -0.0003    0.0023   -0.0095
          25   -0.0000    0.0002    0.0009    0.0000   -0.0000    0.0000   -0.0156    0.0014
          26    0.0000    0.0004    0.0021    0.0001   -0.0002    0.0000   -0.0337   -0.0560
          27   -0.0000    0.0009    0.0032    0.0001   -0.0001    0.0000   -0.0588    0.0142
          28    0.0167    0.0010   -0.0003   -0.0017   -0.0009   -0.0002    0.0000   -0.0001
          29   -0.0128   -0.0011    0.0003    0.0004    0.0008    0.0008   -0.0000    0.0000
          30    0.0390    0.0035   -0.0009   -0.0039   -0.0008    0.0007    0.0001   -0.0001
          31    0.0012   -0.0024   -0.0011    0.0010   -0.0006    0.0001   -0.0003    0.0000
          32    0.0001   -0.0012   -0.0020    0.0011   -0.0009    0.0001   -0.0002   -0.0001
          33   -0.0008   -0.0057   -0.0003    0.0035   -0.0017    0.0000   -0.0004    0.0003
          34    0.1936   -0.0004    0.0069   -0.2111   -0.0012    0.0192   -0.0000    0.0001
          35   -0.1354    0.0002   -0.0039    0.1137   -0.0036   -0.0137    0.0000   -0.0000
          36    0.3583   -0.0005    0.0110   -0.3292    0.0023    0.0297   -0.0001    0.0001
          37    0.3784    0.0016   -0.0104    0.4067    0.0376   -0.0237    0.0001   -0.0001
          38    0.1430    0.0006   -0.0032    0.1361    0.0172   -0.0085    0.0000   -0.0001
          39   -0.0347   -0.0001    0.0000   -0.0058   -0.0022   -0.0011    0.0000   -0.0000
          40   -0.0032    0.3755   -0.0629   -0.0025    0.0003    0.0000    0.0005    0.0019
          41    0.0012   -0.1218    0.0186    0.0008   -0.0000   -0.0000    0.0002   -0.0007
          42    0.0002    0.0001   -0.0021   -0.0001    0.0001   -0.0000    0.0002   -0.0005
          43   -0.0011   -0.2138    0.0512    0.0019   -0.0007    0.0000   -0.0021    0.0021
          44   -0.0008   -0.1221    0.0337    0.0012   -0.0006    0.0001    0.0006    0.0021
          45   -0.0018   -0.3409    0.0828    0.0032   -0.0012    0.0001   -0.0044    0.0034
          46   -0.0239    0.0035    0.0284   -0.0287    0.4385   -0.1104   -0.0002   -0.0003
          47   -0.0053    0.0013    0.0109   -0.0103    0.1687   -0.0417   -0.0001   -0.0001
          48    0.0023   -0.0003   -0.0025    0.0011   -0.0444   -0.0148    0.0000    0.0001
[...]
 T-DIPOLE    0.1041         C  6 -- H 14          +7.3% ( 35.8%)      0.9%
 TRAVEL      0.1035         C  9 -- H 21          +7.3% ( 35.6%)      0.1%
 RED. MASS   0.4612         C  4 -- C  6          +6.9% ( 34.7%)      1.0%
 EFF. MASS   4.8391

 VIBRATION   37   37A         ATOM PAIR      ENERGY CONTRIBUTION    RADIAL
 FREQ.      1330.59         C  9 -- H 20         +11.6% ( 43.0%)      0.8%
 T-DIPOLE    0.1391         C  9 -- H 21         +10.2% ( 40.3%)      2.0%
 TRAVEL      0.1107         C  4 -- H 11          +8.1% ( 36.0%)      0.7%
 RED. MASS   0.4302         C  3 -- C  4          +7.9% ( 35.4%)     42.5%
 EFF. MASS   4.1377

 VIBRATION   38   38A         ATOM PAIR      ENERGY CONTRIBUTION    RADIAL
 FREQ.      1370.47         C  3 -- C  5          +9.5% ( 39.7%)     67.6%
 T-DIPOLE    0.1875         C  3 -- H 10          +8.3% ( 37.1%)      0.5%
 TRAVEL      0.1021         C  6 -- H 14          +8.3% ( 37.0%)      0.6%
 RED. MASS   0.4333         C  6 -- H 15          +8.3% ( 37.0%)      1.1%
 EFF. MASS   4.7231

 VIBRATION   39   39A         ATOM PAIR      ENERGY CONTRIBUTION    RADIAL
 FREQ.      1391.65         C  6 -- H 15         +20.7% ( 50.0%)      4.7%
 T-DIPOLE    0.1757         C  6 -- H 14         +18.6% ( 47.3%)      5.9%
 TRAVEL      0.1220         C  4 -- C  6         +10.5% ( 35.6%)     82.1%
 RED. MASS   0.3340         C  5 -- H 12          +7.9% ( 31.0%)      3.0%
 EFF. MASS   3.2565

 VIBRATION   40   40A         ATOM PAIR      ENERGY CONTRIBUTION    RADIAL
 FREQ.      1401.50         C  6 -- H 15         +12.1% ( 42.9%)      3.8%
 T-DIPOLE    0.1193         C  6 -- H 14         +11.5% ( 41.9%)      3.4%
 TRAVEL      0.1002         C  6 -- C  8         +11.4% ( 41.7%)     98.8%
 RED. MASS   0.4818         C  5 -- H 12         +10.8% ( 40.5%)      3.1%
 EFF. MASS   4.7877

 VIBRATION   41   41A         ATOM PAIR      ENERGY CONTRIBUTION    RADIAL
 FREQ.      1403.76         C  7 -- H 18         +39.4% ( 57.9%)      1.0%
 T-DIPOLE    0.0778         C  7 -- H 16         +29.2% ( 49.9%)      3.9%
 TRAVEL      0.1549         C  7 -- H 17          +8.0% ( 26.1%)     43.3%
 RED. MASS   0.3683         C  5 -- C  7          +5.3% ( 21.3%)     17.9%
 EFF. MASS   2.0022

 VIBRATION   42   42A         ATOM PAIR      ENERGY CONTRIBUTION    RADIAL
 FREQ.      1409.30         C  7 -- H 17         +49.6% ( 61.8%)      0.0%
 T-DIPOLE    0.0667         C  7 -- H 16         +25.2% ( 44.0%)      5.0%
 TRAVEL      0.1703         C  7 -- H 18         +16.9% ( 36.1%)     20.1%
 RED. MASS   0.3997         C  5 -- C  7          +5.9% ( 21.4%)      8.7%
 EFF. MASS   1.6489

 VIBRATION   43   43A         ATOM PAIR      ENERGY CONTRIBUTION    RADIAL
 FREQ.      1422.70         C  4 -- C  6          +9.5% ( 42.4%)     72.3%
 T-DIPOLE    0.1448         C  5 -- C  7          +8.1% ( 39.1%)     88.0%
 TRAVEL      0.0870         C  5 -- H 12          +7.7% ( 38.3%)      5.2%
 RED. MASS   0.5883         C  5 -- H 13          +7.1% ( 36.7%)      7.1%
 EFF. MASS   6.2631

 VIBRATION   44   44A         ATOM PAIR      ENERGY CONTRIBUTION    RADIAL
 FREQ.      1433.14         C  3 -- C  5         +10.6% ( 51.1%)     67.7%
 T-DIPOLE    0.3700         C  5 -- C  7          +9.4% ( 48.1%)     93.0%
 TRAVEL      0.0739         C  3 -- C  4          +9.4% ( 48.1%)     69.7%
 RED. MASS   1.1594         C  4 -- C  6          +7.3% ( 42.3%)     77.2%
 EFF. MASS   8.6185

 VIBRATION   45   45A         ATOM PAIR      ENERGY CONTRIBUTION    RADIAL
 FREQ.      1860.52         C  8 -- C  9         +45.3% ( 99.3%)     98.9%
 T-DIPOLE    0.1455         C  6 -- C  8         +16.8% ( 60.4%)     54.1%
 TRAVEL      0.0554         C  8 -- H 19         +15.5% ( 58.0%)      3.9%
 RED. MASS   5.3024         C  9 -- H 21         +10.9% ( 48.8%)     11.0%
 EFF. MASS  11.7955         C  9 -- H 20         +10.7% ( 48.4%)     12.8%

 VIBRATION   46   46A         ATOM PAIR      ENERGY CONTRIBUTION    RADIAL
 FREQ.      2889.17         C  4 -- H 11         +76.0% ( 89.4%)    100.0%
 T-DIPOLE    0.0607         C  3 -- H 10         +18.7% ( 44.4%)    100.0%
 TRAVEL      0.1259         C  3 -- C  4          +1.2% ( 11.4%)     20.8%
 RED. MASS   0.6271         C  4 -- C  6          +0.9% (  9.8%)     10.4%
 EFF. MASS   1.4720

 VIBRATION   47   47A         ATOM PAIR      ENERGY CONTRIBUTION    RADIAL
 FREQ.      2898.43         C  3 -- H 10         +76.4% ( 89.3%)     99.9%
 T-DIPOLE    0.1335         C  4 -- H 11         +18.6% ( 44.1%)     99.9%
 TRAVEL      0.1264         C  3 -- C  4          +1.0% ( 10.1%)     10.4%
 RED. MASS   0.6283         C  3 -- C  5          +0.9% (  9.8%)     10.7%
 EFF. MASS   1.4559

 VIBRATION   48   48A         ATOM PAIR      ENERGY CONTRIBUTION    RADIAL
 FREQ.      2945.31         C  6 -- H 14         +52.2% ( 75.0%)     96.8%
 T-DIPOLE    0.1405         C  6 -- H 15         +44.8% ( 69.5%)     96.1%
 TRAVEL      0.1219         C  6 -- C  8          +1.1% ( 11.1%)      0.1%
 RED. MASS   0.5128         C  4 -- C  6          +1.1% ( 11.0%)      0.1%
 EFF. MASS   1.5406

 VIBRATION   49   49A         ATOM PAIR      ENERGY CONTRIBUTION    RADIAL
 FREQ.      2957.71         C  5 -- H 12         +50.9% ( 74.1%)     96.8%
 T-DIPOLE    0.1107         C  5 -- H 13         +46.0% ( 70.4%)     96.2%
 TRAVEL      0.1216         C  5 -- C  7          +1.2% ( 11.2%)      0.0%
 RED. MASS   0.5103         C  3 -- C  5          +1.1% ( 11.0%)      0.0%
 EFF. MASS   1.5412

 VIBRATION   50   50A         ATOM PAIR      ENERGY CONTRIBUTION    RADIAL
 FREQ.      3023.36         C  6 -- H 15         +50.7% ( 70.3%)     98.0%
 T-DIPOLE    0.1312         C  6 -- H 14         +44.3% ( 65.7%)     97.3%
 TRAVEL      0.1317         C  8 -- H 19          +3.5% ( 18.5%)     99.9%
 RED. MASS   0.4539         C  6 -- C  8          +0.7% (  8.3%)     29.5%
 EFF. MASS   1.2857

 VIBRATION   51   51A         ATOM PAIR      ENERGY CONTRIBUTION    RADIAL
 FREQ.      3033.96         C  8 -- H 19         +92.9% ( 97.6%)    100.0%
 T-DIPOLE    0.2619         C  6 -- H 15          +2.4% ( 15.6%)     99.1%
 TRAVEL      0.1221         C  8 -- C  9          +1.4% ( 11.9%)     30.9%
 RED. MASS   0.8455         C  6 -- C  8          +1.3% ( 11.4%)     12.2%
 EFF. MASS   1.4913

 VIBRATION   52   52A         ATOM PAIR      ENERGY CONTRIBUTION    RADIAL
 FREQ.      3038.36         C  5 -- H 13         +51.5% ( 70.7%)     98.0%
 T-DIPOLE    0.1129         C  5 -- H 12         +46.2% ( 67.0%)     97.4%
 TRAVEL      0.1319         C  5 -- C  7          +0.6% (  7.8%)     26.1%
 RED. MASS   0.4761         C  3 -- C  5          +0.6% (  7.6%)     29.7%
 EFF. MASS   1.2763

 VIBRATION   53   53A         ATOM PAIR      ENERGY CONTRIBUTION    RADIAL
 FREQ.      3068.70         C  7 -- H 16         +68.4% ( 85.2%)     98.9%
 T-DIPOLE    0.0469         C  7 -- H 17         +25.5% ( 52.1%)     91.5%
 TRAVEL      0.1211         C  7 -- H 18          +4.4% ( 21.6%)     52.1%
 RED. MASS   0.5606         C  5 -- C  7          +1.0% ( 10.2%)      0.0%
 EFF. MASS   1.4988

 VIBRATION   54   54A         ATOM PAIR      ENERGY CONTRIBUTION    RADIAL
 FREQ.      3085.09         C  7 -- H 18         +54.1% ( 75.8%)     98.1%
 T-DIPOLE    0.0472         C  7 -- H 17         +39.2% ( 64.6%)     95.0%
 TRAVEL      0.1206         C  7 -- H 16          +5.1% ( 23.3%)     53.7%
 RED. MASS   0.4778         C  5 -- C  7          +1.0% ( 10.3%)      0.0%
 EFF. MASS   1.5039

 VIBRATION   55   55A         ATOM PAIR      ENERGY CONTRIBUTION    RADIAL
 FREQ.      3134.62         C  9 -- H 21         +92.5% ( 97.9%)     99.9%
 T-DIPOLE    0.2132         C  9 -- H 20          +6.2% ( 25.3%)     69.2%
 TRAVEL      0.1183         C  8 -- C  9          +1.3% ( 11.7%)     23.4%
 RED. MASS   0.8629
 EFF. MASS   1.5366

 VIBRATION   56   56A         ATOM PAIR      ENERGY CONTRIBUTION    RADIAL
 FREQ.      3146.31         C  9 -- H 20         +92.5% ( 96.9%)     99.7%
 T-DIPOLE    0.2647         C  9 -- H 21          +5.2% ( 23.0%)     36.6%
 TRAVEL      0.1208         C  8 -- C  9          +1.6% ( 12.7%)     71.3%
 RED. MASS   0.8305         C  8 -- H 19          +0.7% (  8.4%)     94.2%
 EFF. MASS   1.4679

 VIBRATION   57   57A         ATOM PAIR      ENERGY CONTRIBUTION    RADIAL
 FREQ.      3176.12         C  7 -- H 18         +41.2% ( 61.9%)     98.1%
 T-DIPOLE    0.0330         C  7 -- H 17         +34.4% ( 56.5%)     97.2%
 TRAVEL      0.1364         C  7 -- H 16         +24.0% ( 47.2%)     94.9%
 RED. MASS   0.3392         C  5 -- C  7          +0.3% (  5.2%)     96.1%
 EFF. MASS   1.1405

      SYMMETRY NUMBER FOR POINT-GROUP C1  =  1


          SYSTEM IS A GROUND STATE



 InChI=1S/C7H12O2/c1-3-5-7-6(4-2)8-9-7/h3,6-7H,1,4-5H2,2H3


          MOLECULE IS NOT LINEAR

          THERE ARE 57 GENUINE VIBRATIONS IN THIS SYSTEM
          THIS THERMODYNAMICS CALCULATION IS LIMITED TO
          MOLECULES WHICH HAVE NO INTERNAL ROTATIONS




                    CALCULATED THERMODYNAMIC PROPERTIES
                                          *
   TEMP. (K)   PARTITION FUNCTION   H.O.F.    ENTHALPY  HEAT CAPACITY ENTROPY
                                   KCAL/MOL   CAL/MOLE    CAL/K/MOL  CAL/K/MOL


 298.00  VIB.     0.1608D+04                  4535.6686    30.2507    29.8912
         ROT.     0.6006D+06                   888.2813     2.9808    29.4221
         INT.     0.9657D+09                  5423.9499    33.2315    59.3132
         TRA.     0.1403D+28                  1480.4688     4.9680    40.4556
         TOT.                       -5.615    6904.4187    38.1996    99.7688

 200.00  VIB.     0.1265D+03                  2100.2788    19.7932    20.1196
         ROT.     0.3302D+06                   596.1620     2.9808    28.2334
         INT.     0.4177D+08                  2696.4408    22.7740    48.3530
         TRA.     0.7713D+27                   993.6033     4.9680    38.4745
         TOT.                       -8.829    3690.0440    27.7420    86.8274

 210.00  VIB.     0.1646D+03                  2302.9921    20.7542    21.1084
         ROT.     0.3553D+06                   625.9700     2.9808    28.3788
         INT.     0.5849D+08                  2928.9622    23.7350    49.4873
         TRA.     0.8299D+27                  1043.2834     4.9680    38.7168
         TOT.                       -8.547    3972.2456    28.7030    88.2041

 220.00  VIB.     0.2139D+03                  2515.4556    21.7432    22.0966
         ROT.     0.3810D+06                   655.7781     2.9808    28.5175
         INT.     0.8151D+08                  3171.2338    24.7240    50.6141
         TRA.     0.8899D+27                  1092.9636     4.9680    38.9480
         TOT.                       -8.255    4264.1973    29.6920    89.5621

 230.00  VIB.     0.2777D+03                  2737.9490    22.7600    23.0855
         ROT.     0.4073D+06                   685.5862     2.9808    28.6500
         INT.     0.1131D+09                  3423.5353    25.7408    51.7355
         TRA.     0.9512D+27                  1142.6437     4.9680    39.1688
         TOT.                       -7.953    4566.1790    30.7088    90.9043

 240.00  VIB.     0.3602D+03                  2970.7442    23.8033    24.0761
         ROT.     0.4341D+06                   715.3943     2.9808    28.7769
         INT.     0.1564D+09                  3686.1386    26.7841    52.8530
         TRA.     0.1014D+28                  1192.3239     4.9680    39.3802
         TOT.                       -7.641    4878.4625    31.7521    92.2332

 250.00  VIB.     0.4668D+03                  3214.0972    24.8712    25.0694
         ROT.     0.4615D+06                   745.2024     2.9808    28.8985
         INT.     0.2154D+09                  3959.2997    27.8520    53.9679
         TRA.     0.1078D+28                  1242.0041     4.9680    39.5830
         TOT.                       -7.318    5201.3037    32.8200    93.5509

 260.00  VIB.     0.6044D+03                  3468.2416    25.9611    26.0660
         ROT.     0.4895D+06                   775.0105     2.9808    29.0154
         INT.     0.2959D+09                  4243.2522    28.9419    55.0814
         TRA.     0.1143D+28                  1291.6842     4.9680    39.7779
         TOT.                       -6.985    5534.9364    33.9100    94.8593

 270.00  VIB.     0.7823D+03                  3733.3840    27.0703    27.0665
         ROT.     0.5180D+06                   804.8186     2.9808    29.1279
         INT.     0.4052D+09                  4538.2026    30.0511    56.1945
         TRA.     0.1210D+28                  1341.3644     4.9680    39.9654
         TOT.                       -6.640    5879.5670    35.0191    96.1598

 280.00  VIB.     0.1012D+04                  4009.7006    28.1954    28.0713
         ROT.     0.5470D+06                   834.6267     2.9808    29.2363
         INT.     0.5536D+09                  4844.3273    31.1763    57.3076
         TRA.     0.1278D+28                  1391.0445     4.9680    40.1461
         TOT.                       -6.284    6235.3719    36.1443    97.4537

 290.00  VIB.     0.1309D+04                  4297.3355    29.3334    29.0805
         ROT.     0.5766D+06                   864.4348     2.9808    29.3409
         INT.     0.7547D+09                  5161.7704    32.3142    58.4215
         TRA.     0.1347D+28                  1440.7247     4.9680    40.3204
         TOT.                       -5.917    6602.4951    37.2822    98.7419

 300.00  VIB.     0.1693D+04                  4596.4001    30.4808    30.0943
         ROT.     0.6067D+06                   894.2429     2.9808    29.4420
         INT.     0.1027D+10                  5490.6430    33.4616    59.5363
         TRA.     0.1417D+28                  1490.4049     4.9680    40.4888
         TOT.                       -5.538    6981.0479    38.4297   100.0251

 310.00  VIB.     0.2189D+04                  4906.9729    31.6345    31.1126
         ROT.     0.6373D+06                   924.0510     2.9808    29.5397
         INT.     0.1395D+10                  5831.0239    34.6153    60.6523
         TRA.     0.1488D+28                  1540.0850     4.9680    40.6517
         TOT.                       -5.148    7371.1090    39.5833   101.3040

 320.00  VIB.     0.2830D+04                  5229.1008    32.7913    32.1352
         ROT.     0.6684D+06                   953.8591     2.9808    29.6344
         INT.     0.1891D+10                  6182.9599    35.7722    61.7695
         TRA.     0.1561D+28                  1589.7652     4.9680    40.8094
         TOT.                       -4.747    7772.7251    40.7402   102.5790

 330.00  VIB.     0.3659D+04                  5562.8004    33.9484    33.1619
         ROT.     0.6999D+06                   983.6672     2.9808    29.7261
         INT.     0.2561D+10                  6546.4677    36.9292    62.8880
         TRA.     0.1635D+28                  1639.4454     4.9680    40.9623
         TOT.                       -4.334    8185.9130    41.8972   103.8504

 340.00  VIB.     0.4732D+04                  5908.0602    35.1029    34.1925
         ROT.     0.7320D+06                  1013.4753     2.9808    29.8151
         INT.     0.3464D+10                  6921.5355    38.0837    64.0076
         TRA.     0.1710D+28                  1689.1255     4.9680    41.1106
         TOT.                       -3.909    8610.6610    43.0518   105.1183

 350.00  VIB.     0.6120D+04                  6264.8423    36.2525    35.2267
         ROT.     0.7645D+06                  1043.2834     2.9808    29.9015
         INT.     0.4679D+10                  7308.1257    39.2333    65.1282
         TRA.     0.1786D+28                  1738.8057     4.9680    41.2546
         TOT.                       -3.473    9046.9314    44.2013   106.3828

 360.00  VIB.     0.7917D+04                  6633.0854    37.3948    36.2640
         ROT.     0.7975D+06                  1073.0915     2.9808    29.9855
         INT.     0.6314D+10                  7706.1769    40.3756    66.2495
         TRA.     0.1863D+28                  1788.4859     4.9680    41.3946
         TOT.                       -3.025    9494.6628    45.3436   107.6441

 370.00  VIB.     0.1024D+05                  7012.7067    38.5278    37.3040
         ROT.     0.8310D+06                  1102.8996     2.9808    30.0671
         INT.     0.8513D+10                  8115.6063    41.5086    67.3712
         TRA.     0.1941D+28                  1838.1660     4.9680    41.5307
         TOT.                       -2.566    9953.7724    46.4766   108.9019

 380.00  VIB.     0.1326D+05                  7403.6048    39.6498    38.3464
         ROT.     0.8649D+06                  1132.7077     2.9808    30.1466
         INT.     0.1147D+11                  8536.3125    42.6306    68.4931
         TRA.     0.2020D+28                  1887.8462     4.9680    41.6632
         TOT.                       -2.095   10424.1586    47.5987   110.1563

 390.00  VIB.     0.1716D+05                  7805.6615    40.7593    39.3907
         ROT.     0.8993D+06                  1162.5158     2.9808    30.2241
         INT.     0.1543D+11                  8968.1773    43.7401    69.6148
         TRA.     0.2100D+28                  1937.5263     4.9680    41.7923
         TOT.                       -1.614   10905.7036    48.7081   111.4070

 400.00  VIB.     0.2222D+05                  8218.7447    41.8549    40.4365
         ROT.     0.9341D+06                  1192.3239     2.9808    30.2995
         INT.     0.2076D+11                  9411.0686    44.8357    70.7360
         TRA.     0.2182D+28                  1987.2065     4.9680    41.9180
         TOT.                       -1.121   11398.2751    49.8038   112.6541

   *: NOTE: HEATS OF FORMATION ARE RELATIVE TO THE
            ELEMENTS IN THEIR STANDARD STATE AT 298K
              (=  Standard Enthalpy of Formation).

            Hvib:  Zero-point energy is not included.
                   frequencies of less than zero cm-1 are not included.
            Hrot = (3/2)RT
            Htra = (3/2)RT + pV = (5/2)RT

            Heat capacity is Cp, not Cv

          For more information, see: HTTP://OpenMOPAC.net/Manual/thermochemistry.html


           FORCE CONSTANT IN CARTESIAN COORDINATES (Millidynes/A)

    ATOM   CHEMICAL       X               Y               Z
   NUMBER   SYMBOL  FORCE CONSTANT  FORCE CONSTANT  FORCE CONSTANT

      1       O        4.231312        6.203927        0.673390
      2       O        4.229615        6.214077        0.676843
      3       C        8.443931        8.272233        8.328070
      4       C        8.453013        8.264553        8.298449
      5       C        8.245792        8.532917        8.174993
      6       C        7.957422        9.156651        8.298372
      7       C        8.212653        8.321681        8.359118
      8       C        2.959747       11.306919       12.786411
      9       C        2.565804       11.337582       12.579920
     10       H        1.472444        1.029412        3.479724
     11       H        1.467862        1.050618        3.463688
     12       H        1.702060        1.105657        3.611113
     13       H        4.496190        1.199302        0.707680
     14       H        4.461030        1.107205        0.686481
     15       H        1.655636        1.152199        3.591350
     16       H        4.735270        1.276232        0.697331
     17       H        1.987292        1.203680        3.583713
     18       H        1.452737        1.377876        3.962301
     19       H        0.604890        1.505277        4.100608
     20       H        0.368302        5.417062        0.683874
     21       H        0.617579        1.346884        4.492941

 **********************
 *                    *
 * JOB ENDED NORMALLY *
 *                    *
 **********************



 TOTAL JOB TIME:             2.21 SECONDS

 == MOPAC DONE ==
