 *******************************************************************************
 ** Site#: 14399        For non-commercial use only    Version 18.184L 64BITS **
 *******************************************************************************
 ** Cite this program as: MOPAC2016, Version: 18.184L, James J. P. Stewart,   **
 ** Stewart Computational Chemistry, web: HTTP://OpenMOPAC.net. Days left:  18**
 *******************************************************************************
 **                                                                           **
 **                                MOPAC2016                                  **
 **                                                                           **
 *******************************************************************************

                              PM3 CALCULATION RESULTS

 *******************************************************************************
 *  CALCULATION DONE:                                Sat Jun 15 10:13:34 2019  *
 *  PM3        - The PM3 Hamiltonian to be used
 *  PRECISE    - CRITERIA TO BE INCREASED BY 100 TIMES
 *  NOSYM      - POINT-GROUP SYMMETRY SET TO C1
 *  THREADS=1  - MULTI-THREADING NOT USED
 *  T=         - A TIME OF 172800.0 SECONDS REQUESTED
 *  DUMP=N     - RESTART FILE WRITTEN EVERY  7200.000 SECONDS
 *******************************************************************************
pm3  precise nosym THREADS=1
 InChI=1S/C10H8/c1-3-9-7-5-6-8-10(9)4-2/h1,4-8H,2H2

   ATOM   CHEMICAL          X               Y               Z
  NUMBER   SYMBOL      (ANGSTROMS)     (ANGSTROMS)     (ANGSTROMS)
 
     1       C         -0.32100000  *  -0.28920000  *  -0.10160000  *
     2       C          0.46670000  *   0.88790000  *  -0.06070000  *
     3       C          0.32490000  *  -1.53930000  *   0.00270000  *
     4       C          1.85640000  *   0.79680000  *   0.10330000  *
     5       C         -1.79470000  *  -0.20630000  *  -0.29260000  *
     6       C          2.47400000  *  -0.44900000  *   0.21780000  *
     7       C          1.71030000  *  -1.61410000  *   0.16500000  *
     8       C         -2.64780000  *  -1.13580000  *   0.13930000  *
     9       C         -0.12650000  *   2.20110000  *  -0.16080000  *
    10       C         -0.62050000  *   3.29780000  *  -0.24390000  *
    11       H          2.46420000  *   1.69310000  *   0.14370000  *
    12       H         -0.23150000  *  -2.46420000  *  -0.06550000  *
    13       H         -2.21260000  *   0.66950000  *  -0.77340000  *
    14       H          3.54730000  *  -0.51130000  *   0.34280000  *
    15       H          2.19370000  *  -2.57960000  *   0.24230000  *
    16       H         -2.31860000  *  -2.01220000  *   0.68020000  *
    17       H         -3.71010000  *  -1.00530000  *  -0.02160000  *
    18       H         -1.05440000  *   4.26020000  *  -0.31690000  *
 


          CARTESIAN COORDINATES 

    NO.       ATOM           X           Y           Z

     1         C         -0.3210     -0.2892     -0.1016
     2         C          0.4667      0.8879     -0.0607
     3         C          0.3249     -1.5393      0.0027
     4         C          1.8564      0.7968      0.1033
     5         C         -1.7947     -0.2063     -0.2926
     6         C          2.4740     -0.4490      0.2178
     7         C          1.7103     -1.6141      0.1650
     8         C         -2.6478     -1.1358      0.1393
     9         C         -0.1265      2.2011     -0.1608
    10         C         -0.6205      3.2978     -0.2439
    11         H          2.4642      1.6931      0.1437
    12         H         -0.2315     -2.4642     -0.0655
    13         H         -2.2126      0.6695     -0.7734
    14         H          3.5473     -0.5113      0.3428
    15         H          2.1937     -2.5796      0.2423
    16         H         -2.3186     -2.0122      0.6802
    17         H         -3.7101     -1.0053     -0.0216
    18         H         -1.0544      4.2602     -0.3169

  H: (PM3): J. J. P. STEWART, J. COMP. CHEM. 10, 209 (1989).
  C: (PM3): J. J. P. STEWART, J. COMP. CHEM. 10, 209 (1989).

           Empirical Formula: C10 H8  =    18 atoms



      MOLECULAR POINT GROUP   :   C1  


      RHF CALCULATION, NO. OF DOUBLY OCCUPIED LEVELS = 24


          Geometry optimization using EF

          DIAGONAL MATRIX USED AS START HESSIAN

 CYCLE:     1 TIME:   0.008 TIME LEFT:  2.00D  GRAD.:    72.780 HEAT:  94.13993
 CYCLE:     2 TIME:   0.008 TIME LEFT:  2.00D  GRAD.:    64.696 HEAT:  93.20587
 CYCLE:     3 TIME:   0.008 TIME LEFT:  2.00D  GRAD.:    33.901 HEAT:  92.77195
 CYCLE:     4 TIME:   0.004 TIME LEFT:  2.00D  GRAD.:    34.515 HEAT:  92.55895
 CYCLE:     5 TIME:   0.004 TIME LEFT:  2.00D  GRAD.:    26.135 HEAT:  92.26935
 CYCLE:     6 TIME:   0.008 TIME LEFT:  2.00D  GRAD.:    22.809 HEAT:  92.14635
 CYCLE:     7 TIME:   0.004 TIME LEFT:  2.00D  GRAD.:    15.380 HEAT:  91.99923
 CYCLE:     8 TIME:   0.004 TIME LEFT:  2.00D  GRAD.:    29.638 HEAT:  91.99621
 CYCLE:     9 TIME:   0.000 TIME LEFT:  2.00D  GRAD.:    21.613 HEAT:  91.88907
 CYCLE:    10 TIME:   0.004 TIME LEFT:  2.00D  GRAD.:    22.919 HEAT:  91.88504
 CYCLE:    11 TIME:   0.008 TIME LEFT:  2.00D  GRAD.:    14.880 HEAT:  91.80961
 CYCLE:    12 TIME:   0.000 TIME LEFT:  2.00D  GRAD.:    16.235 HEAT:  91.80385
 CYCLE:    13 TIME:   0.004 TIME LEFT:  2.00D  GRAD.:     7.287 HEAT:  91.75818
 CYCLE:    14 TIME:   0.008 TIME LEFT:  2.00D  GRAD.:     4.739 HEAT:  91.74489
 CYCLE:    15 TIME:   0.004 TIME LEFT:  2.00D  GRAD.:     3.558 HEAT:  91.73795
 CYCLE:    16 TIME:   0.004 TIME LEFT:  2.00D  GRAD.:     5.598 HEAT:  91.73416
 CYCLE:    17 TIME:   0.004 TIME LEFT:  2.00D  GRAD.:     4.771 HEAT:  91.73055
 CYCLE:    18 TIME:   0.004 TIME LEFT:  2.00D  GRAD.:     3.797 HEAT:  91.72719
 CYCLE:    19 TIME:   0.004 TIME LEFT:  2.00D  GRAD.:     2.275 HEAT:  91.72547
 CYCLE:    20 TIME:   0.004 TIME LEFT:  2.00D  GRAD.:     2.133 HEAT:  91.72377
 CYCLE:    21 TIME:   0.000 TIME LEFT:  2.00D  GRAD.:     1.165 HEAT:  91.72245
 CYCLE:    22 TIME:   0.008 TIME LEFT:  2.00D  GRAD.:     1.396 HEAT:  91.72159
 CYCLE:    23 TIME:   0.004 TIME LEFT:  2.00D  GRAD.:     0.706 HEAT:  91.72066
 CYCLE:    24 TIME:   0.004 TIME LEFT:  2.00D  GRAD.:     0.872 HEAT:  91.72019
 CYCLE:    25 TIME:   0.000 TIME LEFT:  2.00D  GRAD.:     0.654 HEAT:  91.71992
 CYCLE:    26 TIME:   0.004 TIME LEFT:  2.00D  GRAD.:     0.444 HEAT:  91.71970
 CYCLE:    27 TIME:   0.004 TIME LEFT:  2.00D  GRAD.:     0.388 HEAT:  91.71943
 CYCLE:    28 TIME:   0.004 TIME LEFT:  2.00D  GRAD.:     0.562 HEAT:  91.71909
 CYCLE:    29 TIME:   0.004 TIME LEFT:  2.00D  GRAD.:     0.529 HEAT:  91.71875
 CYCLE:    30 TIME:   0.004 TIME LEFT:  2.00D  GRAD.:     0.490 HEAT:  91.71820
 CYCLE:    31 TIME:   0.004 TIME LEFT:  2.00D  GRAD.:     0.622 HEAT:  91.71709
 CYCLE:    32 TIME:   0.004 TIME LEFT:  2.00D  GRAD.:     0.639 HEAT:  91.71632
 CYCLE:    33 TIME:   0.004 TIME LEFT:  2.00D  GRAD.:     0.562 HEAT:  91.71562
 CYCLE:    34 TIME:   0.004 TIME LEFT:  2.00D  GRAD.:     0.586 HEAT:  91.71491
 CYCLE:    35 TIME:   0.004 TIME LEFT:  2.00D  GRAD.:     0.472 HEAT:  91.71432
 CYCLE:    36 TIME:   0.004 TIME LEFT:  2.00D  GRAD.:     0.392 HEAT:  91.71386
 CYCLE:    37 TIME:   0.004 TIME LEFT:  2.00D  GRAD.:     0.360 HEAT:  91.71360
 CYCLE:    38 TIME:   0.004 TIME LEFT:  2.00D  GRAD.:     0.423 HEAT:  91.71325
 CYCLE:    39 TIME:   0.004 TIME LEFT:  2.00D  GRAD.:     0.501 HEAT:  91.71283
 CYCLE:    40 TIME:   0.004 TIME LEFT:  2.00D  GRAD.:     0.617 HEAT:  91.71201
 CYCLE:    41 TIME:   0.004 TIME LEFT:  2.00D  GRAD.:     0.900 HEAT:  91.71046
 CYCLE:    42 TIME:   0.004 TIME LEFT:  2.00D  GRAD.:     1.507 HEAT:  91.70774
 CYCLE:    43 TIME:   0.004 TIME LEFT:  2.00D  GRAD.:     3.077 HEAT:  91.70277
 CYCLE:    44 TIME:   0.004 TIME LEFT:  2.00D  GRAD.:     4.928 HEAT:  91.69404
 CYCLE:    45 TIME:   0.008 TIME LEFT:  2.00D  GRAD.:     5.205 HEAT:  91.67789
 CYCLE:    46 TIME:   0.004 TIME LEFT:  2.00D  GRAD.:     3.082 HEAT:  91.65172
 CYCLE:    47 TIME:   0.004 TIME LEFT:  2.00D  GRAD.:     2.046 HEAT:  91.62818
 CYCLE:    48 TIME:   0.004 TIME LEFT:  2.00D  GRAD.:     2.270 HEAT:  91.60581
 CYCLE:    49 TIME:   0.004 TIME LEFT:  2.00D  GRAD.:     2.458 HEAT:  91.57665
 CYCLE:    50 TIME:   0.004 TIME LEFT:  2.00D  GRAD.:     2.950 HEAT:  91.53500
 CYCLE:    51 TIME:   0.004 TIME LEFT:  2.00D  GRAD.:     4.109 HEAT:  91.45523
 CYCLE:    52 TIME:   0.004 TIME LEFT:  2.00D  GRAD.:    11.631 HEAT:  91.45323
 CYCLE:    53 TIME:   0.004 TIME LEFT:  2.00D  GRAD.:     6.013 HEAT:  91.41385
 CYCLE:    54 TIME:   0.004 TIME LEFT:  2.00D  GRAD.:     4.473 HEAT:  91.37859
 CYCLE:    55 TIME:   0.004 TIME LEFT:  2.00D  GRAD.:     2.964 HEAT:  91.36766
 CYCLE:    56 TIME:   0.004 TIME LEFT:  2.00D  GRAD.:     2.776 HEAT:  91.35911
 CYCLE:    57 TIME:   0.004 TIME LEFT:  2.00D  GRAD.:     1.662 HEAT:  91.34565
 CYCLE:    58 TIME:   0.004 TIME LEFT:  2.00D  GRAD.:     1.392 HEAT:  91.34058
 CYCLE:    59 TIME:   0.004 TIME LEFT:  2.00D  GRAD.:     1.726 HEAT:  91.33048
 CYCLE:    60 TIME:   0.004 TIME LEFT:  2.00D  GRAD.:     1.659 HEAT:  91.32526
 CYCLE:    61 TIME:   0.004 TIME LEFT:  2.00D  GRAD.:     1.618 HEAT:  91.31619
 CYCLE:    62 TIME:   0.004 TIME LEFT:  2.00D  GRAD.:     1.366 HEAT:  91.31186
 CYCLE:    63 TIME:   0.004 TIME LEFT:  2.00D  GRAD.:     1.561 HEAT:  91.30612
 CYCLE:    64 TIME:   0.004 TIME LEFT:  2.00D  GRAD.:     1.659 HEAT:  91.30395
 CYCLE:    65 TIME:   0.004 TIME LEFT:  2.00D  GRAD.:     1.011 HEAT:  91.30197
 CYCLE:    66 TIME:   0.004 TIME LEFT:  2.00D  GRAD.:     0.954 HEAT:  91.29966
 CYCLE:    67 TIME:   0.004 TIME LEFT:  2.00D  GRAD.:     0.658 HEAT:  91.29876
 CYCLE:    68 TIME:   0.004 TIME LEFT:  2.00D  GRAD.:     0.654 HEAT:  91.29710
 CYCLE:    69 TIME:   0.004 TIME LEFT:  2.00D  GRAD.:     0.636 HEAT:  91.29640
 CYCLE:    70 TIME:   0.004 TIME LEFT:  2.00D  GRAD.:     0.492 HEAT:  91.29588
 CYCLE:    71 TIME:   0.000 TIME LEFT:  2.00D  GRAD.:     0.381 HEAT:  91.29555
 CYCLE:    72 TIME:   0.004 TIME LEFT:  2.00D  GRAD.:     0.298 HEAT:  91.29521
 CYCLE:    73 TIME:   0.004 TIME LEFT:  2.00D  GRAD.:     0.190 HEAT:  91.29494
 CYCLE:    74 TIME:   0.004 TIME LEFT:  2.00D  GRAD.:     0.112 HEAT:  91.29484
 CYCLE:    75 TIME:   0.004 TIME LEFT:  2.00D  GRAD.:     0.071 HEAT:  91.29482
 CYCLE:    76 TIME:   0.004 TIME LEFT:  2.00D  GRAD.:     0.063 HEAT:  91.29481
 CYCLE:    77 TIME:   0.004 TIME LEFT:  2.00D  GRAD.:     0.036 HEAT:  91.29481

     GRADIENT =  0.03617  IS LESS THAN CUTOFF =  0.05000



 -------------------------------------------------------------------------------
 pm3  precise nosym THREADS=1
 InChI=1S/C10H8/c1-3-9-7-5-6-8-10(9)4-2/h1,4-8H,2H2



     GEOMETRY OPTIMISED USING EIGENVECTOR FOLLOWING (EF).     
     SCF FIELD WAS ACHIEVED                                   


                              PM3 CALCULATION
                                                       MOPAC2016 (Version: 18.184L)
                                                       Sat Jun 15 10:13:34 2019
                                                       No. of days remaining =  18




          FINAL HEAT OF FORMATION =         91.29481 KCAL/MOL =     381.97747 KJ/MOL


          TOTAL ENERGY            =      -1305.10666 EV
          ELECTRONIC ENERGY       =      -6445.39423 EV  POINT GROUP:     C1  
          CORE-CORE REPULSION     =       5140.28757 EV
          COSMO AREA              =        177.51 SQUARE ANGSTROMS
          COSMO VOLUME            =        175.16 CUBIC ANGSTROMS

          GRADIENT NORM           =          0.03617 = 0.00852 PER ATOM
          IONIZATION POTENTIAL    =          9.049084 EV
          HOMO LUMO ENERGIES (EV) =         -9.049 -0.349
          NO. OF FILLED LEVELS    =         24
          MOLECULAR WEIGHT        =        128.1732

          MOLECULAR DIMENSIONS (Angstroms)

            Atom       Atom       Distance
            H    18    H    15     7.55872
            H    17    H    14     6.82265
            C    10    H    11     0.00034


          SCF CALCULATIONS        =         85
 
          WALL-CLOCK TIME         =          0.324 SECONDS
          COMPUTATION TIME        =          0.293 SECONDS




   ATOM   CHEMICAL          X               Y               Z
  NUMBER   SYMBOL      (ANGSTROMS)     (ANGSTROMS)     (ANGSTROMS)
 
     1       C         -0.33817611  *  -0.25136615  *  -0.00835110  *
     2       C          0.46259163  *   0.90417268  *  -0.05255099  *
     3       C          0.28416210  *  -1.49779110  *   0.12052862  *
     4       C          1.85529379  *   0.79531493  *   0.03197827  *
     5       C         -1.79434708  *  -0.16047379  *  -0.09473706  *
     6       C          2.45207402  *  -0.45229125  *   0.15955798  *
     7       C          1.66560088  *  -1.59964499  *   0.20381054  *
     8       C         -2.59121085  *  -1.22691682  *  -0.05712953  *
     9       C         -0.11080847  *   2.19519245  *  -0.18222099  *
    10       C         -0.57851208  *   3.28706906  *  -0.29091147  *
    11       H          2.47384086  *   1.69875034  *  -0.00281223  *
    12       H         -0.35076934  *  -2.39722410  *   0.15431424  *
    13       H         -2.20841135  *   0.85197541  *  -0.19432380  *
    14       H          3.54204451  *  -0.53205189  *   0.22531370  *
    15       H          2.13584320  *  -2.58321583  *   0.30436017  *
    16       H         -2.19531043  *  -2.23922455  *   0.04157323  *
    17       H         -3.67193669  *  -1.16018265  *  -0.12120855  *
    18       H         -0.99506332  *   4.26167377  *  -0.38783091  *

                             CARTESIAN COORDINATES

   1    C       -0.338176106    -0.251366146    -0.008351099
   2    C        0.462591632     0.904172682    -0.052550986
   3    C        0.284162100    -1.497791104     0.120528625
   4    C        1.855293791     0.795314928     0.031978271
   5    C       -1.794347077    -0.160473791    -0.094737060
   6    C        2.452074018    -0.452291246     0.159557983
   7    C        1.665600879    -1.599644991     0.203810540
   8    C       -2.591210853    -1.226916821    -0.057129529
   9    C       -0.110808469     2.195192445    -0.182220994
  10    C       -0.578512079     3.287069058    -0.290911468
  11    H        2.473840858     1.698750335    -0.002812234
  12    H       -0.350769338    -2.397224097     0.154314241
  13    H       -2.208411348     0.851975413    -0.194323804
  14    H        3.542044513    -0.532051895     0.225313701
  15    H        2.135843202    -2.583215833     0.304360174
  16    H       -2.195310432    -2.239224554     0.041573232
  17    H       -3.671936689    -1.160182645    -0.121208546
  18    H       -0.995063321     4.261673773    -0.387830912


           Empirical Formula: C10 H8  =    18 atoms



      MOLECULAR POINT GROUP   :   C1  


                  EIGENVALUES  
 -40.35110 -33.88475 -32.64392 -28.49417 -27.75875 -22.75707 -22.17845 -19.68216
 -18.83715 -17.68216 -17.04097 -16.02950 -15.47906 -14.83858 -14.77914 -13.92785
 -13.21912 -12.76627 -12.15275 -11.94913 -11.27790 -11.26130  -9.59581  -9.04908
  -0.34892   0.10238   1.49431   1.75653   2.08118   2.53187   3.04703   3.18434
   3.25834   3.40275   3.51193   3.71708   3.87124   4.01417   4.07933   4.72714
   4.82527   4.98681   5.04228   5.51528   5.65913   6.00411   6.29331   6.70194


              NET ATOMIC CHARGES AND DIPOLE CONTRIBUTIONS

  ATOM NO.   TYPE          CHARGE      No. of ELECS.   s-Pop       p-Pop       
    1          C          -0.029484        4.0295     1.16601     2.86347
    2          C           0.064077        3.9359     1.12708     2.80885
    3          C          -0.103759        4.1038     1.18094     2.92282
    4          C          -0.088551        4.0886     1.17878     2.90977
    5          C          -0.095680        4.0957     1.17967     2.91601
    6          C          -0.102372        4.1024     1.17917     2.92320
    7          C          -0.094254        4.0943     1.17802     2.91624
    8          C          -0.154734        4.1547     1.18483     2.96991
    9          C          -0.130909        4.1309     1.18457     2.94634
   10          C          -0.170425        4.1704     1.21112     2.95930
   11          H           0.110135        0.8899     0.88987
   12          H           0.112996        0.8870     0.88700
   13          H           0.109505        0.8905     0.89049
   14          H           0.104611        0.8954     0.89539
   15          H           0.103801        0.8962     0.89620
   16          H           0.084250        0.9158     0.91575
   17          H           0.084265        0.9157     0.91574
   18          H           0.196528        0.8035     0.80347
 DIPOLE           X         Y         Z       TOTAL
 POINT-CHG.     0.081    -0.279     0.026     0.292
 HYBRID        -0.058     0.138    -0.014     0.150
 SUM            0.023    -0.141     0.012     0.143


          ATOMIC ORBITAL ELECTRON POPULATIONS

     Atom    s        px        py        pz   
    1  C   1.16601   0.93596   0.93263   0.99488
    2  C   1.12708   0.92753   0.87564   1.00568
    3  C   1.18094   0.95378   0.96889   1.00015
    4  C   1.17878   0.94131   0.97303   0.99543
    5  C   1.17967   0.92638   0.99126   0.99837
    6  C   1.17917   0.98336   0.93918   1.00066
    7  C   1.17802   0.94525   0.97498   0.99601
    8  C   1.18483   0.99010   0.98005   0.99976
    9  C   1.18457   0.99061   0.94962   1.00611
   10  C   1.21112   0.99716   0.96340   0.99874
   11  H   0.88987
   12  H   0.88700
   13  H   0.89049
   14  H   0.89539
   15  H   0.89620
   16  H   0.91575
   17  H   0.91574
   18  H   0.80347
 *******************************************************************************
 ** Site#: 14399        For non-commercial use only    Version 18.184L 64BITS **
 *******************************************************************************
 ** Cite this program as: MOPAC2016, Version: 18.184L, James J. P. Stewart,   **
 ** Stewart Computational Chemistry, web: HTTP://OpenMOPAC.net. Days left:  18**
 *******************************************************************************
 **                                                                           **
 **                                MOPAC2016                                  **
 **                                                                           **
 *******************************************************************************

                              PM3 CALCULATION RESULTS

 *******************************************************************************
 *  CALCULATION DONE:                                Sat Jun 15 10:13:34 2019  *
 *  PM3        - The PM3 Hamiltonian to be used
 *  OLDGEO     - PREVIOUS GEOMETRY TO BE USED
 *  PRECISE    - CRITERIA TO BE INCREASED BY 100 TIMES
 *  NOSYM      - POINT-GROUP SYMMETRY SET TO C1
 *  THREADS=1  - MULTI-THREADING NOT USED
 *  T=         - A TIME OF 172800.0 SECONDS REQUESTED
 *  DUMP=N     - RESTART FILE WRITTEN EVERY  7200.000 SECONDS
 *  THERMO     - THERMODYNAMIC QUANTITIES TO BE CALCULATED
 *******************************************************************************
oldgeo thermo nosym precise THREADS=1  pm3
 InChI=1S/C10H8/c1-3-9-7-5-6-8-10(9)4-2/h1,4-8H,2H2

   ATOM   CHEMICAL          X               Y               Z
  NUMBER   SYMBOL      (ANGSTROMS)     (ANGSTROMS)     (ANGSTROMS)
 
     1       C         -0.33817611  *  -0.25136615  *  -0.00835110  *
     2       C          0.46259163  *   0.90417268  *  -0.05255099  *
     3       C          0.28416210  *  -1.49779110  *   0.12052862  *
     4       C          1.85529379  *   0.79531493  *   0.03197827  *
     5       C         -1.79434708  *  -0.16047379  *  -0.09473706  *
     6       C          2.45207402  *  -0.45229125  *   0.15955798  *
     7       C          1.66560088  *  -1.59964499  *   0.20381054  *
     8       C         -2.59121085  *  -1.22691682  *  -0.05712953  *
     9       C         -0.11080847  *   2.19519245  *  -0.18222099  *
    10       C         -0.57851208  *   3.28706906  *  -0.29091147  *
    11       H          2.47384086  *   1.69875034  *  -0.00281223  *
    12       H         -0.35076934  *  -2.39722410  *   0.15431424  *
    13       H         -2.20841135  *   0.85197541  *  -0.19432380  *
    14       H          3.54204451  *  -0.53205189  *   0.22531370  *
    15       H          2.13584320  *  -2.58321583  *   0.30436017  *
    16       H         -2.19531043  *  -2.23922455  *   0.04157323  *
    17       H         -3.67193669  *  -1.16018265  *  -0.12120855  *
    18       H         -0.99506332  *   4.26167377  *  -0.38783091  *
 


          CARTESIAN COORDINATES 

    NO.       ATOM           X           Y           Z

     1         C         -0.3382     -0.2514     -0.0084
     2         C          0.4626      0.9042     -0.0526
     3         C          0.2842     -1.4978      0.1205
     4         C          1.8553      0.7953      0.0320
     5         C         -1.7943     -0.1605     -0.0947
     6         C          2.4521     -0.4523      0.1596
     7         C          1.6656     -1.5996      0.2038
     8         C         -2.5912     -1.2269     -0.0571
     9         C         -0.1108      2.1952     -0.1822
    10         C         -0.5785      3.2871     -0.2909
    11         H          2.4738      1.6988     -0.0028
    12         H         -0.3508     -2.3972      0.1543
    13         H         -2.2084      0.8520     -0.1943
    14         H          3.5420     -0.5321      0.2253
    15         H          2.1358     -2.5832      0.3044
    16         H         -2.1953     -2.2392      0.0416
    17         H         -3.6719     -1.1602     -0.1212
    18         H         -0.9951      4.2617     -0.3878

  H: (PM3): J. J. P. STEWART, J. COMP. CHEM. 10, 209 (1989).
  C: (PM3): J. J. P. STEWART, J. COMP. CHEM. 10, 209 (1989).

           Empirical Formula: C10 H8  =    18 atoms



      MOLECULAR POINT GROUP   :   C1  


      RHF CALCULATION, NO. OF DOUBLY OCCUPIED LEVELS = 24



          HEAT OF FORMATION =      91.294808 KCALS/MOLE


          CARTESIAN COORDINATE DERIVATIVES

   NUMBER  ATOM         X            Y            Z

     1       C      0.006879     0.002197     0.006581
     2       C     -0.005190    -0.005722     0.002391
     3       C     -0.002297     0.009515    -0.004213
     4       C     -0.000158     0.008178     0.002631
     5       C      0.000502     0.005386    -0.009559
     6       C      0.006775     0.000658    -0.004858
     7       C     -0.003733     0.002935     0.010527
     8       C      0.012649    -0.001757     0.009128
     9       C     -0.005258     0.001684     0.002326
    10       C     -0.001743    -0.004023     0.002623
    11       H     -0.002302    -0.003230    -0.004346
    12       H     -0.007690    -0.012166    -0.001232
    13       H     -0.008013    -0.004388    -0.000906
    14       H      0.006564     0.000303    -0.000970
    15       H     -0.001493    -0.002182    -0.001807
    16       H      0.001708    -0.003055    -0.005132
    17       H      0.001624     0.004138    -0.000588
    18       H      0.001176     0.001527    -0.002595
 


          GRADIENT NORM =   0.03784


          TIME FOR SCF CALCULATION =    0.00

          TIME FOR DERIVATIVES     =    0.00

          MOLECULAR WEIGHT =  128.17



          ROTATIONAL CONSTANTS IN CM(-1)

          A =    0.05452025   B =    0.05000951   C =    0.02608378



           PRINCIPAL MOMENTS OF INERTIA IN UNITS OF 10**(-40)*GRAM-CM**2

          A =      513.4381   B =      559.7491   C =     1073.1872


          ORIENTATION OF MOLECULE IN FORCE CALCULATION

    NO.       ATOM         X         Y         Z

     1          C      -0.6032   -0.1307    0.0000
     2          C       0.8034   -0.1307    0.0000
     3          C      -1.2769    1.0955    0.0000
     4          C       1.5042    1.0807   -0.0001
     5          C      -1.3548   -1.3842   -0.0001
     6          C       0.8150    2.2865   -0.0001
     7          C      -0.5767    2.2936    0.0000
     8          C      -2.6857   -1.4320   -0.0000
     9          C       1.5416   -1.3421    0.0001
    10          C       2.1758   -2.3523    0.0001
    11          H       2.5996    1.0745   -0.0003
    12          H      -2.3783    1.0859    0.0000
    13          H      -0.7556   -2.3048   -0.0001
    14          H       1.3679    3.2314   -0.0002
    15          H      -1.1202    3.2440    0.0000
    16          H      -3.2951   -0.5265   -0.0001
    17          H      -3.2442   -2.3618   -0.0001
    18          H       2.7424   -3.2533    0.0001


    FIRST DERIVATIVES WILL BE USED IN THE CALCULATION OF SECOND DERIVATIVES

          ESTIMATED TIME TO COMPLETE CALCULATION =        1.69 SECONDS

    FOR POINT-GROUP C1   THERE ARE   1 UNIQUE SYMMETRY FUNCTIONS.

 STEP:   1 TIME =     0.02 SECS, INTEGRAL =      0.02 TIME LEFT: 172799.98
 STEP:   2 TIME =     0.02 SECS, INTEGRAL =      0.03 TIME LEFT: 172799.96
 STEP:   3 TIME =     0.02 SECS, INTEGRAL =      0.05 TIME LEFT: 172799.95
 STEP:   4 TIME =     0.02 SECS, INTEGRAL =      0.06 TIME LEFT: 172799.93
 STEP:   5 TIME =     0.02 SECS, INTEGRAL =      0.08 TIME LEFT: 172799.91
 STEP:   6 TIME =     0.02 SECS, INTEGRAL =      0.10 TIME LEFT: 172799.89
 STEP:   7 TIME =     0.02 SECS, INTEGRAL =      0.11 TIME LEFT: 172799.88
 STEP:   8 TIME =     0.02 SECS, INTEGRAL =      0.13 TIME LEFT: 172799.86
 STEP:   9 TIME =     0.02 SECS, INTEGRAL =      0.15 TIME LEFT: 172799.84
 STEP:  10 TIME =     0.02 SECS, INTEGRAL =      0.16 TIME LEFT: 172799.83
 STEP:  11 TIME =     0.02 SECS, INTEGRAL =      0.18 TIME LEFT: 172799.81
 STEP:  12 TIME =     0.02 SECS, INTEGRAL =      0.20 TIME LEFT: 172799.79
 STEP:  13 TIME =     0.02 SECS, INTEGRAL =      0.21 TIME LEFT: 172799.78
 STEP:  14 TIME =     0.02 SECS, INTEGRAL =      0.23 TIME LEFT: 172799.76
 STEP:  15 TIME =     0.02 SECS, INTEGRAL =      0.25 TIME LEFT: 172799.75
 STEP:  16 TIME =     0.02 SECS, INTEGRAL =      0.26 TIME LEFT: 172799.73
 STEP:  17 TIME =     0.02 SECS, INTEGRAL =      0.28 TIME LEFT: 172799.71
 STEP:  18 TIME =     0.02 SECS, INTEGRAL =      0.30 TIME LEFT: 172799.70
 STEP:  19 TIME =     0.02 SECS, INTEGRAL =      0.31 TIME LEFT: 172799.68
 STEP:  20 TIME =     0.02 SECS, INTEGRAL =      0.33 TIME LEFT: 172799.66
 STEP:  21 TIME =     0.02 SECS, INTEGRAL =      0.35 TIME LEFT: 172799.64
 STEP:  22 TIME =     0.02 SECS, INTEGRAL =      0.36 TIME LEFT: 172799.63
 STEP:  23 TIME =     0.02 SECS, INTEGRAL =      0.38 TIME LEFT: 172799.61
 STEP:  24 TIME =     0.02 SECS, INTEGRAL =      0.40 TIME LEFT: 172799.59
 STEP:  25 TIME =     0.02 SECS, INTEGRAL =      0.41 TIME LEFT: 172799.58
 STEP:  26 TIME =     0.02 SECS, INTEGRAL =      0.43 TIME LEFT: 172799.56
 STEP:  27 TIME =     0.02 SECS, INTEGRAL =      0.45 TIME LEFT: 172799.55
 STEP:  28 TIME =     0.02 SECS, INTEGRAL =      0.46 TIME LEFT: 172799.53
 STEP:  29 TIME =     0.02 SECS, INTEGRAL =      0.48 TIME LEFT: 172799.52
 STEP:  30 TIME =     0.02 SECS, INTEGRAL =      0.49 TIME LEFT: 172799.50
 STEP:  31 TIME =     0.02 SECS, INTEGRAL =      0.51 TIME LEFT: 172799.48
 STEP:  32 TIME =     0.02 SECS, INTEGRAL =      0.52 TIME LEFT: 172799.47
 STEP:  33 TIME =     0.02 SECS, INTEGRAL =      0.54 TIME LEFT: 172799.45
 STEP:  34 TIME =     0.02 SECS, INTEGRAL =      0.55 TIME LEFT: 172799.44
 STEP:  35 TIME =     0.02 SECS, INTEGRAL =      0.57 TIME LEFT: 172799.42
 STEP:  36 TIME =     0.02 SECS, INTEGRAL =      0.59 TIME LEFT: 172799.40
 STEP:  37 TIME =     0.02 SECS, INTEGRAL =      0.61 TIME LEFT: 172799.39
 STEP:  38 TIME =     0.02 SECS, INTEGRAL =      0.62 TIME LEFT: 172799.37
 STEP:  39 TIME =     0.02 SECS, INTEGRAL =      0.64 TIME LEFT: 172799.36
 STEP:  40 TIME =     0.02 SECS, INTEGRAL =      0.65 TIME LEFT: 172799.34
 STEP:  41 TIME =     0.02 SECS, INTEGRAL =      0.67 TIME LEFT: 172799.32
 STEP:  42 TIME =     0.02 SECS, INTEGRAL =      0.68 TIME LEFT: 172799.31
 STEP:  43 TIME =     0.02 SECS, INTEGRAL =      0.70 TIME LEFT: 172799.29
 STEP:  44 TIME =     0.02 SECS, INTEGRAL =      0.71 TIME LEFT: 172799.28
 STEP:  45 TIME =     0.02 SECS, INTEGRAL =      0.73 TIME LEFT: 172799.26
 STEP:  46 TIME =     0.02 SECS, INTEGRAL =      0.75 TIME LEFT: 172799.25
 STEP:  47 TIME =     0.02 SECS, INTEGRAL =      0.76 TIME LEFT: 172799.23
 STEP:  48 TIME =     0.02 SECS, INTEGRAL =      0.78 TIME LEFT: 172799.21
 STEP:  49 TIME =     0.02 SECS, INTEGRAL =      0.79 TIME LEFT: 172799.20
 STEP:  50 TIME =     0.02 SECS, INTEGRAL =      0.81 TIME LEFT: 172799.18
 STEP:  51 TIME =     0.02 SECS, INTEGRAL =      0.83 TIME LEFT: 172799.16
 STEP:  52 TIME =     0.02 SECS, INTEGRAL =      0.84 TIME LEFT: 172799.15
 STEP:  53 TIME =     0.02 SECS, INTEGRAL =      0.86 TIME LEFT: 172799.13
 STEP:  54 TIME =     0.02 SECS, INTEGRAL =      0.88 TIME LEFT: 172799.12

(To convert to Hartree/Bohr^2, multiply by (10^(-21) x N x a0^2)/(4.184 x 627.51) =  0.0642)


           FORCE MATRIX IN MILLIDYNES/ANGSTROM


                  C  1       C  2       C  3       C  4       C  5       C  6
 ------------------------------------------------------------------------------
     C    1  18.115190
     C    2   6.357962  18.664832
     C    3   6.679285   2.219816  17.309737
     C    4   2.187078   6.637984   1.740147  17.357321
     C    5   5.290916   0.837589   0.832978   0.106653  18.403196
     C    6   1.598379   2.288098   2.438180   7.148635   0.023077  17.414871
     C    7   2.251992   1.645604   7.168026   2.435843   0.106089   6.995433
     C    8   1.027512   0.085108   0.127751   0.025518  10.745726   0.009358
     C    9   0.885571   6.754042   0.107586   0.995682   0.077457   0.125762
     C   10   0.077377   0.712453   0.018071   0.071202   0.024039   0.023356
     H   11   0.080889   0.450174   0.010425   4.858030   0.007540   0.434111
     H   12   0.449129   0.081256   4.644454   0.010279   0.054896   0.087546
     H   13   0.443559   0.050324   0.041924   0.002759   4.748158   0.001681
     H   14   0.007415   0.088437   0.086290   0.436364   0.008967   4.867007
     H   15   0.089230   0.006664   0.435598   0.086644   0.008525   0.436565
     H   16   0.102875   0.005598   0.096715   0.003693   0.493455   0.000877
     H   17   0.138815   0.007654   0.010549   0.006793   0.458896   0.001618
     H   18   0.007113   0.069798   0.002526   0.007155   0.001026   0.002590


                  C  7       C  8       C  9       C 10       H 11       H 12
 ------------------------------------------------------------------------------
     C    7  17.402280
     C    8   0.016301  17.819227
     C    9   0.024491   0.012931  25.385241
     C   10   0.009093   0.003746  17.248691  23.740276
     H   11   0.088195   0.001692   0.053055   0.006545   5.223050
     H   12   0.434155   0.103623   0.009104   0.002079   0.006995   5.042618
     H   13   0.007962   0.448687   0.049381   0.017418   0.000738   0.002147
     H   14   0.436275   0.000877   0.009291   0.001992   0.042366   0.006741
     H   15   4.866603   0.000974   0.010246   0.001207   0.006911   0.041352
     H   16   0.004759   4.906625   0.003512   0.001077   0.000272   0.065294
     H   17   0.002975   5.141993   0.003247   0.000872   0.000489   0.004932
     H   18   0.000955   0.001495   0.344128   5.878921   0.001898   0.000694


                  H 13       H 14       H 15       H 16       H 17       H 18
 ------------------------------------------------------------------------------
     H   13   5.108382
     H   14   0.000409   5.228759
     H   15   0.001289   0.040475   5.228308
     H   16   0.117575   0.000393   0.000487   5.300576
     H   17   0.078136   0.000361   0.000501   0.392351   5.505596
     H   18   0.003244   0.000733   0.000839   0.000621   0.000690   6.053680


          HEAT OF FORMATION =      91.294808 KCALS/MOLE

          ZERO POINT ENERGY      89.876 KCAL/MOL


           NORMAL COORDINATE ANALYSIS (Total motion = 1 Angstrom)


   Root No.       1         2         3         4         5         6         7         8

                 1 A       2 A       3 A       4 A       5 A       6 A       7 A       8 A   

                  94.6     120.4     154.6     209.1     294.6     355.8     434.6     451.0
  
           1   -0.0000   -0.0000   -0.0195    0.0000    0.0327    0.0000    0.0000    0.0026
           2   -0.0000   -0.0000   -0.0128    0.0000   -0.0259    0.0000    0.0001    0.0406
           3   -0.0389   -0.0169    0.0001    0.0370    0.0000   -0.0092    0.0649   -0.0002
           4   -0.0000   -0.0000   -0.0199    0.0000    0.0336    0.0000   -0.0000   -0.0055
           5   -0.0000   -0.0001   -0.0288    0.0000   -0.0006    0.0000   -0.0000   -0.0304
           6   -0.0011   -0.0347    0.0002    0.0501    0.0000    0.0446    0.0069   -0.0000
           7   -0.0000   -0.0000   -0.0020   -0.0000    0.0055    0.0000   -0.0000   -0.0329
           8   -0.0000   -0.0000   -0.0019    0.0000   -0.0408   -0.0000    0.0000    0.0257
           9   -0.0508    0.0388   -0.0001    0.0394    0.0000   -0.0594   -0.0160    0.0000
          10    0.0000   -0.0000   -0.0083    0.0000   -0.0043   -0.0000   -0.0000   -0.0238
          11   -0.0000   -0.0001   -0.0338    0.0000    0.0230   -0.0000   -0.0000   -0.0252
          12    0.0399   -0.0520    0.0002    0.0174    0.0000   -0.0614   -0.0364    0.0001
          13   -0.0000   -0.0001   -0.0514    0.0000   -0.0038    0.0000    0.0001    0.0626
          14   -0.0000    0.0000    0.0062   -0.0000   -0.0042   -0.0000    0.0000    0.0231
          15   -0.0497   -0.0561    0.0001   -0.0422   -0.0000   -0.0041    0.0084   -0.0000
          16    0.0000    0.0000    0.0092    0.0000   -0.0351   -0.0000   -0.0001   -0.0363
          17    0.0000   -0.0000   -0.0251    0.0000    0.0073    0.0000   -0.0000   -0.0283
          18    0.0314   -0.0123   -0.0000   -0.0493   -0.0000    0.0016    0.0421   -0.0001
          19    0.0000    0.0000    0.0099   -0.0000   -0.0339   -0.0000   -0.0001   -0.0374
          20   -0.0000   -0.0000   -0.0093    0.0000   -0.0224   -0.0000    0.0000    0.0232
          21   -0.0191    0.0490   -0.0002   -0.0238   -0.0000    0.0526   -0.0261    0.0001
          22   -0.0000   -0.0001   -0.0537    0.0000   -0.0090    0.0000    0.0001    0.0675
          23   -0.0000    0.0001    0.0444   -0.0000    0.0784    0.0000    0.0001    0.0441
          24    0.0810    0.0056   -0.0000   -0.0069    0.0000    0.0035   -0.0059    0.0000
          25   -0.0000    0.0000    0.0152   -0.0000    0.0418   -0.0000   -0.0001   -0.0426
          26    0.0000   -0.0000   -0.0077    0.0000    0.0028   -0.0000   -0.0001   -0.0639
          27   -0.0011    0.0021    0.0000    0.0313    0.0000    0.0897   -0.0231    0.0001
          28    0.0000    0.0002    0.1160   -0.0001   -0.0066   -0.0000    0.0000    0.0276
          29    0.0000    0.0001    0.0555   -0.0000   -0.0282   -0.0000   -0.0000   -0.0230
          30   -0.0037    0.0671   -0.0002   -0.0282   -0.0000   -0.0332    0.0068   -0.0000
          31    0.0000   -0.0000   -0.0080    0.0000   -0.0041   -0.0000   -0.0001   -0.0242
          32   -0.0000   -0.0001   -0.0461    0.0000    0.0572    0.0000   -0.0000   -0.0068
          33    0.0778   -0.0876    0.0002    0.0251    0.0000   -0.1607   -0.1222    0.0004
          34   -0.0000   -0.0000   -0.0024   -0.0000    0.0046    0.0000   -0.0000   -0.0327
          35    0.0000    0.0000    0.0156    0.0000   -0.0528   -0.0000    0.0000    0.0114
          36   -0.0740    0.0742   -0.0001    0.0656    0.0000   -0.1448   -0.0760    0.0003
          37   -0.0000   -0.0001   -0.0726    0.0001   -0.0448   -0.0000    0.0001    0.0714
          38    0.0000   -0.0000   -0.0069    0.0000   -0.0292   -0.0000    0.0001    0.0290
          39   -0.1601   -0.1418    0.0002   -0.1489   -0.0000    0.0031   -0.0885    0.0003
          40    0.0000    0.0000    0.0219   -0.0000   -0.0588   -0.0000   -0.0000   -0.0201
          41    0.0000   -0.0001   -0.0326    0.0000    0.0212    0.0000   -0.0000   -0.0375
          42    0.0633   -0.0226   -0.0001   -0.1155   -0.0000    0.0066    0.1159   -0.0004
          43    0.0000    0.0000    0.0202   -0.0000   -0.0619   -0.0000   -0.0000   -0.0157
          44   -0.0000   -0.0000   -0.0035    0.0000   -0.0385   -0.0000    0.0001    0.0354
          45   -0.0302    0.0990   -0.0004   -0.0576   -0.0000    0.1476   -0.0887    0.0003
          46    0.0000   -0.0000   -0.0298    0.0000    0.0369    0.0000    0.0001    0.0826
          47    0.0000    0.0001    0.0608   -0.0001    0.1108    0.0000    0.0001    0.0553
          48    0.1868    0.0904   -0.0001    0.0985    0.0000   -0.0060    0.0974   -0.0003
          49   -0.0000   -0.0002   -0.0810    0.0001   -0.0698   -0.0000    0.0001    0.0504
          50    0.0000    0.0001    0.0607   -0.0001    0.1152    0.0000    0.0001    0.0561
          51    0.0856   -0.0247   -0.0001   -0.0816   -0.0000    0.0163   -0.1349    0.0004
          52    0.0000    0.0004    0.2044   -0.0001   -0.0522   -0.0000    0.0002    0.1059
          53    0.0000    0.0002    0.1110   -0.0001   -0.0571   -0.0000    0.0000    0.0255
          54   -0.0056    0.1250   -0.0005   -0.0818   -0.0000   -0.1557    0.0398   -0.0001


   Root No.       9        10        11        12        13        14        15        16

                 9 A      10 A      11 A      12 A      13 A      14 A      15 A      16 A   

                 493.9     537.7     592.3     608.8     631.3     770.2     789.9     839.6
  
           1    0.0155   -0.0000   -0.0014   -0.0371    0.0000   -0.0000   -0.0000    0.0394
           2    0.0250   -0.0000   -0.0370   -0.0006   -0.0000    0.0000    0.0000   -0.0217
           3   -0.0000   -0.0254   -0.0000    0.0000    0.0117    0.0722    0.0189   -0.0000
           4    0.0273   -0.0000   -0.0093   -0.0394    0.0000   -0.0000   -0.0000    0.0080
           5   -0.0302    0.0000   -0.0155   -0.0227    0.0000   -0.0000    0.0000   -0.0115
           6    0.0000   -0.0419   -0.0000    0.0000    0.0513   -0.0670    0.0229    0.0000
           7    0.0104   -0.0000    0.0689   -0.0105    0.0000    0.0000   -0.0000    0.0892
           8    0.0273   -0.0000    0.0082    0.0280   -0.0000   -0.0000   -0.0000   -0.0051
           9    0.0000    0.0439    0.0000    0.0000    0.0170    0.0021   -0.0118    0.0000
          10   -0.0249    0.0000   -0.0613   -0.0419   -0.0000    0.0000   -0.0000    0.0015
          11    0.0035   -0.0000    0.0258   -0.0332    0.0000   -0.0000    0.0000   -0.0414
          12   -0.0000   -0.0276    0.0000   -0.0000   -0.0107   -0.0024   -0.0169   -0.0000
          13   -0.0353    0.0000    0.0016    0.0203    0.0000    0.0000    0.0000   -0.0020
          14    0.0567   -0.0000   -0.0572   -0.0346   -0.0000    0.0000    0.0000    0.0095
          15   -0.0000   -0.0079    0.0000   -0.0000   -0.0499   -0.0196   -0.0069   -0.0000
          16   -0.0240    0.0000    0.0070    0.0057    0.0000   -0.0000    0.0000   -0.0440
          17    0.0113   -0.0000    0.0728   -0.0142    0.0000   -0.0000    0.0000   -0.0725
          18    0.0000    0.0403   -0.0000    0.0000    0.0159   -0.0128   -0.0277   -0.0000
          19   -0.0221   -0.0000    0.0113    0.0072    0.0000   -0.0000    0.0000   -0.0376
          20    0.0459   -0.0000    0.0519    0.0237    0.0000    0.0000   -0.0000    0.0629
          21   -0.0000   -0.0461   -0.0000   -0.0000   -0.0084    0.0153   -0.0275   -0.0000
          22   -0.0334    0.0000   -0.0004    0.0219   -0.0000    0.0000    0.0000   -0.0011
          23   -0.0384    0.0000   -0.0073    0.0094   -0.0000   -0.0000   -0.0000    0.0024
          24    0.0000   -0.0003   -0.0000   -0.0000    0.0038   -0.0013   -0.0020    0.0000
          25    0.0665   -0.0000   -0.0320    0.0790   -0.0000   -0.0000   -0.0000   -0.0237
          26   -0.0299    0.0000   -0.0390    0.0485   -0.0000   -0.0000   -0.0000    0.0383
          27    0.0000    0.0687    0.0000   -0.0000   -0.0271    0.0192   -0.0077    0.0000
          28    0.0310   -0.0000    0.0097   -0.0030    0.0000    0.0000    0.0000   -0.0300
          29   -0.0592    0.0000   -0.0156   -0.0029    0.0000    0.0000   -0.0000    0.0538
          30    0.0000   -0.0112   -0.0000   -0.0000    0.0025    0.0065   -0.0046   -0.0000
          31   -0.0244    0.0000   -0.0612   -0.0417   -0.0000    0.0000    0.0000    0.0015
          32    0.0382   -0.0000    0.0195   -0.0675    0.0000    0.0000   -0.0000   -0.0196
          33   -0.0000   -0.0172    0.0001   -0.0000   -0.1423    0.1800    0.1220    0.0001
          34    0.0102   -0.0000    0.0685   -0.0106    0.0000    0.0000   -0.0000    0.0912
          35   -0.0067   -0.0000    0.0170    0.0585   -0.0000    0.0000    0.0000   -0.0854
          36    0.0000    0.1573    0.0000   -0.0000   -0.0276   -0.1970    0.1095    0.0000
          37   -0.0195   -0.0000   -0.0112    0.0375   -0.0000    0.0000    0.0000   -0.0283
          38    0.0652   -0.0000   -0.0653   -0.0226   -0.0000    0.0000    0.0000   -0.0082
          39   -0.0000    0.0193    0.0000    0.0000    0.0313   -0.0636   -0.0188   -0.0000
          40   -0.0054    0.0000    0.0389    0.0515    0.0000   -0.0000    0.0000    0.0270
          41    0.0009    0.0000    0.0544   -0.0414    0.0000   -0.0000    0.0000   -0.1165
          42    0.0000    0.1645    0.0000    0.0000   -0.0036   -0.0090    0.2413    0.0001
          43   -0.0231    0.0000   -0.0366    0.0356   -0.0000   -0.0000    0.0000   -0.0449
          44    0.0451   -0.0000    0.0249    0.0400   -0.0000   -0.0000   -0.0000    0.0583
          45   -0.0000   -0.1349    0.0000   -0.0000   -0.0920   -0.0085    0.2287    0.0001
          46   -0.1150    0.0000    0.0658    0.0838    0.0001    0.0000    0.0000   -0.0372
          47   -0.0964    0.0000    0.0390    0.0533    0.0000    0.0000    0.0000   -0.0239
          48   -0.0000   -0.0288    0.0001   -0.0000   -0.1712   -0.0934   -0.0291   -0.0000
          49    0.0631   -0.0000   -0.0712   -0.0439   -0.0000   -0.0000   -0.0000    0.0461
          50   -0.0984    0.0000    0.0360    0.0508    0.0000    0.0000    0.0000   -0.0269
          51    0.0001    0.0475   -0.0001    0.0001    0.2792    0.1391    0.0534    0.0000
          52   -0.0159   -0.0000    0.0766   -0.1388    0.0000   -0.0000    0.0000   -0.0510
          53   -0.0904    0.0000    0.0257   -0.0883    0.0000   -0.0000    0.0000    0.0453
          54   -0.0000   -0.1174   -0.0000   -0.0000    0.0544   -0.0910    0.0501    0.0002


   Root No.      17        18        19        20        21        22        23        24

                17 A      18 A      19 A      20 A      21 A      22 A      23 A      24 A   

                 846.0     852.7     868.2     906.2     943.6     970.4    1013.0    1030.0
  
           1   -0.0064   -0.0000   -0.0020   -0.0000    0.0000    0.0000   -0.0000   -0.0149
           2    0.0105   -0.0000   -0.0027    0.0000    0.0000   -0.0000   -0.0000   -0.0200
           3    0.0000   -0.0000    0.0000   -0.0256    0.0296    0.0164   -0.0142    0.0001
           4    0.0228   -0.0000   -0.0064    0.0000   -0.0000   -0.0000   -0.0000   -0.0044
           5    0.0188   -0.0000   -0.0053    0.0000   -0.0000   -0.0000    0.0000    0.0081
           6   -0.0000   -0.0143    0.0000    0.0311   -0.0192    0.0167    0.0156   -0.0000
           7   -0.0183   -0.0000    0.0007   -0.0000   -0.0000    0.0000   -0.0000   -0.0150
           8    0.0319   -0.0000   -0.0024    0.0000   -0.0000   -0.0000    0.0000    0.0125
           9   -0.0000    0.0095   -0.0000    0.0266   -0.0026   -0.0455    0.0357   -0.0001
          10    0.0622   -0.0001   -0.0179    0.0000   -0.0000   -0.0000    0.0000    0.0213
          11    0.0112   -0.0000   -0.0094   -0.0000    0.0000   -0.0000    0.0000    0.0102
          12   -0.0000   -0.0114    0.0000   -0.0311    0.0128   -0.0474   -0.0342    0.0000
          13   -0.0112    0.0000    0.0019   -0.0000   -0.0000    0.0000    0.0000    0.0062
          14   -0.0494    0.0000    0.0087   -0.0000    0.0000    0.0000   -0.0000   -0.0471
          15    0.0000    0.0014   -0.0000   -0.0072   -0.0545   -0.0036   -0.0082   -0.0001
          16   -0.0170    0.0000    0.0023   -0.0000    0.0000    0.0000    0.0000    0.0001
          17   -0.0287    0.0000   -0.0049    0.0000    0.0000    0.0000    0.0000   -0.0023
          18    0.0000    0.0010    0.0000   -0.0215    0.0050    0.0328    0.0478   -0.0000
          19   -0.0223    0.0000    0.0044    0.0000   -0.0000    0.0000   -0.0000   -0.0064
          20    0.0411   -0.0001   -0.0050    0.0000   -0.0000   -0.0000    0.0000    0.0209
          21   -0.0000    0.0127   -0.0000    0.0239   -0.0148    0.0215   -0.0490    0.0001
          22   -0.0199    0.0000    0.0035   -0.0000   -0.0000    0.0000    0.0000    0.0032
          23   -0.0302    0.0000    0.0064    0.0000    0.0000   -0.0000    0.0000    0.0464
          24   -0.0000    0.0009    0.0000    0.0037   -0.0149   -0.0111    0.0212    0.0001
          25    0.0062    0.0000    0.0597    0.0000    0.0000   -0.0000    0.0000    0.0035
          26   -0.0094    0.0000    0.0423   -0.0000    0.0000    0.0000   -0.0000   -0.0053
          27    0.0000    0.0559   -0.0000   -0.0139    0.0071   -0.0067   -0.0037    0.0000
          28    0.0021   -0.0001   -0.0926    0.0000   -0.0000   -0.0000    0.0000    0.0058
          29   -0.0172   -0.0000   -0.0510   -0.0000    0.0000    0.0000   -0.0000   -0.0090
          30   -0.0000   -0.0920    0.0001    0.0084   -0.0039    0.0027    0.0013    0.0000
          31    0.0638   -0.0000   -0.0182    0.0000   -0.0000    0.0000    0.0000    0.0224
          32    0.0674   -0.0000   -0.0268   -0.0000    0.0000   -0.0000   -0.0000    0.0319
          33    0.0000    0.0767   -0.0001    0.1492   -0.0480    0.2099    0.1144   -0.0001
          34   -0.0189   -0.0000    0.0008   -0.0000   -0.0000    0.0000   -0.0000   -0.0150
          35    0.0368    0.0000    0.0002    0.0000   -0.0000   -0.0000   -0.0000    0.0408
          36    0.0000   -0.0732    0.0000   -0.1392   -0.0074    0.2196   -0.1245    0.0003
          37   -0.0045    0.0000    0.0085   -0.0000   -0.0000    0.0000   -0.0000   -0.1099
          38   -0.0444    0.0000    0.0123   -0.0000   -0.0000    0.0000   -0.0000   -0.1242
          39   -0.0000   -0.0092   -0.0000    0.0969    0.3682    0.0151    0.0228    0.0002
          40   -0.0345    0.0000    0.0214   -0.0000    0.0000   -0.0000    0.0000   -0.0055
          41   -0.0175    0.0000   -0.0166    0.0000   -0.0000   -0.0000   -0.0000    0.0020
          42   -0.0000   -0.0101   -0.0000    0.1345   -0.0317   -0.1459   -0.1669    0.0001
          43    0.0339    0.0000    0.0082   -0.0000    0.0000    0.0000    0.0000    0.0604
          44    0.0752   -0.0001   -0.0033    0.0000    0.0000   -0.0000    0.0000    0.0610
          45    0.0000   -0.0813    0.0000   -0.1457    0.0839   -0.1007    0.1732   -0.0002
          46    0.1011   -0.0001   -0.0191   -0.0000   -0.0000    0.0000   -0.0001   -0.1755
          47    0.0567   -0.0000   -0.0098   -0.0000   -0.0000    0.0000   -0.0000   -0.0829
          48    0.0001   -0.0065   -0.0000    0.0557    0.2497    0.0411   -0.0739   -0.0006
          49   -0.1761    0.0001    0.0338    0.0000    0.0000    0.0000    0.0001    0.2243
          50    0.0644   -0.0000   -0.0119   -0.0000   -0.0000   -0.0000   -0.0000   -0.0902
          51    0.0000   -0.0030    0.0000   -0.0529    0.0323    0.0566   -0.0907   -0.0005
          52    0.0570    0.0003    0.5192    0.0000   -0.0000   -0.0000   -0.0000    0.0059
          53    0.0161    0.0002    0.3340   -0.0000    0.0000   -0.0000   -0.0000   -0.0101
          54    0.0002    0.5409   -0.0005   -0.0329    0.0144   -0.0067   -0.0025    0.0000


   Root No.      25        26        27        28        29        30        31        32

                25 A      26 A      27 A      28 A      29 A      30 A      31 A      32 A   

                1037.6    1109.8    1123.1    1159.3    1204.9    1228.5    1301.8    1344.4
  
           1   -0.0000    0.0136    0.0253    0.0229   -0.0293    0.0053   -0.0322    0.0279
           2   -0.0001   -0.0035    0.0068   -0.0011   -0.0148   -0.0183   -0.0210   -0.0051
           3   -0.0232   -0.0000    0.0000    0.0000    0.0000   -0.0000   -0.0000    0.0000
           4   -0.0000    0.0177    0.0192    0.0019   -0.0156    0.0184   -0.0420    0.0334
           5    0.0000   -0.0095    0.0082   -0.0027    0.0146    0.0207    0.0213   -0.0413
           6    0.0091    0.0000   -0.0000   -0.0000    0.0000   -0.0000    0.0000    0.0000
           7   -0.0000   -0.0056   -0.0417   -0.0058    0.0100    0.0050    0.0204   -0.0344
           8    0.0000   -0.0063   -0.0111   -0.0021   -0.0165   -0.0170   -0.0126    0.0061
           9    0.0227    0.0000   -0.0000   -0.0000   -0.0000    0.0000    0.0000   -0.0000
          10    0.0000   -0.0432   -0.0110   -0.0092    0.0161   -0.0027    0.0217   -0.0019
          11    0.0000    0.0076    0.0079    0.0038    0.0059    0.0157    0.0189   -0.0192
          12   -0.0079   -0.0000    0.0000    0.0000   -0.0000    0.0000   -0.0000   -0.0000
          13    0.0000   -0.0007    0.0024    0.0017   -0.0054   -0.0065   -0.0144   -0.0245
          14   -0.0001    0.0061   -0.0060    0.0045   -0.0170    0.0030    0.0368   -0.0195
          15    0.0461   -0.0000    0.0000    0.0000   -0.0000   -0.0000    0.0000    0.0000
          16    0.0000   -0.0142    0.0180   -0.0009   -0.0021   -0.0266   -0.0042    0.0243
          17   -0.0000   -0.0192    0.0188    0.0078    0.0035    0.0007   -0.0021    0.0161
          18    0.0108   -0.0000   -0.0000   -0.0000   -0.0000    0.0000   -0.0000   -0.0000
          19   -0.0000    0.0257   -0.0183   -0.0060   -0.0041   -0.0119   -0.0132   -0.0076
          20    0.0000   -0.0226    0.0127    0.0014    0.0117   -0.0083   -0.0021    0.0157
          21   -0.0164   -0.0000    0.0000    0.0000   -0.0000   -0.0000    0.0000    0.0000
          22    0.0000   -0.0007   -0.0032    0.0009   -0.0150   -0.0070    0.0148   -0.0252
          23    0.0001   -0.0060   -0.0031   -0.0055    0.0232   -0.0000   -0.0105    0.0027
          24   -0.0647    0.0000   -0.0000   -0.0000    0.0000    0.0000    0.0000    0.0000
          25    0.0000   -0.0080   -0.0041   -0.0015    0.0016   -0.0035    0.0062   -0.0050
          26   -0.0000    0.0031   -0.0010    0.0009   -0.0055   -0.0044   -0.0052    0.0066
          27   -0.0022   -0.0000    0.0000    0.0000    0.0000    0.0000    0.0000   -0.0000
          28    0.0000   -0.0060   -0.0005   -0.0016    0.0071    0.0034    0.0115   -0.0145
          29   -0.0000    0.0117    0.0031    0.0032   -0.0113   -0.0032   -0.0196    0.0236
          30    0.0008    0.0000   -0.0000   -0.0000   -0.0000    0.0000    0.0000   -0.0000
          31    0.0001   -0.0451   -0.0100   -0.0113    0.0174   -0.0033    0.0234   -0.0008
          32    0.0001    0.3184   -0.0847   -0.2335    0.0296   -0.1786    0.0238    0.0203
          33    0.0194    0.0000    0.0000   -0.0000   -0.0000   -0.0000   -0.0000    0.0000
          34   -0.0000   -0.0040   -0.0448   -0.0052    0.0101    0.0062    0.0212   -0.0388
          35    0.0001    0.0537   -0.1801   -0.1221   -0.1706    0.2970   -0.0766   -0.0001
          36   -0.0955   -0.0000   -0.0000   -0.0000    0.0000   -0.0000   -0.0000   -0.0000
          37   -0.0003   -0.0129   -0.0627   -0.0486    0.3257    0.0786   -0.1153    0.0729
          38   -0.0003   -0.0015   -0.0477   -0.0276    0.1936    0.0573   -0.0236    0.0423
          39   -0.1206    0.0000   -0.0000   -0.0000    0.0000    0.0000    0.0000   -0.0000
          40   -0.0000    0.0461    0.3309   -0.1661    0.0289    0.0944    0.0505   -0.0323
          41    0.0000   -0.0545   -0.1622    0.1052   -0.0134   -0.0720   -0.0338    0.0532
          42   -0.0311    0.0000    0.0000    0.0000    0.0000    0.0000    0.0000    0.0000
          43    0.0002    0.2860    0.0180    0.2353    0.0823    0.0686    0.0540   -0.0311
          44    0.0002    0.1233    0.0336    0.1403    0.0613    0.0382    0.0360    0.0059
          45    0.0527   -0.0000   -0.0000   -0.0000    0.0000    0.0000   -0.0000    0.0000
          46   -0.0004    0.0153   -0.0192    0.0030   -0.0641    0.0264    0.2068    0.1846
          47   -0.0002    0.0051   -0.0122   -0.0029   -0.0079    0.0206    0.1147    0.1392
          48    0.2354   -0.0000   -0.0000    0.0000   -0.0000    0.0000   -0.0000   -0.0000
          49    0.0006   -0.0187   -0.0433   -0.0342    0.0295    0.0374    0.1195    0.1896
          50   -0.0003    0.0048    0.0193    0.0149   -0.0025   -0.0254   -0.0647   -0.1188
          51    0.2399   -0.0000    0.0000   -0.0000    0.0000   -0.0000   -0.0000   -0.0000
          52    0.0000   -0.0099   -0.0024   -0.0023    0.0068    0.0024    0.0141   -0.0174
          53   -0.0000    0.0111    0.0023    0.0033   -0.0139   -0.0046   -0.0225    0.0277
          54   -0.0016   -0.0000    0.0000    0.0000   -0.0000   -0.0000    0.0000    0.0000


   Root No.      33        34        35        36        37        38        39        40

                33 A      34 A      35 A      36 A      37 A      38 A      39 A      40 A   

                1389.4    1401.4    1568.0    1627.5    1772.6    1798.3    1847.4    2329.2
  
           1   -0.0444    0.0448   -0.0210    0.0622   -0.1212    0.0349   -0.0558   -0.0030
           2    0.0647    0.0315    0.0874    0.0744    0.0223   -0.1007   -0.0310   -0.0013
           3    0.0000    0.0000    0.0000    0.0000    0.0000   -0.0000   -0.0000    0.0000
           4    0.0603   -0.0224   -0.0139   -0.0635    0.1271    0.0155    0.0212    0.0409
           5    0.0623    0.0236   -0.0861    0.0687    0.0281    0.0924   -0.0120   -0.0655
           6   -0.0000   -0.0000    0.0000   -0.0000   -0.0000   -0.0000    0.0000    0.0000
           7    0.0090    0.0243    0.0553    0.0169    0.0509    0.0018    0.0078   -0.0013
           8   -0.0320    0.0751    0.0145   -0.0627    0.0154    0.1455    0.0041    0.0021
           9    0.0000   -0.0000    0.0000    0.0000   -0.0000    0.0000    0.0000   -0.0000
          10   -0.0274   -0.0387    0.0560   -0.0132   -0.0490    0.0069   -0.0027    0.0012
          11   -0.0449    0.0668   -0.0075   -0.0654   -0.0069   -0.1427    0.0146    0.0004
          12    0.0000   -0.0000   -0.0000    0.0000    0.0000    0.0000   -0.0000   -0.0000
          13   -0.0066   -0.0087    0.0019    0.0116   -0.0241    0.0050    0.2146    0.0003
          14   -0.0282   -0.0396   -0.0307   -0.0257   -0.0025    0.0156    0.0521    0.0001
          15   -0.0000   -0.0000   -0.0000   -0.0000    0.0000   -0.0000   -0.0000    0.0000
          16   -0.0675    0.0050   -0.0533    0.0538    0.1110   -0.0473    0.0123   -0.0011
          17    0.0024   -0.0612    0.0687    0.0102   -0.0308    0.0775   -0.0083    0.0025
          18    0.0000    0.0000   -0.0000   -0.0000   -0.0000    0.0000   -0.0000    0.0000
          19    0.0790    0.0036   -0.0369   -0.0576   -0.1187   -0.0318   -0.0105    0.0002
          20    0.0102   -0.0551   -0.0693    0.0048   -0.0436   -0.0731   -0.0016   -0.0004
          21   -0.0000    0.0000    0.0000    0.0000    0.0000    0.0000    0.0000   -0.0000
          22   -0.0138   -0.0268   -0.0098   -0.0334    0.0335   -0.0015   -0.1811    0.0002
          23    0.0043    0.0047    0.0036   -0.0010    0.0038   -0.0023   -0.0097    0.0001
          24    0.0000    0.0000    0.0000   -0.0000   -0.0000    0.0000    0.0000   -0.0000
          25   -0.0006   -0.0008    0.0064    0.0023   -0.0030   -0.0040   -0.0002   -0.1608
          26   -0.0043   -0.0048    0.0050    0.0025   -0.0045    0.0016   -0.0020    0.2583
          27    0.0000    0.0000   -0.0000    0.0000   -0.0000    0.0000   -0.0000   -0.0000
          28    0.0069    0.0088   -0.0136    0.0159   -0.0044    0.0090   -0.0029    0.1055
          29   -0.0086   -0.0132    0.0190   -0.0264    0.0102   -0.0128    0.0049   -0.1681
          30   -0.0000    0.0000   -0.0000    0.0000   -0.0000    0.0000   -0.0000    0.0000
          31   -0.0314   -0.0457    0.0667   -0.0164   -0.0568    0.0100   -0.0025    0.0070
          32   -0.0667   -0.0683   -0.0105    0.0961   -0.0033    0.0594   -0.0094   -0.0078
          33    0.0000    0.0000   -0.0000   -0.0000    0.0000   -0.0000    0.0000    0.0000
          34    0.0103    0.0296    0.0659    0.0213    0.0589    0.0049    0.0087   -0.0033
          35   -0.1079   -0.0816   -0.0012    0.1080   -0.0099   -0.0640   -0.0161   -0.0004
          36    0.0000   -0.0000    0.0000    0.0000    0.0000   -0.0000   -0.0000   -0.0000
          37   -0.0419    0.0516   -0.0086    0.0090   -0.0307    0.0135   -0.0019    0.0022
          38   -0.0502   -0.0050   -0.0400   -0.0325    0.0014    0.0189   -0.1265   -0.0015
          39    0.0000   -0.0000   -0.0000   -0.0000    0.0000    0.0000   -0.0000    0.0000
          40   -0.0265   -0.0053    0.1166   -0.0167   -0.0200    0.0536   -0.0032    0.0016
          41   -0.0276   -0.0652   -0.0239    0.0593    0.0521    0.0279    0.0005    0.0031
          42   -0.0000    0.0000   -0.0000   -0.0000   -0.0000   -0.0000   -0.0000   -0.0000
          43   -0.0152   -0.0276    0.1121    0.0251    0.0308    0.0500    0.0008    0.0003
          44   -0.0490   -0.0825    0.0071    0.0593    0.0463   -0.0369    0.0059   -0.0004
          45    0.0000   -0.0000   -0.0000    0.0000    0.0000   -0.0000    0.0000    0.0000
          46    0.0669    0.0384   -0.0108    0.0014   -0.0047    0.0009   -0.0044   -0.0001
          47    0.0570    0.0472    0.0030    0.0243   -0.0260   -0.0008    0.1436   -0.0001
          48   -0.0000    0.0000   -0.0000   -0.0000    0.0000    0.0000   -0.0000   -0.0000
          49    0.0891    0.0786    0.0190    0.0148    0.0047   -0.0084   -0.0256    0.0004
          50   -0.0551   -0.0584   -0.0152   -0.0346    0.0269    0.0014   -0.1349    0.0004
          51   -0.0000   -0.0000   -0.0000   -0.0000    0.0000   -0.0000   -0.0000    0.0000
          52    0.0089    0.0095   -0.0168    0.0209   -0.0057    0.0126   -0.0042    0.2066
          53   -0.0099   -0.0168    0.0245   -0.0342    0.0142   -0.0178    0.0070   -0.3285
          54   -0.0000    0.0000    0.0000   -0.0000   -0.0000   -0.0000    0.0000   -0.0000


   Root No.      41        42        43        44        45        46        47        48

                41 A      42 A      43 A      44 A      45 A      46 A      47 A      48 A   

                3000.3    3026.0    3056.3    3064.2    3076.8    3085.7    3151.3    3357.0
  
           1    0.0008    0.0006   -0.0002    0.0003    0.0003    0.0005    0.0008    0.0003
           2   -0.0019    0.0002   -0.0004   -0.0002    0.0005   -0.0005    0.0003   -0.0001
           3   -0.0000   -0.0000    0.0000    0.0000    0.0000    0.0000   -0.0000   -0.0000
           4    0.0005   -0.0004   -0.0004    0.0005    0.0002    0.0002   -0.0002    0.0010
           5   -0.0006   -0.0004   -0.0007    0.0013    0.0012   -0.0001   -0.0000   -0.0016
           6    0.0000   -0.0000    0.0000   -0.0000   -0.0000   -0.0000    0.0000    0.0000
           7   -0.0609    0.0022   -0.0018   -0.0037    0.0031   -0.0101   -0.0003   -0.0001
           8   -0.0006    0.0008   -0.0005   -0.0014    0.0012   -0.0002    0.0001    0.0001
           9   -0.0000    0.0000   -0.0000    0.0000    0.0000   -0.0000   -0.0000   -0.0000
          10   -0.0003   -0.0000    0.0272   -0.0323   -0.0202    0.0013    0.0000    0.0000
          11    0.0002   -0.0000    0.0009    0.0004    0.0015   -0.0002   -0.0000   -0.0003
          12   -0.0000    0.0000   -0.0000    0.0000    0.0000   -0.0000    0.0000   -0.0000
          13    0.0016    0.0419    0.0001    0.0001   -0.0004   -0.0052    0.0083   -0.0000
          14   -0.0011   -0.0574    0.0001    0.0001   -0.0001    0.0001   -0.0041   -0.0000
          15   -0.0000   -0.0000   -0.0000   -0.0000   -0.0000    0.0000   -0.0000    0.0000
          16    0.0002   -0.0001   -0.0162   -0.0018   -0.0160    0.0015    0.0000   -0.0000
          17   -0.0002   -0.0000   -0.0271   -0.0080   -0.0271    0.0023    0.0001    0.0001
          18   -0.0000   -0.0000    0.0000    0.0000    0.0000   -0.0000    0.0000    0.0000
          19    0.0046   -0.0003   -0.0079   -0.0166    0.0135   -0.0021   -0.0000   -0.0000
          20   -0.0033    0.0002    0.0161    0.0304   -0.0215    0.0043    0.0001    0.0000
          21   -0.0000    0.0000    0.0000    0.0000   -0.0000    0.0000   -0.0000    0.0000
          22   -0.0062   -0.0021   -0.0005   -0.0014    0.0025    0.0365   -0.0376   -0.0000
          23    0.0077    0.0037    0.0006    0.0016   -0.0029   -0.0409   -0.0607   -0.0000
          24   -0.0000    0.0000    0.0000   -0.0000    0.0000    0.0000   -0.0000   -0.0000
          25   -0.0001   -0.0003    0.0001   -0.0000    0.0000   -0.0000    0.0000   -0.0148
          26    0.0001    0.0002    0.0002   -0.0004   -0.0003    0.0000   -0.0000    0.0237
          27    0.0000   -0.0000    0.0000   -0.0000    0.0000   -0.0000   -0.0000   -0.0000
          28   -0.0000   -0.0000   -0.0000   -0.0000    0.0000    0.0000   -0.0000    0.0524
          29    0.0000   -0.0002    0.0000    0.0000   -0.0000   -0.0000    0.0001   -0.0834
          30   -0.0000    0.0000   -0.0000    0.0000   -0.0000    0.0000   -0.0000   -0.0000
          31    0.0037    0.0004   -0.3137    0.3681    0.2185   -0.0135   -0.0005   -0.0010
          32   -0.0001    0.0000   -0.0012   -0.0017   -0.0026    0.0002    0.0000   -0.0002
          33    0.0000    0.0000    0.0000   -0.0001   -0.0000    0.0000    0.0000    0.0000
          34    0.6914   -0.0235    0.0188    0.0345   -0.0249    0.1142    0.0052    0.0005
          35   -0.0025    0.0006    0.0011    0.0021   -0.0013    0.0021    0.0016    0.0001
          36    0.0000   -0.0000    0.0000    0.0000   -0.0000    0.0000   -0.0000   -0.0000
          37   -0.0112   -0.4356    0.0004    0.0007   -0.0000    0.0013   -0.0344   -0.0001
          38    0.0195    0.6820   -0.0005   -0.0008   -0.0004   -0.0070    0.0462    0.0004
          39    0.0000    0.0001    0.0000   -0.0000    0.0000   -0.0000    0.0000    0.0000
          40    0.0035    0.0004    0.1866    0.0415    0.1740   -0.0144   -0.0004   -0.0004
          41    0.0049    0.0007    0.3176    0.0795    0.2966   -0.0242   -0.0008   -0.0005
          42    0.0000    0.0000   -0.0000   -0.0000   -0.0000    0.0000   -0.0000    0.0000
          43   -0.0407    0.0024    0.1005    0.1958   -0.1387    0.0246    0.0004    0.0003
          44    0.0629   -0.0040   -0.1803   -0.3436    0.2389   -0.0440   -0.0008   -0.0006
          45    0.0000   -0.0000   -0.0000   -0.0000    0.0000   -0.0000   -0.0000    0.0000
          46    0.0660   -0.0110    0.0056    0.0143   -0.0257   -0.3667   -0.0369    0.0002
          47   -0.0939    0.0112   -0.0081   -0.0209    0.0377    0.5419    0.0261   -0.0003
          48    0.0000   -0.0000   -0.0000    0.0000   -0.0000   -0.0000    0.0000    0.0000
          49   -0.0008   -0.0292    0.0002    0.0004   -0.0005   -0.0144    0.4122    0.0003
          50    0.0040   -0.0581    0.0007    0.0018   -0.0027   -0.0502    0.6934    0.0006
          51    0.0000   -0.0000   -0.0000    0.0000    0.0000   -0.0000    0.0000    0.0000
          52    0.0003    0.0007    0.0001   -0.0001   -0.0004   -0.0001    0.0003   -0.4611
          53   -0.0004   -0.0004   -0.0003    0.0004    0.0008    0.0001   -0.0005    0.7334
          54    0.0000    0.0000    0.0000   -0.0000   -0.0000   -0.0000   -0.0000    0.0000


           MASS-WEIGHTED COORDINATE ANALYSIS (NORMAL COORDINATES)


   Root No.       1         2         3         4         5         6         7         8

                 1 A       2 A       3 A       4 A       5 A       6 A       7 A       8 A   

                  94.6     120.4     154.6     209.1     294.6     355.8     434.6     451.0
  
           1   -0.0001   -0.0003   -0.1044    0.0001    0.2226    0.0000    0.0000    0.0147
           2   -0.0000   -0.0002   -0.0686    0.0001   -0.1759    0.0000    0.0005    0.2305
           3   -0.2555   -0.1147    0.0006    0.2767    0.0000   -0.0539    0.5195   -0.0013
           4   -0.0001   -0.0003   -0.1067    0.0000    0.2289    0.0001   -0.0000   -0.0315
           5   -0.0000   -0.0003   -0.1542    0.0002   -0.0042    0.0000   -0.0004   -0.1729
           6   -0.0073   -0.2361    0.0009    0.3739    0.0001    0.2614    0.0554   -0.0002
           7   -0.0000   -0.0000   -0.0105   -0.0000    0.0375    0.0000   -0.0004   -0.1868
           8   -0.0000   -0.0000   -0.0099    0.0001   -0.2777   -0.0000    0.0003    0.1460
           9   -0.3339    0.2640   -0.0003    0.2939    0.0001   -0.3481   -0.1282    0.0003
          10    0.0000   -0.0001   -0.0442    0.0000   -0.0289   -0.0000   -0.0003   -0.1354
          11   -0.0000   -0.0004   -0.1809    0.0001    0.1567   -0.0000   -0.0003   -0.1430
          12    0.2622   -0.3532    0.0009    0.1302    0.0001   -0.3596   -0.2911    0.0007
          13   -0.0001   -0.0006   -0.2754    0.0003   -0.0261    0.0000    0.0008    0.3557
          14   -0.0000    0.0001    0.0329   -0.0000   -0.0285   -0.0000    0.0003    0.1310
          15   -0.3264   -0.3813    0.0006   -0.3151   -0.0001   -0.0243    0.0669   -0.0001
          16    0.0001    0.0001    0.0495    0.0000   -0.2388   -0.0001   -0.0005   -0.2061
          17    0.0000   -0.0003   -0.1346    0.0001    0.0497    0.0000   -0.0003   -0.1608
          18    0.2065   -0.0838   -0.0002   -0.3682   -0.0001    0.0092    0.3367   -0.0007
          19    0.0000    0.0002    0.0528   -0.0000   -0.2309   -0.0000   -0.0005   -0.2124
          20   -0.0000   -0.0001   -0.0501    0.0001   -0.1525   -0.0000    0.0003    0.1319
          21   -0.1257    0.3328   -0.0009   -0.1775   -0.0001    0.3084   -0.2088    0.0004
          22   -0.0001   -0.0006   -0.2878    0.0004   -0.0613    0.0000    0.0009    0.3836
          23   -0.0000    0.0005    0.2376   -0.0003    0.5332    0.0001    0.0006    0.2507
          24    0.5322    0.0383   -0.0003   -0.0512    0.0000    0.0205   -0.0474    0.0001
          25   -0.0000    0.0001    0.0817   -0.0002    0.2845   -0.0000   -0.0006   -0.2422
          26    0.0000   -0.0001   -0.0410    0.0000    0.0189   -0.0000   -0.0008   -0.3631
          27   -0.0071    0.0141    0.0002    0.2334    0.0000    0.5253   -0.1847    0.0004
          28    0.0001    0.0014    0.6215   -0.0006   -0.0446   -0.0000    0.0003    0.1566
          29    0.0001    0.0007    0.2973   -0.0003   -0.1921   -0.0000   -0.0003   -0.1305
          30   -0.0241    0.4562   -0.0012   -0.2103   -0.0000   -0.1945    0.0545   -0.0001
          31    0.0000   -0.0000   -0.0124    0.0000   -0.0082   -0.0000   -0.0001   -0.0398
          32   -0.0000   -0.0002   -0.0716    0.0000    0.1128    0.0000   -0.0000   -0.0111
          33    0.1480   -0.1724    0.0004    0.0542    0.0000   -0.2728   -0.2834    0.0007
          34   -0.0000   -0.0000   -0.0037   -0.0000    0.0091    0.0000   -0.0001   -0.0538
          35    0.0000    0.0001    0.0241    0.0000   -0.1040   -0.0000    0.0000    0.0188
          36   -0.1408    0.1461   -0.0002    0.1418    0.0001   -0.2458   -0.1762    0.0004
          37   -0.0000   -0.0002   -0.1126    0.0002   -0.0884   -0.0000    0.0003    0.1174
          38    0.0000   -0.0000   -0.0108    0.0001   -0.0576   -0.0000    0.0001    0.0477
          39   -0.3047   -0.2792    0.0003   -0.3221   -0.0001    0.0052   -0.2052    0.0005
          40    0.0000    0.0001    0.0339   -0.0000   -0.1160   -0.0000   -0.0000   -0.0330
          41    0.0000   -0.0001   -0.0506    0.0000    0.0417    0.0000   -0.0001   -0.0617
          42    0.1205   -0.0446   -0.0002   -0.2499   -0.0000    0.0111    0.2687   -0.0006
          43    0.0000    0.0001    0.0313   -0.0000   -0.1220   -0.0000   -0.0001   -0.0259
          44   -0.0000   -0.0000   -0.0054    0.0000   -0.0759   -0.0000    0.0001    0.0582
          45   -0.0575    0.1950   -0.0006   -0.1247   -0.0000    0.2504   -0.2055    0.0004
          46    0.0000   -0.0001   -0.0462    0.0001    0.0728    0.0000    0.0003    0.1358
          47    0.0000    0.0002    0.0943   -0.0001    0.2184    0.0000    0.0002    0.0910
          48    0.3555    0.1780   -0.0002    0.2131    0.0001   -0.0103    0.2259   -0.0005
          49   -0.0000   -0.0003   -0.1256    0.0002   -0.1375   -0.0000    0.0002    0.0829
          50    0.0000    0.0002    0.0942   -0.0001    0.2271    0.0000    0.0002    0.0922
          51    0.1630   -0.0486   -0.0001   -0.1765   -0.0000    0.0277   -0.3127    0.0007
          52    0.0000    0.0007    0.3171   -0.0003   -0.1028   -0.0000    0.0004    0.1742
          53    0.0000    0.0004    0.1723   -0.0001   -0.1125   -0.0000    0.0001    0.0419
          54   -0.0107    0.2461   -0.0007   -0.1769   -0.0000   -0.2642    0.0922   -0.0002


   Root No.       9        10        11        12        13        14        15        16

                 9 A      10 A      11 A      12 A      13 A      14 A      15 A      16 A   

                 493.9     537.7     592.3     608.8     631.3     770.2     789.9     839.6
  
           1    0.0915   -0.0000   -0.0081   -0.2401    0.0000   -0.0000   -0.0000    0.2127
           2    0.1475   -0.0000   -0.2187   -0.0037   -0.0001    0.0000    0.0000   -0.1169
           3   -0.0000   -0.1752   -0.0001    0.0000    0.0858    0.5068    0.1540   -0.0000
           4    0.1613   -0.0000   -0.0551   -0.2550    0.0000   -0.0000   -0.0000    0.0429
           5   -0.1782    0.0000   -0.0915   -0.1469    0.0000   -0.0000    0.0000   -0.0623
           6    0.0000   -0.2888   -0.0002    0.0001    0.3768   -0.4706    0.1865    0.0001
           7    0.0611   -0.0001    0.4077   -0.0678    0.0001    0.0000   -0.0001    0.4819
           8    0.1613   -0.0000    0.0488    0.1811   -0.0000   -0.0000   -0.0000   -0.0278
           9    0.0001    0.3024    0.0000    0.0000    0.1247    0.0149   -0.0965    0.0000
          10   -0.1473    0.0001   -0.3626   -0.2712   -0.0001    0.0000   -0.0001    0.0080
          11    0.0209   -0.0000    0.1528   -0.2146    0.0001   -0.0000    0.0000   -0.2234
          12   -0.0001   -0.1897    0.0001   -0.0000   -0.0788   -0.0172   -0.1379   -0.0000
          13   -0.2083    0.0000    0.0095    0.1315    0.0000    0.0000    0.0000   -0.0107
          14    0.3349   -0.0000   -0.3385   -0.2238   -0.0001    0.0000    0.0001    0.0514
          15   -0.0001   -0.0546    0.0001   -0.0001   -0.3666   -0.1379   -0.0566   -0.0000
          16   -0.1419    0.0001    0.0416    0.0370    0.0001   -0.0001    0.0001   -0.2378
          17    0.0666   -0.0000    0.4308   -0.0918    0.0002   -0.0000    0.0001   -0.3916
          18    0.0001    0.2776   -0.0001    0.0000    0.1170   -0.0900   -0.2262   -0.0000
          19   -0.1305   -0.0000    0.0666    0.0467    0.0000   -0.0000    0.0000   -0.2033
          20    0.2708   -0.0001    0.3073    0.1530    0.0000    0.0000   -0.0001    0.3400
          21   -0.0001   -0.3174   -0.0000   -0.0000   -0.0619    0.1073   -0.2239   -0.0000
          22   -0.1974    0.0000   -0.0025    0.1416   -0.0000    0.0000    0.0000   -0.0058
          23   -0.2269    0.0000   -0.0430    0.0609   -0.0000   -0.0000   -0.0000    0.0132
          24    0.0000   -0.0023   -0.0000   -0.0000    0.0277   -0.0089   -0.0167    0.0000
          25    0.3927   -0.0001   -0.1892    0.5110   -0.0003   -0.0000   -0.0000   -0.1278
          26   -0.1767    0.0001   -0.2305    0.3137   -0.0001   -0.0000   -0.0001    0.2070
          27    0.0001    0.4728    0.0002   -0.0000   -0.1989    0.1345   -0.0629    0.0001
          28    0.1831   -0.0000    0.0575   -0.0194    0.0000    0.0000    0.0001   -0.1622
          29   -0.3495    0.0001   -0.0926   -0.0186    0.0001    0.0000   -0.0001    0.2906
          30    0.0000   -0.0769   -0.0000   -0.0000    0.0184    0.0455   -0.0378   -0.0002
          31   -0.0417    0.0000   -0.1049   -0.0781   -0.0001    0.0001    0.0000    0.0024
          32    0.0654   -0.0000    0.0335   -0.1264    0.0000    0.0000   -0.0000   -0.0306
          33   -0.0001   -0.0342    0.0001   -0.0001   -0.3026    0.3660    0.2881    0.0001
          34    0.0175   -0.0000    0.1174   -0.0198    0.0000    0.0000   -0.0000    0.1426
          35   -0.0114   -0.0000    0.0291    0.1097   -0.0000    0.0000    0.0000   -0.1337
          36    0.0000    0.3137    0.0001   -0.0000   -0.0587   -0.4007    0.2585    0.0000
          37   -0.0333   -0.0000   -0.0192    0.0703   -0.0000    0.0000    0.0000   -0.0443
          38    0.1114   -0.0000   -0.1120   -0.0423   -0.0001    0.0000    0.0000   -0.0129
          39   -0.0001    0.0384    0.0000    0.0000    0.0665   -0.1295   -0.0445   -0.0000
          40   -0.0093    0.0000    0.0667    0.0964    0.0000   -0.0000    0.0000    0.0423
          41    0.0016    0.0000    0.0933   -0.0776    0.0000   -0.0000    0.0001   -0.1823
          42    0.0000    0.3281    0.0000    0.0001   -0.0077   -0.0184    0.5698    0.0002
          43   -0.0396    0.0000   -0.0627    0.0668   -0.0000   -0.0000    0.0000   -0.0703
          44    0.0772   -0.0000    0.0427    0.0750   -0.0000   -0.0000   -0.0000    0.0913
          45   -0.0001   -0.2691    0.0000   -0.0000   -0.1957   -0.0173    0.5402    0.0001
          46   -0.1968    0.0000    0.1127    0.1570    0.0001    0.0001    0.0000   -0.0582
          47   -0.1648    0.0000    0.0668    0.0998    0.0001    0.0000    0.0000   -0.0374
          48   -0.0000   -0.0574    0.0001   -0.0001   -0.3641   -0.1899   -0.0687   -0.0000
          49    0.1079   -0.0000   -0.1221   -0.0822   -0.0001   -0.0000   -0.0000    0.0721
          50   -0.1683    0.0000    0.0618    0.0951    0.0000    0.0000    0.0000   -0.0421
          51    0.0001    0.0947   -0.0002    0.0001    0.5937    0.2830    0.1262    0.0000
          52   -0.0272   -0.0000    0.1314   -0.2600    0.0001   -0.0000    0.0001   -0.0797
          53   -0.1547    0.0000    0.0441   -0.1654    0.0001   -0.0000    0.0000    0.0709
          54   -0.0000   -0.2342   -0.0001   -0.0000    0.1158   -0.1850    0.1184    0.0003


   Root No.      17        18        19        20        21        22        23        24

                17 A      18 A      19 A      20 A      21 A      22 A      23 A      24 A   

                 846.0     852.7     868.2     906.2     943.6     970.4    1013.0    1030.0
  
           1   -0.0455   -0.0001   -0.0089   -0.0001    0.0000    0.0000   -0.0000   -0.1112
           2    0.0739   -0.0000   -0.0120    0.0000    0.0000   -0.0000   -0.0001   -0.1490
           3    0.0000   -0.0003    0.0000   -0.2261    0.1973    0.1246   -0.1104    0.0005
           4    0.1612   -0.0001   -0.0286    0.0000   -0.0000   -0.0000   -0.0000   -0.0328
           5    0.1328   -0.0001   -0.0239    0.0001   -0.0000   -0.0000    0.0000    0.0601
           6   -0.0000   -0.0732    0.0001    0.2749   -0.1277    0.1263    0.1215   -0.0002
           7   -0.1292   -0.0001    0.0030   -0.0000   -0.0000    0.0001   -0.0001   -0.1117
           8    0.2250   -0.0001   -0.0109    0.0000   -0.0000   -0.0001    0.0000    0.0934
           9   -0.0000    0.0485   -0.0000    0.2350   -0.0175   -0.3452    0.2777   -0.0005
          10    0.4388   -0.0003   -0.0804    0.0000   -0.0000   -0.0001    0.0000    0.1585
          11    0.0792   -0.0000   -0.0422   -0.0000    0.0000   -0.0000    0.0000    0.0760
          12   -0.0001   -0.0581    0.0000   -0.2746    0.0850   -0.3594   -0.2656    0.0002
          13   -0.0789    0.0000    0.0084   -0.0000   -0.0000    0.0000    0.0000    0.0460
          14   -0.3485    0.0002    0.0389   -0.0001    0.0000    0.0001   -0.0001   -0.3511
          15    0.0000    0.0071   -0.0000   -0.0634   -0.3633   -0.0270   -0.0635   -0.0008
          16   -0.1200    0.0002    0.0103   -0.0000    0.0000    0.0000    0.0001    0.0008
          17   -0.2024    0.0002   -0.0218    0.0000    0.0000    0.0001    0.0000   -0.0172
          18    0.0001    0.0050    0.0000   -0.1896    0.0332    0.2482    0.3715   -0.0003
          19   -0.1572    0.0002    0.0196    0.0000   -0.0000    0.0000   -0.0001   -0.0475
          20    0.2905   -0.0003   -0.0226    0.0001   -0.0000   -0.0001    0.0001    0.1559
          21   -0.0000    0.0649   -0.0000    0.2112   -0.0988    0.1629   -0.3811    0.0004
          22   -0.1404    0.0001    0.0155   -0.0000   -0.0000    0.0000    0.0000    0.0240
          23   -0.2132    0.0001    0.0287    0.0000    0.0000   -0.0000    0.0001    0.3458
          24   -0.0001    0.0045    0.0000    0.0322   -0.0996   -0.0838    0.1650    0.0011
          25    0.0436    0.0002    0.2680    0.0000    0.0000   -0.0000    0.0000    0.0263
          26   -0.0667    0.0001    0.1901   -0.0000    0.0000    0.0000   -0.0000   -0.0393
          27    0.0002    0.2856   -0.0002   -0.1225    0.0475   -0.0507   -0.0289    0.0001
          28    0.0147   -0.0003   -0.4161    0.0000   -0.0000   -0.0000    0.0000    0.0432
          29   -0.1215   -0.0002   -0.2292   -0.0000    0.0000    0.0000   -0.0000   -0.0672
          30   -0.0003   -0.4705    0.0004    0.0742   -0.0260    0.0202    0.0103    0.0000
          31    0.1305   -0.0001   -0.0237    0.0001   -0.0000    0.0000    0.0001    0.0483
          32    0.1379   -0.0001   -0.0348   -0.0000    0.0000   -0.0000   -0.0000    0.0689
          33    0.0001    0.1136   -0.0001    0.3816   -0.0927    0.4607    0.2576   -0.0002
          34   -0.0387   -0.0000    0.0010   -0.0000   -0.0000    0.0000   -0.0000   -0.0324
          35    0.0753    0.0000    0.0002    0.0000   -0.0000   -0.0000   -0.0000    0.0881
          36    0.0001   -0.1084    0.0001   -0.3561   -0.0143    0.4822   -0.2802    0.0007
          37   -0.0092    0.0000    0.0110   -0.0000   -0.0000    0.0000   -0.0001   -0.2372
          38   -0.0909    0.0001    0.0161   -0.0000   -0.0001    0.0000   -0.0001   -0.2683
          39   -0.0000   -0.0137   -0.0000    0.2477    0.7111    0.0332    0.0513    0.0005
          40   -0.0706    0.0000    0.0278   -0.0000    0.0000   -0.0000    0.0000   -0.0118
          41   -0.0359    0.0001   -0.0216    0.0001   -0.0000   -0.0000   -0.0000    0.0044
          42   -0.0001   -0.0150   -0.0000    0.3440   -0.0613   -0.3204   -0.3758    0.0003
          43    0.0693    0.0000    0.0106   -0.0000    0.0000    0.0000    0.0000    0.1305
          44    0.1538   -0.0001   -0.0043    0.0000    0.0000   -0.0000    0.0001    0.1318
          45    0.0000   -0.1204    0.0001   -0.3726    0.1621   -0.2212    0.3898   -0.0004
          46    0.2067   -0.0001   -0.0249   -0.0000   -0.0000    0.0000   -0.0002   -0.3791
          47    0.1159   -0.0001   -0.0128   -0.0000   -0.0000    0.0000   -0.0001   -0.1790
          48    0.0001   -0.0097   -0.0000    0.1424    0.4821    0.0903   -0.1663   -0.0012
          49   -0.3600    0.0002    0.0440    0.0000    0.0001    0.0000    0.0001    0.4844
          50    0.1318   -0.0001   -0.0155   -0.0000   -0.0001   -0.0000   -0.0000   -0.1948
          51    0.0001   -0.0045    0.0000   -0.1353    0.0624    0.1243   -0.2041   -0.0011
          52    0.1165    0.0005    0.6758    0.0000   -0.0000   -0.0001   -0.0000    0.0127
          53    0.0330    0.0003    0.4348   -0.0000    0.0000   -0.0000   -0.0000   -0.0218
          54    0.0005    0.8012   -0.0006   -0.0841    0.0277   -0.0147   -0.0057    0.0000


[...]
 FREQ.      1123.11         C  6 -- H 14         +36.1% ( 76.4%)      2.9%
 T-DIPOLE    0.0378         C  3 -- H 12         +14.1% ( 47.8%)     32.0%
 TRAVEL      0.1219         C  1 -- C  3         +12.3% ( 44.6%)      5.7%
 RED. MASS   0.4863         C  3 -- C  7          +9.6% ( 39.5%)     94.1%
 EFF. MASS   4.0428

 VIBRATION   28   28A         ATOM PAIR      ENERGY CONTRIBUTION    RADIAL
 FREQ.      1159.27         C  7 -- H 15         +33.6% ( 61.0%)      0.1%
 T-DIPOLE    0.0256         C  4 -- H 11         +25.1% ( 52.7%)      0.8%
 TRAVEL      0.1902         C  6 -- H 14         +16.4% ( 42.7%)      0.7%
 RED. MASS   0.2792         C  3 -- H 12          +7.3% ( 28.5%)      1.4%
 EFF. MASS   1.6078

 VIBRATION   29   29A         ATOM PAIR      ENERGY CONTRIBUTION    RADIAL
 FREQ.      1204.86         C  5 -- H 13         +46.2% ( 78.8%)      0.3%
 T-DIPOLE    0.0404         C  3 -- H 12          +9.3% ( 35.4%)      4.8%
 TRAVEL      0.1354         C  1 -- C  3          +6.5% ( 29.5%)     26.9%
 RED. MASS   0.4685         C  1 -- C  2          +5.3% ( 26.6%)     17.7%
 EFF. MASS   3.0549

 VIBRATION   30   30A         ATOM PAIR      ENERGY CONTRIBUTION    RADIAL
 FREQ.      1228.49         C  3 -- H 12         +37.4% ( 71.5%)      0.0%
 T-DIPOLE    0.1004         C  4 -- H 11         +13.6% ( 43.2%)      0.1%
 TRAVEL      0.1494         C  6 -- H 14          +9.6% ( 36.2%)      2.2%
 RED. MASS   0.3367         C  1 -- C  2          +6.5% ( 29.8%)     10.3%
 EFF. MASS   2.4603

 VIBRATION   31   31A         ATOM PAIR      ENERGY CONTRIBUTION    RADIAL
 FREQ.      1301.80         C  8 -- H 16         +12.8% ( 47.3%)      3.1%
 T-DIPOLE    0.1137         C  1 -- C  5         +12.4% ( 46.4%)     94.3%
 TRAVEL      0.0887         C  2 -- C  4         +11.6% ( 45.0%)     21.9%
 RED. MASS   0.5792         C  2 -- C  9         +10.3% ( 42.3%)     75.2%
 EFF. MASS   6.5862

 VIBRATION   32   32A         ATOM PAIR      ENERGY CONTRIBUTION    RADIAL
 FREQ.      1344.43         C  8 -- H 16         +12.9% ( 47.6%)      2.1%
 T-DIPOLE    0.1012         C  8 -- H 17         +11.7% ( 45.3%)      1.1%
 TRAVEL      0.0890         C  2 -- C  9         +11.1% ( 44.1%)     98.4%
 RED. MASS   0.5530         C  2 -- C  4          +8.9% ( 39.5%)      0.1%
 EFF. MASS   6.3260

 VIBRATION   33   33A         ATOM PAIR      ENERGY CONTRIBUTION    RADIAL
 FREQ.      1389.37         C  6 -- C  7         +15.8% ( 66.3%)     99.7%
 T-DIPOLE    0.1755         C  2 -- C  4         +14.1% ( 62.7%)     97.4%
 TRAVEL      0.0667         C  1 -- C  2         +14.0% ( 62.6%)     99.9%
 RED. MASS   1.7843         C  1 -- C  3          +9.5% ( 51.5%)    100.0%
 EFF. MASS  10.9088

 VIBRATION   34   34A         ATOM PAIR      ENERGY CONTRIBUTION    RADIAL
 FREQ.      1401.40         C  4 -- C  6         +17.1% ( 66.8%)     96.4%
 T-DIPOLE    0.3564         C  3 -- C  7         +15.8% ( 64.3%)     86.9%
 TRAVEL      0.0655         C  1 -- C  3          +9.3% ( 49.2%)     99.6%
 RED. MASS   1.5597         C  3 -- H 12          +8.4% ( 46.8%)      2.8%
 EFF. MASS  11.2257

 VIBRATION   35   35A         ATOM PAIR      ENERGY CONTRIBUTION    RADIAL
 FREQ.      1567.97         C  1 -- C  2         +14.4% ( 56.8%)      0.2%
 T-DIPOLE    0.5435         C  4 -- C  6         +11.2% ( 50.2%)     81.6%
 TRAVEL      0.0613         C  6 -- C  7         +10.8% ( 49.2%)      1.5%
 RED. MASS   1.7354         C  2 -- C  4         +10.3% ( 48.1%)     96.0%
 EFF. MASS  11.4321         C  3 -- C  7         +10.2% ( 47.9%)     91.0%
                            C  1 -- C  3         +10.2% ( 47.8%)     91.0%

 VIBRATION   36   36A         ATOM PAIR      ENERGY CONTRIBUTION    RADIAL
 FREQ.      1627.48         C  1 -- C  2         +17.7% ( 62.4%)     99.8%
 T-DIPOLE    0.5643         C  1 -- C  3         +13.2% ( 53.8%)     46.4%
 TRAVEL      0.0607         C  2 -- C  4         +13.1% ( 53.7%)     40.3%
 RED. MASS   1.7901         C  1 -- C  5          +9.0% ( 44.5%)     99.5%
 EFF. MASS  11.2629

 VIBRATION   37   37A         ATOM PAIR      ENERGY CONTRIBUTION    RADIAL
 FREQ.      1772.61         C  1 -- C  2         +18.7% ( 60.7%)     99.9%
 T-DIPOLE    0.1200         C  6 -- C  7         +16.7% ( 57.2%)     99.6%
 TRAVEL      0.0565         C  3 -- C  7          +9.5% ( 43.3%)     57.8%
 RED. MASS   2.3757         C  2 -- C  4          +9.4% ( 43.0%)     43.5%
 EFF. MASS  11.9096

 VIBRATION   38   38A         ATOM PAIR      ENERGY CONTRIBUTION    RADIAL
 FREQ.      1798.28         C  1 -- C  3         +16.1% ( 56.2%)     87.0%
 T-DIPOLE    0.1291         C  2 -- C  4         +14.2% ( 52.8%)     78.0%
 TRAVEL      0.0562         C  4 -- C  6         +14.1% ( 52.6%)     92.5%
 RED. MASS   2.3151         C  3 -- C  7         +13.4% ( 51.2%)     86.5%
 EFF. MASS  11.8537

 VIBRATION   39   39A         ATOM PAIR      ENERGY CONTRIBUTION    RADIAL
 FREQ.      1847.43         C  5 -- C  8         +42.8% ( 96.7%)     98.6%
 T-DIPOLE    0.1088         C  1 -- C  5         +18.4% ( 63.3%)     55.3%
 TRAVEL      0.0556         C  5 -- H 13         +15.5% ( 58.1%)      3.4%
 RED. MASS   4.9673         C  8 -- H 16         +10.1% ( 46.9%)      9.5%
 EFF. MASS  11.8106

 VIBRATION   40   40A         ATOM PAIR      ENERGY CONTRIBUTION    RADIAL
 FREQ.      2329.24         C  9 -- C 10         +58.2% ( 96.2%)    100.0%
 T-DIPOLE    0.7674         C  2 -- C  9         +29.7% ( 68.7%)    100.0%
 TRAVEL      0.0501         C 10 -- H 18         +10.3% ( 40.4%)    100.0%
 RED. MASS   5.3861         C  1 -- C  2          +0.9% ( 12.1%)     31.9%
 EFF. MASS  11.5309

 VIBRATION   41   41A         ATOM PAIR      ENERGY CONTRIBUTION    RADIAL
 FREQ.      3000.26         C  3 -- H 12         +93.0% ( 98.1%)    100.0%
 T-DIPOLE    0.3709         C  8 -- H 16          +2.7% ( 16.7%)     99.9%
 TRAVEL      0.1215         C  1 -- C  3          +1.5% ( 12.4%)     25.1%
 RED. MASS   0.8606         C  3 -- C  7          +1.5% ( 12.4%)     22.0%
 EFF. MASS   1.5227

 VIBRATION   42   42A         ATOM PAIR      ENERGY CONTRIBUTION    RADIAL
 FREQ.      3026.02         C  5 -- H 13         +96.3% ( 99.6%)    100.0%
 T-DIPOLE    0.2861         C  5 -- C  8          +1.5% ( 12.4%)     30.9%
 TRAVEL      0.1212         C  1 -- C  5          +1.4% ( 12.2%)     15.7%
 RED. MASS   0.9168         C  8 -- H 17          +0.6% (  7.9%)     94.4%
 EFF. MASS   1.5172

 VIBRATION   43   43A         ATOM PAIR      ENERGY CONTRIBUTION    RADIAL
 FREQ.      3056.32         C  6 -- H 14         +47.6% ( 70.2%)    100.0%
 T-DIPOLE    0.0752         C  4 -- H 11         +34.5% ( 59.7%)    100.0%
 TRAVEL      0.1215         C  7 -- H 15         +15.0% ( 39.3%)     99.9%
 RED. MASS   0.3619         C  4 -- C  6          +1.1% ( 10.8%)      0.3%
 EFF. MASS   1.4947

 VIBRATION   44   44A         ATOM PAIR      ENERGY CONTRIBUTION    RADIAL
 FREQ.      3064.19         C  7 -- H 15         +50.2% ( 72.0%)    100.0%
 T-DIPOLE    0.4718         C  4 -- H 11         +43.5% ( 67.0%)    100.0%
 TRAVEL      0.1203         C  6 -- H 14          +2.6% ( 16.3%)     98.8%
 RED. MASS   0.4377         C  6 -- C  7          +0.8% (  9.2%)     13.2%
 EFF. MASS   1.5198

 VIBRATION   45   45A         ATOM PAIR      ENERGY CONTRIBUTION    RADIAL
 FREQ.      3076.83         C  6 -- H 14         +46.6% ( 69.2%)    100.0%
 T-DIPOLE    0.4921         C  7 -- H 15         +30.1% ( 55.6%)    100.0%
 TRAVEL      0.1176         C  4 -- H 11         +18.8% ( 44.0%)    100.0%
 RED. MASS   0.3427         C  6 -- C  7          +1.4% ( 12.0%)     96.4%
 EFF. MASS   1.5839

 VIBRATION   46   46A         ATOM PAIR      ENERGY CONTRIBUTION    RADIAL
 FREQ.      3085.70         C  8 -- H 16         +93.6% ( 97.7%)     99.9%
 T-DIPOLE    0.1713         C  3 -- H 12          +2.7% ( 16.7%)    100.0%
 TRAVEL      0.1215         C  8 -- H 17          +1.4% ( 11.8%)      0.1%
 RED. MASS   0.8510         C  5 -- C  8          +1.4% ( 11.8%)     47.3%
 EFF. MASS   1.4809

 VIBRATION   47   47A         ATOM PAIR      ENERGY CONTRIBUTION    RADIAL
 FREQ.      3151.31         C  8 -- H 17         +96.2% ( 99.5%)    100.0%
 T-DIPOLE    0.3051         C  8 -- H 16          +1.8% ( 13.6%)     32.2%
 TRAVEL      0.1184         C  5 -- C  8          +1.5% ( 12.4%)     43.0%
 RED. MASS   0.9142         C  5 -- H 13          +0.5% (  7.2%)     94.8%
 EFF. MASS   1.5267

 VIBRATION   48   48A         ATOM PAIR      ENERGY CONTRIBUTION    RADIAL
 FREQ.      3356.98         C 10 -- H 18         +94.0% ( 99.1%)    100.0%
 T-DIPOLE    1.0278         C  9 -- C 10          +5.6% ( 24.2%)    100.0%
 TRAVEL      0.0985         C  2 -- C  9          +0.3% (  5.9%)    100.0%
 RED. MASS   0.9516
 EFF. MASS   2.0708

      SYMMETRY NUMBER FOR POINT-GROUP C1  =  1


          SYSTEM IS A GROUND STATE



 InChI=1S/C10H8/c1-3-9-7-5-6-8-10(9)4-2/h1,4-8H,2H2


          MOLECULE IS NOT LINEAR

          THERE ARE 48 GENUINE VIBRATIONS IN THIS SYSTEM
          THIS THERMODYNAMICS CALCULATION IS LIMITED TO
          MOLECULES WHICH HAVE NO INTERNAL ROTATIONS




                    CALCULATED THERMODYNAMIC PROPERTIES
                                          *
   TEMP. (K)   PARTITION FUNCTION   H.O.F.    ENTHALPY  HEAT CAPACITY ENTROPY
                                   KCAL/MOL   CAL/MOLE    CAL/K/MOL  CAL/K/MOL


 298.00  VIB.     0.6478D+02                  3538.9891    26.9205    20.1646
         ROT.     0.6265D+06                   888.2813     2.9808    29.5058
         INT.     0.4059D+08                  4427.2704    29.9013    49.6704
         TRA.     0.1403D+28                  1480.4688     4.9680    40.4556
         TOT.                       91.295    5907.7393    34.8693    90.1261

 200.00  VIB.     0.1002D+02                  1422.0428    16.3309    11.6909
         ROT.     0.3445D+06                   596.1620     2.9808    28.3172
         INT.     0.3453D+07                  2018.2048    19.3118    40.0080
         TRA.     0.7713D+27                   993.6033     4.9680    38.4745
         TOT.                       88.399    3011.8080    24.2798    78.4825

 210.00  VIB.     0.1200D+02                  1590.6011    17.3832    12.5130
         ROT.     0.3706D+06                   625.9700     2.9808    28.4626
         INT.     0.4449D+07                  2216.5712    20.3640    40.9756
         TRA.     0.8299D+27                  1043.2834     4.9680    38.7169
         TOT.                       88.647    3259.8546    25.3320    79.6925

 220.00  VIB.     0.1441D+02                  1769.7511    18.4488    13.3463
         ROT.     0.3974D+06                   655.7781     2.9808    28.6013
         INT.     0.5727D+07                  2425.5293    21.4296    41.9475
         TRA.     0.8899D+27                  1092.9636     4.9680    38.9480
         TOT.                       88.906    3518.4928    26.3977    80.8955

 230.00  VIB.     0.1734D+02                  1959.6134    19.5252    14.1901
         ROT.     0.4248D+06                   685.5862     2.9808    28.7338
         INT.     0.7368D+07                  2645.1997    22.5060    42.9238
         TRA.     0.9512D+27                  1142.6437     4.9680    39.1689
         TOT.                       89.175    3787.8434    27.4740    82.0927

 240.00  VIB.     0.2092D+02                  2160.2814    20.6095    15.0439
         ROT.     0.4528D+06                   715.3943     2.9808    28.8606
         INT.     0.9474D+07                  2875.6757    23.5903    43.9046
         TRA.     0.1014D+28                  1192.3239     4.9680    39.3803
         TOT.                       89.455    4067.9996    28.5583    83.2848

 250.00  VIB.     0.2530D+02                  2371.8206    21.6990    15.9073
         ROT.     0.4814D+06                   745.2024     2.9808    28.9823
         INT.     0.1218D+08                  3117.0230    24.6798    44.8896
         TRA.     0.1078D+28                  1242.0041     4.9680    39.5831
         TOT.                       89.746    4359.0271    29.6478    84.4727

 260.00  VIB.     0.3065D+02                  2594.2695    22.7910    16.7796
         ROT.     0.5106D+06                   775.0105     2.9808    29.0992
         INT.     0.1565D+08                  3369.2800    25.7718    45.8789
         TRA.     0.1143D+28                  1291.6842     4.9680    39.7779
         TOT.                       90.048    4660.9643    30.7398    85.6568

 270.00  VIB.     0.3722D+02                  2827.6404    23.8830    17.6603
         ROT.     0.5403D+06                   804.8186     2.9808    29.2117
         INT.     0.2011D+08                  3632.4590    26.8638    46.8720
         TRA.     0.1210D+28                  1341.3644     4.9680    39.9654
         TOT.                       90.361    4973.8234    31.8318    86.8374

 280.00  VIB.     0.4529D+02                  3071.9207    24.9725    18.5485
         ROT.     0.5706D+06                   834.6267     2.9808    29.3201
         INT.     0.2584D+08                  3906.5475    27.9533    47.8687
         TRA.     0.1278D+28                  1391.0445     4.9680    40.1461
         TOT.                       90.685    5297.5920    32.9213    88.0148

 290.00  VIB.     0.5521D+02                  3327.0747    26.0573    19.4438
         ROT.     0.6014D+06                   864.4348     2.9808    29.4247
         INT.     0.3321D+08                  4191.5095    29.0381    48.8685
         TRA.     0.1347D+28                  1440.7247     4.9680    40.3205
         TOT.                       91.019    5632.2342    34.0062    89.1890

 300.00  VIB.     0.6744D+02                  3593.0451    27.1355    20.3454
         ROT.     0.6328D+06                   894.2429     2.9808    29.5258
         INT.     0.4268D+08                  4487.2880    30.1163    49.8711
         TRA.     0.1417D+28                  1490.4049     4.9680    40.4889
         TOT.                       91.365    5977.6929    35.0843    90.3600

 310.00  VIB.     0.8252D+02                  3869.7555    28.2050    21.2526
         ROT.     0.6647D+06                   924.0510     2.9808    29.6235
         INT.     0.5485D+08                  4793.8065    31.1858    50.8761
         TRA.     0.1488D+28                  1540.0850     4.9680    40.6518
         TOT.                       91.721    6333.8915    36.1539    91.5279

 320.00  VIB.     0.1011D+03                  4157.1118    29.2644    22.1648
         ROT.     0.6971D+06                   953.8591     2.9808    29.7182
         INT.     0.7051D+08                  5110.9709    32.2452    51.8830
         TRA.     0.1561D+28                  1589.7652     4.9680    40.8095
         TOT.                       92.088    6700.7361    37.2132    92.6925

 330.00  VIB.     0.1242D+03                  4455.0046    30.3121    23.0814
         ROT.     0.7301D+06                   983.6672     2.9808    29.8099
         INT.     0.9064D+08                  5438.6718    33.2929    52.8913
         TRA.     0.1635D+28                  1639.4454     4.9680    40.9624
         TOT.                       92.465    7078.1172    38.2609    93.8537

 340.00  VIB.     0.1527D+03                  4763.3111    31.3469    24.0017
         ROT.     0.7635D+06                  1013.4753     2.9808    29.8989
         INT.     0.1166D+09                  5776.7864    34.3277    53.9006
         TRA.     0.1710D+28                  1689.1255     4.9680    41.1107
         TOT.                       92.853    7465.9119    39.2958    95.0113

 350.00  VIB.     0.1880D+03                  5081.8968    32.3678    24.9251
         ROT.     0.7974D+06                  1043.2834     2.9808    29.9853
         INT.     0.1499D+09                  6125.1802    35.3486    54.9104
         TRA.     0.1786D+28                  1738.8057     4.9680    41.2547
         TOT.                       93.251    7863.9859    40.3166    96.1651

 360.00  VIB.     0.2317D+03                  5410.6172    33.3738    25.8511
         ROT.     0.8319D+06                  1073.0915     2.9808    30.0692
         INT.     0.1928D+09                  6483.7087    36.3546    55.9204
         TRA.     0.1863D+28                  1788.4859     4.9680    41.3947
         TOT.                       93.659    8272.1945    41.3226    97.3150

 370.00  VIB.     0.2861D+03                  5749.3198    34.3641    26.7791
         ROT.     0.8668D+06                  1102.8996     2.9808    30.1509
         INT.     0.2480D+09                  6852.2194    37.3449    56.9300
         TRA.     0.1941D+28                  1838.1660     4.9680    41.5308
         TOT.                       94.077    8690.3854    42.3129    98.4608

 380.00  VIB.     0.3536D+03                  6097.8454    35.3383    27.7085
         ROT.     0.9021D+06                  1132.7077     2.9808    30.2304
         INT.     0.3190D+09                  7230.5531    38.3191    57.9389
         TRA.     0.2020D+28                  1887.8462     4.9680    41.6633
         TOT.                       94.505    9118.3992    43.2871    99.6021

 390.00  VIB.     0.4376D+03                  6456.0293    36.2957    28.6388
         ROT.     0.9380D+06                  1162.5158     2.9808    30.3078
         INT.     0.4105D+09                  7618.5451    39.2765    58.9466
         TRA.     0.2100D+28                  1937.5263     4.9680    41.7923
         TOT.                       94.943    9556.0715    44.2446   100.7390

 400.00  VIB.     0.5421D+03                  6823.7031    37.2362    29.5696
         ROT.     0.9743D+06                  1192.3239     2.9808    30.3833
         INT.     0.5282D+09                  8016.0270    40.2170    59.9529
         TRA.     0.2182D+28                  1987.2065     4.9680    41.9181
         TOT.                       95.390   10003.2335    45.1850   101.8710

   *: NOTE: HEATS OF FORMATION ARE RELATIVE TO THE
            ELEMENTS IN THEIR STANDARD STATE AT 298K
              (=  Standard Enthalpy of Formation).

            Hvib:  Zero-point energy is not included.
                   frequencies of less than zero cm-1 are not included.
            Hrot = (3/2)RT
            Htra = (3/2)RT + pV = (5/2)RT

            Heat capacity is Cp, not Cv

          For more information, see: HTTP://OpenMOPAC.net/Manual/thermochemistry.html


           FORCE CONSTANT IN CARTESIAN COORDINATES (Millidynes/A)

    ATOM   CHEMICAL       X               Y               Z
   NUMBER   SYMBOL  FORCE CONSTANT  FORCE CONSTANT  FORCE CONSTANT

      1       C       12.616212       12.735955        2.602230
      2       C       12.605225       13.476303        2.584610
      3       C       11.805828       12.426408        2.332022
      4       C       11.966309       12.350373        2.326042
      5       C       15.428144        9.769593        2.246125
      6       C       12.182707       12.224119        2.327036
      7       C       12.143147       12.244791        2.330182
      8       C       15.132283        9.164963        1.959065
      9       C        8.600258       18.819997        1.517731
     10       C        7.634462       17.357479        1.279111
     11       H        5.153855        0.768615        0.356285
     12       H        4.955420        0.853864        0.377635
     13       H        2.035258        3.808468        0.355751
     14       H        1.882290        4.038006        0.354749
     15       H        1.844084        4.075130        0.355403
     16       H        2.186797        3.812605        0.359391
     17       H        1.932307        4.202360        0.332803
     18       H        1.944878        4.419407        0.318629

 **********************
 *                    *
 * JOB ENDED NORMALLY *
 *                    *
 **********************



 TOTAL JOB TIME:             1.56 SECONDS

 == MOPAC DONE ==
