 *******************************************************************************
 ** Site#: 14399        For non-commercial use only    Version 18.184L 64BITS **
 *******************************************************************************
 ** Cite this program as: MOPAC2016, Version: 18.184L, James J. P. Stewart,   **
 ** Stewart Computational Chemistry, web: HTTP://OpenMOPAC.net. Days left:  18**
 *******************************************************************************
 **                                                                           **
 **                                MOPAC2016                                  **
 **                                                                           **
 *******************************************************************************

                              PM3 CALCULATION RESULTS

 *******************************************************************************
 *  CALCULATION DONE:                                Sat Jun 15 10:30:23 2019  *
 *  PM3        - The PM3 Hamiltonian to be used
 *  PRECISE    - CRITERIA TO BE INCREASED BY 100 TIMES
 *  NOSYM      - POINT-GROUP SYMMETRY SET TO C1
 *  THREADS=1  - MULTI-THREADING NOT USED
 *  T=         - A TIME OF 172800.0 SECONDS REQUESTED
 *  DUMP=N     - RESTART FILE WRITTEN EVERY  7200.000 SECONDS
 *******************************************************************************
pm3  precise nosym THREADS=1
 InChI=1S/C7H12O4/c8-10-11-9-7-5-3-1-2-4-6-7/h5,8H,1-4,6H2

   ATOM   CHEMICAL          X               Y               Z
  NUMBER   SYMBOL      (ANGSTROMS)     (ANGSTROMS)     (ANGSTROMS)
 
     1       O          2.22110000  *   0.24350000  *   0.43510000  *
     2       O          2.90160000  *  -0.90090000  *   0.59340000  *
     3       O          4.16800000  *  -0.55400000  *   0.48250000  *
     4       O          4.53810000  *  -1.00550000  *  -0.69890000  *
     5       C         -2.14150000  *  -0.55790000  *  -0.60300000  *
     6       C         -0.83080000  *  -1.35240000  *  -0.51830000  *
     7       C         -1.93140000  *   0.93370000  *  -0.89650000  *
     8       C          0.01770000  *  -0.97330000  *   0.70420000  *
     9       C         -1.25510000  *   1.67810000  *   0.26280000  *
    10       C          0.82340000  *   0.28510000  *   0.46210000  *
    11       C          0.23420000  *   1.47230000  *   0.26860000  *
    12       H         -1.09410000  *  -2.42960000  *  -0.43690000  *
    13       H         -0.24290000  *  -1.22980000  *  -1.45490000  *
    14       H         -2.72610000  *  -0.68410000  *   0.33470000  *
    15       H         -2.75210000  *  -0.98790000  *  -1.42650000  *
    16       H         -2.93130000  *   1.39010000  *  -1.06380000  *
    17       H         -1.35050000  *   1.06410000  *  -1.83640000  *
    18       H          0.69600000  *  -1.82290000  *   0.92490000  *
    19       H         -0.62200000  *  -0.84770000  *   1.60460000  *
    20       H         -1.45120000  *   2.76530000  *   0.14020000  *
    21       H         -1.69100000  *   1.37590000  *   1.23960000  *
    22       H          0.86120000  *   2.34140000  *   0.10710000  *
    23       H          4.55870000  *  -0.20350000  *  -1.28140000  *
 


          CARTESIAN COORDINATES 

    NO.       ATOM           X           Y           Z

     1         O          2.2211      0.2435      0.4351
     2         O          2.9016     -0.9009      0.5934
     3         O          4.1680     -0.5540      0.4825
     4         O          4.5381     -1.0055     -0.6989
     5         C         -2.1415     -0.5579     -0.6030
     6         C         -0.8308     -1.3524     -0.5183
     7         C         -1.9314      0.9337     -0.8965
     8         C          0.0177     -0.9733      0.7042
     9         C         -1.2551      1.6781      0.2628
    10         C          0.8234      0.2851      0.4621
    11         C          0.2342      1.4723      0.2686
    12         H         -1.0941     -2.4296     -0.4369
    13         H         -0.2429     -1.2298     -1.4549
    14         H         -2.7261     -0.6841      0.3347
    15         H         -2.7521     -0.9879     -1.4265
    16         H         -2.9313      1.3901     -1.0638
    17         H         -1.3505      1.0641     -1.8364
    18         H          0.6960     -1.8229      0.9249
    19         H         -0.6220     -0.8477      1.6046
    20         H         -1.4512      2.7653      0.1402
    21         H         -1.6910      1.3759      1.2396
    22         H          0.8612      2.3414      0.1071
    23         H          4.5587     -0.2035     -1.2814

  H: (PM3): J. J. P. STEWART, J. COMP. CHEM. 10, 209 (1989).
  C: (PM3): J. J. P. STEWART, J. COMP. CHEM. 10, 209 (1989).
  O: (PM3): J. J. P. STEWART, J. COMP. CHEM. 10, 209 (1989).

           Empirical Formula: C7 H12 O4  =    23 atoms



      MOLECULAR POINT GROUP   :   C1  


      RHF CALCULATION, NO. OF DOUBLY OCCUPIED LEVELS = 32


          Geometry optimization using EF

          DIAGONAL MATRIX USED AS START HESSIAN

 CYCLE:     1 TIME:   0.008 TIME LEFT:  2.00D  GRAD.:   248.883 HEAT:  15.28205
 CYCLE:     2 TIME:   0.004 TIME LEFT:  2.00D  GRAD.:   119.888 HEAT: -1.247386
 CYCLE:     3 TIME:   0.016 TIME LEFT:  2.00D  GRAD.:    52.136 HEAT: -3.662529
 CYCLE:     4 TIME:   0.004 TIME LEFT:  2.00D  GRAD.:    75.509 HEAT: -3.760772
 CYCLE:     5 TIME:   0.012 TIME LEFT:  2.00D  GRAD.:    26.586 HEAT: -4.811247
 CYCLE:     6 TIME:   0.008 TIME LEFT:  2.00D  GRAD.:    15.870 HEAT: -5.072403
 CYCLE:     7 TIME:   0.008 TIME LEFT:  2.00D  GRAD.:    21.263 HEAT: -5.159073
 CYCLE:     8 TIME:   0.008 TIME LEFT:  2.00D  GRAD.:    13.222 HEAT: -5.290207
 CYCLE:     9 TIME:   0.008 TIME LEFT:  2.00D  GRAD.:    19.280 HEAT: -5.300670
 CYCLE:    10 TIME:   0.004 TIME LEFT:  2.00D  GRAD.:    11.461 HEAT: -5.443011
 CYCLE:    11 TIME:   0.008 TIME LEFT:  2.00D  GRAD.:    17.781 HEAT: -5.459980
 CYCLE:    12 TIME:   0.008 TIME LEFT:  2.00D  GRAD.:    15.539 HEAT: -5.545777
 CYCLE:    13 TIME:   0.004 TIME LEFT:  2.00D  GRAD.:    21.943 HEAT: -5.572465
 CYCLE:    14 TIME:   0.004 TIME LEFT:  2.00D  GRAD.:    24.837 HEAT: -5.598523
 CYCLE:    15 TIME:   0.008 TIME LEFT:  2.00D  GRAD.:    24.508 HEAT: -5.672012
 CYCLE:    16 TIME:   0.004 TIME LEFT:  2.00D  GRAD.:    22.400 HEAT: -5.738306
 CYCLE:    17 TIME:   0.008 TIME LEFT:  2.00D  GRAD.:    18.326 HEAT: -5.854078
 CYCLE:    18 TIME:   0.004 TIME LEFT:  2.00D  GRAD.:    18.110 HEAT: -5.874840
 CYCLE:    19 TIME:   0.008 TIME LEFT:  2.00D  GRAD.:    12.941 HEAT: -5.974877
 CYCLE:    20 TIME:   0.004 TIME LEFT:  2.00D  GRAD.:    13.743 HEAT: -5.982010
 CYCLE:    21 TIME:   0.004 TIME LEFT:  2.00D  GRAD.:     8.303 HEAT: -6.041041
 CYCLE:    22 TIME:   0.008 TIME LEFT:  2.00D  GRAD.:     7.385 HEAT: -6.057150
 CYCLE:    23 TIME:   0.004 TIME LEFT:  2.00D  GRAD.:     5.159 HEAT: -6.083558
 CYCLE:    24 TIME:   0.004 TIME LEFT:  2.00D  GRAD.:     4.576 HEAT: -6.105303
 CYCLE:    25 TIME:   0.008 TIME LEFT:  2.00D  GRAD.:     4.894 HEAT: -6.133976
 CYCLE:    26 TIME:   0.004 TIME LEFT:  2.00D  GRAD.:     4.052 HEAT: -6.168914
 CYCLE:    27 TIME:   0.008 TIME LEFT:  2.00D  GRAD.:     6.190 HEAT: -6.190813
 CYCLE:    28 TIME:   0.004 TIME LEFT:  2.00D  GRAD.:     5.977 HEAT: -6.230893
 CYCLE:    29 TIME:   0.004 TIME LEFT:  2.00D  GRAD.:     8.594 HEAT: -6.303752
 CYCLE:    30 TIME:   0.008 TIME LEFT:  2.00D  GRAD.:    10.147 HEAT: -6.399782
 CYCLE:    31 TIME:   0.004 TIME LEFT:  2.00D  GRAD.:    10.624 HEAT: -6.563597
 CYCLE:    32 TIME:   0.008 TIME LEFT:  2.00D  GRAD.:    11.127 HEAT: -6.780841
 CYCLE:    33 TIME:   0.004 TIME LEFT:  2.00D  GRAD.:    18.054 HEAT: -7.023590
 CYCLE:    34 TIME:   0.020 TIME LEFT:  2.00D  GRAD.:    22.998 HEAT: -7.100081
 CYCLE:    35 TIME:   0.004 TIME LEFT:  2.00D  GRAD.:    11.939 HEAT: -7.319574
 CYCLE:    36 TIME:   0.008 TIME LEFT:  2.00D  GRAD.:    10.596 HEAT: -7.503013
 CYCLE:    37 TIME:   0.004 TIME LEFT:  2.00D  GRAD.:    20.565 HEAT: -7.706340
 CYCLE:    38 TIME:   0.008 TIME LEFT:  2.00D  GRAD.:    14.645 HEAT: -7.980600
 CYCLE:    39 TIME:   0.008 TIME LEFT:  2.00D  GRAD.:    21.061 HEAT: -8.026111
 CYCLE:    40 TIME:   0.008 TIME LEFT:  2.00D  GRAD.:     8.771 HEAT: -8.293552
 CYCLE:    41 TIME:   0.004 TIME LEFT:  2.00D  GRAD.:    10.479 HEAT: -8.398850
 CYCLE:    42 TIME:   0.004 TIME LEFT:  2.00D  GRAD.:    19.636 HEAT: -8.430229
 CYCLE:    43 TIME:   0.008 TIME LEFT:  2.00D  GRAD.:     8.799 HEAT: -8.621680
 CYCLE:    44 TIME:   0.004 TIME LEFT:  2.00D  GRAD.:     8.767 HEAT: -8.685914
 CYCLE:    45 TIME:   0.008 TIME LEFT:  2.00D  GRAD.:     9.854 HEAT: -8.806598
 CYCLE:    46 TIME:   0.004 TIME LEFT:  2.00D  GRAD.:     9.838 HEAT: -8.922558
 CYCLE:    47 TIME:   0.008 TIME LEFT:  2.00D  GRAD.:    11.500 HEAT: -9.040334
 CYCLE:    48 TIME:   0.004 TIME LEFT:  2.00D  GRAD.:    16.041 HEAT: -9.129494
 CYCLE:    49 TIME:   0.004 TIME LEFT:  2.00D  GRAD.:     9.034 HEAT: -9.265855
 CYCLE:    50 TIME:   0.008 TIME LEFT:  2.00D  GRAD.:     8.008 HEAT: -9.345701
 CYCLE:    51 TIME:   0.004 TIME LEFT:  2.00D  GRAD.:     7.644 HEAT: -9.446418
 CYCLE:    52 TIME:   0.004 TIME LEFT:  2.00D  GRAD.:     6.393 HEAT: -9.529292
 CYCLE:    53 TIME:   0.008 TIME LEFT:  2.00D  GRAD.:    14.178 HEAT: -9.547667
 CYCLE:    54 TIME:   0.012 TIME LEFT:  2.00D  GRAD.:    12.723 HEAT: -9.604208
 CYCLE:    55 TIME:   0.008 TIME LEFT:  2.00D  GRAD.:     7.782 HEAT: -9.645780
 CYCLE:    56 TIME:   0.004 TIME LEFT:  2.00D  GRAD.:     4.620 HEAT: -9.683018
 CYCLE:    57 TIME:   0.008 TIME LEFT:  2.00D  GRAD.:     5.007 HEAT: -9.714519
 CYCLE:    58 TIME:   0.004 TIME LEFT:  2.00D  GRAD.:     4.928 HEAT: -9.759133
 CYCLE:    59 TIME:   0.004 TIME LEFT:  2.00D  GRAD.:     4.683 HEAT: -9.796576
 CYCLE:    60 TIME:   0.008 TIME LEFT:  2.00D  GRAD.:     3.661 HEAT: -9.824718
 CYCLE:    61 TIME:   0.004 TIME LEFT:  2.00D  GRAD.:     3.887 HEAT: -9.856500
 CYCLE:    62 TIME:   0.004 TIME LEFT:  2.00D  GRAD.:     6.591 HEAT: -9.888761
 CYCLE:    63 TIME:   0.008 TIME LEFT:  2.00D  GRAD.:    10.118 HEAT: -9.894493
 CYCLE:    64 TIME:   0.004 TIME LEFT:  2.00D  GRAD.:     3.484 HEAT: -9.935320
 CYCLE:    65 TIME:   0.008 TIME LEFT:  2.00D  GRAD.:     2.505 HEAT: -9.950758
 CYCLE:    66 TIME:   0.004 TIME LEFT:  2.00D  GRAD.:     3.117 HEAT: -9.981788
 CYCLE:    67 TIME:   0.008 TIME LEFT:  2.00D  GRAD.:     3.333 HEAT: -9.999309
 CYCLE:    68 TIME:   0.004 TIME LEFT:  2.00D  GRAD.:     3.368 HEAT: -10.01990
 CYCLE:    69 TIME:   0.004 TIME LEFT:  2.00D  GRAD.:     2.452 HEAT: -10.03582
 CYCLE:    70 TIME:   0.008 TIME LEFT:  2.00D  GRAD.:     1.844 HEAT: -10.04695
 CYCLE:    71 TIME:   0.004 TIME LEFT:  2.00D  GRAD.:     1.579 HEAT: -10.05329
 CYCLE:    72 TIME:   0.008 TIME LEFT:  2.00D  GRAD.:     1.448 HEAT: -10.05810
 CYCLE:    73 TIME:   0.004 TIME LEFT:  2.00D  GRAD.:     1.378 HEAT: -10.06118
 CYCLE:    74 TIME:   0.004 TIME LEFT:  2.00D  GRAD.:     1.415 HEAT: -10.06417
 CYCLE:    75 TIME:   0.008 TIME LEFT:  2.00D  GRAD.:     1.228 HEAT: -10.06691
 CYCLE:    76 TIME:   0.004 TIME LEFT:  2.00D  GRAD.:     1.176 HEAT: -10.06954
 CYCLE:    77 TIME:   0.004 TIME LEFT:  2.00D  GRAD.:     1.200 HEAT: -10.07218
 CYCLE:    78 TIME:   0.008 TIME LEFT:  2.00D  GRAD.:     1.304 HEAT: -10.07525
 CYCLE:    79 TIME:   0.004 TIME LEFT:  2.00D  GRAD.:     1.406 HEAT: -10.07891
 CYCLE:    80 TIME:   0.008 TIME LEFT:  2.00D  GRAD.:     1.365 HEAT: -10.08297
 CYCLE:    81 TIME:   0.004 TIME LEFT:  2.00D  GRAD.:     1.295 HEAT: -10.08674
 CYCLE:    82 TIME:   0.008 TIME LEFT:  2.00D  GRAD.:     1.611 HEAT: -10.08986
 CYCLE:    83 TIME:   0.004 TIME LEFT:  2.00D  GRAD.:     1.302 HEAT: -10.09250
 CYCLE:    84 TIME:   0.004 TIME LEFT:  2.00D  GRAD.:     1.110 HEAT: -10.09517
 CYCLE:    85 TIME:   0.008 TIME LEFT:  2.00D  GRAD.:     1.062 HEAT: -10.09909
 CYCLE:    86 TIME:   0.004 TIME LEFT:  2.00D  GRAD.:     1.021 HEAT: -10.10130
 CYCLE:    87 TIME:   0.004 TIME LEFT:  2.00D  GRAD.:     0.835 HEAT: -10.10329
 CYCLE:    88 TIME:   0.008 TIME LEFT:  2.00D  GRAD.:     0.692 HEAT: -10.10432
 CYCLE:    89 TIME:   0.004 TIME LEFT:  2.00D  GRAD.:     0.642 HEAT: -10.10505
 CYCLE:    90 TIME:   0.008 TIME LEFT:  2.00D  GRAD.:     0.645 HEAT: -10.10592
 CYCLE:    91 TIME:   0.004 TIME LEFT:  2.00D  GRAD.:     0.764 HEAT: -10.10695
 CYCLE:    92 TIME:   0.004 TIME LEFT:  2.00D  GRAD.:     0.800 HEAT: -10.10796
 CYCLE:    93 TIME:   0.008 TIME LEFT:  2.00D  GRAD.:     0.923 HEAT: -10.10926
 CYCLE:    94 TIME:   0.004 TIME LEFT:  2.00D  GRAD.:     0.910 HEAT: -10.11069
 CYCLE:    95 TIME:   0.004 TIME LEFT:  2.00D  GRAD.:     1.007 HEAT: -10.11219
 CYCLE:    96 TIME:   0.008 TIME LEFT:  2.00D  GRAD.:     0.987 HEAT: -10.11378
 CYCLE:    97 TIME:   0.004 TIME LEFT:  2.00D  GRAD.:     0.873 HEAT: -10.11482
 CYCLE:    98 TIME:   0.004 TIME LEFT:  2.00D  GRAD.:     0.789 HEAT: -10.11677
 CYCLE:    99 TIME:   0.008 TIME LEFT:  2.00D  GRAD.:     0.796 HEAT: -10.11873
 CYCLE:   100 TIME:   0.004 TIME LEFT:  2.00D  GRAD.:     0.838 HEAT: -10.12073
 CYCLE:   101 TIME:   0.008 TIME LEFT:  2.00D  GRAD.:     0.778 HEAT: -10.12199
 CYCLE:   102 TIME:   0.004 TIME LEFT:  2.00D  GRAD.:     0.943 HEAT: -10.12296
 CYCLE:   103 TIME:   0.008 TIME LEFT:  2.00D  GRAD.:     0.767 HEAT: -10.12387
 CYCLE:   104 TIME:   0.004 TIME LEFT:  2.00D  GRAD.:     0.665 HEAT: -10.12504
 CYCLE:   105 TIME:   0.004 TIME LEFT:  2.00D  GRAD.:     0.538 HEAT: -10.12647
 CYCLE:   106 TIME:   0.008 TIME LEFT:  2.00D  GRAD.:     0.422 HEAT: -10.12698
 CYCLE:   107 TIME:   0.004 TIME LEFT:  2.00D  GRAD.:     0.320 HEAT: -10.12730
 CYCLE:   108 TIME:   0.004 TIME LEFT:  2.00D  GRAD.:     0.283 HEAT: -10.12744
 CYCLE:   109 TIME:   0.008 TIME LEFT:  2.00D  GRAD.:     0.243 HEAT: -10.12757
 CYCLE:   110 TIME:   0.004 TIME LEFT:  2.00D  GRAD.:     0.214 HEAT: -10.12768
 CYCLE:   111 TIME:   0.008 TIME LEFT:  2.00D  GRAD.:     0.140 HEAT: -10.12777
 CYCLE:   112 TIME:   0.004 TIME LEFT:  2.00D  GRAD.:     0.132 HEAT: -10.12781
 CYCLE:   113 TIME:   0.004 TIME LEFT:  2.00D  GRAD.:     0.115 HEAT: -10.12784
 CYCLE:   114 TIME:   0.004 TIME LEFT:  2.00D  GRAD.:     0.098 HEAT: -10.12786
 CYCLE:   115 TIME:   0.008 TIME LEFT:  2.00D  GRAD.:     0.079 HEAT: -10.12788
 CYCLE:   116 TIME:   0.004 TIME LEFT:  2.00D  GRAD.:     0.073 HEAT: -10.12789
 CYCLE:   117 TIME:   0.004 TIME LEFT:  2.00D  GRAD.:     0.068 HEAT: -10.12790
 CYCLE:   118 TIME:   0.008 TIME LEFT:  2.00D  GRAD.:     0.076 HEAT: -10.12791
 CYCLE:   119 TIME:   0.004 TIME LEFT:  2.00D  GRAD.:     0.057 HEAT: -10.12792
 CYCLE:   120 TIME:   0.008 TIME LEFT:  2.00D  GRAD.:     0.107 HEAT: -10.12792
 CYCLE:   121 TIME:   0.004 TIME LEFT:  2.00D  GRAD.:     0.051 HEAT: -10.12793
 CYCLE:   122 TIME:   0.004 TIME LEFT:  2.00D  GRAD.:     0.064 HEAT: -10.12793
 CYCLE:   123 TIME:   0.008 TIME LEFT:  2.00D  GRAD.:     0.099 HEAT: -10.12794
 CYCLE:   124 TIME:   0.004 TIME LEFT:  2.00D  GRAD.:     0.297 HEAT: -10.12797
 CYCLE:   125 TIME:   0.004 TIME LEFT:  2.00D  GRAD.:     0.140 HEAT: -10.12803
 CYCLE:   126 TIME:   0.008 TIME LEFT:  2.00D  GRAD.:     0.111 HEAT: -10.12809
 CYCLE:   127 TIME:   0.004 TIME LEFT:  2.00D  GRAD.:     0.116 HEAT: -10.12813
 CYCLE:   128 TIME:   0.004 TIME LEFT:  2.00D  GRAD.:     0.112 HEAT: -10.12817
 CYCLE:   129 TIME:   0.008 TIME LEFT:  2.00D  GRAD.:     0.103 HEAT: -10.12819
 CYCLE:   130 TIME:   0.004 TIME LEFT:  2.00D  GRAD.:     0.069 HEAT: -10.12821
 CYCLE:   131 TIME:   0.004 TIME LEFT:  2.00D  GRAD.:     0.045 HEAT: -10.12822

     GRADIENT =  0.04500  IS LESS THAN CUTOFF =  0.05000



 -------------------------------------------------------------------------------
 pm3  precise nosym THREADS=1
 InChI=1S/C7H12O4/c8-10-11-9-7-5-3-1-2-4-6-7/h5,8H,1-4,6H2



     GEOMETRY OPTIMISED USING EIGENVECTOR FOLLOWING (EF).     
     SCF FIELD WAS ACHIEVED                                   


                              PM3 CALCULATION
                                                       MOPAC2016 (Version: 18.184L)
                                                       Sat Jun 15 10:30:24 2019
                                                       No. of days remaining =  18




          FINAL HEAT OF FORMATION =        -10.12822 KCAL/MOL =     -42.37646 KJ/MOL


          TOTAL ENERGY            =      -2182.61398 EV
          ELECTRONIC ENERGY       =     -10905.62597 EV  POINT GROUP:     C1  
          CORE-CORE REPULSION     =       8723.01198 EV
          COSMO AREA              =        190.27 SQUARE ANGSTROMS
          COSMO VOLUME            =        193.87 CUBIC ANGSTROMS

          GRADIENT NORM           =          0.04500 = 0.00938 PER ATOM
          IONIZATION POTENTIAL    =          9.611864 EV
          HOMO LUMO ENERGIES (EV) =         -9.612 -0.820
          NO. OF FILLED LEVELS    =         32
          MOLECULAR WEIGHT        =        160.1694

          MOLECULAR DIMENSIONS (Angstroms)

            Atom       Atom       Distance
            H    23    H    16     8.51261
            H    22    H    12     5.22465
            H    13    H    21     3.06701


          SCF CALCULATIONS        =        144
 
          WALL-CLOCK TIME         =          0.773 SECONDS
          COMPUTATION TIME        =          0.725 SECONDS




   ATOM   CHEMICAL          X               Y               Z
  NUMBER   SYMBOL      (ANGSTROMS)     (ANGSTROMS)     (ANGSTROMS)
 
     1       O          2.16752494  *   0.18374944  *  -0.48649605  *
     2       O          3.11441315  *   0.18854783  *   0.83684904  *
     3       O          4.23654356  *  -0.11314051  *   0.29763378  *
     4       O          4.26722197  *  -1.61064823  *   0.52398998  *
     5       C         -2.22408726  *  -0.53538910  *  -0.45833758  *
     6       C         -0.97381265  *  -1.24733414  *  -0.94953987  *
     7       C         -2.09701581  *   0.97932404  *  -0.44512198  *
     8       C          0.19667176  *  -1.14365587  *   0.01845188  *
     9       C         -1.14063857  *   1.49356326  *   0.62348363  *
    10       C          0.87945849  *   0.19186017  *  -0.05885570  *
    11       C          0.28538768  *   1.37198708  *   0.22859407  *
    12       H         -1.21272436  *  -2.31827822  *  -1.10507399  *
    13       H         -0.67929988  *  -0.85816459  *  -1.94416324  *
    14       H         -2.49363945  *  -0.90053655  *   0.55383315  *
    15       H         -3.07444200  *  -0.81578779  *  -1.11169578  *
    16       H         -3.09833525  *   1.41973393  *  -0.26789379  *
    17       H         -1.78038302  *   1.34396083  *  -1.44234154  *
    18       H          0.92124730  *  -1.95647123  *  -0.19041727  *
    19       H         -0.14774825  *  -1.30828500  *   1.06047934  *
    20       H         -1.37049237  *   2.55520358  *   0.84015267  *
    21       H         -1.30102673  *   0.95057736  *   1.57883154  *
    22       H          0.86392317  *   2.30365493  *   0.17790574  *
    23       H          4.76665699  *  -1.83690953  *  -0.24251602  *

                             CARTESIAN COORDINATES

   1    O        2.167524939     0.183749443    -0.486496052
   2    O        3.114413147     0.188547831     0.836849035
   3    O        4.236543564    -0.113140506     0.297633780
   4    O        4.267221967    -1.610648235     0.523989983
   5    C       -2.224087260    -0.535389099    -0.458337576
   6    C       -0.973812654    -1.247334137    -0.949539870
   7    C       -2.097015807     0.979324044    -0.445121980
   8    C        0.196671757    -1.143655865     0.018451880
   9    C       -1.140638565     1.493563259     0.623483633
  10    C        0.879458489     0.191860166    -0.058855697
  11    C        0.285387680     1.371987077     0.228594066
  12    H       -1.212724360    -2.318278219    -1.105073989
  13    H       -0.679299883    -0.858164591    -1.944163235
  14    H       -2.493639450    -0.900536546     0.553833149
  15    H       -3.074442003    -0.815787785    -1.111695784
  16    H       -3.098335248     1.419733928    -0.267893790
  17    H       -1.780383021     1.343960835    -1.442341543
  18    H        0.921247302    -1.956471231    -0.190417268
  19    H       -0.147748248    -1.308285004     1.060479345
  20    H       -1.370492367     2.555203582     0.840152674
  21    H       -1.301026726     0.950577356     1.578831538
  22    H        0.863923168     2.303654934     0.177905744
  23    H        4.766656992    -1.836909526    -0.242516022


           Empirical Formula: C7 H12 O4  =    23 atoms



      MOLECULAR POINT GROUP   :   C1  


                  EIGENVALUES  
 -40.94344 -35.80265 -35.20860 -34.32209 -32.49717 -30.53019 -29.94774 -24.26480
 -23.13510 -20.40390 -19.24462 -18.95906 -18.38385 -17.72410 -17.04235 -16.87764
 -15.84203 -15.45888 -15.12087 -14.65658 -14.53858 -13.73773 -13.47891 -13.30306
 -12.69106 -12.29204 -12.09864 -11.94945 -11.86633 -11.78390 -11.30962  -9.61186
  -0.82023   0.89801   1.47854   2.96446   3.27022   3.46211   3.57721   3.63242
   3.66820   3.77259   3.86001   3.92128   4.10604   4.18314   4.31903   4.40784
   4.51028   4.55507   4.58595   4.97310   4.98468   5.00530   5.54728   5.94503


              NET ATOMIC CHARGES AND DIPOLE CONTRIBUTIONS

  ATOM NO.   TYPE          CHARGE      No. of ELECS.   s-Pop       p-Pop       
    1          O          -0.152329        6.1523     1.90214     4.25019
    2          O           0.000530        5.9995     1.94304     4.05642
    3          O           0.049818        5.9502     1.93038     4.01980
    4          O          -0.232397        6.2324     1.86713     4.36526
    5          C          -0.100205        4.1002     1.16259     2.93762
    6          C          -0.093348        4.0933     1.16011     2.93324
    7          C          -0.092134        4.0921     1.16012     2.93201
    8          C          -0.068355        4.0684     1.15107     2.91728
    9          C          -0.067502        4.0675     1.14824     2.91926
   10          C          -0.006362        4.0064     1.18912     2.81725
   11          C          -0.104088        4.1041     1.20309     2.90100
   12          H           0.048954        0.9510     0.95105
   13          H           0.058232        0.9418     0.94177
   14          H           0.052375        0.9476     0.94762
   15          H           0.048320        0.9517     0.95168
   16          H           0.048604        0.9514     0.95140
   17          H           0.057446        0.9426     0.94255
   18          H           0.069576        0.9304     0.93042
   19          H           0.061867        0.9381     0.93813
   20          H           0.052899        0.9471     0.94710
   21          H           0.064706        0.9353     0.93529
   22          H           0.110014        0.8900     0.88999
   23          H           0.193381        0.8066     0.80662
 DIPOLE           X         Y         Z       TOTAL
 POINT-CHG.    -1.392     0.134    -0.191     1.411
 HYBRID         0.182    -0.126    -0.361     0.424
 SUM           -1.209     0.009    -0.553     1.330


          ATOMIC ORBITAL ELECTRON POPULATIONS

     Atom    s        px        py        pz   
    1  O   1.90214   1.15761   1.97072   1.12186
    2  O   1.94304   1.07776   1.84023   1.13843
    3  O   1.93038   1.21742   1.06749   1.73488
    4  O   1.86713   1.80026   1.07315   1.49186
    5  C   1.16259   0.97289   0.95155   1.01317
    6  C   1.16011   0.94769   1.00018   0.98536
    7  C   1.16012   0.98473   0.95813   0.98916
    8  C   1.15107   0.97660   0.94423   0.99646
    9  C   1.14824   0.92616   1.01038   0.98273
   10  C   1.18912   0.86211   0.94525   1.00988
   11  C   1.20309   0.97057   0.97240   0.95803
   12  H   0.95105
   13  H   0.94177
   14  H   0.94762
   15  H   0.95168
   16  H   0.95140
   17  H   0.94255
   18  H   0.93042
   19  H   0.93813
   20  H   0.94710
   21  H   0.93529
   22  H   0.88999
   23  H   0.80662
 *******************************************************************************
 ** Site#: 14399        For non-commercial use only    Version 18.184L 64BITS **
 *******************************************************************************
 ** Cite this program as: MOPAC2016, Version: 18.184L, James J. P. Stewart,   **
 ** Stewart Computational Chemistry, web: HTTP://OpenMOPAC.net. Days left:  18**
 *******************************************************************************
 **                                                                           **
 **                                MOPAC2016                                  **
 **                                                                           **
 *******************************************************************************

                              PM3 CALCULATION RESULTS

 *******************************************************************************
 *  CALCULATION DONE:                                Sat Jun 15 10:30:24 2019  *
 *  PM3        - The PM3 Hamiltonian to be used
 *  OLDGEO     - PREVIOUS GEOMETRY TO BE USED
 *  PRECISE    - CRITERIA TO BE INCREASED BY 100 TIMES
 *  NOSYM      - POINT-GROUP SYMMETRY SET TO C1
 *  THREADS=1  - MULTI-THREADING NOT USED
 *  T=         - A TIME OF 172800.0 SECONDS REQUESTED
 *  DUMP=N     - RESTART FILE WRITTEN EVERY  7200.000 SECONDS
 *  THERMO     - THERMODYNAMIC QUANTITIES TO BE CALCULATED
 *******************************************************************************
oldgeo thermo nosym precise THREADS=1  pm3
 InChI=1S/C7H12O4/c8-10-11-9-7-5-3-1-2-4-6-7/h5,8H,1-4,6H2

   ATOM   CHEMICAL          X               Y               Z
  NUMBER   SYMBOL      (ANGSTROMS)     (ANGSTROMS)     (ANGSTROMS)
 
     1       O          2.16752494  *   0.18374944  *  -0.48649605  *
     2       O          3.11441315  *   0.18854783  *   0.83684904  *
     3       O          4.23654356  *  -0.11314051  *   0.29763378  *
     4       O          4.26722197  *  -1.61064823  *   0.52398998  *
     5       C         -2.22408726  *  -0.53538910  *  -0.45833758  *
     6       C         -0.97381265  *  -1.24733414  *  -0.94953987  *
     7       C         -2.09701581  *   0.97932404  *  -0.44512198  *
     8       C          0.19667176  *  -1.14365587  *   0.01845188  *
     9       C         -1.14063857  *   1.49356326  *   0.62348363  *
    10       C          0.87945849  *   0.19186017  *  -0.05885570  *
    11       C          0.28538768  *   1.37198708  *   0.22859407  *
    12       H         -1.21272436  *  -2.31827822  *  -1.10507399  *
    13       H         -0.67929988  *  -0.85816459  *  -1.94416324  *
    14       H         -2.49363945  *  -0.90053655  *   0.55383315  *
    15       H         -3.07444200  *  -0.81578779  *  -1.11169578  *
    16       H         -3.09833525  *   1.41973393  *  -0.26789379  *
    17       H         -1.78038302  *   1.34396083  *  -1.44234154  *
    18       H          0.92124730  *  -1.95647123  *  -0.19041727  *
    19       H         -0.14774825  *  -1.30828500  *   1.06047934  *
    20       H         -1.37049237  *   2.55520358  *   0.84015267  *
    21       H         -1.30102673  *   0.95057736  *   1.57883154  *
    22       H          0.86392317  *   2.30365493  *   0.17790574  *
    23       H          4.76665699  *  -1.83690953  *  -0.24251602  *
 


          CARTESIAN COORDINATES 

    NO.       ATOM           X           Y           Z

     1         O          2.1675      0.1837     -0.4865
     2         O          3.1144      0.1885      0.8368
     3         O          4.2365     -0.1131      0.2976
     4         O          4.2672     -1.6106      0.5240
     5         C         -2.2241     -0.5354     -0.4583
     6         C         -0.9738     -1.2473     -0.9495
     7         C         -2.0970      0.9793     -0.4451
     8         C          0.1967     -1.1437      0.0185
     9         C         -1.1406      1.4936      0.6235
    10         C          0.8795      0.1919     -0.0589
    11         C          0.2854      1.3720      0.2286
    12         H         -1.2127     -2.3183     -1.1051
    13         H         -0.6793     -0.8582     -1.9442
    14         H         -2.4936     -0.9005      0.5538
    15         H         -3.0744     -0.8158     -1.1117
    16         H         -3.0983      1.4197     -0.2679
    17         H         -1.7804      1.3440     -1.4423
    18         H          0.9212     -1.9565     -0.1904
    19         H         -0.1477     -1.3083      1.0605
    20         H         -1.3705      2.5552      0.8402
    21         H         -1.3010      0.9506      1.5788
    22         H          0.8639      2.3037      0.1779
    23         H          4.7667     -1.8369     -0.2425

  H: (PM3): J. J. P. STEWART, J. COMP. CHEM. 10, 209 (1989).
  C: (PM3): J. J. P. STEWART, J. COMP. CHEM. 10, 209 (1989).
  O: (PM3): J. J. P. STEWART, J. COMP. CHEM. 10, 209 (1989).

           Empirical Formula: C7 H12 O4  =    23 atoms



      MOLECULAR POINT GROUP   :   C1  


      RHF CALCULATION, NO. OF DOUBLY OCCUPIED LEVELS = 32



          HEAT OF FORMATION =     -10.128216 KCALS/MOLE


          CARTESIAN COORDINATE DERIVATIVES

   NUMBER  ATOM         X            Y            Z

     1       O     -0.009108    -0.014705     0.007952
     2       O     -0.003675    -0.013497    -0.002545
     3       O      0.004656     0.013770     0.012566
     4       O     -0.001829    -0.005625     0.001170
     5       C      0.003748     0.003395     0.003655
     6       C      0.002162     0.001423    -0.003283
     7       C      0.002945     0.003580     0.001956
     8       C      0.002104    -0.001616     0.001562
     9       C     -0.002718    -0.002001     0.003682
    10       C     -0.002054     0.009343    -0.002066
    11       C      0.002051    -0.001883    -0.003652
    12       H     -0.001282     0.000242    -0.002115
    13       H      0.002625     0.008514     0.000039
    14       H      0.009902     0.009148     0.009642
    15       H      0.003145    -0.000121     0.007583
    16       H     -0.001791    -0.001081     0.003914
    17       H     -0.006413     0.000554    -0.000945
    18       H      0.004491     0.004108    -0.004333
    19       H      0.000660    -0.002545    -0.003418
    20       H      0.001823    -0.002339    -0.006142
    21       H     -0.001134    -0.010136    -0.007591
    22       H     -0.004318    -0.000918    -0.002368
    23       H     -0.005990     0.002392    -0.015264
 


          GRADIENT NORM =   0.04770


          TIME FOR SCF CALCULATION =    0.00

          TIME FOR DERIVATIVES     =    0.00

          MOLECULAR WEIGHT =  160.17



          ROTATIONAL CONSTANTS IN CM(-1)

          A =    0.08490615   B =    0.01795849   C =    0.01571138



           PRINCIPAL MOMENTS OF INERTIA IN UNITS OF 10**(-40)*GRAM-CM**2

          A =      329.6908   B =     1558.7485   C =     1781.6879


          ORIENTATION OF MOLECULE IN FORCE CALCULATION

    NO.       ATOM         X         Y         Z

     1          O       0.2970    1.1985    0.5463
     2          O       1.9242    1.1985    0.5463
     3          O       2.1378    2.4616    0.5463
     4          O       2.3353    2.7165   -0.9338
     5          C      -2.2377   -2.1147   -1.0034
     6          C      -1.9118   -0.6793   -1.3838
     7          C      -2.1486   -2.3844    0.4899
     8          C      -0.4431   -0.3258   -1.1944
     9          C      -0.7215   -2.3550    1.0224
    10          C      -0.1047   -0.0624    0.2450
    11          C      -0.2132   -0.9764    1.2355
    12          H      -2.1804   -0.5240   -2.4477
    13          H      -2.5481    0.0216   -0.8083
    14          H      -1.5725   -2.8116   -1.5533
    15          H      -3.2647   -2.3507   -1.3473
    16          H      -2.5858   -3.3809    0.6991
    17          H      -2.7742   -1.6586    1.0462
    18          H      -0.1938    0.5591   -1.8141
    19          H       0.2034   -1.1466   -1.5682
    20          H      -0.6759   -2.9130    1.9782
    21          H      -0.0395   -2.8910    0.3290
    22          H       0.0850   -0.7138    2.2589
    23          H       2.0019    3.5979   -0.9486


    FIRST DERIVATIVES WILL BE USED IN THE CALCULATION OF SECOND DERIVATIVES

          ESTIMATED TIME TO COMPLETE CALCULATION =        2.16 SECONDS

    FOR POINT-GROUP C1   THERE ARE   1 UNIQUE SYMMETRY FUNCTIONS.

 STEP:   1 TIME =     0.02 SECS, INTEGRAL =      0.02 TIME LEFT: 172799.97
 STEP:   2 TIME =     0.02 SECS, INTEGRAL =      0.05 TIME LEFT: 172799.95
 STEP:   3 TIME =     0.03 SECS, INTEGRAL =      0.07 TIME LEFT: 172799.92
 STEP:   4 TIME =     0.02 SECS, INTEGRAL =      0.10 TIME LEFT: 172799.89
 STEP:   5 TIME =     0.02 SECS, INTEGRAL =      0.12 TIME LEFT: 172799.87
 STEP:   6 TIME =     0.02 SECS, INTEGRAL =      0.14 TIME LEFT: 172799.85
 STEP:   7 TIME =     0.03 SECS, INTEGRAL =      0.17 TIME LEFT: 172799.82
 STEP:   8 TIME =     0.02 SECS, INTEGRAL =      0.20 TIME LEFT: 172799.80
 STEP:   9 TIME =     0.02 SECS, INTEGRAL =      0.22 TIME LEFT: 172799.77
 STEP:  10 TIME =     0.02 SECS, INTEGRAL =      0.24 TIME LEFT: 172799.75
 STEP:  11 TIME =     0.02 SECS, INTEGRAL =      0.27 TIME LEFT: 172799.73
 STEP:  12 TIME =     0.02 SECS, INTEGRAL =      0.29 TIME LEFT: 172799.70
 STEP:  13 TIME =     0.02 SECS, INTEGRAL =      0.31 TIME LEFT: 172799.68
 STEP:  14 TIME =     0.02 SECS, INTEGRAL =      0.34 TIME LEFT: 172799.66
 STEP:  15 TIME =     0.02 SECS, INTEGRAL =      0.36 TIME LEFT: 172799.64
 STEP:  16 TIME =     0.02 SECS, INTEGRAL =      0.38 TIME LEFT: 172799.61
 STEP:  17 TIME =     0.02 SECS, INTEGRAL =      0.40 TIME LEFT: 172799.59
 STEP:  18 TIME =     0.02 SECS, INTEGRAL =      0.42 TIME LEFT: 172799.57
 STEP:  19 TIME =     0.02 SECS, INTEGRAL =      0.45 TIME LEFT: 172799.55
 STEP:  20 TIME =     0.02 SECS, INTEGRAL =      0.47 TIME LEFT: 172799.52
 STEP:  21 TIME =     0.02 SECS, INTEGRAL =      0.49 TIME LEFT: 172799.50
 STEP:  22 TIME =     0.02 SECS, INTEGRAL =      0.52 TIME LEFT: 172799.48
 STEP:  23 TIME =     0.02 SECS, INTEGRAL =      0.54 TIME LEFT: 172799.45
 STEP:  24 TIME =     0.02 SECS, INTEGRAL =      0.56 TIME LEFT: 172799.43
 STEP:  25 TIME =     0.02 SECS, INTEGRAL =      0.59 TIME LEFT: 172799.41
 STEP:  26 TIME =     0.02 SECS, INTEGRAL =      0.61 TIME LEFT: 172799.38
 STEP:  27 TIME =     0.02 SECS, INTEGRAL =      0.63 TIME LEFT: 172799.36
 STEP:  28 TIME =     0.02 SECS, INTEGRAL =      0.66 TIME LEFT: 172799.34
 STEP:  29 TIME =     0.02 SECS, INTEGRAL =      0.68 TIME LEFT: 172799.31
 STEP:  30 TIME =     0.02 SECS, INTEGRAL =      0.70 TIME LEFT: 172799.29
 STEP:  31 TIME =     0.02 SECS, INTEGRAL =      0.73 TIME LEFT: 172799.27
 STEP:  32 TIME =     0.02 SECS, INTEGRAL =      0.75 TIME LEFT: 172799.24
 STEP:  33 TIME =     0.02 SECS, INTEGRAL =      0.77 TIME LEFT: 172799.22
 STEP:  34 TIME =     0.02 SECS, INTEGRAL =      0.79 TIME LEFT: 172799.20
 STEP:  35 TIME =     0.03 SECS, INTEGRAL =      0.82 TIME LEFT: 172799.17
 STEP:  36 TIME =     0.02 SECS, INTEGRAL =      0.84 TIME LEFT: 172799.15
 STEP:  37 TIME =     0.02 SECS, INTEGRAL =      0.86 TIME LEFT: 172799.13
 STEP:  38 TIME =     0.02 SECS, INTEGRAL =      0.88 TIME LEFT: 172799.11
 STEP:  39 TIME =     0.02 SECS, INTEGRAL =      0.91 TIME LEFT: 172799.09
 STEP:  40 TIME =     0.02 SECS, INTEGRAL =      0.93 TIME LEFT: 172799.07
 STEP:  41 TIME =     0.02 SECS, INTEGRAL =      0.95 TIME LEFT: 172799.04
 STEP:  42 TIME =     0.02 SECS, INTEGRAL =      0.97 TIME LEFT: 172799.02
 STEP:  43 TIME =     0.02 SECS, INTEGRAL =      0.99 TIME LEFT: 172799.00
 STEP:  44 TIME =     0.02 SECS, INTEGRAL =      1.02 TIME LEFT: 172798.98
 STEP:  45 TIME =     0.02 SECS, INTEGRAL =      1.04 TIME LEFT: 172798.95
 STEP:  46 TIME =     0.02 SECS, INTEGRAL =      1.06 TIME LEFT: 172798.93
 STEP:  47 TIME =     0.02 SECS, INTEGRAL =      1.08 TIME LEFT: 172798.91
 STEP:  48 TIME =     0.03 SECS, INTEGRAL =      1.11 TIME LEFT: 172798.88
 STEP:  49 TIME =     0.02 SECS, INTEGRAL =      1.13 TIME LEFT: 172798.86
 STEP:  50 TIME =     0.02 SECS, INTEGRAL =      1.15 TIME LEFT: 172798.84
 STEP:  51 TIME =     0.02 SECS, INTEGRAL =      1.18 TIME LEFT: 172798.82
 STEP:  52 TIME =     0.02 SECS, INTEGRAL =      1.20 TIME LEFT: 172798.79
 STEP:  53 TIME =     0.02 SECS, INTEGRAL =      1.22 TIME LEFT: 172798.77
 STEP:  54 TIME =     0.02 SECS, INTEGRAL =      1.24 TIME LEFT: 172798.75
 STEP:  55 TIME =     0.03 SECS, INTEGRAL =      1.27 TIME LEFT: 172798.72
 STEP:  56 TIME =     0.02 SECS, INTEGRAL =      1.29 TIME LEFT: 172798.70
 STEP:  57 TIME =     0.02 SECS, INTEGRAL =      1.31 TIME LEFT: 172798.68
 STEP:  58 TIME =     0.02 SECS, INTEGRAL =      1.34 TIME LEFT: 172798.66
 STEP:  59 TIME =     0.02 SECS, INTEGRAL =      1.36 TIME LEFT: 172798.63
 STEP:  60 TIME =     0.02 SECS, INTEGRAL =      1.38 TIME LEFT: 172798.61
 STEP:  61 TIME =     0.02 SECS, INTEGRAL =      1.41 TIME LEFT: 172798.59
 STEP:  62 TIME =     0.02 SECS, INTEGRAL =      1.43 TIME LEFT: 172798.56
 STEP:  63 TIME =     0.02 SECS, INTEGRAL =      1.45 TIME LEFT: 172798.54
 STEP:  64 TIME =     0.02 SECS, INTEGRAL =      1.48 TIME LEFT: 172798.52
 STEP:  65 TIME =     0.02 SECS, INTEGRAL =      1.50 TIME LEFT: 172798.49
 STEP:  66 TIME =     0.02 SECS, INTEGRAL =      1.52 TIME LEFT: 172798.47
 STEP:  67 TIME =     0.02 SECS, INTEGRAL =      1.55 TIME LEFT: 172798.45
 STEP:  68 TIME =     0.02 SECS, INTEGRAL =      1.57 TIME LEFT: 172798.42
 STEP:  69 TIME =     0.02 SECS, INTEGRAL =      1.59 TIME LEFT: 172798.40

(To convert to Hartree/Bohr^2, multiply by (10^(-21) x N x a0^2)/(4.184 x 627.51) =  0.0642)


           FORCE MATRIX IN MILLIDYNES/ANGSTROM


                  O  1       O  2       O  3       O  4       C  5       C  6
 ------------------------------------------------------------------------------
     O    1   8.468218
     O    2   3.379203   7.485033
     O    3   1.151279   5.502909   6.929244
     O    4   0.098561   1.464733   2.429443   9.760419
     C    5   0.003372   0.001440   0.001832   0.001001  14.295004
     C    6   0.040431   0.007348   0.003957   0.002943   4.173251  14.265818
     C    7   0.027567   0.010629   0.004326   0.002889   4.179665   0.609827
     C    8   0.908190   0.059781   0.007735   0.003910   0.618531   4.089844
     C    9   0.194521   0.038959   0.025803   0.003570   0.616788   0.032088
     C   10   5.794763   1.516036   0.281347   0.036840   0.027842   0.651650
     C   11   1.627637   0.302641   0.019669   0.019098   0.026134   0.039867
     H   12   0.006353   0.001724   0.001002   0.000947   0.429918   4.461695
     H   13   0.004807   0.002624   0.002336   0.000943   0.445793   4.469236
     H   14   0.000597   0.000591   0.000739   0.000457   4.416171   0.445379
     H   15   0.002760   0.000950   0.000863   0.000485   4.455442   0.428657
     H   16   0.005858   0.002653   0.001993   0.001140   0.430244   0.050517
     H   17   0.002200   0.002223   0.002220   0.000783   0.445829   0.023699
     H   18   0.083758   0.008025   0.004087   0.004021   0.047002   0.429760
     H   19   0.042276   0.007274   0.003258   0.001177   0.035112   0.453384
     H   20   0.015119   0.003475   0.002334   0.000795   0.048069   0.002227
     H   21   0.024578   0.004310   0.006766   0.001552   0.035337   0.005552
     H   22   0.126135   0.020235   0.023151   0.003772   0.001098   0.011970
     H   23   0.018435   0.305737   0.754211   8.674438   0.000798   0.000947


                  C  7       C  8       C  9       C 10       C 11       H 12
 ------------------------------------------------------------------------------
     C    7  14.240931
     C    8   0.031854  14.440216
     C    9   4.039941   0.074599  14.576883
     C   10   0.054489   4.373343   0.757069  17.531053
     C   11   0.664000   0.662501   5.015169   9.320002  17.622907
     H   12   0.050530   0.430296   0.002473   0.046564   0.003799   5.056224
     H   13   0.023356   0.442610   0.003074   0.031581   0.004169   0.567061
     H   14   0.445508   0.026955   0.027206   0.003116   0.002189   0.026794
     H   15   0.428546   0.050608   0.050748   0.004559   0.003505   0.039583
     H   16   4.463451   0.002839   0.434527   0.005680   0.046834   0.008471
     H   17   4.465628   0.002899   0.442810   0.004587   0.031352   0.002536
     H   18   0.002160   4.471359   0.002590   0.467734   0.047907   0.037337
     H   19   0.005554   4.393697   0.020508   0.413196   0.026334   0.017695
     H   20   0.431510   0.001713   4.484589   0.044112   0.440184   0.000349
     H   21   0.453861   0.019745   4.362155   0.043636   0.418167   0.000468
     H   22   0.027008   0.099856   0.430652   0.489385   4.797412   0.001789
     H   23   0.000870   0.001097   0.000987   0.007145   0.003542   0.000259


                  H 13       H 14       H 15       H 16       H 17       H 18
 ------------------------------------------------------------------------------
     H   13   5.084113
     H   14   0.045521   5.040145
     H   15   0.026133   0.569342   5.056605
     H   16   0.002545   0.026318   0.039552   5.057377
     H   17   0.023093   0.045403   0.025783   0.566318   5.079600
     H   18   0.018287   0.002404   0.007674   0.000321   0.000256   5.063447
     H   19   0.043828   0.029300   0.002831   0.000515   0.000839   0.560441
     H   20   0.000246   0.002488   0.007899   0.036689   0.018090   0.000360
     H   21   0.000826   0.029561   0.002879   0.017166   0.043478   0.000654
     H   22   0.000678   0.000423   0.000511   0.003947   0.002855   0.006285
     H   23   0.000364   0.000219   0.000147   0.000249   0.000314   0.001003


                  H 19       H 20       H 21       H 22       H 23
 ------------------------------------------------------------------
     H   19   4.998503
     H   20   0.000733   5.055823
     H   21   0.015309   0.563442   4.971467
     H   22   0.010130   0.033556   0.024739   5.158627
     H   23   0.000397   0.000238   0.000361   0.001031   8.936675


          HEAT OF FORMATION =     -10.128216 KCALS/MOLE

          ZERO POINT ENERGY     116.358 KCAL/MOL


           NORMAL COORDINATE ANALYSIS (Total motion = 1 Angstrom)


   Root No.       1         2         3         4         5         6         7         8

                 1 A       2 A       3 A       4 A       5 A       6 A       7 A       8 A   

                  20.0      23.9      79.2     125.0     150.9     176.1     188.2     245.0
  
           1    0.0090    0.0204   -0.0057   -0.0165   -0.0040    0.0232   -0.0290    0.0127
           2   -0.0112   -0.0180    0.0168   -0.0067   -0.0103   -0.0186    0.0003    0.0024
           3    0.0581   -0.0072    0.0175    0.0198    0.0212    0.0034    0.0302    0.0170
           4    0.0088    0.0203   -0.0035   -0.0156   -0.0005    0.0202   -0.0273    0.0347
           5    0.0030   -0.0176   -0.0198    0.0175    0.0220    0.0086   -0.0057    0.0352
           6    0.0024   -0.0623   -0.0277   -0.0165   -0.0335    0.0087   -0.0213    0.0382
           7   -0.0022    0.0170    0.0357   -0.0152   -0.0172   -0.0223    0.0009    0.0569
           8    0.0049   -0.0170   -0.0272    0.0159    0.0259    0.0169   -0.0104    0.0260
           9   -0.0326    0.0134   -0.0030   -0.0109   -0.0232   -0.0021   -0.0050    0.0012
          10   -0.0565   -0.0369   -0.0002    0.0113    0.0893    0.0060    0.0242   -0.0057
          11   -0.0246    0.0815    0.0028    0.0016    0.0388    0.0022    0.0051    0.0173
          12   -0.0450    0.0231   -0.0034   -0.0164   -0.0043   -0.0013    0.0024   -0.0183
          13    0.0171   -0.0055    0.0336   -0.0101   -0.0085    0.0215    0.0047   -0.0342
          14    0.0217   -0.0013   -0.0239    0.0069   -0.0019   -0.0139   -0.0025   -0.0356
          15   -0.0228    0.0034   -0.0153   -0.0000   -0.0108   -0.0059    0.0079   -0.0007
          16    0.0332    0.0204   -0.0116    0.0078   -0.0047   -0.0154    0.0084   -0.0084
          17    0.0231   -0.0115   -0.0092    0.0041    0.0066   -0.0048   -0.0144   -0.0457
          18   -0.0036   -0.0132    0.0020    0.0047    0.0248   -0.0016   -0.0338   -0.0203
          19   -0.0097   -0.0261    0.0109   -0.0033   -0.0113   -0.0169    0.0030   -0.0237
          20    0.0069    0.0184   -0.0256   -0.0047   -0.0365    0.0114    0.0403   -0.0093
          21   -0.0239    0.0082   -0.0145   -0.0023   -0.0169    0.0006    0.0158    0.0023
          22    0.0322    0.0233   -0.0237    0.0110    0.0006   -0.0225   -0.0052   -0.0189
          23    0.0112   -0.0306    0.0345   -0.0125   -0.0112    0.0265    0.0153   -0.0048
          24    0.0254   -0.0007    0.0101    0.0110    0.0209   -0.0088    0.0060    0.0113
          25   -0.0184   -0.0313   -0.0014   -0.0001   -0.0176   -0.0258    0.0141   -0.0101
          26   -0.0095    0.0025    0.0130   -0.0150   -0.0165   -0.0064   -0.0108   -0.0034
          27    0.0003    0.0232    0.0138   -0.0088   -0.0012    0.0243   -0.0092   -0.0342
          28    0.0094    0.0106   -0.0258    0.0009   -0.0026    0.0091   -0.0156   -0.0036
          29   -0.0057   -0.0166    0.0239   -0.0105   -0.0110   -0.0125    0.0004    0.0103
          30    0.0338   -0.0003    0.0123    0.0130    0.0215   -0.0089    0.0119    0.0082
          31   -0.0105   -0.0113   -0.0242   -0.0008   -0.0249    0.0183    0.0271   -0.0164
          32   -0.0157   -0.0028    0.0216   -0.0166   -0.0146   -0.0175   -0.0181   -0.0039
          33    0.0222    0.0101    0.0105    0.0074    0.0163   -0.0125   -0.0002   -0.0040
          34    0.0527    0.0354   -0.0127    0.0129   -0.0147   -0.0234    0.0493    0.0306
          35    0.0349   -0.0227   -0.0054    0.0097    0.0380   -0.0055   -0.0601   -0.0781
          36   -0.0068   -0.0186    0.0028    0.0043    0.0320    0.0002   -0.0511   -0.0354
          37    0.0279    0.0239   -0.0359    0.0139    0.0057   -0.0288   -0.0219   -0.0359
          38    0.0219    0.0061   -0.0359    0.0099   -0.0052   -0.0218    0.0015   -0.0353
          39   -0.0081   -0.0308    0.0078    0.0043    0.0507    0.0043   -0.0869   -0.0636
          40    0.0216   -0.0099    0.0717   -0.0241   -0.0088    0.0638    0.0031   -0.0535
          41    0.0224   -0.0190    0.0038    0.0005    0.0100    0.0038   -0.0203   -0.0574
          42   -0.0183    0.0205   -0.0043   -0.0088   -0.0261    0.0228    0.0286    0.0041
          43    0.0212   -0.0052    0.0500   -0.0160   -0.0084    0.0415    0.0045   -0.0422
          44    0.0319    0.0094   -0.0607    0.0237    0.0076   -0.0532   -0.0084   -0.0183
          45   -0.0422   -0.0047   -0.0391    0.0060   -0.0177   -0.0379    0.0127    0.0107
          46   -0.0210   -0.0447    0.0356   -0.0071    0.0115   -0.0395   -0.0455   -0.0263
          47    0.0083    0.0285   -0.0389   -0.0041   -0.0528    0.0237    0.0701   -0.0022
          48   -0.0406    0.0176   -0.0259   -0.0077   -0.0459    0.0118    0.0544    0.0298
          49   -0.0133   -0.0203   -0.0210    0.0030   -0.0337   -0.0141    0.0466   -0.0101
          50    0.0065    0.0365   -0.0452   -0.0057   -0.0660    0.0336    0.0907    0.0056
          51   -0.0274   -0.0089   -0.0248    0.0061   -0.0038   -0.0251   -0.0007   -0.0021
          52    0.0490    0.0435   -0.0525    0.0259    0.0119   -0.0584   -0.0163   -0.0427
          53    0.0160   -0.0422    0.0519   -0.0177   -0.0162    0.0547    0.0311    0.0009
          54    0.0389   -0.0092    0.0229    0.0096    0.0186    0.0163    0.0235    0.0098
          55    0.0330    0.0154    0.0026    0.0038   -0.0089   -0.0081    0.0179    0.0031
          56    0.0107   -0.0451    0.0610   -0.0217   -0.0198    0.0567    0.0353    0.0109
          57    0.0280    0.0176   -0.0027    0.0189    0.0233   -0.0496    0.0016    0.0143
          58   -0.0388   -0.0506   -0.0099    0.0044   -0.0224   -0.0612    0.0219    0.0267
          59   -0.0192    0.0145    0.0236   -0.0286   -0.0230    0.0269   -0.0272   -0.0346
          60   -0.0044    0.0311    0.0206   -0.0171   -0.0047    0.0458   -0.0195   -0.0545
          61   -0.0110   -0.0325    0.0237   -0.0045   -0.0046   -0.0283   -0.0082   -0.0220
          62   -0.0080   -0.0177    0.0196   -0.0060   -0.0047   -0.0517   -0.0117    0.0282
          63    0.0064    0.0377    0.0333   -0.0201    0.0023    0.0571   -0.0302   -0.0713
          64   -0.0252   -0.0185   -0.0259   -0.0109   -0.0437    0.0630    0.0541   -0.0201
          65   -0.0282    0.0063    0.0244   -0.0230   -0.0203   -0.0231   -0.0333   -0.0243
          66    0.0297    0.0099    0.0106    0.0117    0.0231   -0.0233   -0.0042    0.0020
          67   -0.0811   -0.0289    0.0599    0.5051   -0.1377    0.0385   -0.0464    0.0013
          68   -0.0341    0.0857    0.0262    0.1895   -0.0480    0.0144   -0.0217    0.0200
          69   -0.0553    0.0959    0.0355    0.0773   -0.0711   -0.0088   -0.0104   -0.0026


   Root No.       9        10        11        12        13        14        15        16

                 9 A      10 A      11 A      12 A      13 A      14 A      15 A      16 A   

                 279.1     341.7     350.3     394.9     435.8     451.3     508.9     564.1
  
           1   -0.0531    0.0047    0.0054   -0.0077   -0.0048   -0.0005   -0.0048   -0.0057
           2    0.0010    0.0087    0.0032   -0.0286   -0.0258   -0.0261   -0.0104   -0.0231
           3   -0.0074   -0.0202   -0.0065   -0.0241   -0.0318    0.0694   -0.0018    0.0094
           4   -0.0336    0.0035    0.0066    0.0109    0.0109    0.0139   -0.0170   -0.0170
           5    0.0265   -0.0018   -0.0004   -0.0228    0.0306    0.0050   -0.0008    0.0004
           6    0.0191   -0.0010    0.0016    0.0710   -0.0327   -0.0037    0.0014    0.0015
           7    0.0710   -0.0035   -0.0025   -0.0114    0.0274   -0.0001    0.0037    0.0042
           8    0.0027   -0.0003    0.0011   -0.0393    0.0355    0.0063   -0.0025   -0.0011
           9    0.0029    0.0005    0.0002   -0.0175    0.0120    0.0023   -0.0014   -0.0010
          10   -0.0038   -0.0024   -0.0009    0.0164   -0.0112    0.0023    0.0007    0.0008
          11    0.0117   -0.0019   -0.0001    0.0625   -0.0316   -0.0040    0.0019    0.0012
          12   -0.0138    0.0014   -0.0000   -0.0545    0.0264    0.0031   -0.0011   -0.0006
          13    0.0137    0.0127   -0.0254    0.0187    0.0145   -0.0029   -0.0279    0.0081
          14    0.0068   -0.0187    0.0111    0.0226    0.0208   -0.0053   -0.0185    0.0077
          15   -0.0068   -0.0287   -0.0157    0.0044    0.0040   -0.0106   -0.0228    0.0072
          16   -0.0043   -0.0206   -0.0122   -0.0140   -0.0177   -0.0320    0.0083   -0.0122
          17    0.0170   -0.0001    0.0023    0.0228    0.0197    0.0030   -0.0192    0.0056
          18    0.0179    0.0184   -0.0316   -0.0198   -0.0238   -0.0111    0.0146   -0.0133
          19   -0.0057   -0.0008    0.0199    0.0266    0.0210    0.0289    0.0152   -0.0199
          20   -0.0014    0.0322   -0.0116    0.0148    0.0085    0.0205    0.0160   -0.0056
          21   -0.0068   -0.0187   -0.0220    0.0043    0.0032   -0.0068   -0.0200    0.0077
          22    0.0070   -0.0145   -0.0183   -0.0141   -0.0194   -0.0119    0.0046   -0.0066
          23   -0.0172   -0.0296   -0.0088    0.0029    0.0046   -0.0356    0.0133   -0.0089
          24   -0.0123    0.0300    0.0192   -0.0034    0.0023   -0.0311   -0.0045   -0.0058
          25   -0.0162    0.0037    0.0025    0.0230    0.0171    0.0199    0.0058   -0.0107
          26   -0.0162    0.0093    0.0081   -0.0166   -0.0272    0.0166    0.0147    0.0460
          27    0.0259   -0.0203    0.0271    0.0123    0.0126    0.0126    0.0091   -0.0120
          28    0.0050   -0.0038   -0.0110   -0.0210   -0.0049   -0.0050    0.0317    0.0315
          29   -0.0151    0.0029    0.0035   -0.0243   -0.0349    0.0028   -0.0235   -0.0274
          30   -0.0124    0.0224    0.0157    0.0050    0.0094   -0.0331   -0.0017   -0.0074
          31    0.0281    0.0158    0.0329   -0.0332   -0.0371   -0.0137    0.0028    0.0256
          32   -0.0246    0.0005   -0.0015   -0.0011   -0.0094    0.0232    0.0106    0.0157
          33   -0.0161    0.0224    0.0157    0.0277    0.0329   -0.0159    0.0241    0.0284
          34   -0.0412   -0.0317    0.0363   -0.0032    0.0073   -0.0668   -0.0155    0.0064
          35    0.0526    0.0507   -0.0233    0.0022   -0.0115    0.0239    0.0269   -0.0236
          36    0.0330    0.0295   -0.0482   -0.0257   -0.0352    0.0016    0.0276   -0.0230
          37    0.0217   -0.0169   -0.0343   -0.0229   -0.0363   -0.0094    0.0221   -0.0226
          38    0.0049   -0.0284    0.0180    0.0301    0.0301   -0.0033   -0.0391    0.0176
          39    0.0617    0.0573   -0.0767   -0.0396   -0.0587    0.0214    0.0575   -0.0422
          40    0.0357    0.0532   -0.0633    0.0333    0.0303   -0.0005   -0.0894    0.0600
          41    0.0241    0.0048   -0.0003    0.0357    0.0346    0.0035   -0.0463    0.0297
          42   -0.0023   -0.0095   -0.0463    0.0044    0.0044   -0.0183   -0.0568    0.0376
          43    0.0241    0.0323   -0.0463    0.0232    0.0194   -0.0051   -0.0587    0.0344
          44   -0.0099   -0.0614    0.0362   -0.0051   -0.0077   -0.0310    0.0380   -0.0407
          45   -0.0259   -0.0551    0.0272    0.0108    0.0093    0.0143    0.0269   -0.0354
          46   -0.0150   -0.0366    0.0543    0.0012   -0.0082    0.0186    0.0019    0.0629
          47   -0.0001    0.0583   -0.0337    0.0254    0.0198    0.0310    0.0305   -0.0524
          48   -0.0192    0.0263   -0.0496   -0.0005   -0.0057    0.0196    0.0189   -0.0356
          49   -0.0111    0.0240   -0.0083    0.0457    0.0422    0.0400    0.0276   -0.0852
          50   -0.0009    0.0790   -0.0470    0.0283    0.0222    0.0411    0.0449   -0.0791
          51   -0.0131   -0.0506   -0.0078    0.0091    0.0099   -0.0189   -0.0408    0.0246
          52    0.0281    0.0191    0.0086    0.0008   -0.0172    0.0386   -0.0705   -0.0093
          53   -0.0304   -0.0580   -0.0213    0.0133    0.0275   -0.0808    0.0690    0.0049
          54   -0.0219    0.0037    0.0119    0.0162    0.0340   -0.0704    0.0416    0.0120
          55   -0.0156   -0.0328   -0.0216   -0.0207   -0.0243   -0.0538    0.0300   -0.0195
          56   -0.0373   -0.0597   -0.0239    0.0045    0.0175   -0.0905    0.0721   -0.0039
          57   -0.0069    0.0612    0.0442   -0.0187   -0.0342    0.0138   -0.0829   -0.0403
          58   -0.0650    0.0044   -0.0510    0.0294    0.0232    0.0002   -0.0246    0.0437
          59    0.0285   -0.0252    0.0383   -0.0407   -0.0569    0.0451    0.0136   -0.0150
          60    0.0550   -0.0410    0.0482   -0.0026   -0.0055    0.0305    0.0099   -0.0517
          61   -0.0167   -0.0004    0.0235    0.0348    0.0287    0.0381    0.0222   -0.0225
          62   -0.0744    0.0294   -0.0238    0.0140    0.0065    0.0019    0.0169    0.1077
          63    0.0713   -0.0409    0.0733    0.0007   -0.0015    0.0431    0.0253   -0.0757
          64    0.0613    0.0355    0.1008   -0.0842   -0.1070   -0.0510   -0.0480    0.0435
          65   -0.0233   -0.0227   -0.0172    0.0282    0.0211    0.0625    0.0374    0.0162
          66   -0.0255    0.0214    0.0000    0.0347    0.0448   -0.0139    0.0320    0.0227
          67   -0.0263    0.0026    0.0036   -0.0003    0.0025    0.0016   -0.0027   -0.0020
          68    0.0034    0.0000    0.0015    0.0573   -0.0273   -0.0046    0.0008    0.0003
          69    0.0074    0.0009    0.0001    0.0467   -0.0337   -0.0091    0.0036    0.0024


   Root No.      17        18        19        20        21        22        23        24

                17 A      18 A      19 A      20 A      21 A      22 A      23 A      24 A   

                 629.1     674.1     785.8     835.1     854.3     879.1     908.0     929.6
  
           1    0.0374   -0.0008    0.0599    0.0148    0.0140   -0.0018    0.0069    0.0064
           2    0.0347    0.0245   -0.0002   -0.0329    0.0089    0.0025   -0.0257   -0.0125
           3    0.0073    0.0031    0.0034   -0.0048    0.0022   -0.0012   -0.0092   -0.0010
           4   -0.0498   -0.0017   -0.0557   -0.0223   -0.0065    0.0018   -0.0114   -0.0066
           5   -0.0176    0.0250   -0.0016    0.0008   -0.0018    0.0003    0.0001   -0.0010
           6    0.0138   -0.0322   -0.0011    0.0004    0.0002   -0.0000    0.0003    0.0006
           7    0.0086   -0.0214    0.0114    0.0070    0.0018   -0.0006    0.0042    0.0026
           8    0.0064   -0.0302    0.0144    0.0077    0.0041   -0.0011    0.0050    0.0041
           9   -0.0373    0.1206    0.0247    0.0059    0.0035   -0.0007    0.0022    0.0018
          10   -0.0015    0.0097    0.0024    0.0005    0.0003   -0.0001    0.0001    0.0001
          11    0.0068   -0.0057    0.0024    0.0008    0.0005   -0.0001    0.0004    0.0004
          12    0.0213   -0.0884   -0.0211   -0.0049   -0.0031    0.0006   -0.0018   -0.0015
          13   -0.0020   -0.0043    0.0081    0.0179   -0.0156    0.0402   -0.0179   -0.0143
          14    0.0016    0.0004   -0.0043    0.0119    0.0123    0.0006   -0.0197    0.0045
          15    0.0023    0.0014   -0.0052    0.0204    0.0050    0.0038   -0.0042   -0.0279
          16   -0.0244   -0.0159    0.0008    0.0142   -0.0016    0.0025    0.0041    0.0126
          17    0.0064    0.0037    0.0032   -0.0097   -0.0159   -0.0109    0.0098   -0.0024
          18   -0.0082    0.0004   -0.0199    0.0456   -0.0158   -0.0113   -0.0113    0.0137
          19    0.0023   -0.0020    0.0028    0.0202    0.0032    0.0068   -0.0067   -0.0089
          20   -0.0048   -0.0034   -0.0089    0.0192    0.0274    0.0273   -0.0016    0.0148
          21   -0.0011   -0.0027    0.0076   -0.0186    0.0005    0.0043    0.0130    0.0091
          22   -0.0145   -0.0089    0.0012   -0.0113    0.0060   -0.0182    0.0065   -0.0082
          23   -0.0066   -0.0019    0.0042   -0.0088   -0.0235    0.0071    0.0422   -0.0093
          24    0.0216    0.0213   -0.0199    0.0253   -0.0055    0.0058    0.0062    0.0266
          25    0.0034    0.0018   -0.0052   -0.0053    0.0082   -0.0153    0.0121    0.0147
          26   -0.0216   -0.0096   -0.0102    0.0236   -0.0047    0.0012    0.0132   -0.0071
          27   -0.0019   -0.0052    0.0200   -0.0351   -0.0129    0.0014   -0.0198    0.0370
          28    0.0664    0.0610   -0.0228   -0.0185   -0.0166    0.0065   -0.0131   -0.0165
          29   -0.0033    0.0019   -0.0065   -0.0095    0.0024   -0.0003   -0.0079    0.0018
          30   -0.0022   -0.0012    0.0017   -0.0117    0.0110    0.0020    0.0036   -0.0173
          31   -0.0083    0.0042   -0.0210   -0.0266    0.0024    0.0053    0.0120    0.0080
          32   -0.0043   -0.0025    0.0033    0.0034   -0.0070   -0.0122   -0.0039   -0.0016
          33   -0.0185   -0.0133    0.0117   -0.0216    0.0031   -0.0077    0.0006   -0.0294
          34    0.0384    0.0454   -0.0652    0.1000   -0.0637   -0.0426   -0.0001    0.1031
          35   -0.0405   -0.0380    0.0485   -0.0981    0.0315    0.0253    0.0585    0.0456
          36   -0.0323   -0.0226    0.0046    0.0094    0.0080    0.0062   -0.0009   -0.0027
          37   -0.0650   -0.0546    0.0338   -0.0352    0.0556   -0.0172   -0.0084   -0.0195
          38    0.0206    0.0167   -0.0187    0.0254   -0.0160   -0.0728   -0.0315   -0.0159
          39   -0.0750   -0.0621    0.0462   -0.0539    0.0507    0.0458    0.0251   -0.0053
          40    0.0292    0.0241   -0.0327   -0.0001    0.0488   -0.0764    0.0039    0.0108
          41    0.0229    0.0187   -0.0239    0.0086    0.0236   -0.0770   -0.0349    0.0142
          42    0.0108    0.0105   -0.0265    0.0012    0.0644   -0.0344    0.0420   -0.0112
          43    0.0115    0.0087   -0.0116    0.0060    0.0137   -0.0164   -0.0016    0.0056
          44   -0.0374   -0.0304    0.0269    0.0398   -0.0559    0.0946   -0.0418    0.0097
          45   -0.0099   -0.0150    0.0304    0.0354   -0.0316    0.1004   -0.0342   -0.0894
          46   -0.0214   -0.0096   -0.0322    0.0463    0.0731    0.0687    0.0403    0.0266
          47    0.0064    0.0003    0.0095    0.0054   -0.0202   -0.0176   -0.0135   -0.0072
          48    0.0021   -0.0008    0.0183   -0.0276   -0.0702   -0.0685    0.0576   -0.0277
          49    0.0230    0.0071    0.0186    0.0105   -0.0288   -0.0682   -0.0110   -0.0500
          50    0.0114    0.0022    0.0186    0.0039   -0.0573   -0.0465   -0.0159   -0.0246
          51    0.0017    0.0002   -0.0091   -0.0076    0.0706    0.0136    0.0256    0.0094
          52    0.0019   -0.0102    0.0387   -0.0441   -0.0639    0.0130    0.1274   -0.0485
          53   -0.0254   -0.0093   -0.0105   -0.0024    0.0223   -0.0203   -0.0100    0.0081
          54    0.0030    0.0107   -0.0241    0.0205    0.0304   -0.0180   -0.0181    0.0335
          55   -0.0530   -0.0366   -0.0023    0.0046    0.0643   -0.0416   -0.0213    0.0286
          56   -0.0367   -0.0173   -0.0132    0.0030    0.0423   -0.0280   -0.0263    0.0181
          57    0.0174    0.0056    0.0097    0.0242   -0.0424    0.0394    0.1037    0.0300
          58   -0.0215   -0.0242    0.0532   -0.0807   -0.0488    0.0025   -0.0201    0.1395
          59    0.0187    0.0273   -0.0713    0.0874    0.0219   -0.0228    0.0869   -0.0314
          60    0.0239    0.0185   -0.0197    0.0065    0.0069   -0.0136    0.0260    0.0153
          61    0.0025   -0.0025    0.0005    0.0355    0.0069   -0.0681    0.0082   -0.0444
          62   -0.0659   -0.0538    0.0660   -0.0215   -0.0571   -0.0138   -0.0572    0.0252
          63    0.0341    0.0269   -0.0362    0.0415    0.0282   -0.0414    0.0333   -0.0494
          64   -0.1355   -0.1322    0.1480    0.0680   -0.0424   -0.0745   -0.0772   -0.0429
          65    0.0210    0.0261   -0.0415   -0.0338   -0.0144   -0.0001    0.0233    0.0938
          66    0.0120    0.0190   -0.0261   -0.0405    0.0179    0.0120    0.0200   -0.0391
          67    0.0010   -0.0167   -0.0038   -0.0007   -0.0000    0.0000   -0.0000   -0.0000
          68    0.0105   -0.0233   -0.0011    0.0000    0.0002   -0.0000    0.0002    0.0002
          69    0.0245   -0.0488   -0.0134   -0.0056   -0.0030    0.0008   -0.0036   -0.0030


   Root No.      25        26        27        28        29        30        31        32

                25 A      26 A      27 A      28 A      29 A      30 A      31 A      32 A   

                 953.5     957.5     991.1    1028.5    1065.2    1094.4    1109.1    1131.4
  
           1    0.0181   -0.0039   -0.0027   -0.0032    0.0022   -0.0000    0.0009    0.0006
           2   -0.0020   -0.0041   -0.0034   -0.0139    0.0029    0.0042    0.0005   -0.0008
           3    0.0028    0.0005    0.0017   -0.0037   -0.0002    0.0001    0.0010    0.0003
           4   -0.0094    0.0017    0.0004   -0.0026   -0.0000    0.0005   -0.0008   -0.0002
           5   -0.0047    0.0015    0.0012    0.0028   -0.0030    0.0013   -0.0011    0.0051
           6    0.0012   -0.0000   -0.0000   -0.0001    0.0004   -0.0001    0.0001    0.0000
           7    0.0039   -0.0004   -0.0005    0.0001    0.0007   -0.0005    0.0002   -0.0006
           8    0.0093   -0.0018   -0.0017   -0.0025    0.0032   -0.0016    0.0011   -0.0044
           9    0.0040   -0.0008   -0.0007   -0.0009    0.0010   -0.0005    0.0003   -0.0013
          10    0.0003   -0.0000   -0.0000   -0.0001    0.0001   -0.0000    0.0000   -0.0000
          11    0.0009   -0.0001   -0.0001   -0.0002    0.0003   -0.0002    0.0001   -0.0004
          12   -0.0035    0.0007    0.0006    0.0008   -0.0009    0.0004   -0.0003    0.0011
          13    0.0187    0.0203    0.0041   -0.0023   -0.0015   -0.0021   -0.0011   -0.0129
          14    0.0082    0.0045    0.0168    0.0144   -0.0081   -0.0019    0.0039   -0.0014
          15    0.0065   -0.0039    0.0014    0.0112    0.0130   -0.0004   -0.0138    0.0038
          16    0.0033    0.0024    0.0139   -0.0034   -0.0005    0.0162    0.0096    0.0278
          17    0.0015    0.0130   -0.0162   -0.0129    0.0097    0.0063    0.0013   -0.0086
          18    0.0120   -0.0337   -0.0038   -0.0150   -0.0056   -0.0037    0.0034   -0.0037
          19   -0.0169   -0.0064   -0.0194    0.0066    0.0079   -0.0011    0.0169    0.0278
          20   -0.0249   -0.0266   -0.0065   -0.0109   -0.0041    0.0029   -0.0071   -0.0075
          21   -0.0084    0.0215   -0.0038   -0.0089   -0.0053    0.0014    0.0198   -0.0112
          22   -0.0077   -0.0106   -0.0223   -0.0043    0.0057   -0.0239   -0.0086   -0.0261
          23   -0.0151   -0.0307    0.0055    0.0089   -0.0076   -0.0004   -0.0020    0.0083
          24   -0.0178    0.0289    0.0005    0.0178    0.0126   -0.0015   -0.0164    0.0093
          25    0.0022    0.0015    0.0169   -0.0129   -0.0193    0.0060   -0.0209   -0.0233
          26    0.0055    0.0161   -0.0086    0.0069    0.0082    0.0018    0.0059    0.0079
          27   -0.0089   -0.0187   -0.0050    0.0060    0.0068    0.0054   -0.0023    0.0052
          28   -0.0411    0.0052    0.0097    0.0130   -0.0136    0.0059   -0.0006   -0.0010
          29    0.0039   -0.0030   -0.0001    0.0010    0.0021    0.0002    0.0042   -0.0004
          30    0.0042    0.0003   -0.0072   -0.0052   -0.0072    0.0054   -0.0003   -0.0011
          31    0.0519   -0.0092    0.0022    0.0064    0.0164   -0.0056    0.0047    0.0019
          32    0.0006    0.0067    0.0143   -0.0030   -0.0135   -0.0159   -0.0019    0.0042
          33    0.0152   -0.0133    0.0103   -0.0127   -0.0243   -0.0074    0.0089   -0.0016
          34   -0.0131   -0.0140    0.0032   -0.0917    0.0393   -0.0237    0.1141   -0.0134
          35   -0.0661    0.1257    0.0180   -0.0176    0.0674   -0.0128    0.0848   -0.0226
          36    0.0044   -0.0126    0.0037    0.0075   -0.0056    0.0027   -0.0123    0.0062
          37    0.0216    0.0294   -0.0070    0.0723   -0.0225    0.1060   -0.0434    0.1437
          38    0.0493   -0.0190   -0.0661    0.0218   -0.0219    0.0868   -0.0420    0.0714
          39   -0.0260    0.0395    0.0367    0.0297    0.0087   -0.0006   -0.0031    0.0254
          40   -0.0153   -0.0217   -0.0016    0.0270   -0.0009   -0.0013    0.0130    0.0268
          41    0.0134   -0.0146   -0.0548    0.0726   -0.0379   -0.0444    0.0452    0.0006
          42   -0.0400   -0.0253    0.0848   -0.0272    0.0527    0.0551   -0.0488    0.0425
          43    0.0025    0.0007    0.0152   -0.0031   -0.0044    0.0107    0.0056    0.0094
          44    0.0727    0.0537    0.1056   -0.0400   -0.0362    0.0616    0.0008   -0.0468
          45    0.0076    0.0249   -0.0939    0.0518    0.0437   -0.0781   -0.0245   -0.0266
          46   -0.0802   -0.0430   -0.1041   -0.0417   -0.0067    0.0959    0.0440   -0.0115
          47    0.0105    0.0046    0.0140    0.0111    0.0024   -0.0150   -0.0063    0.0045
          48    0.0232    0.0884   -0.0849   -0.0080    0.0009    0.1145    0.0798   -0.0401
          49    0.0004    0.0330    0.0524    0.0359    0.0391   -0.0764    0.0803    0.1149
          50    0.0342    0.0234   -0.0087    0.0256    0.0052    0.0090   -0.0050    0.0146
          51   -0.0636    0.0037    0.0801   -0.0208    0.0200   -0.0922    0.0893    0.0557
          52   -0.0424   -0.0531   -0.0264   -0.0596    0.0514   -0.0594   -0.0968    0.0355
          53   -0.0028    0.0399   -0.0238   -0.0215    0.0333   -0.0190   -0.0416    0.0096
          54   -0.0146    0.1099   -0.0409   -0.0447    0.0870   -0.0411   -0.1088    0.0362
          55    0.0032    0.0189   -0.0345    0.1368   -0.0257   -0.0367    0.0195   -0.1262
          56    0.0048    0.0283   -0.0215    0.0461   -0.0026   -0.0149    0.0038   -0.0478
          57   -0.0409   -0.0437    0.0360    0.1840   -0.0537    0.0091    0.0177   -0.0429
          58   -0.0142    0.0395   -0.0328   -0.0041   -0.1061   -0.0064   -0.0725    0.0213
          59    0.0219    0.1187   -0.0106   -0.0206   -0.0921   -0.0155   -0.0355    0.0030
          60    0.0003    0.0393   -0.0042   -0.0117   -0.0483   -0.0028   -0.0221   -0.0006
          61   -0.0293   -0.0120    0.0905    0.0160    0.1127    0.0752   -0.0374   -0.1237
          62   -0.0356   -0.0380    0.0198    0.0610    0.1505    0.0555   -0.0009   -0.0331
          63   -0.0061    0.0123    0.0480   -0.0084    0.0270    0.0313   -0.0127   -0.0637
          64   -0.1639    0.0251    0.0287   -0.0324   -0.0639   -0.0261   -0.0314   -0.0055
          65    0.0851   -0.0123    0.0301    0.0265    0.0362   -0.0662   -0.0637    0.0261
          66    0.0574   -0.0185   -0.0010   -0.0095   -0.0154    0.0109    0.0352   -0.0052
          67    0.0006   -0.0001   -0.0002   -0.0005    0.0004   -0.0003    0.0001   -0.0009
          68    0.0007   -0.0001   -0.0002   -0.0003    0.0004   -0.0002    0.0001   -0.0006
          69   -0.0065    0.0009    0.0013    0.0019   -0.0027    0.0015   -0.0007    0.0041


   Root No.      33        34        35        36        37        38        39        40

                33 A      34 A      35 A      36 A      37 A      38 A      39 A      40 A   

                1132.5    1154.8    1158.6    1161.7    1166.9    1235.1    1269.1    1293.6
  
           1   -0.0003    0.0602   -0.0014    0.0001    0.0002    0.0011    0.0014    0.0006
           2   -0.0008   -0.0142   -0.0015    0.0001   -0.0035    0.0091    0.0235    0.0079
           3    0.0028   -0.0009   -0.0006    0.0000   -0.0008    0.0009    0.0047    0.0033
           4    0.0004   -0.0251    0.0000   -0.0001   -0.0014    0.0019    0.0057    0.0020
           5    0.0019    0.1886   -0.0038   -0.0000   -0.0009    0.0011    0.0014    0.0007
           6    0.0000   -0.0032    0.0001    0.0000    0.0000   -0.0001   -0.0001    0.0000
           7   -0.0004   -0.0203    0.0005    0.0000    0.0004   -0.0005   -0.0012   -0.0005
           8   -0.0019   -0.1597    0.0033    0.0001    0.0010   -0.0012   -0.0020   -0.0008
           9   -0.0005   -0.0439    0.0009    0.0000    0.0002   -0.0002   -0.0004   -0.0003
          10    0.0000   -0.0016    0.0000   -0.0000   -0.0000   -0.0000    0.0001    0.0001
          11   -0.0002   -0.0162    0.0003   -0.0000    0.0001   -0.0002   -0.0003   -0.0002
          12    0.0004    0.0369   -0.0007   -0.0000   -0.0002    0.0001    0.0002    0.0001
          13    0.0030    0.0044    0.0175   -0.0020   -0.0030    0.0028    0.0021    0.0066
          14   -0.0140   -0.0064   -0.0385    0.0045   -0.0106    0.0089   -0.0110    0.0183
          15    0.0087   -0.0057   -0.0322    0.0016    0.0141   -0.0079    0.0168   -0.0157
          16    0.0060   -0.0082   -0.0101    0.0253   -0.0001    0.0090   -0.0181    0.0075
          17    0.0147    0.0068    0.0241   -0.0168    0.0175    0.0081   -0.0186    0.0002
          18   -0.0039    0.0058    0.0095   -0.0041    0.0009   -0.0007    0.0061    0.0102
          19   -0.0053   -0.0068   -0.0166   -0.0214    0.0030   -0.0075    0.0082   -0.0215
          20    0.0008    0.0037    0.0153    0.0069   -0.0021    0.0024    0.0053    0.0007
          21   -0.0004    0.0062    0.0221    0.0083   -0.0181   -0.0133    0.0009   -0.0246
          22   -0.0106    0.0106   -0.0005   -0.0173   -0.0001    0.0080   -0.0196   -0.0236
          23   -0.0020   -0.0075   -0.0022    0.0082   -0.0018    0.0028   -0.0001   -0.0079
          24    0.0058   -0.0089    0.0010   -0.0006   -0.0083    0.0011   -0.0259   -0.0150
          25    0.0105    0.0044    0.0023    0.0146    0.0002   -0.0161   -0.0125   -0.0033
          26   -0.0210    0.0001    0.0002   -0.0036    0.0049   -0.0088   -0.0024   -0.0092
          27   -0.0110    0.0012   -0.0027   -0.0042    0.0048   -0.0102   -0.0102    0.0040
          28    0.0026   -0.0237    0.0014    0.0001    0.0001   -0.0024   -0.0013   -0.0006
          29   -0.0006    0.0100    0.0009    0.0006    0.0044   -0.0114   -0.0257   -0.0062
          30   -0.0150    0.0077    0.0012    0.0024    0.0051    0.0186    0.0011   -0.0189
          31   -0.0005    0.0085    0.0009   -0.0001    0.0017   -0.0028   -0.0033    0.0057
          32    0.0245   -0.0022   -0.0017   -0.0024   -0.0032   -0.0227   -0.0187    0.0132
          33    0.0141   -0.0035   -0.0024    0.0008    0.0023    0.0048    0.0098    0.0087
          34    0.0537    0.0163   -0.0249    0.0593    0.0814   -0.0268    0.1046    0.0376
          35    0.0733    0.0008   -0.0509    0.0394    0.0922   -0.0311    0.0887   -0.0455
          36   -0.0068   -0.0019    0.0010   -0.0035   -0.0081    0.0024   -0.0088   -0.0004
          37    0.0473   -0.0375    0.0942    0.0594   -0.0020   -0.0294    0.0482    0.0075
          38    0.0541   -0.0006    0.1719   -0.0173    0.0273   -0.0297    0.0508   -0.0197
          39   -0.0052   -0.0182   -0.0572    0.0311   -0.0119    0.0026   -0.0050    0.0309
          40   -0.0096   -0.0141   -0.0533    0.0232   -0.0118   -0.0013    0.0178    0.0105
          41   -0.0335   -0.0106   -0.0660    0.1316   -0.0941   -0.0282    0.0402   -0.0307
          42    0.0193   -0.0217   -0.0846   -0.1290    0.1095    0.0344   -0.0269    0.0540
          43   -0.0055   -0.0031   -0.0067   -0.0131   -0.0098   -0.0061    0.0046   -0.0147
          44   -0.0414    0.0052   -0.0135   -0.0998   -0.0697   -0.0445    0.0750   -0.0462
          45    0.0554    0.0066    0.0195    0.1068    0.0748    0.0570   -0.0442    0.0982
          46    0.0198   -0.0085   -0.0332   -0.0437   -0.0618    0.0553    0.0147    0.0530
          47   -0.0094    0.0001    0.0013    0.0068    0.0088   -0.0083   -0.0035   -0.0067
          48    0.0175   -0.0123   -0.0719   -0.0358   -0.0991    0.0662   -0.0389    0.1014
          49   -0.0600   -0.0118    0.0475   -0.0681   -0.0068    0.0393    0.0072    0.0347
          50   -0.0107   -0.0111   -0.0538   -0.0106    0.0124   -0.0028    0.0181   -0.0164
          51   -0.0477    0.0198    0.1830   -0.0180   -0.0494    0.0463   -0.0189    0.0625
          52   -0.0413    0.0015   -0.0265    0.0009   -0.0736   -0.0762    0.0963    0.0666
          53   -0.0007    0.0024    0.0028   -0.0125   -0.0230   -0.0334    0.0103    0.0347
          54   -0.0055    0.0008   -0.0030   -0.0230   -0.0693   -0.0823    0.0317    0.0818
          55    0.0186    0.0215    0.0334   -0.0994    0.0211   -0.0317    0.0699    0.0483
          56    0.0090    0.0102    0.0168   -0.0401    0.0099   -0.0160    0.0333    0.0145
          57    0.0351   -0.0291    0.0231   -0.0414    0.0045   -0.0276    0.0511    0.0617
          58   -0.1125   -0.0113   -0.0097    0.0126    0.0889    0.0624    0.0321    0.0667
          59   -0.0969   -0.0082    0.0160    0.0251    0.0558    0.0748    0.0695   -0.0200
          60   -0.0486   -0.0027    0.0074    0.0123    0.0291    0.0326    0.0268   -0.0013
          61   -0.0387    0.0344    0.0601    0.0860   -0.0101    0.0392    0.0207    0.0178
          62   -0.0925    0.0202    0.0350    0.0295    0.0073    0.0432    0.0369   -0.0261
          63   -0.0057    0.0164    0.0305    0.0425   -0.0081    0.0051   -0.0060    0.0342
          64    0.0656   -0.0372   -0.0077   -0.0062   -0.0258    0.0452    0.0189   -0.0136
          65    0.1349   -0.0167   -0.0125   -0.0243   -0.0824    0.1844    0.0709   -0.0640
          66   -0.0331    0.0123    0.0028    0.0084    0.0313   -0.0612   -0.0191    0.0345
          67   -0.0004   -0.0317    0.0006    0.0000    0.0002   -0.0002   -0.0009   -0.0007
          68   -0.0003   -0.0221    0.0004    0.0000    0.0001   -0.0001   -0.0004   -0.0003
          69    0.0019    0.1720   -0.0035   -0.0001   -0.0010    0.0022    0.0051    0.0033


   Root No.      41        42        43        44        45        46        47        48

                41 A      42 A      43 A      44 A      45 A      46 A      47 A      48 A   

                1339.6    1363.7    1366.4    1388.1    1396.7    1402.4    1406.6    1411.0
  
           1    0.0016   -0.0047    0.0005    0.0014   -0.0013   -0.0003   -0.0000    0.0009
           2    0.0210   -0.0005    0.0025    0.0127   -0.0100   -0.0063    0.0004    0.0116
           3    0.0048    0.0004    0.0016    0.0020   -0.0012   -0.0013   -0.0004    0.0018
           4    0.0051    0.0040    0.0006    0.0028   -0.0025   -0.0016    0.0000    0.0028
           5    0.0010   -0.0040    0.0003    0.0007   -0.0008   -0.0003   -0.0001    0.0005
           6   -0.0001   -0.0088    0.0004   -0.0000   -0.0000   -0.0000   -0.0001   -0.0000
           7   -0.0009   -0.0068    0.0001   -0.0003    0.0003    0.0002    0.0000   -0.0003
           8   -0.0010    0.0398   -0.0016   -0.0011    0.0009    0.0005    0.0002   -0.0007
           9   -0.0003   -0.0032    0.0000   -0.0001    0.0001    0.0000    0.0000   -0.0000
          10    0.0002    0.0161   -0.0005   -0.0001    0.0001    0.0000    0.0000   -0.0000
          11   -0.0005   -0.0321    0.0010    0.0002   -0.0001   -0.0001   -0.0000    0.0000
          12   -0.0003   -0.0322    0.0011    0.0004   -0.0003   -0.0001   -0.0001    0.0001
          13   -0.0085   -0.0007   -0.0069    0.0011   -0.0042    0.0076   -0.0019   -0.0023
          14    0.0081   -0.0051   -0.0266   -0.0213   -0.0090    0.0131   -0.0256   -0.0010
          15   -0.0142    0.0057    0.0284    0.0250    0.0060    0.0030    0.0286   -0.0254
          16    0.0291    0.0032    0.0283    0.0153    0.0240   -0.0183   -0.0165   -0.0031
          17    0.0267    0.0019    0.0231    0.0057    0.0218   -0.0025    0.0369    0.0016
          18    0.0045   -0.0014   -0.0046   -0.0017   -0.0023   -0.0036   -0.0198    0.0012
          19    0.0203   -0.0025   -0.0066   -0.0353   -0.0089   -0.0201    0.0004   -0.0203
          20   -0.0061    0.0014    0.0076    0.0023    0.0009   -0.0033    0.0061   -0.0126
          21    0.0275   -0.0029   -0.0044   -0.0439    0.0035    0.0065   -0.0217    0.0260
          22   -0.0197    0.0024   -0.0025   -0.0027   -0.0414    0.0115    0.0035    0.0026
          23   -0.0091    0.0006   -0.0059   -0.0006   -0.0126    0.0021   -0.0031    0.0029
          24   -0.0158    0.0028   -0.0045   -0.0021    0.0149   -0.0031    0.0002    0.0022
          25    0.0084   -0.0022   -0.0201    0.0534    0.0015    0.0084    0.0032    0.0139
          26    0.0099   -0.0010   -0.0120    0.0218   -0.0129   -0.0217    0.0174    0.0384
          27   -0.0032   -0.0003   -0.0070    0.0277    0.0010    0.0030    0.0043    0.0021
          28   -0.0052   -0.0010   -0.0026   -0.0036    0.0093    0.0018    0.0005   -0.0054
          29   -0.0272   -0.0005   -0.0019   -0.0195    0.0163    0.0107   -0.0014   -0.0206
          30   -0.0070   -0.0035   -0.0128    0.0007    0.0072   -0.0020    0.0078    0.0029
          31   -0.0058    0.0011    0.0071   -0.0135    0.0011    0.0028   -0.0040   -0.0087
          32   -0.0146    0.0024    0.0115   -0.0193    0.0070    0.0080   -0.0083   -0.0171
          33    0.0021    0.0008    0.0073   -0.0086   -0.0017    0.0029   -0.0047   -0.0068
          34   -0.0228   -0.0166   -0.0749   -0.0507   -0.0281    0.0649    0.1305    0.0127
          35   -0.0860    0.0105    0.0195    0.0575   -0.0394   -0.0377   -0.1452   -0.0315
          36    0.0034    0.0037    0.0163    0.0171    0.0028   -0.0234   -0.0661   -0.0055
          37   -0.0441   -0.0102   -0.0712   -0.0452   -0.0267    0.0450    0.0707    0.0109
          38   -0.0606    0.0003   -0.0287    0.0047   -0.0377   -0.0124   -0.0862   -0.0055
          39    0.0266   -0.0120   -0.0434   -0.0577    0.0140    0.0676    0.1941    0.0219
          40   -0.0477    0.0016   -0.0135    0.0347   -0.0131   -0.0618   -0.0080    0.0720
          41   -0.0445    0.0100    0.0398    0.0502    0.0015   -0.0382    0.0298    0.0171
          42   -0.0032   -0.0107   -0.0672   -0.0210   -0.0191   -0.0272   -0.0503    0.0568
[...]
 EFF. MASS   2.1471

 VIBRATION   43   43A         ATOM PAIR      ENERGY CONTRIBUTION    RADIAL
 FREQ.      1366.44         C  5 -- C  6         +15.0% ( 49.1%)     82.0%
 T-DIPOLE    0.0340         C  5 -- H 14         +10.1% ( 40.4%)      0.1%
 TRAVEL      0.0963         C  6 -- H 13          +9.5% ( 39.0%)      0.5%
 RED. MASS   0.6428         C  5 -- H 15          +8.5% ( 36.9%)      0.1%
 EFF. MASS   5.3162

 VIBRATION   44   44A         ATOM PAIR      ENERGY CONTRIBUTION    RADIAL
 FREQ.      1388.07         C  7 -- C  9         +18.6% ( 61.3%)     88.0%
 T-DIPOLE    0.1752         C  9 -- H 21         +13.7% ( 52.7%)      0.4%
 TRAVEL      0.0795         C  9 -- C 11         +11.6% ( 48.4%)     58.7%
 RED. MASS   1.4152         C  9 -- H 20         +11.2% ( 47.5%)      2.3%
 EFF. MASS   7.6886         C  5 -- C  7         +10.1% ( 45.1%)     82.6%

 VIBRATION   45   45A         ATOM PAIR      ENERGY CONTRIBUTION    RADIAL
 FREQ.      1396.71         C  8 -- H 19         +27.4% ( 58.2%)      2.9%
 T-DIPOLE    0.0227         C  8 -- H 18         +22.1% ( 52.3%)      6.1%
 TRAVEL      0.1125         C  6 -- C  8         +13.3% ( 40.6%)     82.5%
 RED. MASS   0.4992         C  8 -- C 10          +8.5% ( 32.5%)      2.4%
 EFF. MASS   3.8121

 VIBRATION   46   46A         ATOM PAIR      ENERGY CONTRIBUTION    RADIAL
 FREQ.      1402.38         C  7 -- H 16         +11.7% ( 36.6%)      4.3%
 T-DIPOLE    0.1113         C  7 -- H 17         +11.5% ( 36.3%)      4.7%
 TRAVEL      0.1209         C  9 -- H 21         +10.4% ( 34.4%)      5.9%
 RED. MASS   0.1929         C  9 -- H 20         +10.2% ( 34.0%)      5.7%
 EFF. MASS   3.2894

 VIBRATION   47   47A         ATOM PAIR      ENERGY CONTRIBUTION    RADIAL
 FREQ.      1406.56         C  6 -- H 13         +22.6% ( 55.3%)      4.0%
 T-DIPOLE    0.0861         C  6 -- H 12         +18.9% ( 50.7%)      6.8%
 TRAVEL      0.1064         C  5 -- C  6         +14.2% ( 43.8%)     71.5%
 RED. MASS   0.5476         C  5 -- C  7          +8.0% ( 33.0%)     85.2%
 EFF. MASS   4.2363

 VIBRATION   48   48A         ATOM PAIR      ENERGY CONTRIBUTION    RADIAL
 FREQ.      1410.98         C  7 -- H 17         +14.1% ( 45.1%)      3.5%
 T-DIPOLE    0.2420         C  7 -- H 16         +11.2% ( 40.2%)      8.3%
 TRAVEL      0.0988         C  7 -- C  9         +10.8% ( 39.4%)     14.0%
 RED. MASS   0.4679         C  9 -- C 11         +10.5% ( 38.9%)     99.9%
 EFF. MASS   4.8946         C  9 -- H 21         +10.1% ( 38.1%)      2.4%

 VIBRATION   49   49A         ATOM PAIR      ENERGY CONTRIBUTION    RADIAL
 FREQ.      1414.93         C  5 -- H 14         +22.7% ( 53.0%)      4.2%
 T-DIPOLE    0.0883         C  5 -- H 15         +19.2% ( 48.8%)      6.3%
 TRAVEL      0.1124         C  5 -- C  6          +8.3% ( 32.0%)     68.9%
 RED. MASS   0.3963         C  9 -- H 20          +7.8% ( 31.0%)      3.3%
 EFF. MASS   3.7701

 VIBRATION   50   50A         ATOM PAIR      ENERGY CONTRIBUTION    RADIAL
 FREQ.      1449.92         C  8 -- C 10         +28.1% ( 76.7%)     85.6%
 T-DIPOLE    0.6167         O  1 -- C 10         +21.9% ( 67.8%)     83.7%
 TRAVEL      0.0668         C 10 -- C 11         +16.9% ( 59.5%)      0.1%
 RED. MASS   3.3403         C  8 -- H 18          +9.7% ( 45.2%)      1.0%
 EFF. MASS  10.4116

 VIBRATION   51   51A         ATOM PAIR      ENERGY CONTRIBUTION    RADIAL
 FREQ.      1820.46         C 10 -- C 11         +43.2% ( 97.0%)     99.3%
 T-DIPOLE    1.8110         C  9 -- C 11         +14.7% ( 56.6%)     56.2%
 TRAVEL      0.0559         C  8 -- C 10         +14.0% ( 55.3%)     40.7%
 RED. MASS   5.4720         O  1 -- C 10         +13.4% ( 54.1%)     24.6%
 EFF. MASS  11.8673         C 11 -- H 22         +13.4% ( 54.0%)      3.4%

 VIBRATION   52   52A         ATOM PAIR      ENERGY CONTRIBUTION    RADIAL
 FREQ.      2937.43         C  9 -- H 21         +59.6% ( 80.1%)     98.0%
 T-DIPOLE    0.0781         C  9 -- H 20         +30.0% ( 56.9%)     93.9%
 TRAVEL      0.1221         C  8 -- H 19          +4.0% ( 20.8%)     98.2%
 RED. MASS   0.4835         C  8 -- H 18          +1.9% ( 14.2%)     93.7%
 EFF. MASS   1.5397

 VIBRATION   53   53A         ATOM PAIR      ENERGY CONTRIBUTION    RADIAL
 FREQ.      2943.74         C  8 -- H 19         +51.9% ( 74.8%)     97.6%
 T-DIPOLE    0.0850         C  8 -- H 18         +32.4% ( 59.1%)     95.0%
 TRAVEL      0.1217         C  9 -- H 21          +3.9% ( 20.4%)     97.2%
 RED. MASS   0.4105         C  9 -- H 20          +2.7% ( 17.1%)     95.3%
 EFF. MASS   1.5475

 VIBRATION   54   54A         ATOM PAIR      ENERGY CONTRIBUTION    RADIAL
 FREQ.      2945.78         C  5 -- H 14         +45.8% ( 70.4%)     97.1%
 T-DIPOLE    0.0320         C  5 -- H 15         +35.9% ( 62.3%)     95.7%
 TRAVEL      0.1217         C  7 -- H 17          +3.5% ( 19.5%)     97.4%
 RED. MASS   0.3725         C  8 -- H 19          +3.1% ( 18.5%)     96.8%
 EFF. MASS   1.5450

 VIBRATION   55   55A         ATOM PAIR      ENERGY CONTRIBUTION    RADIAL
 FREQ.      2955.45         C  7 -- H 16         +30.1% ( 57.0%)     97.0%
 T-DIPOLE    0.0152         C  7 -- H 17         +25.0% ( 51.9%)     95.9%
 TRAVEL      0.1217         C  6 -- H 12         +22.7% ( 49.5%)     97.1%
 RED. MASS   0.2573         C  6 -- H 13         +18.1% ( 44.1%)     95.8%
 EFF. MASS   1.5400

 VIBRATION   56   56A         ATOM PAIR      ENERGY CONTRIBUTION    RADIAL
 FREQ.      2956.75         C  6 -- H 12         +27.9% ( 54.8%)     97.2%
 T-DIPOLE    0.0414         C  6 -- H 13         +21.6% ( 48.3%)     95.7%
 TRAVEL      0.1212         C  7 -- H 16         +19.7% ( 46.0%)     97.1%
 RED. MASS   0.2131         C  7 -- H 17         +15.9% ( 41.4%)     95.8%
 EFF. MASS   1.5523

 VIBRATION   57   57A         ATOM PAIR      ENERGY CONTRIBUTION    RADIAL
 FREQ.      3019.95         C  9 -- H 20         +49.1% ( 69.2%)     99.1%
 T-DIPOLE    0.0958         C  9 -- H 21         +24.7% ( 49.0%)     94.6%
 TRAVEL      0.1317         C  8 -- H 18         +11.7% ( 33.7%)     98.9%
 RED. MASS   0.3148         C  8 -- H 19          +6.3% ( 24.9%)     95.0%
 EFF. MASS   1.2875

 VIBRATION   58   58A         ATOM PAIR      ENERGY CONTRIBUTION    RADIAL
 FREQ.      3022.99         C  8 -- H 18         +45.8% ( 66.7%)     98.6%
 T-DIPOLE    0.1319         C  8 -- H 19         +29.8% ( 53.8%)     96.0%
 TRAVEL      0.1320         C  9 -- H 20         +12.5% ( 34.8%)     98.9%
 RED. MASS   0.3158         C  9 -- H 21          +7.4% ( 26.8%)     95.6%
 EFF. MASS   1.2795

 VIBRATION   59   59A         ATOM PAIR      ENERGY CONTRIBUTION    RADIAL
 FREQ.      3026.29         C  5 -- H 15         +41.6% ( 63.5%)     97.9%
 T-DIPOLE    0.0215         C  5 -- H 14         +39.0% ( 61.5%)     97.4%
 TRAVEL      0.1323         C  7 -- H 17          +5.1% ( 22.3%)     98.9%
 RED. MASS   0.3282         C  6 -- H 13          +4.1% ( 19.9%)     98.9%
 EFF. MASS   1.2726

 VIBRATION   60   60A         ATOM PAIR      ENERGY CONTRIBUTION    RADIAL
 FREQ.      3034.51         C  7 -- H 17         +44.2% ( 65.5%)     97.9%
 T-DIPOLE    0.0442         C  7 -- H 16         +40.5% ( 62.7%)     97.4%
 TRAVEL      0.1322         C  6 -- H 13          +4.5% ( 20.8%)     98.7%
 RED. MASS   0.3609         C  5 -- H 15          +3.1% ( 17.4%)     99.0%
 EFF. MASS   1.2724

 VIBRATION   61   61A         ATOM PAIR      ENERGY CONTRIBUTION    RADIAL
 FREQ.      3035.32         C  6 -- H 13         +43.3% ( 64.8%)     97.9%
 T-DIPOLE    0.0622         C  6 -- H 12         +39.6% ( 61.9%)     97.4%
 TRAVEL      0.1320         C  5 -- H 15          +7.4% ( 26.7%)     99.0%
 RED. MASS   0.3485         C  5 -- H 14          +3.3% ( 18.0%)     94.7%
 EFF. MASS   1.2743

 VIBRATION   62   62A         ATOM PAIR      ENERGY CONTRIBUTION    RADIAL
 FREQ.      3041.98         C 11 -- H 22         +94.5% ( 98.5%)    100.0%
 T-DIPOLE    0.3742         C  9 -- H 20          +2.0% ( 14.2%)     99.7%
 TRAVEL      0.1215         C 10 -- C 11          +1.4% ( 11.9%)     35.4%
 RED. MASS   0.8760         C  9 -- C 11          +1.3% ( 11.6%)     24.5%
 EFF. MASS   1.5024

 VIBRATION   63   63A         ATOM PAIR      ENERGY CONTRIBUTION    RADIAL
 FREQ.      3981.15         O  4 -- H 23         +99.3% (100.0%)    100.0%
 T-DIPOLE    0.4249         O  3 -- O  4          +0.4% (  6.0%)      0.5%
 TRAVEL      0.1107         O  2 -- O  4          +0.4% (  6.0%)     35.5%
 RED. MASS   0.9480
 EFF. MASS   1.3824

      SYMMETRY NUMBER FOR POINT-GROUP C1  =  1


          SYSTEM IS A GROUND STATE



 InChI=1S/C7H12O4/c8-10-11-9-7-5-3-1-2-4-6-7/h5,8H,1-4,6H2


          MOLECULE IS NOT LINEAR

          THERE ARE 63 GENUINE VIBRATIONS IN THIS SYSTEM
          THIS THERMODYNAMICS CALCULATION IS LIMITED TO
          MOLECULES WHICH HAVE NO INTERNAL ROTATIONS




                    CALCULATED THERMODYNAMIC PROPERTIES
                                          *
   TEMP. (K)   PARTITION FUNCTION   H.O.F.    ENTHALPY  HEAT CAPACITY ENTROPY
                                   KCAL/MOL   CAL/MOLE    CAL/K/MOL  CAL/K/MOL


 298.00  VIB.     0.2690D+05                  5714.5794    37.3614    39.4461
         ROT.     0.1079D+07                   888.2813     2.9808    30.5870
         INT.     0.2904D+11                  6602.8607    40.3422    70.0330
         TRA.     0.1960D+28                  1480.4688     4.9680    41.1199
         TOT.                      -10.128    8083.3296    45.3102   111.1530

 200.00  VIB.     0.1079D+04                  2659.2019    25.1995    27.1742
         ROT.     0.5935D+06                   596.1620     2.9808    29.3983
         INT.     0.6404D+09                  3255.3639    28.1803    56.5725
         TRA.     0.1077D+28                   993.6033     4.9680    39.1388
         TOT.                      -13.963    4248.9671    33.1484    95.7113

 210.00  VIB.     0.1506D+04                  2917.0627    26.3754    28.4321
         ROT.     0.6386D+06                   625.9700     2.9808    29.5437
         INT.     0.9619D+09                  3543.0328    29.3562    57.9758
         TRA.     0.1159D+28                  1043.2834     4.9680    39.3812
         TOT.                      -13.625    4586.3162    34.3242    97.3570

 220.00  VIB.     0.2100D+04                  3186.7669    27.5683    29.6865
         ROT.     0.6847D+06                   655.7781     2.9808    29.6824
         INT.     0.1438D+10                  3842.5450    30.5492    59.3689
         TRA.     0.1243D+28                  1092.9636     4.9680    39.6123
         TOT.                      -13.276    4935.5086    35.5172    98.9812

 230.00  VIB.     0.2922D+04                  3468.4876    28.7787    30.9386
         ROT.     0.7319D+06                   685.5862     2.9808    29.8149
         INT.     0.2139D+10                  4154.0739    31.7595    60.7535
         TRA.     0.1329D+28                  1142.6437     4.9680    39.8331
         TOT.                      -12.915    5296.7176    36.7275   100.5866

 240.00  VIB.     0.4062D+04                  3762.3966    30.0058    32.1893
         ROT.     0.7802D+06                   715.3943     2.9808    29.9418
         INT.     0.3169D+10                  4477.7910    32.9866    62.1311
         TRA.     0.1416D+28                  1192.3239     4.9680    40.0446
         TOT.                      -12.541    5670.1149    37.9547   102.1756

 250.00  VIB.     0.5640D+04                  4068.6563    31.2485    33.4393
         ROT.     0.8294D+06                   745.2024     2.9808    30.0635
         INT.     0.4678D+10                  4813.8587    34.2294    63.5028
         TRA.     0.1506D+28                  1242.0041     4.9680    40.2474
         TOT.                      -12.156    6055.8628    39.1974   103.7502

 260.00  VIB.     0.7822D+04                  4387.4133    32.5050    34.6894
         ROT.     0.8797D+06                   775.0105     2.9808    30.1804
         INT.     0.6881D+10                  5162.4238    35.4858    64.8697
         TRA.     0.1597D+28                  1291.6842     4.9680    40.4422
         TOT.                      -11.757    6454.1080    40.4538   105.3119

 270.00  VIB.     0.1084D+05                  4718.7936    33.7728    35.9398
         ROT.     0.9309D+06                   804.8186     2.9808    30.2929
         INT.     0.1009D+11                  5523.6122    36.7536    66.2327
         TRA.     0.1690D+28                  1341.3644     4.9680    40.6297
         TOT.                      -11.347    6864.9766    41.7216   106.8624

 280.00  VIB.     0.1501D+05                  5062.8991    35.0495    37.1911
         ROT.     0.9831D+06                   834.6267     2.9808    30.4013
         INT.     0.1475D+11                  5897.5258    38.0304    67.5924
         TRA.     0.1785D+28                  1391.0445     4.9680    40.8104
         TOT.                      -10.923    7288.5704    42.9984   108.4028

 290.00  VIB.     0.2076D+05                  5419.8051    36.3325    38.4434
         ROT.     0.1036D+07                   864.4348     2.9808    30.5059
         INT.     0.2151D+11                  6284.2400    39.3133    68.9493
         TRA.     0.1881D+28                  1440.7247     4.9680    40.9847
         TOT.                      -10.487    7724.9647    44.2813   109.9340

 300.00  VIB.     0.2870D+05                  5789.5595    37.6187    39.6968
         ROT.     0.1090D+07                   894.2429     2.9808    30.6069
         INT.     0.3130D+11                  6683.8024    40.5996    70.3038
         TRA.     0.1979D+28                  1490.4049     4.9680    41.1532
         TOT.                      -10.037    8174.2073    45.5676   111.4569

 310.00  VIB.     0.3967D+05                  6172.1820    38.9056    40.9513
         ROT.     0.1145D+07                   924.0510     2.9808    30.7047
         INT.     0.4543D+11                  7096.2331    41.8864    71.6560
         TRA.     0.2079D+28                  1540.0850     4.9680    41.3161
         TOT.                       -9.575    8636.3181    46.8545   112.9720

 320.00  VIB.     0.5479D+05                  6567.6653    40.1904    42.2068
         ROT.     0.1201D+07                   953.8591     2.9808    30.7993
         INT.     0.6581D+11                  7521.5244    43.1713    73.0061
         TRA.     0.2181D+28                  1589.7652     4.9680    41.4738
         TOT.                       -9.100    9111.2896    48.1393   114.4799

 330.00  VIB.     0.7564D+05                  6975.9755    41.4706    43.4632
         ROT.     0.1258D+07                   983.6672     2.9808    30.8910
         INT.     0.9515D+11                  7959.6427    44.4514    74.3542
         TRA.     0.2284D+28                  1639.4454     4.9680    41.6267
         TOT.                       -8.612    9599.0881    49.4194   115.9808

 340.00  VIB.     0.1044D+06                  7397.0540    42.7437    44.7201
         ROT.     0.1316D+07                  1013.4753     2.9808    30.9800
         INT.     0.1373D+12                  8410.5293    45.7245    75.7001
         TRA.     0.2388D+28                  1689.1255     4.9680    41.7750
         TOT.                       -8.112   10099.6548    50.6925   117.4751

 350.00  VIB.     0.1440D+06                  7830.8191    44.0076    45.9774
         ROT.     0.1374D+07                  1043.2834     2.9808    31.0664
         INT.     0.1979D+12                  8874.1025    46.9884    77.0438
         TRA.     0.2494D+28                  1738.8057     4.9680    41.9190
         TOT.                       -7.599   10612.9082    51.9564   118.9628

 360.00  VIB.     0.1987D+06                  8277.1684    45.2602    47.2347
         ROT.     0.1433D+07                  1073.0915     2.9808    31.1504
         INT.     0.2847D+12                  9350.2599    48.2410    78.3851
         TRA.     0.2602D+28                  1788.4859     4.9680    42.0589
         TOT.                       -7.073   11138.7458    53.2091   120.4441

 370.00  VIB.     0.2739D+06                  8735.9804    46.4999    48.4917
         ROT.     0.1493D+07                  1102.8996     2.9808    31.2321
         INT.     0.4091D+12                  9838.8801    49.4807    79.7238
         TRA.     0.2711D+28                  1838.1660     4.9680    42.1951
         TOT.                       -6.534   11677.0461    54.4487   121.9189

 380.00  VIB.     0.3776D+06                  9207.1171    47.7249    49.7481
         ROT.     0.1554D+07                  1132.7077     2.9808    31.3116
         INT.     0.5869D+12                 10339.8248    50.7057    81.0597
         TRA.     0.2822D+28                  1887.8462     4.9680    42.3275
         TOT.                       -5.984   12227.6710    55.6737   123.3872

 390.00  VIB.     0.5204D+06                  9690.4257    48.9341    51.0035
         ROT.     0.1616D+07                  1162.5158     2.9808    31.3890
         INT.     0.8410D+12                 10852.9415    51.9149    82.3924
         TRA.     0.2934D+28                  1937.5263     4.9680    42.4566
         TOT.                       -5.421   12790.4678    56.8829   124.8490

 400.00  VIB.     0.7170D+06                 10185.7412    50.1261    52.2574
         ROT.     0.1679D+07                  1192.3239     2.9808    31.4644
         INT.     0.1204D+13                 11378.0651    53.1069    83.7219
         TRA.     0.3048D+28                  1987.2065     4.9680    42.5824
         TOT.                       -4.846   13365.2716    58.0749   126.3042

   *: NOTE: HEATS OF FORMATION ARE RELATIVE TO THE
            ELEMENTS IN THEIR STANDARD STATE AT 298K
              (=  Standard Enthalpy of Formation).

            Hvib:  Zero-point energy is not included.
                   frequencies of less than zero cm-1 are not included.
            Hrot = (3/2)RT
            Htra = (3/2)RT + pV = (5/2)RT

            Heat capacity is Cp, not Cv

          For more information, see: HTTP://OpenMOPAC.net/Manual/thermochemistry.html


           FORCE CONSTANT IN CARTESIAN COORDINATES (Millidynes/A)

    ATOM   CHEMICAL       X               Y               Z
   NUMBER   SYMBOL  FORCE CONSTANT  FORCE CONSTANT  FORCE CONSTANT

      1       O        3.452573        7.349191        1.334426
      2       O        3.254536        6.643142        0.760830
      3       O        0.756624        5.941347        2.959236
      4       O        1.343395        8.376949        2.394714
      5       C        8.450610        8.149024        8.155096
      6       C        8.098005        8.145746        8.459224
      7       C        8.099616        8.442610        8.116497
      8       C        7.914036        8.532351        8.541683
      9       C        7.880327        8.909550        8.408832
     10       C        4.129620       11.248738       11.785942
     11       C        3.630057       11.336115       11.738127
     12       H        0.927078        0.780389        4.671491
     13       H        2.083066        2.392824        1.945025
     14       H        2.323185        2.347222        1.727423
     15       H        4.417751        0.877634        1.093012
     16       H        1.308838        4.215932        0.855272
     17       H        2.016090        2.629747        1.768934
     18       H        0.886752        3.490848        2.040903
     19       H        2.108699        3.078637        1.104046
     20       H        0.706618        1.699545        3.953028
     21       H        2.262203        1.577472        2.408397
     22       H        0.711254        0.992407        4.517666
     23       H        1.117074        7.794195        0.980401

 **********************
 *                    *
 * JOB ENDED NORMALLY *
 *                    *
 **********************



 TOTAL JOB TIME:             3.20 SECONDS

 == MOPAC DONE ==
