 *******************************************************************************
 ** Site#: 14399        For non-commercial use only    Version 18.184L 64BITS **
 *******************************************************************************
 ** Cite this program as: MOPAC2016, Version: 18.184L, James J. P. Stewart,   **
 ** Stewart Computational Chemistry, web: HTTP://OpenMOPAC.net. Days left:  18**
 *******************************************************************************
 **                                                                           **
 **                                MOPAC2016                                  **
 **                                                                           **
 *******************************************************************************

                              PM3 CALCULATION RESULTS

 *******************************************************************************
 *  CALCULATION DONE:                                Sat Jun 15 11:11:30 2019  *
 *  PM3        - The PM3 Hamiltonian to be used
 *  PRECISE    - CRITERIA TO BE INCREASED BY 100 TIMES
 *  NOSYM      - POINT-GROUP SYMMETRY SET TO C1
 *  THREADS=1  - MULTI-THREADING NOT USED
 *  T=         - A TIME OF 172800.0 SECONDS REQUESTED
 *  DUMP=N     - RESTART FILE WRITTEN EVERY  7200.000 SECONDS
 *******************************************************************************
pm3  precise nosym THREADS=1
 InChI=1S/C7H10O2/c8-5-2-1-3-7-4-6-9-7/h5,7H,1-3,6H2/lp4

   ATOM   CHEMICAL          X               Y               Z
  NUMBER   SYMBOL      (ANGSTROMS)     (ANGSTROMS)     (ANGSTROMS)
 
     1       O          1.91460000  *   0.04620000  *  -1.21410000  *
     2       O         -4.05710000  *   0.83000000  *  -0.43180000  *
     3       C          0.44110000  *   0.02240000  *   0.72650000  *
     4       C         -0.86830000  *  -0.31660000  *   0.00510000  *
     5       C          1.64260000  *  -0.60070000  *   0.00550000  *
     6       C         -2.07020000  *   0.29190000  *   0.73300000  *
     7       C          3.16540000  *   0.46990000  *  -0.73100000  *
     8       C         -3.34310000  *  -0.05130000  *   0.01930000  *
     9       C          2.95830000  *  -0.18310000  *   0.60980000  *
    10       H         -0.83040000  *   0.07920000  *  -1.03410000  *
    11       H         -0.98640000  *  -1.42210000  *  -0.04160000  *
    12       H          0.40290000  *  -0.37440000  *   1.76460000  *
    13       H          0.56290000  *   1.12760000  *   0.77780000  *
    14       H          1.56770000  *  -1.70380000  *  -0.12060000  *
    15       H         -1.95390000  *   1.39700000  *   0.78880000  *
    16       H         -2.12630000  *  -0.10810000  *   1.76820000  *
    17       H          3.21760000  *   1.57780000  *  -0.65830000  *
    18       H          3.99890000  *   0.00790000  *  -1.30310000  *
    19       H         -3.63630000  *  -1.08990000  *  -0.09590000  *
 


          CARTESIAN COORDINATES 

    NO.       ATOM           X           Y           Z

     1         O          1.9146      0.0462     -1.2141
     2         O         -4.0571      0.8300     -0.4318
     3         C          0.4411      0.0224      0.7265
     4         C         -0.8683     -0.3166      0.0051
     5         C          1.6426     -0.6007      0.0055
     6         C         -2.0702      0.2919      0.7330
     7         C          3.1654      0.4699     -0.7310
     8         C         -3.3431     -0.0513      0.0193
     9         C          2.9583     -0.1831      0.6098
    10         H         -0.8304      0.0792     -1.0341
    11         H         -0.9864     -1.4221     -0.0416
    12         H          0.4029     -0.3744      1.7646
    13         H          0.5629      1.1276      0.7778
    14         H          1.5677     -1.7038     -0.1206
    15         H         -1.9539      1.3970      0.7888
    16         H         -2.1263     -0.1081      1.7682
    17         H          3.2176      1.5778     -0.6583
    18         H          3.9989      0.0079     -1.3031
    19         H         -3.6363     -1.0899     -0.0959

  H: (PM3): J. J. P. STEWART, J. COMP. CHEM. 10, 209 (1989).
  C: (PM3): J. J. P. STEWART, J. COMP. CHEM. 10, 209 (1989).
  O: (PM3): J. J. P. STEWART, J. COMP. CHEM. 10, 209 (1989).

           Empirical Formula: C7 H10 O2  =    19 atoms



      MOLECULAR POINT GROUP   :   C1  


      RHF CALCULATION, NO. OF DOUBLY OCCUPIED LEVELS = 25


          Geometry optimization using EF

          DIAGONAL MATRIX USED AS START HESSIAN

 CYCLE:     1 TIME:   0.004 TIME LEFT:  2.00D  GRAD.:   129.461 HEAT:  31.07063
 CYCLE:     2 TIME:   0.008 TIME LEFT:  2.00D  GRAD.:   116.042 HEAT:  29.14669
 CYCLE:     3 TIME:   0.008 TIME LEFT:  2.00D  GRAD.:   112.564 HEAT:  28.77080
 CYCLE:     4 TIME:   0.004 TIME LEFT:  2.00D  GRAD.:    32.449 HEAT:  26.73841
 CYCLE:     5 TIME:   0.004 TIME LEFT:  2.00D  GRAD.:    34.216 HEAT:  26.58413
 CYCLE:     6 TIME:   0.008 TIME LEFT:  2.00D  GRAD.:    32.575 HEAT:  26.28472
 CYCLE:     7 TIME:   0.004 TIME LEFT:  2.00D  GRAD.:    39.055 HEAT:  26.26675
 CYCLE:     8 TIME:   0.004 TIME LEFT:  2.00D  GRAD.:    24.793 HEAT:  25.91939
 CYCLE:     9 TIME:   0.008 TIME LEFT:  2.00D  GRAD.:    15.277 HEAT:  25.81267
 CYCLE:    10 TIME:   0.004 TIME LEFT:  2.00D  GRAD.:    11.161 HEAT:  25.72234
 CYCLE:    11 TIME:   0.008 TIME LEFT:  2.00D  GRAD.:    14.859 HEAT:  25.69377
 CYCLE:    12 TIME:   0.004 TIME LEFT:  2.00D  GRAD.:    13.158 HEAT:  25.64780
 CYCLE:    13 TIME:   0.004 TIME LEFT:  2.00D  GRAD.:    11.673 HEAT:  25.62167
 CYCLE:    14 TIME:   0.008 TIME LEFT:  2.00D  GRAD.:    10.983 HEAT:  25.60892
 CYCLE:    15 TIME:   0.000 TIME LEFT:  2.00D  GRAD.:    12.146 HEAT:  25.59220
 CYCLE:    16 TIME:   0.004 TIME LEFT:  2.00D  GRAD.:     6.798 HEAT:  25.57259
 CYCLE:    17 TIME:   0.004 TIME LEFT:  2.00D  GRAD.:     9.199 HEAT:  25.56608
 CYCLE:    18 TIME:   0.004 TIME LEFT:  2.00D  GRAD.:     3.157 HEAT:  25.54852
 CYCLE:    19 TIME:   0.004 TIME LEFT:  2.00D  GRAD.:     6.377 HEAT:  25.54440
 CYCLE:    20 TIME:   0.004 TIME LEFT:  2.00D  GRAD.:     3.079 HEAT:  25.53187
 CYCLE:    21 TIME:   0.004 TIME LEFT:  2.00D  GRAD.:     4.729 HEAT:  25.52508
 CYCLE:    22 TIME:   0.004 TIME LEFT:  2.00D  GRAD.:     3.468 HEAT:  25.51705
 CYCLE:    23 TIME:   0.004 TIME LEFT:  2.00D  GRAD.:     3.747 HEAT:  25.51271
 CYCLE:    24 TIME:   0.004 TIME LEFT:  2.00D  GRAD.:     3.126 HEAT:  25.50487
 CYCLE:    25 TIME:   0.004 TIME LEFT:  2.00D  GRAD.:     3.934 HEAT:  25.49074
 CYCLE:    26 TIME:   0.004 TIME LEFT:  2.00D  GRAD.:     4.088 HEAT:  25.47381
 CYCLE:    27 TIME:   0.004 TIME LEFT:  2.00D  GRAD.:     3.660 HEAT:  25.45673
 CYCLE:    28 TIME:   0.004 TIME LEFT:  2.00D  GRAD.:     3.943 HEAT:  25.44729
 CYCLE:    29 TIME:   0.004 TIME LEFT:  2.00D  GRAD.:     3.682 HEAT:  25.43612
 CYCLE:    30 TIME:   0.004 TIME LEFT:  2.00D  GRAD.:     2.620 HEAT:  25.42276
 CYCLE:    31 TIME:   0.004 TIME LEFT:  2.00D  GRAD.:     3.874 HEAT:  25.41132
 CYCLE:    32 TIME:   0.004 TIME LEFT:  2.00D  GRAD.:     2.492 HEAT:  25.40215
 CYCLE:    33 TIME:   0.004 TIME LEFT:  2.00D  GRAD.:     2.878 HEAT:  25.38718
 CYCLE:    34 TIME:   0.004 TIME LEFT:  2.00D  GRAD.:     2.312 HEAT:  25.37141
 CYCLE:    35 TIME:   0.004 TIME LEFT:  2.00D  GRAD.:     1.936 HEAT:  25.36397
 CYCLE:    36 TIME:   0.004 TIME LEFT:  2.00D  GRAD.:     2.808 HEAT:  25.35655
 CYCLE:    37 TIME:   0.004 TIME LEFT:  2.00D  GRAD.:     4.016 HEAT:  25.35238
 CYCLE:    38 TIME:   0.004 TIME LEFT:  2.00D  GRAD.:     1.759 HEAT:  25.34557
 CYCLE:    39 TIME:   0.004 TIME LEFT:  2.00D  GRAD.:     1.906 HEAT:  25.33851
 CYCLE:    40 TIME:   0.004 TIME LEFT:  2.00D  GRAD.:     3.002 HEAT:  25.33419
 CYCLE:    41 TIME:   0.004 TIME LEFT:  2.00D  GRAD.:     2.175 HEAT:  25.32820
 CYCLE:    42 TIME:   0.004 TIME LEFT:  2.00D  GRAD.:     1.565 HEAT:  25.32356
 CYCLE:    43 TIME:   0.004 TIME LEFT:  2.00D  GRAD.:     1.583 HEAT:  25.31603
 CYCLE:    44 TIME:   0.004 TIME LEFT:  2.00D  GRAD.:     2.572 HEAT:  25.31099
 CYCLE:    45 TIME:   0.004 TIME LEFT:  2.00D  GRAD.:     2.667 HEAT:  25.30562
 CYCLE:    46 TIME:   0.004 TIME LEFT:  2.00D  GRAD.:     1.860 HEAT:  25.29767
 CYCLE:    47 TIME:   0.004 TIME LEFT:  2.00D  GRAD.:     1.756 HEAT:  25.29011
 CYCLE:    48 TIME:   0.004 TIME LEFT:  2.00D  GRAD.:     1.787 HEAT:  25.28417
 CYCLE:    49 TIME:   0.004 TIME LEFT:  2.00D  GRAD.:     1.396 HEAT:  25.28021
 CYCLE:    50 TIME:   0.004 TIME LEFT:  2.00D  GRAD.:     1.776 HEAT:  25.27656
 CYCLE:    51 TIME:   0.004 TIME LEFT:  2.00D  GRAD.:     0.814 HEAT:  25.27428
 CYCLE:    52 TIME:   0.004 TIME LEFT:  2.00D  GRAD.:     0.963 HEAT:  25.27302
 CYCLE:    53 TIME:   0.004 TIME LEFT:  2.00D  GRAD.:     0.744 HEAT:  25.27149
 CYCLE:    54 TIME:   0.004 TIME LEFT:  2.00D  GRAD.:     0.775 HEAT:  25.27022
 CYCLE:    55 TIME:   0.004 TIME LEFT:  2.00D  GRAD.:     0.790 HEAT:  25.26891
 CYCLE:    56 TIME:   0.004 TIME LEFT:  2.00D  GRAD.:     0.817 HEAT:  25.26765
 CYCLE:    57 TIME:   0.004 TIME LEFT:  2.00D  GRAD.:     0.807 HEAT:  25.26607
 CYCLE:    58 TIME:   0.004 TIME LEFT:  2.00D  GRAD.:     0.929 HEAT:  25.26415
 CYCLE:    59 TIME:   0.004 TIME LEFT:  2.00D  GRAD.:     0.980 HEAT:  25.26185
 CYCLE:    60 TIME:   0.004 TIME LEFT:  2.00D  GRAD.:     0.929 HEAT:  25.25955
 CYCLE:    61 TIME:   0.004 TIME LEFT:  2.00D  GRAD.:     0.986 HEAT:  25.25765
 CYCLE:    62 TIME:   0.004 TIME LEFT:  2.00D  GRAD.:     0.649 HEAT:  25.25657
 CYCLE:    63 TIME:   0.004 TIME LEFT:  2.00D  GRAD.:     0.589 HEAT:  25.25583
 CYCLE:    64 TIME:   0.004 TIME LEFT:  2.00D  GRAD.:     0.585 HEAT:  25.25507
 CYCLE:    65 TIME:   0.004 TIME LEFT:  2.00D  GRAD.:     0.604 HEAT:  25.25411
 CYCLE:    66 TIME:   0.004 TIME LEFT:  2.00D  GRAD.:     0.533 HEAT:  25.25317
 CYCLE:    67 TIME:   0.004 TIME LEFT:  2.00D  GRAD.:     0.498 HEAT:  25.25249
 CYCLE:    68 TIME:   0.004 TIME LEFT:  2.00D  GRAD.:     0.612 HEAT:  25.25197
 CYCLE:    69 TIME:   0.004 TIME LEFT:  2.00D  GRAD.:     0.598 HEAT:  25.25135
 CYCLE:    70 TIME:   0.004 TIME LEFT:  2.00D  GRAD.:     0.706 HEAT:  25.25069
 CYCLE:    71 TIME:   0.004 TIME LEFT:  2.00D  GRAD.:     0.552 HEAT:  25.24985
 CYCLE:    72 TIME:   0.004 TIME LEFT:  2.00D  GRAD.:     0.553 HEAT:  25.24927
 CYCLE:    73 TIME:   0.004 TIME LEFT:  2.00D  GRAD.:     0.638 HEAT:  25.24864
 CYCLE:    74 TIME:   0.004 TIME LEFT:  2.00D  GRAD.:     0.689 HEAT:  25.24793
 CYCLE:    75 TIME:   0.004 TIME LEFT:  2.00D  GRAD.:     0.810 HEAT:  25.24715
 CYCLE:    76 TIME:   0.004 TIME LEFT:  2.00D  GRAD.:     0.865 HEAT:  25.24596
 CYCLE:    77 TIME:   0.004 TIME LEFT:  2.00D  GRAD.:     0.866 HEAT:  25.24508
 CYCLE:    78 TIME:   0.004 TIME LEFT:  2.00D  GRAD.:     0.850 HEAT:  25.24402
 CYCLE:    79 TIME:   0.004 TIME LEFT:  2.00D  GRAD.:     0.743 HEAT:  25.24352
 CYCLE:    80 TIME:   0.004 TIME LEFT:  2.00D  GRAD.:     0.541 HEAT:  25.24259
 CYCLE:    81 TIME:   0.004 TIME LEFT:  2.00D  GRAD.:     0.310 HEAT:  25.24237
 CYCLE:    82 TIME:   0.004 TIME LEFT:  2.00D  GRAD.:     0.559 HEAT:  25.24217
 CYCLE:    83 TIME:   0.004 TIME LEFT:  2.00D  GRAD.:     0.398 HEAT:  25.24201
 CYCLE:    84 TIME:   0.004 TIME LEFT:  2.00D  GRAD.:     0.240 HEAT:  25.24194
 CYCLE:    85 TIME:   0.004 TIME LEFT:  2.00D  GRAD.:     0.280 HEAT:  25.24187
 CYCLE:    86 TIME:   0.004 TIME LEFT:  2.00D  GRAD.:     0.330 HEAT:  25.24178
 CYCLE:    87 TIME:   0.004 TIME LEFT:  2.00D  GRAD.:     0.271 HEAT:  25.24168
 CYCLE:    88 TIME:   0.004 TIME LEFT:  2.00D  GRAD.:     0.123 HEAT:  25.24151
 CYCLE:    89 TIME:   0.004 TIME LEFT:  2.00D  GRAD.:     0.093 HEAT:  25.24145
 CYCLE:    90 TIME:   0.004 TIME LEFT:  2.00D  GRAD.:     0.248 HEAT:  25.24138
 CYCLE:    91 TIME:   0.004 TIME LEFT:  2.00D  GRAD.:     0.101 HEAT:  25.24136
 CYCLE:    92 TIME:   0.004 TIME LEFT:  2.00D  GRAD.:     0.076 HEAT:  25.24134
 CYCLE:    93 TIME:   0.004 TIME LEFT:  2.00D  GRAD.:     0.132 HEAT:  25.24131
 CYCLE:    94 TIME:   0.004 TIME LEFT:  2.00D  GRAD.:     0.112 HEAT:  25.24128
 CYCLE:    95 TIME:   0.000 TIME LEFT:  2.00D  GRAD.:     0.099 HEAT:  25.24124
 CYCLE:    96 TIME:   0.004 TIME LEFT:  2.00D  GRAD.:     0.128 HEAT:  25.24116
 CYCLE:    97 TIME:   0.004 TIME LEFT:  2.00D  GRAD.:     0.288 HEAT:  25.24114
 CYCLE:    98 TIME:   0.004 TIME LEFT:  2.00D  GRAD.:     0.198 HEAT:  25.24105
 CYCLE:    99 TIME:   0.004 TIME LEFT:  2.00D  GRAD.:     0.202 HEAT:  25.24096
 CYCLE:   100 TIME:   0.004 TIME LEFT:  2.00D  GRAD.:     0.235 HEAT:  25.24080
 CYCLE:   101 TIME:   0.004 TIME LEFT:  2.00D  GRAD.:     0.189 HEAT:  25.24067
 CYCLE:   102 TIME:   0.004 TIME LEFT:  2.00D  GRAD.:     0.337 HEAT:  25.24061
 CYCLE:   103 TIME:   0.004 TIME LEFT:  2.00D  GRAD.:     0.104 HEAT:  25.24032
 CYCLE:   104 TIME:   0.004 TIME LEFT:  2.00D  GRAD.:     0.082 HEAT:  25.24031
 CYCLE:   105 TIME:   0.004 TIME LEFT:  2.00D  GRAD.:     0.066 HEAT:  25.24030
 CYCLE:   106 TIME:   0.004 TIME LEFT:  2.00D  GRAD.:     3.299 HEAT:  25.24648
 CYCLE:   107 TIME:   0.004 TIME LEFT:  2.00D  GRAD.:     0.060 HEAT:  25.24027
 CYCLE:   108 TIME:   0.004 TIME LEFT:  2.00D  GRAD.:     0.046 HEAT:  25.24027

     GRADIENT =  0.04572  IS LESS THAN CUTOFF =  0.05000



 -------------------------------------------------------------------------------
 pm3  precise nosym THREADS=1
 InChI=1S/C7H10O2/c8-5-2-1-3-7-4-6-9-7/h5,7H,1-3,6H2/lp4



     GEOMETRY OPTIMISED USING EIGENVECTOR FOLLOWING (EF).     
     SCF FIELD WAS ACHIEVED                                   


                              PM3 CALCULATION
                                                       MOPAC2016 (Version: 18.184L)
                                                       Sat Jun 15 11:11:30 2019
                                                       No. of days remaining =  18




          FINAL HEAT OF FORMATION =         25.24027 KCAL/MOL =     105.60531 KJ/MOL


          TOTAL ENERGY            =      -1566.56504 EV
          ELECTRONIC ENERGY       =      -6928.20394 EV  POINT GROUP:     C1  
          CORE-CORE REPULSION     =       5361.63890 EV
          COSMO AREA              =        176.00 SQUARE ANGSTROMS
          COSMO VOLUME            =        169.85 CUBIC ANGSTROMS

          GRADIENT NORM           =          0.04572 = 0.01049 PER ATOM
          IONIZATION POTENTIAL    =          9.925828 EV
          HOMO LUMO ENERGIES (EV) =         -9.926 -1.273
          NO. OF FILLED LEVELS    =         25
          MOLECULAR WEIGHT        =        126.1548

          MOLECULAR DIMENSIONS (Angstroms)

            Atom       Atom       Distance
            H    18    O     2     8.57248
            H    14    H    17     3.29434
            H    12    H    10     2.94120


          SCF CALCULATIONS        =        116
 
          WALL-CLOCK TIME         =          0.445 SECONDS
          COMPUTATION TIME        =          0.410 SECONDS




   ATOM   CHEMICAL          X               Y               Z
  NUMBER   SYMBOL      (ANGSTROMS)     (ANGSTROMS)     (ANGSTROMS)
 
     1       O          2.03391572  *   0.09637344  *  -1.25245745  *
     2       O         -4.31112706  *   0.68878736  *  -0.14520728  *
     3       C          0.40879611  *   0.09329073  *   0.65824368  *
     4       C         -0.88869368  *  -0.28686070  *  -0.03719996  *
     5       C          1.60860124  *  -0.55674075  *  -0.00203511  *
     6       C         -2.08127408  *   0.35212672  *   0.65353012  *
     7       C          3.33447108  *   0.38340466  *  -0.65710249  *
     8       C         -3.37360488  *  -0.06208587  *  -0.00671711  *
     9       C          2.94806126  *  -0.25471868  *   0.64395505  *
    10       H         -0.85402099  *   0.02688334  *  -1.09934274  *
    11       H         -1.00270400  *  -1.39013987  *  -0.05384947  *
    12       H          0.38717660  *  -0.22287686  *   1.72048031  *
    13       H          0.52331324  *   1.19578538  *   0.66785087  *
    14       H          1.44426134  *  -1.64136957  *  -0.18870184  *
    15       H         -1.97036317  *   1.45512780  *   0.67216543  *
    16       H         -2.12603616  *   0.03898370  *   1.71665514  *
    17       H          3.52865901  *   1.46810084  *  -0.60923725  *
    18       H          4.15870514  *  -0.09616629  *  -1.20975958  *
    19       H         -3.44105702  *  -1.10439370  *  -0.36068001  *

                             CARTESIAN COORDINATES

   1    O        2.033915720     0.096373437    -1.252457450
   2    O       -4.311127061     0.688787357    -0.145207277
   3    C        0.408796113     0.093290732     0.658243680
   4    C       -0.888693682    -0.286860700    -0.037199956
   5    C        1.608601241    -0.556740753    -0.002035113
   6    C       -2.081274080     0.352126723     0.653530123
   7    C        3.334471080     0.383404665    -0.657102488
   8    C       -3.373604880    -0.062085871    -0.006717109
   9    C        2.948061264    -0.254718683     0.643955047
  10    H       -0.854020988     0.026883342    -1.099342743
  11    H       -1.002704004    -1.390139869    -0.053849467
  12    H        0.387176601    -0.222876864     1.720480309
  13    H        0.523313238     1.195785384     0.667850865
  14    H        1.444261335    -1.641369567    -0.188701842
  15    H       -1.970363173     1.455127800     0.672165428
  16    H       -2.126036156     0.038983704     1.716655140
  17    H        3.528659012     1.468100841    -0.609237248
  18    H        4.158705142    -0.096166294    -1.209759577
  19    H       -3.441057024    -1.104393697    -0.360680012


           Empirical Formula: C7 H10 O2  =    19 atoms



      MOLECULAR POINT GROUP   :   C1  


                  EIGENVALUES  
 -41.10888 -38.80812 -35.64565 -29.86257 -28.03466 -24.51236 -21.76793 -21.11071
 -18.65507 -17.68010 -16.93775 -16.78507 -16.09438 -16.02954 -15.70820 -14.76485
 -14.19644 -13.99274 -13.24414 -12.98001 -12.52896 -11.96487 -11.57040 -10.70553
  -9.92583  -1.27281   0.76537   2.28699   2.39594   2.67264   2.74962   3.08893
   3.26828   3.38375   3.43107   3.53439   3.61247   3.74815   3.90555   4.11435
   4.18848   4.24010   4.49896   4.58585   4.59700   6.74912


              NET ATOMIC CHARGES AND DIPOLE CONTRIBUTIONS

  ATOM NO.   TYPE          CHARGE      No. of ELECS.   s-Pop       p-Pop       
    1          O          -0.273179        6.2732     1.89080     4.38237
    2          O          -0.311962        6.3120     1.86094     4.45102
    3          C          -0.074505        4.0745     1.15533     2.91917
    4          C          -0.093312        4.0933     1.15942     2.93389
    5          C          -0.103812        4.1038     1.21648     2.88734
    6          C          -0.186187        4.1862     1.17550     3.01069
    7          C          -0.119075        4.1191     1.19248     2.92660
    8          C           0.278091        3.7219     1.20318     2.51873
    9          C           0.112120        3.8879     1.74613     2.14175
   10          H           0.066088        0.9339     0.93391
   11          H           0.051337        0.9487     0.94866
   12          H           0.068192        0.9318     0.93181
   13          H           0.064353        0.9356     0.93565
   14          H           0.110092        0.8899     0.88991
   15          H           0.081776        0.9182     0.91822
   16          H           0.074340        0.9257     0.92566
   17          H           0.105986        0.8940     0.89401
   18          H           0.104004        0.8960     0.89600
   19          H           0.045654        0.9543     0.95435
 DIPOLE           X         Y         Z       TOTAL
 POINT-CHG.     2.397    -1.403     1.964     3.401
 HYBRID        -0.426     0.104    -1.680     1.736
 SUM            1.970    -1.299     0.284     2.377


          ATOMIC ORBITAL ELECTRON POPULATIONS

     Atom    s        px        py        pz   
    1  O   1.89080   1.26941   1.78894   1.32402
    2  O   1.86094   1.41723   1.61463   1.41916
    3  C   1.15533   0.92193   1.00718   0.99007
    4  C   1.15942   0.93376   0.99927   1.00087
    5  C   1.21648   1.01626   0.98703   0.88405
    6  C   1.17550   0.96863   1.03258   1.00948
    7  C   1.19248   0.89804   1.02479   1.00377
    8  C   1.20318   0.86094   0.90365   0.75413
    9  C   1.74613   0.81588   0.30388   1.02199
   10  H   0.93391
   11  H   0.94866
   12  H   0.93181
   13  H   0.93565
   14  H   0.88991
   15  H   0.91822
   16  H   0.92566
   17  H   0.89401
   18  H   0.89600
   19  H   0.95435
 *******************************************************************************
 ** Site#: 14399        For non-commercial use only    Version 18.184L 64BITS **
 *******************************************************************************
 ** Cite this program as: MOPAC2016, Version: 18.184L, James J. P. Stewart,   **
 ** Stewart Computational Chemistry, web: HTTP://OpenMOPAC.net. Days left:  18**
 *******************************************************************************
 **                                                                           **
 **                                MOPAC2016                                  **
 **                                                                           **
 *******************************************************************************

                              PM3 CALCULATION RESULTS

 *******************************************************************************
 *  CALCULATION DONE:                                Sat Jun 15 11:11:30 2019  *
 *  PM3        - The PM3 Hamiltonian to be used
 *  OLDGEO     - PREVIOUS GEOMETRY TO BE USED
 *  PRECISE    - CRITERIA TO BE INCREASED BY 100 TIMES
 *  NOSYM      - POINT-GROUP SYMMETRY SET TO C1
 *  THREADS=1  - MULTI-THREADING NOT USED
 *  T=         - A TIME OF 172800.0 SECONDS REQUESTED
 *  DUMP=N     - RESTART FILE WRITTEN EVERY  7200.000 SECONDS
 *  THERMO     - THERMODYNAMIC QUANTITIES TO BE CALCULATED
 *******************************************************************************
oldgeo thermo nosym precise THREADS=1  pm3
 InChI=1S/C7H10O2/c8-5-2-1-3-7-4-6-9-7/h5,7H,1-3,6H2/lp4

   ATOM   CHEMICAL          X               Y               Z
  NUMBER   SYMBOL      (ANGSTROMS)     (ANGSTROMS)     (ANGSTROMS)
 
     1       O          2.03391572  *   0.09637344  *  -1.25245745  *
     2       O         -4.31112706  *   0.68878736  *  -0.14520728  *
     3       C          0.40879611  *   0.09329073  *   0.65824368  *
     4       C         -0.88869368  *  -0.28686070  *  -0.03719996  *
     5       C          1.60860124  *  -0.55674075  *  -0.00203511  *
     6       C         -2.08127408  *   0.35212672  *   0.65353012  *
     7       C          3.33447108  *   0.38340466  *  -0.65710249  *
     8       C         -3.37360488  *  -0.06208587  *  -0.00671711  *
     9       C          2.94806126  *  -0.25471868  *   0.64395505  *
    10       H         -0.85402099  *   0.02688334  *  -1.09934274  *
    11       H         -1.00270400  *  -1.39013987  *  -0.05384947  *
    12       H          0.38717660  *  -0.22287686  *   1.72048031  *
    13       H          0.52331324  *   1.19578538  *   0.66785087  *
    14       H          1.44426134  *  -1.64136957  *  -0.18870184  *
    15       H         -1.97036317  *   1.45512780  *   0.67216543  *
    16       H         -2.12603616  *   0.03898370  *   1.71665514  *
    17       H          3.52865901  *   1.46810084  *  -0.60923725  *
    18       H          4.15870514  *  -0.09616629  *  -1.20975958  *
    19       H         -3.44105702  *  -1.10439370  *  -0.36068001  *
 


          CARTESIAN COORDINATES 

    NO.       ATOM           X           Y           Z

     1         O          2.0339      0.0964     -1.2525
     2         O         -4.3111      0.6888     -0.1452
     3         C          0.4088      0.0933      0.6582
     4         C         -0.8887     -0.2869     -0.0372
     5         C          1.6086     -0.5567     -0.0020
     6         C         -2.0813      0.3521      0.6535
     7         C          3.3345      0.3834     -0.6571
     8         C         -3.3736     -0.0621     -0.0067
     9         C          2.9481     -0.2547      0.6440
    10         H         -0.8540      0.0269     -1.0993
    11         H         -1.0027     -1.3901     -0.0538
    12         H          0.3872     -0.2229      1.7205
    13         H          0.5233      1.1958      0.6679
    14         H          1.4443     -1.6414     -0.1887
    15         H         -1.9704      1.4551      0.6722
    16         H         -2.1260      0.0390      1.7167
    17         H          3.5287      1.4681     -0.6092
    18         H          4.1587     -0.0962     -1.2098
    19         H         -3.4411     -1.1044     -0.3607

  H: (PM3): J. J. P. STEWART, J. COMP. CHEM. 10, 209 (1989).
  C: (PM3): J. J. P. STEWART, J. COMP. CHEM. 10, 209 (1989).
  O: (PM3): J. J. P. STEWART, J. COMP. CHEM. 10, 209 (1989).

           Empirical Formula: C7 H10 O2  =    19 atoms



      MOLECULAR POINT GROUP   :   C1  


      RHF CALCULATION, NO. OF DOUBLY OCCUPIED LEVELS = 25



          HEAT OF FORMATION =      25.240274 KCALS/MOLE


          CARTESIAN COORDINATE DERIVATIVES

   NUMBER  ATOM         X            Y            Z

     1       O     -0.007930     0.000715    -0.001330
     2       O      0.012911    -0.008649     0.012678
     3       C     -0.004350    -0.001914     0.004933
     4       C     -0.001699     0.002110    -0.003719
     5       C     -0.004122    -0.000439     0.006600
     6       C      0.000427     0.007646    -0.005197
     7       C     -0.002448     0.002969    -0.010163
     8       C     -0.015528     0.009793     0.001730
     9       C      0.002939    -0.003994    -0.000625
    10       H      0.005941    -0.000306     0.003880
    11       H      0.003131    -0.000029    -0.004971
    12       H      0.003557    -0.000136     0.008836
    13       H      0.013047    -0.006049     0.003919
    14       H     -0.010094     0.002198    -0.000510
    15       H     -0.002137     0.003660    -0.007583
    16       H      0.007639     0.000603    -0.007742
    17       H     -0.003586     0.000700    -0.000288
    18       H      0.006774    -0.003652    -0.000013
    19       H     -0.004472    -0.005227    -0.000432
 


          GRADIENT NORM =   0.04454


          TIME FOR SCF CALCULATION =    0.00

          TIME FOR DERIVATIVES     =    0.00

          MOLECULAR WEIGHT =  126.15



          ROTATIONAL CONSTANTS IN CM(-1)

          A =    0.21794843   B =    0.01839268   C =    0.01782534



           PRINCIPAL MOMENTS OF INERTIA IN UNITS OF 10**(-40)*GRAM-CM**2

          A =      128.4376   B =     1521.9516   C =     1570.3922


          ORIENTATION OF MOLECULE IN FORCE CALCULATION

    NO.       ATOM         X         Y         Z

     1          O      -2.2941   -0.8420    0.1487
     2          O       4.1740   -0.8420    0.1487
     3          C      -0.3731    0.7709    0.1487
     4          C       0.7458   -0.0775   -0.4341
     5          C      -1.7227    0.3884   -0.4261
     6          C       2.0925    0.3372    0.1334
     7          C      -3.4417   -0.0809    0.6304
     8          C       3.2092   -0.4721   -0.4793
     9          C      -2.8984    1.2038    0.0793
    10          H       0.5587   -1.1485   -0.2199
    11          H       0.7537    0.0103   -1.5399
    12          H      -0.1990    1.8443   -0.0665
    13          H      -0.3828    0.6764    1.2531
    14          H      -1.6928    0.2993   -1.5349
    15          H       2.0879    0.2509    1.2388
    16          H       2.2897    1.4074   -0.0812
    17          H      -3.5247   -0.1231    1.7294
    18          H      -4.3888   -0.4371    0.1934
    19          H       3.1194   -0.7144   -1.5514


    FIRST DERIVATIVES WILL BE USED IN THE CALCULATION OF SECOND DERIVATIVES

          ESTIMATED TIME TO COMPLETE CALCULATION =        1.78 SECONDS

    FOR POINT-GROUP C1   THERE ARE   1 UNIQUE SYMMETRY FUNCTIONS.

 STEP:   1 TIME =     0.02 SECS, INTEGRAL =      0.02 TIME LEFT: 172799.98
 STEP:   2 TIME =     0.02 SECS, INTEGRAL =      0.03 TIME LEFT: 172799.96
 STEP:   3 TIME =     0.02 SECS, INTEGRAL =      0.05 TIME LEFT: 172799.94
 STEP:   4 TIME =     0.02 SECS, INTEGRAL =      0.07 TIME LEFT: 172799.93
 STEP:   5 TIME =     0.02 SECS, INTEGRAL =      0.08 TIME LEFT: 172799.91
 STEP:   6 TIME =     0.02 SECS, INTEGRAL =      0.10 TIME LEFT: 172799.89
 STEP:   7 TIME =     0.02 SECS, INTEGRAL =      0.12 TIME LEFT: 172799.88
 STEP:   8 TIME =     0.02 SECS, INTEGRAL =      0.13 TIME LEFT: 172799.86
 STEP:   9 TIME =     0.02 SECS, INTEGRAL =      0.15 TIME LEFT: 172799.84
 STEP:  10 TIME =     0.02 SECS, INTEGRAL =      0.16 TIME LEFT: 172799.83
 STEP:  11 TIME =     0.02 SECS, INTEGRAL =      0.18 TIME LEFT: 172799.81
 STEP:  12 TIME =     0.02 SECS, INTEGRAL =      0.20 TIME LEFT: 172799.80
 STEP:  13 TIME =     0.02 SECS, INTEGRAL =      0.21 TIME LEFT: 172799.78
 STEP:  14 TIME =     0.02 SECS, INTEGRAL =      0.23 TIME LEFT: 172799.76
 STEP:  15 TIME =     0.02 SECS, INTEGRAL =      0.25 TIME LEFT: 172799.75
 STEP:  16 TIME =     0.02 SECS, INTEGRAL =      0.26 TIME LEFT: 172799.73
 STEP:  17 TIME =     0.02 SECS, INTEGRAL =      0.28 TIME LEFT: 172799.71
 STEP:  18 TIME =     0.02 SECS, INTEGRAL =      0.29 TIME LEFT: 172799.70
 STEP:  19 TIME =     0.02 SECS, INTEGRAL =      0.31 TIME LEFT: 172799.68
 STEP:  20 TIME =     0.02 SECS, INTEGRAL =      0.32 TIME LEFT: 172799.67
 STEP:  21 TIME =     0.02 SECS, INTEGRAL =      0.34 TIME LEFT: 172799.65
 STEP:  22 TIME =     0.02 SECS, INTEGRAL =      0.36 TIME LEFT: 172799.63
 STEP:  23 TIME =     0.02 SECS, INTEGRAL =      0.38 TIME LEFT: 172799.62
 STEP:  24 TIME =     0.02 SECS, INTEGRAL =      0.39 TIME LEFT: 172799.60
 STEP:  25 TIME =     0.02 SECS, INTEGRAL =      0.41 TIME LEFT: 172799.58
 STEP:  26 TIME =     0.02 SECS, INTEGRAL =      0.43 TIME LEFT: 172799.57
 STEP:  27 TIME =     0.02 SECS, INTEGRAL =      0.44 TIME LEFT: 172799.55
 STEP:  28 TIME =     0.02 SECS, INTEGRAL =      0.46 TIME LEFT: 172799.54
 STEP:  29 TIME =     0.02 SECS, INTEGRAL =      0.47 TIME LEFT: 172799.52
 STEP:  30 TIME =     0.02 SECS, INTEGRAL =      0.49 TIME LEFT: 172799.50
 STEP:  31 TIME =     0.02 SECS, INTEGRAL =      0.51 TIME LEFT: 172799.48
 STEP:  32 TIME =     0.02 SECS, INTEGRAL =      0.52 TIME LEFT: 172799.47
 STEP:  33 TIME =     0.02 SECS, INTEGRAL =      0.54 TIME LEFT: 172799.45
 STEP:  34 TIME =     0.02 SECS, INTEGRAL =      0.56 TIME LEFT: 172799.43
 STEP:  35 TIME =     0.02 SECS, INTEGRAL =      0.57 TIME LEFT: 172799.42
 STEP:  36 TIME =     0.02 SECS, INTEGRAL =      0.59 TIME LEFT: 172799.40
 STEP:  37 TIME =     0.02 SECS, INTEGRAL =      0.61 TIME LEFT: 172799.39
 STEP:  38 TIME =     0.02 SECS, INTEGRAL =      0.62 TIME LEFT: 172799.37
 STEP:  39 TIME =     0.02 SECS, INTEGRAL =      0.64 TIME LEFT: 172799.35
 STEP:  40 TIME =     0.02 SECS, INTEGRAL =      0.66 TIME LEFT: 172799.34
 STEP:  41 TIME =     0.02 SECS, INTEGRAL =      0.67 TIME LEFT: 172799.32
 STEP:  42 TIME =     0.02 SECS, INTEGRAL =      0.69 TIME LEFT: 172799.30
 STEP:  43 TIME =     0.02 SECS, INTEGRAL =      0.71 TIME LEFT: 172799.29
 STEP:  44 TIME =     0.02 SECS, INTEGRAL =      0.72 TIME LEFT: 172799.27
 STEP:  45 TIME =     0.02 SECS, INTEGRAL =      0.74 TIME LEFT: 172799.25
 STEP:  46 TIME =     0.02 SECS, INTEGRAL =      0.75 TIME LEFT: 172799.24
 STEP:  47 TIME =     0.02 SECS, INTEGRAL =      0.77 TIME LEFT: 172799.22
 STEP:  48 TIME =     0.02 SECS, INTEGRAL =      0.79 TIME LEFT: 172799.20
 STEP:  49 TIME =     0.02 SECS, INTEGRAL =      0.80 TIME LEFT: 172799.19
 STEP:  50 TIME =     0.02 SECS, INTEGRAL =      0.82 TIME LEFT: 172799.17
 STEP:  51 TIME =     0.02 SECS, INTEGRAL =      0.84 TIME LEFT: 172799.16
 STEP:  52 TIME =     0.02 SECS, INTEGRAL =      0.85 TIME LEFT: 172799.14
 STEP:  53 TIME =     0.02 SECS, INTEGRAL =      0.87 TIME LEFT: 172799.12
 STEP:  54 TIME =     0.02 SECS, INTEGRAL =      0.88 TIME LEFT: 172799.11
 STEP:  55 TIME =     0.02 SECS, INTEGRAL =      0.90 TIME LEFT: 172799.09
 STEP:  56 TIME =     0.02 SECS, INTEGRAL =      0.92 TIME LEFT: 172799.07
 STEP:  57 TIME =     0.02 SECS, INTEGRAL =      0.93 TIME LEFT: 172799.06

(To convert to Hartree/Bohr^2, multiply by (10^(-21) x N x a0^2)/(4.184 x 627.51) =  0.0642)


           FORCE MATRIX IN MILLIDYNES/ANGSTROM


                  O  1       O  2       C  3       C  4       C  5       C  6
 ------------------------------------------------------------------------------
     O    1   8.601734
     O    2   0.010547  16.293656
     C    3   0.670790   0.014324  14.351954
     C    4   0.021761   0.084467   4.184077  14.359820
     C    5   3.657646   0.021769   4.117329   0.671032  13.919739
     C    6   0.005635   1.232963   0.656273   4.207159   0.070736  14.236965
     C    7   4.140829   0.007717   0.068868   0.011400   2.483040   0.007250
     C    8   0.014062  14.986514   0.051798   0.679522   0.025351   4.077440
     C    9   2.416994   0.013491   0.466456   0.036908   3.925094   0.014094
     H   10   0.007471   0.005624   0.443548   4.480699   0.021953   0.437230
     H   11   0.002265   0.007897   0.446187   4.418610   0.028408   0.443536
     H   12   0.055717   0.002444   4.459201   0.445861   0.417386   0.026871
     H   13   0.034406   0.002622   4.461886   0.444640   0.452450   0.028504
     H   14   0.332746   0.002153   0.444563   0.032778   4.317159   0.003766
     H   15   0.001386   0.065392   0.030849   0.438652   0.002997   4.471514
     H   16   0.001124   0.064977   0.028345   0.452442   0.003537   4.433273
     H   17   0.346521   0.001476   0.014119   0.002124   0.055684   0.000969
     H   18   0.346997   0.001629   0.010555   0.001751   0.060443   0.001500
     H   19   0.001229   0.662863   0.002636   0.031886   0.001529   0.464003


                  C  7       C  8       C  9       H 10       H 11       H 12
 ------------------------------------------------------------------------------
     C    7  14.124324
     C    8   0.009623  20.162903
     C    9   4.407251   0.017134   8.653735
     H   10   0.002802   0.029369   0.003629   5.079749
     H   11   0.001070   0.046319   0.003117   0.564248   5.040513
     H   12   0.008071   0.003239   0.025943   0.045440   0.023713   5.051548
     H   13   0.006944   0.003651   0.023957   0.025371   0.045706   0.551581
     H   14   0.056934   0.002677   0.305730   0.002569   0.026965   0.019672
     H   15   0.001085   0.485289   0.001482   0.024952   0.044736   0.001828
     H   16   0.001280   0.389675   0.001426   0.046143   0.023982   0.021432
     H   17   4.562707   0.002006   0.334284   0.000531   0.000292   0.001377
     H   18   4.591072   0.002092   0.339159   0.000575   0.000222   0.001183
     H   19   0.000930   4.387483   0.001194   0.003013   0.025895   0.000507


                  H 13       H 14       H 15       H 16       H 17       H 18
 ------------------------------------------------------------------------------
     H   13   5.063066
     H   14   0.039901   4.715916
     H   15   0.023436   0.000415   5.090565
     H   16   0.001858   0.000449   0.565794   5.030540
     H   17   0.002027   0.007450   0.000242   0.000159   5.053869
     H   18   0.000595   0.011172   0.000122   0.000222   0.510702   5.083760
     H   19   0.000685   0.000223   0.038407   0.026565   0.000171   0.000205


                  H 19
 ------------------
     H   19   4.805335


          HEAT OF FORMATION =      25.240274 KCALS/MOLE

          ZERO POINT ENERGY      95.468 KCAL/MOL


           NORMAL COORDINATE ANALYSIS (Total motion = 1 Angstrom)


   Root No.       1         2         3         4         5         6         7         8

                 1 A       2 A       3 A       4 A       5 A       6 A       7 A       8 A   

                  32.5      55.8      75.7      89.1     120.0     201.2     284.4     310.1
  
           1   -0.0402    0.0050   -0.0106    0.0255   -0.0266    0.0019    0.0471    0.0186
           2    0.0051    0.0065   -0.0009    0.0060   -0.0035    0.0096    0.0197   -0.0174
           3    0.0162   -0.0433   -0.0174   -0.0011   -0.0333    0.0270    0.0106    0.0176
           4    0.0524    0.0345   -0.0116   -0.0003   -0.0084    0.0070   -0.0281   -0.0463
           5    0.0551    0.0577   -0.0073   -0.0096    0.0055    0.0029    0.0225    0.0211
           6   -0.0416    0.0081   -0.0005   -0.0354    0.0201    0.0202    0.0208   -0.0115
           7   -0.0005   -0.0014    0.0048   -0.0025   -0.0038    0.0161    0.0102    0.0118
           8   -0.0413    0.0134   -0.0150    0.0366   -0.0296    0.0082   -0.0160   -0.0051
           9    0.0307   -0.0139    0.0294   -0.0187   -0.0285   -0.0314    0.0391   -0.0124
          10    0.0019   -0.0178    0.0016   -0.0112   -0.0006    0.0001   -0.0296   -0.0043
          11   -0.0304   -0.0204   -0.0315   -0.0241   -0.0405   -0.0239   -0.0332   -0.0044
          12    0.0189    0.0038    0.0472    0.0532   -0.0051   -0.0233   -0.0142   -0.0087
          13    0.0028   -0.0091    0.0074    0.0010   -0.0106   -0.0071    0.0186    0.0309
          14   -0.0188    0.0301    0.0038    0.0126   -0.0085    0.0140    0.0278   -0.0349
          15    0.0081   -0.0066    0.0112   -0.0111   -0.0268    0.0260    0.0064   -0.0087
          16   -0.0001   -0.0098    0.0146   -0.0080   -0.0134   -0.0026   -0.0336   -0.0329
          17   -0.0373   -0.0235    0.0395   -0.0186   -0.0076   -0.0227   -0.0308    0.0160
          18    0.0286   -0.0135   -0.0352    0.0408    0.0043   -0.0146   -0.0237    0.0218
          19   -0.0336    0.0136   -0.0127    0.0120    0.0230   -0.0358    0.0271    0.0171
          20    0.0411   -0.0147   -0.0001   -0.0124    0.0235   -0.0119   -0.0035    0.0132
          21   -0.0246    0.0105   -0.0236   -0.0047    0.0430   -0.0296   -0.0045   -0.0285
          22    0.0103   -0.0180    0.0032   -0.0087    0.0197    0.0287   -0.0080   -0.0624
          23    0.0039   -0.0594    0.0076    0.0160    0.0439    0.0158    0.0100    0.0028
          24   -0.0071    0.0193   -0.0141   -0.0070   -0.0007   -0.0065   -0.0177    0.0059
          25    0.0109   -0.0019    0.0079   -0.0134    0.0265   -0.0066   -0.0124    0.0915
          26    0.0185    0.0076    0.0055   -0.0059    0.0143    0.0065    0.0032    0.0093
          27   -0.0332    0.0470    0.0097   -0.0152    0.0260    0.0417   -0.0316    0.0365
          28    0.0030   -0.0327    0.0326   -0.0359    0.0064   -0.0144   -0.0365   -0.0015
          29   -0.0343   -0.0116   -0.0203   -0.0066   -0.0367   -0.0176   -0.0344   -0.0068
          30   -0.0004    0.0345    0.1301    0.1197    0.0183   -0.0065   -0.0265   -0.0160
          31    0.0043   -0.0221   -0.0406    0.0018    0.0078    0.0050   -0.0511    0.0087
          32   -0.0110   -0.0515   -0.1101   -0.0950   -0.0654   -0.0413   -0.0162    0.0007
          33    0.0204    0.0014    0.0405    0.0474   -0.0067   -0.0241   -0.0128   -0.0089
          34    0.0066    0.0194    0.0206    0.0149    0.0084    0.0230    0.0465   -0.0018
          35   -0.0364    0.0059   -0.0179    0.0190   -0.0328   -0.0020   -0.0099   -0.0061
          36    0.0596   -0.0341    0.0269   -0.0923   -0.0372   -0.0786    0.1025   -0.0334
          37   -0.0107   -0.0037   -0.0097   -0.0170   -0.0120    0.0445    0.0039    0.0170
          38   -0.0697    0.0349   -0.0102    0.1148   -0.0184    0.0527   -0.0807    0.0165
          39    0.0281   -0.0121    0.0295   -0.0124   -0.0272   -0.0274    0.0342   -0.0100
          40    0.0237   -0.0261    0.0174    0.0004   -0.0246   -0.0424    0.0366    0.0203
          41   -0.0377    0.0714    0.0222    0.0046    0.0063    0.0215    0.0329   -0.0500
          42    0.0101   -0.0102    0.0098   -0.0105   -0.0271    0.0233    0.0056   -0.0069
          43    0.0063   -0.0095    0.0559    0.0130   -0.0169   -0.0122   -0.0333   -0.0404
          44   -0.0810    0.0165    0.1301   -0.0482   -0.0234   -0.0389   -0.0436    0.0037
          45    0.0252   -0.0103   -0.0281    0.0382    0.0032   -0.0155   -0.0236    0.0210
          46   -0.0150    0.0058   -0.0104   -0.0266   -0.0468   -0.0166   -0.0524   -0.0351
          47   -0.0260   -0.0337    0.0248   -0.0101    0.0020   -0.0160   -0.0239    0.0188
          48    0.0706   -0.0510   -0.1311    0.0652    0.0203    0.0036   -0.0099    0.0350
          49   -0.0611    0.0376   -0.0327    0.0148    0.0870   -0.1180    0.0359   -0.0738
          50    0.0619   -0.0564   -0.0202   -0.0057    0.0148   -0.0534    0.0248   -0.0398
          51   -0.0258    0.0107   -0.0259   -0.0042    0.0477   -0.0381   -0.0025   -0.0392
          52   -0.0317    0.0051   -0.0080    0.0181   -0.0129   -0.0027    0.0375    0.0347
          53    0.0566   -0.0007    0.0165   -0.0340    0.0547    0.0009   -0.0485    0.0815
          54   -0.0413    0.0176   -0.0473   -0.0003    0.0958   -0.1137    0.0110   -0.1260
          55   -0.0211   -0.0720    0.0069   -0.0170    0.0726    0.0771    0.0397   -0.1027
          56   -0.0128   -0.1971   -0.0030    0.0674    0.1215    0.0635    0.0376   -0.0394
          57   -0.0007    0.0550   -0.0120   -0.0181   -0.0225   -0.0209   -0.0270    0.0183


   Root No.       9        10        11        12        13        14        15        16

                 9 A      10 A      11 A      12 A      13 A      14 A      15 A      16 A   

                 431.1     487.5     554.7     741.9     755.4     799.1     846.0     886.5
  
           1   -0.0222   -0.0270   -0.0041    0.0126    0.0053   -0.0157   -0.0126   -0.0052
           2   -0.0274   -0.0092   -0.0125   -0.0102    0.0038    0.0032    0.0445   -0.0317
           3   -0.0151   -0.0239   -0.0088    0.0127   -0.0001    0.0077    0.0027    0.0116
           4   -0.0059   -0.0280    0.0456    0.0025   -0.0069   -0.0046    0.0016   -0.0010
           5    0.0119    0.0140   -0.0297   -0.0021    0.0103    0.0093   -0.0070   -0.0054
           6    0.0233    0.0011   -0.0266    0.0014   -0.0008   -0.0035    0.0011    0.0024
           7   -0.0082    0.0534    0.0062   -0.0156   -0.0049    0.0221    0.0133    0.0078
           8    0.0522    0.0045    0.0197   -0.0056   -0.0118    0.0262    0.0080    0.0168
           9    0.0273   -0.0054    0.0142   -0.0096    0.0016   -0.0146    0.0168   -0.0057
          10   -0.0292    0.0283   -0.0387   -0.0055    0.0046    0.0091   -0.0039   -0.0046
          11    0.0288   -0.0159   -0.0122    0.0081   -0.0067    0.0091   -0.0151   -0.0150
          12    0.0174   -0.0162   -0.0284    0.0023    0.0187   -0.0069    0.0061    0.0101
          13    0.0161    0.0259    0.0157   -0.0082   -0.0041    0.0130    0.0208    0.0002
          14   -0.0270    0.0059   -0.0038   -0.0005   -0.0019    0.0067   -0.0037    0.0226
          15    0.0141    0.0591    0.0286    0.0040   -0.0013   -0.0206   -0.0432   -0.0135
          16    0.0009    0.0030   -0.0455    0.0005    0.0043   -0.0004   -0.0046    0.0012
          17   -0.0366    0.0066    0.0090    0.0042   -0.0210   -0.0201    0.0088    0.0037
          18   -0.0283    0.0121   -0.0084   -0.0028    0.0160    0.0119   -0.0100    0.0018
          19    0.0026   -0.0139    0.0041   -0.0176   -0.0005   -0.0182   -0.0351   -0.0005
          20    0.0079   -0.0021    0.0034   -0.0046   -0.0002   -0.0078   -0.0183    0.0066
          21   -0.0017    0.0009   -0.0061   -0.0592   -0.0076    0.0054    0.0070    0.0057
          22    0.0213   -0.0249    0.0042    0.0043   -0.0088   -0.0152    0.0094    0.0118
          23   -0.0089    0.0017    0.0198   -0.0007   -0.0086   -0.0096    0.0134    0.0139
          24   -0.0338   -0.0071    0.0641   -0.0021   -0.0053    0.0058   -0.0009   -0.0073
          25    0.0335   -0.0186    0.0134    0.0254   -0.0006    0.0083    0.0152    0.0067
          26   -0.0082   -0.0102   -0.0021    0.0128    0.0058   -0.0223   -0.0273   -0.0247
          27   -0.0059   -0.0212   -0.0099    0.0313    0.0049    0.0056    0.0174   -0.0061
          28   -0.0705    0.0298   -0.0580    0.0011   -0.0075   -0.0422   -0.0022   -0.0353
          29    0.0369   -0.0163   -0.0100    0.0130   -0.0308    0.0306   -0.0288   -0.0236
          30    0.0236   -0.0177   -0.0384    0.0373   -0.1299    0.0650   -0.0711   -0.0707
          31   -0.0518    0.0381   -0.0517   -0.0140    0.0462    0.0383   -0.0150    0.0178
          32    0.0270   -0.0164   -0.0005   -0.0257    0.1413   -0.0690    0.0647    0.0636
          33    0.0168   -0.0164   -0.0276    0.0006    0.0272   -0.0115    0.0102    0.0150
          34   -0.0412    0.0527    0.0030   -0.0294    0.0026    0.0382    0.0520    0.0730
          35    0.0466   -0.0088    0.0144    0.0021   -0.0267    0.0504   -0.0053    0.0156
          36   -0.0288   -0.0796   -0.0187    0.0195   -0.0748    0.1327   -0.0248    0.0381
          37    0.0027    0.1109    0.0400   -0.0277   -0.0134    0.0029   -0.0194   -0.0374
          38    0.1079    0.0696    0.0479   -0.0324    0.0658   -0.1159    0.0604   -0.0131
          39    0.0306   -0.0007    0.0163   -0.0107    0.0062   -0.0239    0.0192   -0.0083
          40    0.0488    0.0289    0.0302   -0.0750   -0.0107    0.0219    0.1101   -0.0509
          41   -0.0425    0.0271    0.0002    0.0382    0.0008   -0.0072   -0.0906    0.1718
          42    0.0163    0.0545    0.0273   -0.0017   -0.0017   -0.0184   -0.0314   -0.0304
          43    0.0187   -0.0004   -0.0919   -0.0040    0.0523   -0.0029    0.0031    0.0424
          44   -0.0692   -0.0205    0.1103   -0.0287    0.1259    0.0707   -0.0319    0.0048
          45   -0.0295    0.0110   -0.0035   -0.0047    0.0242    0.0173   -0.0125    0.0017
          46    0.0141   -0.0026   -0.0590    0.0021    0.0204    0.0520   -0.0677   -0.0725
          47   -0.0326    0.0131   -0.0060    0.0098   -0.0517   -0.0465    0.0282    0.0170
          48    0.0020    0.0406   -0.1056    0.0316   -0.1410   -0.0828    0.0316   -0.0021
          49    0.0165    0.0676    0.0286    0.1561    0.0198   -0.0108    0.0003   -0.0557
          50    0.0125    0.0564    0.0269    0.2318    0.0228    0.0105   -0.0110    0.0805
          51   -0.0003    0.0119   -0.0027   -0.0283   -0.0043    0.0084    0.0128    0.0061
          52   -0.0155   -0.0405   -0.0070   -0.0497   -0.0006   -0.0278   -0.0316   -0.0183
          53    0.0413   -0.0350    0.0037   -0.1590   -0.0247   -0.0134   -0.0941    0.0697
          54    0.0108    0.0913    0.0204    0.1599    0.0156    0.0297    0.0632   -0.0126
          55    0.0819   -0.0452   -0.0100    0.0007    0.0335    0.0304   -0.0339   -0.0347
          56    0.0207   -0.0308    0.0782   -0.0168    0.0840    0.1006   -0.0793   -0.0829
          57   -0.0436    0.0020    0.0490    0.0021   -0.0298   -0.0235    0.0238    0.0187


   Root No.      17        18        19        20        21        22        23        24

                17 A      18 A      19 A      20 A      21 A      22 A      23 A      24 A   

                 924.1     945.8     961.0     983.8    1025.8    1040.5    1102.0    1112.3
  
           1    0.0067    0.0168    0.0523   -0.0054   -0.0103    0.0044   -0.0043    0.0065
           2    0.0047    0.0020    0.0148    0.0287   -0.0050    0.0005    0.0046   -0.0068
           3   -0.0059    0.0171   -0.0332    0.0027    0.0170   -0.0037    0.0023   -0.0008
           4    0.0025    0.0015   -0.0015    0.0000   -0.0041   -0.0139    0.0016    0.0016
           5    0.0048    0.0022   -0.0023   -0.0019   -0.0015   -0.0042    0.0014    0.0013
           6   -0.0025   -0.0012    0.0015    0.0017    0.0005    0.0005   -0.0005    0.0025
           7   -0.0020    0.0006   -0.0080   -0.0105   -0.0109    0.0049    0.0314   -0.0192
           8   -0.0170   -0.0058   -0.0027   -0.0133   -0.0122   -0.0012   -0.0180   -0.0088
           9    0.0137    0.0065   -0.0065   -0.0097    0.0167    0.0109    0.0069   -0.0175
          10    0.0024    0.0008   -0.0009   -0.0071    0.0075   -0.0038   -0.0175   -0.0432
          11    0.0097    0.0012    0.0018    0.0105    0.0071    0.0044    0.0116   -0.0182
          12   -0.0039    0.0009   -0.0025    0.0016   -0.0194   -0.0124    0.0097   -0.0060
          13    0.0042    0.0015   -0.0026    0.0043    0.0063   -0.0088   -0.0017   -0.0055
          14    0.0022    0.0056   -0.0222   -0.0072    0.0052   -0.0056   -0.0108    0.0084
          15   -0.0116   -0.0079    0.0180    0.0204   -0.0226   -0.0031   -0.0240    0.0140
          16   -0.0009   -0.0001   -0.0009   -0.0024    0.0015    0.0220    0.0152    0.0225
          17    0.0040    0.0043   -0.0066   -0.0044   -0.0147   -0.0371    0.0043    0.0323
          18   -0.0093   -0.0066    0.0093    0.0085    0.0105    0.0045   -0.0136    0.0117
          19   -0.0122   -0.0220   -0.0367   -0.0176    0.0151   -0.0046    0.0091   -0.0099
          20    0.0050   -0.0008    0.0204   -0.0123    0.0008    0.0004    0.0016   -0.0017
          21    0.0173   -0.0198    0.0161    0.0133   -0.0134    0.0026   -0.0060    0.0049
          22   -0.0129   -0.0066    0.0077    0.0070    0.0062    0.0107   -0.0142    0.0016
          23   -0.0157   -0.0082    0.0081    0.0041    0.0139    0.0584    0.0002   -0.0053
          24    0.0099    0.0054   -0.0071   -0.0068   -0.0044    0.0057    0.0200   -0.0058
          25    0.0101   -0.0003   -0.0054    0.0464   -0.0204    0.0046   -0.0152    0.0126
          26   -0.0239   -0.0166   -0.0248   -0.0059   -0.0014    0.0031   -0.0036    0.0061
          27   -0.0011   -0.0044    0.0085   -0.0345    0.0158   -0.0040    0.0070   -0.0049
          28    0.0736    0.0484   -0.0524   -0.0517   -0.0319    0.0098   -0.1510   -0.1603
          29    0.0038   -0.0069    0.0130    0.0217    0.0249    0.0086    0.0352   -0.0058
          30    0.0332    0.0017    0.0111    0.0215    0.0409    0.0247    0.0124   -0.0450
          31   -0.0597   -0.0393    0.0491    0.0228    0.0550   -0.1052   -0.0642    0.0241
          32   -0.0165    0.0078   -0.0210   -0.0115   -0.0670   -0.0190    0.0287   -0.0069
          33   -0.0057    0.0012   -0.0036    0.0007   -0.0243   -0.0141    0.0110   -0.0053
          34    0.0023    0.0343   -0.0998   -0.1100   -0.1311    0.0609    0.0003    0.0881
          35   -0.0327   -0.0170    0.0147    0.0015   -0.0060   -0.0147   -0.0198   -0.0263
          36   -0.0698   -0.0263    0.0156   -0.0158   -0.0522   -0.0098   -0.0262   -0.0131
          37   -0.0057   -0.0247    0.0494    0.0397    0.0835   -0.0252    0.1725    0.0096
          38    0.0672    0.0331   -0.0413   -0.0255    0.0398    0.0296   -0.0103   -0.0365
          39    0.0191    0.0090   -0.0083   -0.0095    0.0201    0.0129    0.0087   -0.0201
          40    0.0050   -0.0172    0.0063   -0.0854    0.1882   -0.0861   -0.1151    0.1715
          41    0.1256    0.0474   -0.0580    0.1783    0.1061   -0.0254   -0.0093    0.0128
          42   -0.0250   -0.0134    0.0215   -0.0038   -0.0281   -0.0030   -0.0273    0.0172
          43   -0.0621   -0.0345    0.0427    0.0375    0.0155   -0.0369    0.1289    0.0532
          44   -0.0288   -0.0200    0.0267    0.0215    0.0321    0.0205   -0.0538    0.0019
          45   -0.0112   -0.0080    0.0114    0.0102    0.0134    0.0072   -0.0164    0.0095
          46    0.0887    0.0464   -0.0574   -0.0415   -0.0153    0.2046   -0.0134    0.1875
          47   -0.0059    0.0007   -0.0032   -0.0026   -0.0217   -0.0875    0.0165    0.0115
          48    0.0294    0.0215   -0.0288   -0.0213   -0.0419   -0.0757    0.0205    0.0610
          49   -0.1028    0.1573   -0.0863    0.0279    0.0361   -0.0061    0.0132   -0.0127
          50    0.1014   -0.1456    0.1123   -0.1454    0.0207   -0.0090    0.0183   -0.0148
          51    0.0171   -0.0145    0.0195    0.0084   -0.0108    0.0019   -0.0053    0.0046
          52    0.0145   -0.1681   -0.0831    0.0103   -0.0011   -0.0006    0.0069   -0.0114
          53   -0.0277    0.2315    0.1168   -0.0911    0.0345   -0.0112    0.0188   -0.0157
          54   -0.0150    0.0942    0.0287    0.0215   -0.0068    0.0036   -0.0155    0.0190
          55    0.0367    0.0184   -0.0170   -0.0063   -0.0333   -0.1612   -0.0199    0.0111
          56    0.0879    0.0439   -0.0479   -0.0330   -0.0462   -0.1003    0.0577    0.0145
          57   -0.0178   -0.0086    0.0078    0.0029    0.0121    0.0543    0.0077   -0.0104


   Root No.      25        26        27        28        29        30        31        32

                25 A      26 A      27 A      28 A      29 A      30 A      31 A      32 A   

                1120.4    1122.6    1139.5    1149.7    1154.5    1185.8    1205.0    1231.7
  
           1   -0.0131   -0.0106    0.0153    0.0080    0.0055   -0.0033   -0.0011    0.0029
           2    0.0136    0.0139   -0.0158   -0.0116   -0.0065   -0.0076    0.0149   -0.0179
           3    0.0016    0.0014   -0.0025   -0.0008    0.0001    0.0023   -0.0021    0.0016
           4    0.0041   -0.0017   -0.0011    0.0019    0.0015   -0.0020   -0.0039   -0.0061
           5   -0.0038   -0.0021   -0.0015   -0.0011   -0.0021   -0.0019   -0.0012    0.0008
           6    0.0035   -0.0046   -0.0045    0.0019    0.0006   -0.0072   -0.0111   -0.0104
           7    0.0085   -0.0023    0.0159    0.0014    0.0185   -0.0133   -0.0035    0.0197
           8   -0.0380   -0.0155   -0.0122   -0.0085    0.0110   -0.0044    0.0125   -0.0099
           9   -0.0117   -0.0423    0.0099   -0.0236   -0.0104    0.0088    0.0024   -0.0038
          10   -0.0221    0.0041    0.0187   -0.0107   -0.0100   -0.0038   -0.0118    0.0105
          11    0.0399    0.0079    0.0219    0.0264   -0.0079    0.0077   -0.0035   -0.0044
          12    0.0026    0.0460    0.0119    0.0050    0.0269    0.0077   -0.0105   -0.0035
          13    0.0232    0.0315   -0.0127   -0.0024   -0.0075   -0.0200    0.0078    0.0166
          14    0.0147    0.0044   -0.0201   -0.0018   -0.0186    0.0433   -0.0379    0.0215
          15    0.0075    0.0228   -0.0087    0.0049   -0.0147   -0.0043    0.0035   -0.0067
          16   -0.0279   -0.0086   -0.0160   -0.0052   -0.0198   -0.0167   -0.0103    0.0073
          17    0.0055   -0.0135   -0.0068   -0.0169    0.0099   -0.0068    0.0014    0.0003
          18    0.0300   -0.0432   -0.0200    0.0012    0.0095   -0.0104    0.0062    0.0087
          19    0.0178    0.0148   -0.0189   -0.0118   -0.0067    0.0010    0.0041   -0.0051
          20   -0.0080   -0.0015    0.0124    0.0049    0.0097   -0.0242    0.0177   -0.0011
          21   -0.0059   -0.0051    0.0062    0.0048    0.0004    0.0039   -0.0055    0.0031
          22    0.0230   -0.0096   -0.0028   -0.0019    0.0140   -0.0073   -0.0121   -0.0112
          23   -0.0068    0.0211    0.0072    0.0032   -0.0025    0.0132    0.0128    0.0078
          24   -0.0318    0.0236    0.0066    0.0063   -0.0193    0.0121    0.0126    0.0093
          25   -0.0054   -0.0111   -0.0069    0.0001   -0.0103    0.0282   -0.0171   -0.0025
          26   -0.0233   -0.0177    0.0271    0.0149    0.0125    0.0000   -0.0129    0.0181
          27    0.0045    0.0067   -0.0006   -0.0013    0.0039   -0.0142    0.0111   -0.0026
          28   -0.0493   -0.0202   -0.1137    0.1218    0.0652    0.0863    0.0677   -0.0735
          29    0.0581    0.0008    0.0513    0.0111   -0.0324   -0.0072   -0.0175    0.0103
          30    0.0694   -0.0098    0.0414    0.0389   -0.0258    0.0117   -0.0103   -0.0006
          31   -0.0316    0.0450    0.1485   -0.1248   -0.0566    0.1213    0.0320   -0.1351
          32   -0.0039    0.0905   -0.0059    0.0299    0.0638   -0.0080   -0.0267    0.0179
          33   -0.0002    0.0521    0.0108    0.0037    0.0336    0.0081   -0.0123   -0.0025
          34    0.1127   -0.0856    0.1239    0.0898   -0.0407    0.0131    0.0566   -0.1279
          35   -0.0649    0.0048   -0.0352   -0.0197    0.0294   -0.0155    0.0083    0.0113
          36   -0.0654   -0.0032   -0.0176   -0.0129    0.0332   -0.0258    0.0283   -0.0158
          37   -0.0288   -0.0619   -0.0377    0.0216    0.1878    0.1403   -0.0315   -0.0902
          38   -0.0057   -0.0814    0.0317   -0.0446   -0.0572   -0.0071    0.0104    0.0077
          39   -0.0089   -0.0479    0.0139   -0.0280   -0.0142    0.0097    0.0025   -0.0042
          40   -0.0451    0.0687    0.0244    0.1260    0.0161   -0.0168   -0.0231    0.0008
          41   -0.0552    0.0203    0.0472    0.0268    0.0420   -0.0913    0.0656   -0.0328
          42    0.0124    0.0216   -0.0136    0.0045   -0.0208    0.0087   -0.0068   -0.0024
          43   -0.0699   -0.0517   -0.0814    0.1239   -0.1476    0.0551    0.1271    0.0077
          44    0.0834   -0.0879   -0.0226   -0.0146    0.0406   -0.0365   -0.0150    0.0114
          45    0.0355   -0.0498   -0.0225    0.0027    0.0121   -0.0121    0.0067    0.0108
          46   -0.0193    0.0748   -0.0255   -0.0902    0.0768    0.0450    0.0651    0.0041
          47   -0.0034   -0.0241   -0.0034   -0.0077   -0.0077   -0.0203   -0.0143   -0.0005
          48   -0.0144   -0.0118   -0.0162   -0.0311    0.0129   -0.0179   -0.0017    0.0016
          49    0.0106    0.0187   -0.0191   -0.0183    0.0011   -0.0420    0.0667   -0.0840
          50    0.0509    0.0321   -0.0557   -0.0310   -0.0266    0.0271   -0.0002   -0.0367
          51   -0.0041   -0.0037    0.0042    0.0038   -0.0006    0.0046   -0.0051    0.0011
          52    0.0052    0.0116   -0.0083   -0.0098    0.0026   -0.0313    0.0409   -0.0398
          53    0.0538    0.0370   -0.0536   -0.0295   -0.0278    0.0294   -0.0091   -0.0206
          54   -0.0293   -0.0287    0.0353    0.0267    0.0106    0.0252   -0.0542    0.0808
          55    0.0572   -0.0276    0.0347   -0.0321    0.0439    0.0944    0.1892    0.1660
          56   -0.0775   -0.0037   -0.0309    0.0158   -0.0535   -0.0630   -0.1023   -0.0815
          57   -0.0173    0.0299    0.0120    0.0062   -0.0096    0.0227    0.0263    0.0189


   Root No.      33        34        35        36        37        38        39        40

                33 A      34 A      35 A      36 A      37 A      38 A      39 A      40 A   

                1275.1    1298.2    1335.4    1377.8    1382.8    1404.4    1410.4    1437.7
  
           1    0.0016    0.0114    0.0048   -0.0004   -0.0009   -0.0027    0.0004    0.0028
           2   -0.0146   -0.0292   -0.0065    0.0011    0.0027    0.0089   -0.0014   -0.0129
           3    0.0007   -0.0017   -0.0004   -0.0001   -0.0002    0.0002    0.0001   -0.0004
           4    0.0073   -0.0026    0.0075   -0.0015    0.0033    0.0048   -0.0024    0.0019
           5   -0.0026    0.0010   -0.0033    0.0001   -0.0011   -0.0023    0.0017   -0.0010
           6    0.0078   -0.0025    0.0058   -0.0016    0.0026    0.0030   -0.0010    0.0011
           7    0.0059   -0.0092    0.0462   -0.0046   -0.0117   -0.0059    0.0052   -0.0737
           8   -0.0045   -0.0082   -0.0066   -0.0120   -0.0173    0.0227    0.0108    0.0108
           9    0.0035    0.0021    0.0020   -0.0111   -0.0169    0.0170    0.0102    0.0011
          10   -0.0242    0.0072    0.0005   -0.0012    0.0199    0.0484   -0.0288    0.0475
          11    0.0024    0.0013   -0.0007   -0.0129   -0.0072   -0.0154   -0.0246   -0.0149
          12   -0.0024    0.0017   -0.0015   -0.0113   -0.0040   -0.0068   -0.0261   -0.0062
          13    0.0393   -0.0037   -0.0183   -0.0035   -0.0080   -0.0326    0.0080    0.0822
          14    0.0083    0.0509    0.0038    0.0024    0.0038   -0.0027   -0.0037    0.0002
          15   -0.0098   -0.0032   -0.0068    0.0028    0.0055    0.0078   -0.0038   -0.0115
          16   -0.0260    0.0113   -0.0438    0.0010   -0.0187   -0.0439    0.0277   -0.0237
          17    0.0078   -0.0036    0.0098   -0.0219    0.0215    0.0050    0.0121    0.0012
          18   -0.0000   -0.0009    0.0015   -0.0192    0.0162   -0.0024    0.0154   -0.0027
          19    0.0005   -0.0394   -0.0276    0.0042    0.0088    0.0223   -0.0047   -0.0342
          20    0.0284    0.0728   -0.0258    0.0049    0.0095    0.0167   -0.0050   -0.0250
          21   -0.0053    0.0085    0.0201   -0.0032   -0.0066   -0.0162    0.0035    0.0246
          22    0.0101   -0.0034    0.0092   -0.0022    0.0042    0.0054   -0.0023    0.0021
          23   -0.0046    0.0018   -0.0040    0.0037   -0.0044   -0.0028   -0.0015   -0.0012
          24   -0.0098    0.0037   -0.0100    0.0045   -0.0065   -0.0061    0.0005   -0.0023
          25   -0.0167    0.0067    0.0067    0.0014    0.0028    0.0064   -0.0027   -0.0142
          26   -0.0006   -0.0514    0.0214   -0.0062   -0.0122   -0.0242    0.0075    0.0404
          27    0.0080    0.0069   -0.0076    0.0003    0.0008    0.0021    0.0001   -0.0005
          28    0.0672   -0.0230    0.0024    0.0068   -0.0398   -0.0665    0.0420   -0.0669
          29   -0.0139    0.0074    0.0061    0.0259    0.0150    0.0227    0.0272    0.0144
          30   -0.0016    0.0055    0.0288    0.1379    0.0403    0.0607    0.2101    0.0281
          31    0.1022   -0.0243    0.0058    0.0258   -0.0418   -0.0668    0.0740   -0.0668
          32   -0.0213    0.0069    0.0272    0.1378    0.0476    0.0731    0.2017    0.0394
          33   -0.0040    0.0025    0.0016    0.0116    0.0028    0.0039    0.0100    0.0001
          34   -0.0527   -0.0284   -0.0951    0.0026    0.0152    0.0202   -0.0128    0.0794
          35    0.0016   -0.0147    0.0186    0.0197    0.0295   -0.0205   -0.0102   -0.0182
          36   -0.0134   -0.0394    0.0110    0.1110    0.1735   -0.1222   -0.0786   -0.0183
          37   -0.0303    0.0337   -0.0948    0.0209    0.0419   -0.0130   -0.0250    0.1022
          38    0.0069   -0.0168    0.0300    0.1115    0.1729   -0.1303   -0.0777   -0.0262
          39    0.0045    0.0003    0.0041    0.0076    0.0120   -0.0065   -0.0033   -0.0010
          40   -0.0706    0.0033    0.0274    0.0080    0.0159    0.0231   -0.0133   -0.0753
          41   -0.0210   -0.0916   -0.0031   -0.0041   -0.0063    0.0029    0.0044    0.0048
          42   -0.0099    0.0109   -0.0049    0.0038    0.0073    0.0103   -0.0053   -0.0197
          43    0.0884   -0.0366    0.1023    0.0274    0.0126    0.0772   -0.0523    0.0392
          44   -0.0093   -0.0002   -0.0064    0.1765   -0.1515    0.0096   -0.0991    0.0084
          45   -0.0012   -0.0010    0.0016    0.0097   -0.0078    0.0009   -0.0024   -0.0001
          46    0.0708   -0.0269    0.0814    0.0097    0.0209    0.0615   -0.0330    0.0321
          47   -0.0082    0.0019   -0.0108    0.0294   -0.0292   -0.0070   -0.0100   -0.0038
          48    0.0100   -0.0071    0.0113    0.1729   -0.1420    0.0229   -0.1036    0.0153
          49   -0.0792    0.1899    0.1159   -0.0111   -0.0226   -0.0477    0.0095    0.0573
          50   -0.0798   -0.0798    0.0690   -0.0099   -0.0188   -0.0311    0.0089    0.0415
          51   -0.0096    0.0076    0.0260   -0.0041   -0.0085   -0.0202    0.0045    0.0310
          52   -0.0187    0.1150    0.0271   -0.0004   -0.0011   -0.0034   -0.0007   -0.0022
          53   -0.0591   -0.1145    0.0373   -0.0059   -0.0111   -0.0167    0.0053    0.0217
          54    0.0929   -0.1415   -0.1290    0.0139    0.0280    0.0592   -0.0123   -0.0748
          55   -0.0848    0.0222   -0.0434   -0.0008   -0.0070   -0.0198    0.0152   -0.0079
          56    0.0340   -0.0083    0.0112   -0.0011    0.0015    0.0025   -0.0012    0.0007
          57   -0.0128    0.0045   -0.0102    0.0057   -0.0071   -0.0059   -0.0005   -0.0022


   Root No.      41        42        43        44        45        46        47        48

                41 A      42 A      43 A      44 A      45 A      46 A      47 A      48 A   

                1984.6    2897.9    2930.0    2943.7    2955.2    2961.5    2981.9    3027.0
  
           1    0.0002    0.0001    0.0000    0.0001   -0.0001   -0.0002    0.0002    0.0001
           2    0.0001   -0.0002    0.0000    0.0001   -0.0001   -0.0001    0.0001    0.0000
           3   -0.0001    0.0005    0.0000    0.0000   -0.0000   -0.0000    0.0004   -0.0000
           4   -0.2104    0.0000    0.0040   -0.0006   -0.0005    0.0002   -0.0000   -0.0000
           5    0.0808   -0.0000   -0.0016    0.0002    0.0002   -0.0001    0.0000    0.0000
           6   -0.1362   -0.0000    0.0023   -0.0002   -0.0001    0.0000   -0.0000   -0.0001
           7    0.0013   -0.0008   -0.0002   -0.0015    0.0024    0.0025    0.0000   -0.0033
           8   -0.0006   -0.0034   -0.0011   -0.0096    0.0153    0.0157    0.0002   -0.0186
           9   -0.0003    0.0038    0.0013    0.0107   -0.0171   -0.0174   -0.0000   -0.0176
          10   -0.0071   -0.0001    0.0010    0.0025   -0.0007    0.0023   -0.0000    0.0020
          11    0.0016    0.0011    0.0033    0.0153   -0.0039    0.0137   -0.0000    0.0094
          12    0.0005   -0.0018   -0.0047   -0.0196    0.0051   -0.0182   -0.0000    0.0062
          13    0.0006    0.0032   -0.0000   -0.0001    0.0001    0.0001   -0.0003   -0.0005
          14   -0.0006   -0.0060    0.0000    0.0001   -0.0001   -0.0000   -0.0002   -0.0002
          15   -0.0002   -0.0648    0.0004    0.0016   -0.0016   -0.0010   -0.0009   -0.0006
          16   -0.0230   -0.0000   -0.0012   -0.0021   -0.0034    0.0017    0.0000   -0.0003
          17    0.0131   -0.0002   -0.0062   -0.0117   -0.0196    0.0096    0.0000   -0.0030
          18   -0.0001    0.0002    0.0076    0.0119    0.0198   -0.0096    0.0000   -0.0038
          19   -0.0001   -0.0003    0.0000   -0.0000    0.0000    0.0000   -0.0269   -0.0003
          20    0.0002   -0.0001   -0.0000   -0.0000   -0.0000   -0.0000   -0.0097   -0.0001
          21   -0.0000    0.0007   -0.0000   -0.0000    0.0001    0.0001   -0.0544    0.0001
          22    0.3068   -0.0000   -0.0091    0.0010    0.0008   -0.0002    0.0000    0.0002
          23   -0.1257   -0.0000   -0.0101    0.0009    0.0004   -0.0000   -0.0000   -0.0001
          24    0.1623   -0.0001   -0.0555    0.0052    0.0032   -0.0007   -0.0000   -0.0002
          25   -0.0005    0.0003   -0.0000   -0.0000    0.0000    0.0000   -0.0005   -0.0001
          26    0.0002    0.0001   -0.0000   -0.0000    0.0000    0.0000   -0.0001   -0.0000
          27    0.0003   -0.0014    0.0000    0.0000   -0.0000   -0.0000   -0.0010   -0.0000
          28   -0.0022   -0.0023   -0.0057   -0.0293    0.0102   -0.0255    0.0000   -0.0239
          29    0.0028   -0.0111   -0.0372   -0.1691    0.0418   -0.1502    0.0002   -0.1353
          30   -0.0005    0.0018    0.0066    0.0310   -0.0072    0.0244   -0.0001    0.0352
          31   -0.0063   -0.0019    0.0011   -0.0017   -0.0028   -0.0015   -0.0000    0.0018
          32    0.0002   -0.0016   -0.0047   -0.0162    0.0045   -0.0131   -0.0000    0.0175
          33    0.0022    0.0188    0.0490    0.2054   -0.0546    0.1940    0.0003   -0.1143
          34   -0.0002    0.0038    0.0022    0.0182   -0.0284   -0.0267   -0.0002    0.0434
          35   -0.0007    0.0315    0.0127    0.1068   -0.1718   -0.1767   -0.0017    0.2703
          36   -0.0002   -0.0075   -0.0026   -0.0210    0.0324    0.0320    0.0003   -0.0728
          37   -0.0005    0.0046   -0.0002   -0.0004   -0.0004   -0.0026    0.0002   -0.0056
          38   -0.0005    0.0050    0.0012    0.0087   -0.0125   -0.0109    0.0000   -0.0418
          39   -0.0008   -0.0471   -0.0127   -0.1080    0.1739    0.1759    0.0005    0.2881
          40   -0.0006   -0.0217    0.0002    0.0004    0.0005    0.0014   -0.0001    0.0006
          41    0.0003    0.0826   -0.0006   -0.0024    0.0026    0.0019    0.0007    0.0005
          42   -0.0004    0.7864   -0.0048   -0.0193    0.0188    0.0118    0.0065    0.0060
          43    0.0598    0.0000   -0.0024    0.0021    0.0008    0.0016    0.0000   -0.0006
          44   -0.0273    0.0002    0.0073    0.0068    0.0100   -0.0043    0.0000   -0.0080
          45   -0.0052   -0.0020   -0.0823   -0.1162   -0.1943    0.0939   -0.0003    0.0596
          46    0.0102    0.0003    0.0125    0.0238    0.0423   -0.0225   -0.0001    0.0085
          47   -0.0031    0.0021    0.0675    0.1348    0.2278   -0.1117   -0.0004    0.0446
          48    0.0142   -0.0004   -0.0138   -0.0268   -0.0436    0.0207    0.0001   -0.0127
          49   -0.0003    0.0006   -0.0000   -0.0000   -0.0000   -0.0000   -0.0386   -0.0001
          50   -0.0002    0.0002   -0.0000   -0.0000    0.0000    0.0000   -0.0330    0.0001
          51   -0.0004    0.0019   -0.0000    0.0001   -0.0000   -0.0003    0.4979   -0.0033
          52    0.0001   -0.0126    0.0000    0.0007   -0.0009   -0.0008    0.3647    0.0039
          53   -0.0001   -0.0052    0.0000    0.0003   -0.0004   -0.0003    0.1491    0.0016
          54    0.0004   -0.0059    0.0000    0.0003   -0.0005   -0.0003    0.1595    0.0021
          55   -0.0356    0.0001    0.0426   -0.0042   -0.0019   -0.0001    0.0000    0.0002
          56    0.0769    0.0004    0.1470   -0.0144   -0.0098    0.0027    0.0000    0.0007
          57    0.2170    0.0016    0.6308   -0.0588   -0.0350    0.0074    0.0001    0.0029


   Root No.      49        50        51

                49 A      50 A      51 A   

                3030.7    3033.9    3037.3
  
           1    0.0000    0.0000   -0.0004
           2    0.0000   -0.0000    0.0002
           3   -0.0000   -0.0000    0.0001
           4    0.0000   -0.0000   -0.0000
           5    0.0000   -0.0001    0.0000
           6    0.0001   -0.0002   -0.0000
           7   -0.0012    0.0000   -0.0000
           8   -0.0090    0.0005   -0.0003
           9   -0.0080    0.0006   -0.0002
          10   -0.0032   -0.0020    0.0001
          11   -0.0191   -0.0089    0.0002
          12   -0.0130   -0.0065    0.0001
          13   -0.0001    0.0001   -0.0014
          14   -0.0001   -0.0000   -0.0002
          15   -0.0001    0.0001    0.0015
          16    0.0007   -0.0040   -0.0000
          17    0.0047   -0.0200   -0.0001
          18    0.0060   -0.0232   -0.0002
          19    0.0001   -0.0001    0.0361
          20    0.0000   -0.0000    0.0151
          21   -0.0000    0.0000   -0.0179
          22   -0.0003    0.0005    0.0000
          23    0.0002   -0.0006   -0.0000
          24    0.0004   -0.0010   -0.0000
          25   -0.0001   -0.0000    0.0008
          26   -0.0000    0.0000    0.0001
          27   -0.0000    0.0000   -0.0004
          28    0.0458    0.0217   -0.0006
          29    0.2666    0.1228   -0.0035
          30   -0.0701   -0.0329    0.0009
          31   -0.0051   -0.0011    0.0001
          32   -0.0350   -0.0168    0.0004
          33    0.2288    0.1098   -0.0027
          34    0.0197   -0.0023    0.0009
          35    0.1271   -0.0082    0.0050
          36   -0.0338    0.0023   -0.0013
          37   -0.0027   -0.0008   -0.0001
          38   -0.0193    0.0015   -0.0007
          39    0.1293   -0.0111    0.0040
          40    0.0011    0.0003   -0.0001
          41   -0.0002   -0.0001   -0.0009
          42    0.0007   -0.0010   -0.0083
          43    0.0022   -0.0063   -0.0000
          44    0.0124   -0.0500   -0.0005
          45   -0.0955    0.3642    0.0033
          46   -0.0124    0.0552    0.0005
          47   -0.0726    0.2957    0.0024
          48    0.0204   -0.0823   -0.0007
          49   -0.0000    0.0000   -0.0047
          50   -0.0000    0.0000   -0.0147
          51    0.0009   -0.0010    0.4254
          52   -0.0009    0.0012   -0.4135
          53   -0.0004    0.0005   -0.1659
          54   -0.0005    0.0007   -0.2199
          55   -0.0005   -0.0013   -0.0000
          56   -0.0011    0.0030    0.0000
          57   -0.0050    0.0118    0.0001


           MASS-WEIGHTED COORDINATE ANALYSIS (NORMAL COORDINATES)


   Root No.       1         2         3         4         5         6         7         8

                 1 A       2 A       3 A       4 A       5 A       6 A       7 A       8 A   

                  32.5      55.8      75.7      89.1     120.0     201.2     284.4     310.1
  
           1   -0.2781    0.0366   -0.0956    0.2257   -0.2213    0.0177    0.3840    0.1258
           2    0.0351    0.0481   -0.0080    0.0533   -0.0294    0.0870    0.1606   -0.1180
           3    0.1124   -0.3184   -0.1575   -0.0094   -0.2766    0.2443    0.0863    0.1195
           4    0.3629    0.2537   -0.1046   -0.0025   -0.0698    0.0632   -0.2289   -0.3137
           5    0.3815    0.4242   -0.0658   -0.0853    0.0457    0.0259    0.1833    0.1433
           6   -0.2877    0.0594   -0.0047   -0.3134    0.1668    0.1827    0.1701   -0.0781
           7   -0.0028   -0.0087    0.0379   -0.0189   -0.0273    0.1261    0.0719    0.0691
           8   -0.2474    0.0852   -0.1176    0.2814   -0.2131    0.0647   -0.1130   -0.0297
           9    0.1838   -0.0887    0.2300   -0.1436   -0.2049   -0.2463    0.2763   -0.0728
          10    0.0113   -0.1132    0.0125   -0.0858   -0.0041    0.0005   -0.2092   -0.0253
          11   -0.1820   -0.1298   -0.2465   -0.1851   -0.2916   -0.1877   -0.2349   -0.0260
          12    0.1135    0.0244    0.3694    0.4088   -0.0367   -0.1832   -0.1003   -0.0512
          13    0.0167   -0.0579    0.0578    0.0077   -0.0760   -0.0554    0.1318    0.1812
          14   -0.1125    0.1920    0.0300    0.0967   -0.0611    0.1099    0.1964   -0.2050
          15    0.0488   -0.0418    0.0878   -0.0850   -0.1928    0.2039    0.0450   -0.0511
          16   -0.0003   -0.0622    0.1141   -0.0612   -0.0967   -0.0202   -0.2372   -0.1933
          17   -0.2237   -0.1497    0.3093   -0.1426   -0.0548   -0.1781   -0.2178    0.0937
          18    0.1715   -0.0858   -0.2760    0.3132    0.0307   -0.1148   -0.1672    0.1279
          19   -0.2014    0.0866   -0.0994    0.0921    0.1655   -0.2807    0.1914    0.1002
          20    0.2461   -0.0935   -0.0004   -0.0949    0.1695   -0.0935   -0.0249    0.0774
          21   -0.1472    0.0671   -0.1845   -0.0362    0.3094   -0.2322   -0.0316   -0.1676
          22    0.0615   -0.1148    0.0248   -0.0668    0.1420    0.2251   -0.0563   -0.3663
          23    0.0236   -0.3788    0.0597    0.1230    0.3158    0.1241    0.0708    0.0162
          24   -0.0423    0.1233   -0.1105   -0.0537   -0.0048   -0.0513   -0.1252    0.0346
          25    0.0654   -0.0124    0.0622   -0.1032    0.1908   -0.0515   -0.0873    0.5373
          26    0.1109    0.0483    0.0429   -0.0454    0.1027    0.0506    0.0225    0.0545
          27   -0.1991    0.2996    0.0760   -0.1165    0.1870    0.3275   -0.2230    0.2144
          28    0.0052   -0.0605    0.0741   -0.0798    0.0133   -0.0327   -0.0747   -0.0026
          29   -0.0596   -0.0214   -0.0460   -0.0146   -0.0765   -0.0399   -0.0704   -0.0116
          30   -0.0006    0.0638    0.2952    0.2663    0.0381   -0.0147   -0.0544   -0.0272
          31    0.0075   -0.0408   -0.0921    0.0040    0.0162    0.0114   -0.1047    0.0149
          32   -0.0192   -0.0951   -0.2498   -0.2113   -0.1364   -0.0939   -0.0333    0.0011
          33    0.0354    0.0026    0.0919    0.1054   -0.0139   -0.0547   -0.0261   -0.0152
          34    0.0114    0.0359    0.0467    0.0332    0.0175    0.0524    0.0952   -0.0031
          35   -0.0633    0.0110   -0.0406    0.0422   -0.0685   -0.0046   -0.0203   -0.0104
          36    0.1036   -0.0630    0.0611   -0.2053   -0.0775   -0.1787    0.2100   -0.0569
          37   -0.0185   -0.0069   -0.0221   -0.0378   -0.0250    0.1013    0.0081    0.0289
          38   -0.1211    0.0645   -0.0231    0.2555   -0.0383    0.1199   -0.1653    0.0281
          39    0.0488   -0.0223    0.0668   -0.0276   -0.0567   -0.0624    0.0700   -0.0171
          40    0.0411   -0.0481    0.0395    0.0009   -0.0512   -0.0965    0.0749    0.0345
          41   -0.0654    0.1319    0.0504    0.0103    0.0131    0.0488    0.0673   -0.0851
          42    0.0175   -0.0188    0.0222   -0.0234   -0.0566    0.0529    0.0115   -0.0118
          43    0.0110   -0.0176    0.1268    0.0290   -0.0352   -0.0277   -0.0682   -0.0688
          44   -0.1406    0.0305    0.2951   -0.1073   -0.0489   -0.0885   -0.0892    0.0063
          45    0.0437   -0.0189   -0.0639    0.0851    0.0066   -0.0352   -0.0483    0.0358
          46   -0.0260    0.0108   -0.0237   -0.0593   -0.0975   -0.0378   -0.1073   -0.0596
          47   -0.0451   -0.0622    0.0564   -0.0225    0.0042   -0.0365   -0.0489    0.0320
          48    0.1226   -0.0941   -0.2975    0.1451    0.0423    0.0081   -0.0203    0.0596
          49   -0.1061    0.0694   -0.0741    0.0330    0.1816   -0.2683    0.0736   -0.1256
          50    0.1074   -0.1042   -0.0457   -0.0128    0.0310   -0.1215    0.0508   -0.0676
          51   -0.0449    0.0198   -0.0587   -0.0094    0.0994   -0.0867   -0.0050   -0.0667
          52   -0.0550    0.0094   -0.0182    0.0403   -0.0270   -0.0060    0.0768    0.0590
          53    0.0982   -0.0013    0.0374   -0.0757    0.1141    0.0020   -0.0993    0.1387
          54   -0.0717    0.0325   -0.1072   -0.0007    0.1997   -0.2586    0.0226   -0.2143
          55   -0.0367   -0.1330    0.0157   -0.0378    0.1515    0.1754    0.0813   -0.1746
          56   -0.0223   -0.3641   -0.0068    0.1499    0.2534    0.1443    0.0770   -0.0670
          57   -0.0012    0.1015   -0.0273   -0.0403   -0.0468   -0.0476   -0.0554    0.0311


   Root No.       9        10        11        12        13        14        15        16

                 9 A      10 A      11 A      12 A      13 A      14 A      15 A      16 A   

                 431.1     487.5     554.7     741.9     755.4     799.1     846.0     886.5
  
           1   -0.1853   -0.2290   -0.0322    0.1048    0.0596   -0.1686   -0.1184   -0.0565
           2   -0.2292   -0.0785   -0.0980   -0.0854    0.0426    0.0348    0.4163   -0.3453
           3   -0.1264   -0.2026   -0.0695    0.1057   -0.0006    0.0826    0.0255    0.1263
           4   -0.0494   -0.2381    0.3586    0.0206   -0.0766   -0.0494    0.0150   -0.0105
           5    0.0999    0.1188   -0.2335   -0.0174    0.1148    0.1002   -0.0655   -0.0586
           6    0.1953    0.0095   -0.2087    0.0116   -0.0095   -0.0377    0.0103    0.0260
           7   -0.0595    0.3930    0.0422   -0.1130   -0.0474    0.2057    0.1077    0.0741
           8    0.3782    0.0328    0.1343   -0.0401   -0.1147    0.2446    0.0646    0.1583
           9    0.1981   -0.0395    0.0968   -0.0695    0.0150   -0.1361    0.1362   -0.0542
          10   -0.2117    0.2081   -0.2634   -0.0397    0.0447    0.0846   -0.0315   -0.0437
          11    0.2085   -0.1168   -0.0831    0.0586   -0.0654    0.0852   -0.1221   -0.1420
          12    0.1262   -0.1195   -0.1932    0.0170    0.1815   -0.0641    0.0492    0.0957
          13    0.1170    0.1905    0.1072   -0.0592   -0.0397    0.1215    0.1688    0.0017
          14   -0.1960    0.0432   -0.0256   -0.0035   -0.0183    0.0627   -0.0299    0.2132
          15    0.1021    0.4348    0.1948    0.0288   -0.0125   -0.1922   -0.3502   -0.1272
          16    0.0066    0.0222   -0.3097    0.0039    0.0419   -0.0038   -0.0372    0.0115
          17   -0.2651    0.0488    0.0614    0.0300   -0.2035   -0.1870    0.0712    0.0351
          18   -0.2052    0.0893   -0.0575   -0.0199    0.1549    0.1112   -0.0814    0.0174
          19    0.0190   -0.1021    0.0277   -0.1273   -0.0050   -0.1701   -0.2849   -0.0049
          20    0.0575   -0.0157    0.0235   -0.0330   -0.0020   -0.0724   -0.1483    0.0626
          21   -0.0121    0.0063   -0.0417   -0.4278   -0.0732    0.0504    0.0567    0.0542
          22    0.1542   -0.1835    0.0285    0.0308   -0.0854   -0.1416    0.0763    0.1115
          23   -0.0646    0.0123    0.1348   -0.0051   -0.0834   -0.0891    0.1085    0.1314
[...]
 FREQ.      1185.79         C  5 -- C  9         +12.2% ( 48.7%)     95.1%
 T-DIPOLE    0.4080         C  5 -- H 14         +11.0% ( 46.1%)      0.0%
 TRAVEL      0.1004         C  3 -- H 13          +8.3% ( 40.2%)      1.5%
 RED. MASS   0.6588         C  5 -- C  7          +8.3% ( 40.1%)      0.1%
 EFF. MASS   5.6378

 VIBRATION   31   31A         ATOM PAIR      ENERGY CONTRIBUTION    RADIAL
 FREQ.      1205.02         C  8 -- H 19         +23.5% ( 61.0%)      1.2%
 T-DIPOLE    0.5262         C  5 -- H 14          +8.1% ( 35.8%)      0.0%
 TRAVEL      0.1122         C  6 -- H 15          +7.9% ( 35.3%)      0.7%
 RED. MASS   0.4078         O  1 -- C  5          +7.5% ( 34.4%)     63.8%
 EFF. MASS   4.4475

 VIBRATION   32   32A         ATOM PAIR      ENERGY CONTRIBUTION    RADIAL
 FREQ.      1231.68         C  8 -- H 19         +19.7% ( 51.8%)      0.7%
 T-DIPOLE    0.3683         C  3 -- H 12         +11.4% ( 39.4%)      0.5%
 TRAVEL      0.1246         C  4 -- H 11         +10.4% ( 37.6%)      0.2%
 RED. MASS   0.2423         C  3 -- H 13          +7.5% ( 32.0%)      0.2%
 EFF. MASS   3.5291

 VIBRATION   33   33A         ATOM PAIR      ENERGY CONTRIBUTION    RADIAL
 FREQ.      1275.07         C  5 -- H 14          +9.2% ( 42.7%)      1.4%
 T-DIPOLE    0.2933         C  5 -- C  9          +8.6% ( 41.3%)     56.1%
 TRAVEL      0.0966         C  5 -- C  7          +8.4% ( 40.6%)     46.6%
 RED. MASS   0.5205         O  1 -- C  5          +7.9% ( 39.5%)     73.2%
 EFF. MASS   5.6620

 VIBRATION   34   34A         ATOM PAIR      ENERGY CONTRIBUTION    RADIAL
 FREQ.      1298.22         C  7 -- H 18         +16.4% ( 57.8%)      0.4%
 T-DIPOLE    0.2592         C  7 -- H 17         +15.7% ( 56.4%)      0.5%
 TRAVEL      0.0837         C  7 -- C  9         +15.3% ( 55.9%)     45.2%
 RED. MASS   1.5448         O  1 -- C  7         +12.3% ( 50.0%)     70.9%
 EFF. MASS   7.4132         C  5 -- C  7         +11.5% ( 48.3%)     49.6%

 VIBRATION   35   35A         ATOM PAIR      ENERGY CONTRIBUTION    RADIAL
 FREQ.      1335.40         C  7 -- H 17          +8.9% ( 42.6%)      5.9%
 T-DIPOLE    0.6807         C  7 -- H 18          +8.8% ( 42.4%)      6.5%
 TRAVEL      0.0881         C  3 -- H 13          +8.6% ( 41.8%)      0.0%
 RED. MASS   0.8141         C  6 -- H 15          +8.5% ( 41.8%)      0.0%
 EFF. MASS   6.5008

 VIBRATION   36   36A         ATOM PAIR      ENERGY CONTRIBUTION    RADIAL
 FREQ.      1377.76         C  6 -- H 15         +21.2% ( 44.4%)      4.5%
 T-DIPOLE    0.1938         C  6 -- H 16         +20.3% ( 43.5%)      4.6%
 TRAVEL      0.1529         C  4 -- H 11         +11.9% ( 33.3%)      3.5%
 RED. MASS   0.2126         C  4 -- H 10         +11.9% ( 33.2%)      3.5%
 EFF. MASS   2.0923

 VIBRATION   37   37A         ATOM PAIR      ENERGY CONTRIBUTION    RADIAL
 FREQ.      1382.76         C  3 -- H 13         +16.0% ( 43.1%)      3.7%
 T-DIPOLE    0.2780         C  3 -- H 12         +15.5% ( 42.4%)      3.8%
 TRAVEL      0.1247         C  6 -- H 15         +14.4% ( 40.9%)      3.5%
 RED. MASS   0.2792         C  6 -- H 16         +13.3% ( 39.2%)      3.7%
 EFF. MASS   3.1357

 VIBRATION   38   38A         ATOM PAIR      ENERGY CONTRIBUTION    RADIAL
 FREQ.      1404.42         C  4 -- C  6         +12.1% ( 50.2%)     62.1%
 T-DIPOLE    0.5860         C  3 -- C  4          +8.8% ( 42.7%)     99.6%
 TRAVEL      0.0810         C  4 -- H 11          +8.3% ( 41.4%)      0.5%
 RED. MASS   0.8540         C  4 -- H 10          +7.9% ( 40.4%)      0.5%
 EFF. MASS   7.3144

 VIBRATION   39   39A         ATOM PAIR      ENERGY CONTRIBUTION    RADIAL
 FREQ.      1410.40         C  4 -- H 10         +22.8% ( 52.8%)      4.5%
 T-DIPOLE    0.0939         C  4 -- H 11         +22.7% ( 52.6%)      4.7%
 TRAVEL      0.1151         C  4 -- C  6         +15.2% ( 43.1%)     91.3%
 RED. MASS   0.4770         C  3 -- C  4          +8.4% ( 32.1%)      2.0%
 EFF. MASS   3.6099

 VIBRATION   40   40A         ATOM PAIR      ENERGY CONTRIBUTION    RADIAL
 FREQ.      1437.68         C  3 -- C  5         +15.3% ( 64.6%)     70.2%
 T-DIPOLE    0.8662         C  5 -- C  7         +11.2% ( 55.2%)     94.1%
 TRAVEL      0.0687         C  5 -- C  9          +9.9% ( 51.8%)     90.6%
 RED. MASS   1.9248         C  3 -- C  4          +9.3% ( 50.2%)     73.4%
 EFF. MASS   9.9325

 VIBRATION   41   41A         ATOM PAIR      ENERGY CONTRIBUTION    RADIAL
 FREQ.      1984.65         O  2 -- C  8         +56.5% ( 99.5%)     99.7%
 T-DIPOLE    3.7975         C  6 -- C  8         +21.9% ( 61.9%)     41.3%
 TRAVEL      0.0504         C  8 -- H 19         +21.4% ( 61.2%)      6.1%
 RED. MASS   6.5473
 EFF. MASS  13.3839

 VIBRATION   42   42A         ATOM PAIR      ENERGY CONTRIBUTION    RADIAL
 FREQ.      2897.86         C  5 -- H 14         +95.4% ( 99.7%)     99.9%
 T-DIPOLE    0.3343         C  3 -- C  5          +1.0% ( 10.2%)     11.3%
 TRAVEL      0.1271         C  5 -- C  7          +1.0% ( 10.1%)     28.2%
 RED. MASS   0.9178         O  1 -- C  5          +1.0% ( 10.1%)     11.0%
 EFF. MASS   1.4414

 VIBRATION   43   43A         ATOM PAIR      ENERGY CONTRIBUTION    RADIAL
 FREQ.      2929.96         C  8 -- H 19         +92.8% ( 98.1%)    100.0%
 T-DIPOLE    0.2044         O  2 -- C  8          +1.7% ( 13.5%)     40.9%
 TRAVEL      0.1219         C  6 -- H 15          +1.6% ( 12.9%)     96.8%
 RED. MASS   0.8624         C  6 -- C  8          +1.6% ( 12.9%)     11.9%
 EFF. MASS   1.5500

 VIBRATION   44   44A         ATOM PAIR      ENERGY CONTRIBUTION    RADIAL
 FREQ.      2943.67         C  4 -- H 11         +30.6% ( 57.6%)     97.1%
 T-DIPOLE    0.0873         C  4 -- H 10         +22.6% ( 49.5%)     95.3%
 TRAVEL      0.1214         C  6 -- H 16         +14.0% ( 39.0%)     97.1%
 RED. MASS   0.2065         C  6 -- H 15         +10.1% ( 33.1%)     95.3%
 EFF. MASS   1.5555

 VIBRATION   45   45A         ATOM PAIR      ENERGY CONTRIBUTION    RADIAL
 FREQ.      2955.20         C  6 -- H 16         +33.1% ( 59.7%)     97.4%
 T-DIPOLE    0.0576         C  6 -- H 15         +23.3% ( 50.0%)     95.5%
 TRAVEL      0.1219         C  3 -- H 12         +19.0% ( 45.2%)     96.6%
 RED. MASS   0.2535         C  3 -- H 13         +18.5% ( 44.5%)     96.4%
 EFF. MASS   1.5365

 VIBRATION   46   46A         ATOM PAIR      ENERGY CONTRIBUTION    RADIAL
 FREQ.      2961.52         C  4 -- H 11         +24.6% ( 51.2%)     97.6%
 T-DIPOLE    0.1774         C  3 -- H 12         +21.8% ( 48.3%)     96.8%
 TRAVEL      0.1221         C  3 -- H 13         +20.6% ( 47.0%)     96.5%
 RED. MASS   0.2025         C  4 -- H 10         +16.1% ( 41.4%)     95.4%
 EFF. MASS   1.5269

 VIBRATION   47   47A         ATOM PAIR      ENERGY CONTRIBUTION    RADIAL
 FREQ.      2981.85         C  7 -- H 17         +55.7% ( 77.5%)     97.5%
 T-DIPOLE    0.3204         C  7 -- H 18         +41.2% ( 66.7%)     95.8%
 TRAVEL      0.1211         O  1 -- C  7          +1.0% ( 10.5%)      0.1%
 RED. MASS   0.5311         C  5 -- C  7          +1.0% ( 10.5%)      0.2%
 EFF. MASS   1.5416

 VIBRATION   48   48A         ATOM PAIR      ENERGY CONTRIBUTION    RADIAL
 FREQ.      3026.95         C  3 -- H 13         +41.0% ( 63.2%)     97.7%
 T-DIPOLE    0.1038         C  3 -- H 12         +38.7% ( 61.3%)     97.5%
 TRAVEL      0.1322         C  4 -- H 10          +9.8% ( 30.9%)     98.7%
 RED. MASS   0.3296         C  4 -- H 11          +6.4% ( 24.9%)     96.3%
 EFF. MASS   1.2754

 VIBRATION   49   49A         ATOM PAIR      ENERGY CONTRIBUTION    RADIAL
 FREQ.      3030.69         C  4 -- H 10         +42.9% ( 64.5%)     98.6%
 T-DIPOLE    0.0877         C  4 -- H 11         +28.8% ( 52.8%)     96.3%
 TRAVEL      0.1323         C  3 -- H 12          +9.6% ( 30.5%)     97.6%
 RED. MASS   0.2842         C  3 -- H 13          +9.3% ( 30.0%)     97.4%
 EFF. MASS   1.2721

 VIBRATION   50   50A         ATOM PAIR      ENERGY CONTRIBUTION    RADIAL
 FREQ.      3033.93         C  6 -- H 15         +51.5% ( 70.6%)     98.5%
 T-DIPOLE    0.1946         C  6 -- H 16         +36.3% ( 59.3%)     96.5%
 TRAVEL      0.1323         C  4 -- H 10          +6.3% ( 24.8%)     98.4%
 RED. MASS   0.3972         C  4 -- H 11          +4.6% ( 21.1%)     96.3%
 EFF. MASS   1.2701

 VIBRATION   51   51A         ATOM PAIR      ENERGY CONTRIBUTION    RADIAL
 FREQ.      3037.30         C  7 -- H 18         +56.7% ( 74.9%)     98.0%
 T-DIPOLE    0.4864         C  7 -- H 17         +40.9% ( 63.6%)     95.8%
 TRAVEL      0.1308         C  5 -- C  7          +0.8% (  8.9%)     98.1%
 RED. MASS   0.4948         O  1 -- C  7          +0.8% (  8.8%)     38.7%
 EFF. MASS   1.2983

      SYMMETRY NUMBER FOR POINT-GROUP C1  =  1


          SYSTEM IS A GROUND STATE



 InChI=1S/C7H10O2/c8-5-2-1-3-7-4-6-9-7/h5,7H,1-3,6H2/lp4


          MOLECULE IS NOT LINEAR

          THERE ARE 51 GENUINE VIBRATIONS IN THIS SYSTEM
          THIS THERMODYNAMICS CALCULATION IS LIMITED TO
          MOLECULES WHICH HAVE NO INTERNAL ROTATIONS




                    CALCULATED THERMODYNAMIC PROPERTIES
                                          *
   TEMP. (K)   PARTITION FUNCTION   H.O.F.    ENTHALPY  HEAT CAPACITY ENTROPY
                                   KCAL/MOL   CAL/MOLE    CAL/K/MOL  CAL/K/MOL


 298.00  VIB.     0.2878D+04                  4354.0099    27.8194    30.4384
         ROT.     0.6250D+06                   888.2813     2.9808    29.5011
         INT.     0.1799D+10                  5242.2912    30.8002    59.9396
         TRA.     0.1370D+28                  1480.4688     4.9680    40.4083
         TOT.                       25.240    6722.7600    35.7682   100.3479

 200.00  VIB.     0.2393D+03                  2106.1837    18.4349    21.4159
         ROT.     0.3436D+06                   596.1620     2.9808    28.3125
         INT.     0.8222D+08                  2702.3457    21.4157    49.7284
         TRA.     0.7532D+27                   993.6033     4.9680    38.4272
         TOT.                       22.213    3695.9489    26.3838    88.1556

 210.00  VIB.     0.3114D+03                  2294.6924    19.2724    22.3355
         ROT.     0.3697D+06                   625.9700     2.9808    28.4579
         INT.     0.1151D+09                  2920.6625    22.2532    50.7934
         TRA.     0.8104D+27                  1043.2834     4.9680    38.6696
         TOT.                       22.481    3963.9459    27.2212    89.4630

 220.00  VIB.     0.4040D+03                  2491.7420    20.1430    23.2520
         ROT.     0.3965D+06                   655.7781     2.9808    28.5966
         INT.     0.1602D+09                  3147.5201    23.1238    51.8486
         TRA.     0.8689D+27                  1092.9636     4.9680    38.9007
         TOT.                       22.758    4240.4837    28.0918    90.7493

 230.00  VIB.     0.5228D+03                  2697.6582    21.0455    24.1672
         ROT.     0.4238D+06                   685.5862     2.9808    28.7291
         INT.     0.2216D+09                  3383.2445    24.0263    52.8963
         TRA.     0.9289D+27                  1142.6437     4.9680    39.1215
         TOT.                       23.043    4525.8882    28.9943    92.0178

 240.00  VIB.     0.6750D+03                  2912.7508    21.9778    25.0825
         ROT.     0.4517D+06                   715.3943     2.9808    28.8559
         INT.     0.3049D+09                  3628.1452    24.9586    53.9384
         TRA.     0.9901D+27                  1192.3239     4.9680    39.3330
         TOT.                       23.338    4820.4691    29.9267    93.2714

 250.00  VIB.     0.8697D+03                  3137.3059    22.9375    25.9990
         ROT.     0.4803D+06                   745.2024     2.9808    28.9776
         INT.     0.4177D+09                  3882.5084    25.9183    54.9767
         TRA.     0.1053D+28                  1242.0041     4.9680    39.5358
         TOT.                       23.642    5124.5124    30.8863    94.5124

 260.00  VIB.     0.1119D+04                  3371.5809    23.9213    26.9178
         ROT.     0.5094D+06                   775.0105     2.9808    29.0945
         INT.     0.5699D+09                  4146.5915    26.9021    56.0123
         TRA.     0.1116D+28                  1291.6842     4.9680    39.7306
         TOT.                       23.956    5438.2757    31.8701    95.7429

 270.00  VIB.     0.1437D+04                  3615.8009    24.9259    27.8393
         ROT.     0.5390D+06                   804.8186     2.9808    29.2070
         INT.     0.7745D+09                  4420.6196    27.9067    57.0463
         TRA.     0.1181D+28                  1341.3644     4.9680    39.9181
         TOT.                       24.279    5761.9840    32.8747    96.9645

 280.00  VIB.     0.1843D+04                  3870.1564    25.9478    28.7643
         ROT.     0.5693D+06                   834.6267     2.9808    29.3154
         INT.     0.1049D+10                  4704.7831    28.9286    58.0797
         TRA.     0.1248D+28                  1391.0445     4.9680    40.0988
         TOT.                       24.613    6095.8277    33.8966    98.1785

 290.00  VIB.     0.2362D+04                  4134.8024    26.9834    29.6928
         ROT.     0.6000D+06                   864.4348     2.9808    29.4200
         INT.     0.1417D+10                  4999.2372    29.9642    59.1128
         TRA.     0.1315D+28                  1440.7247     4.9680    40.2731
         TOT.                       24.957    6439.9619    34.9322    99.3860

 300.00  VIB.     0.3023D+04                  4409.8585    28.0292    30.6252
         ROT.     0.6313D+06                   894.2429     2.9808    29.5211
         INT.     0.1909D+10                  5304.1014    31.0100    60.1463
         TRA.     0.1384D+28                  1490.4049     4.9680    40.4416
         TOT.                       25.312    6794.5063    35.9781   100.5878

 310.00  VIB.     0.3867D+04                  4695.4099    29.0819    31.5614
         ROT.     0.6631D+06                   924.0510     2.9808    29.6188
         INT.     0.2565D+10                  5619.4610    32.0627    61.1802
         TRA.     0.1453D+28                  1540.0850     4.9680    40.6045
         TOT.                       25.677    7159.5460    37.0308   101.7847

 320.00  VIB.     0.4944D+04                  4991.5092    30.1383    32.5014
         ROT.     0.6955D+06                   953.8591     2.9808    29.7135
         INT.     0.3438D+10                  5945.3683    33.1191    62.2149
         TRA.     0.1524D+28                  1589.7652     4.9680    40.7622
         TOT.                       26.053    7535.1335    38.0871   102.9771

 330.00  VIB.     0.6317D+04                  5298.1778    31.1953    33.4450
         ROT.     0.7283D+06                   983.6672     2.9808    29.8052
         INT.     0.4601D+10                  6281.8450    34.1761    63.2502
         TRA.     0.1596D+28                  1639.4454     4.9680    40.9151
         TOT.                       26.439    7921.2904    39.1441   104.1653

 340.00  VIB.     0.8067D+04                  5615.4088    32.2503    34.3920
         ROT.     0.7617D+06                  1013.4753     2.9808    29.8942
         INT.     0.6145D+10                  6628.8841    35.2311    64.2861
         TRA.     0.1669D+28                  1689.1255     4.9680    41.0634
         TOT.                       26.836    8318.0096    40.1992   105.3495

 350.00  VIB.     0.1030D+05                  5943.1693    33.3008    35.3420
         ROT.     0.7956D+06                  1043.2834     2.9808    29.9806
         INT.     0.8194D+10                  6986.4527    36.2816    65.3225
         TRA.     0.1744D+28                  1738.8057     4.9680    41.2074
         TOT.                       27.243    8725.2584    41.2497   106.5299

 360.00  VIB.     0.1315D+05                  6281.4031    34.3446    36.2947
         ROT.     0.8299D+06                  1073.0915     2.9808    30.0645
         INT.     0.1091D+11                  7354.4947    37.3254    66.3593
         TRA.     0.1819D+28                  1788.4859     4.9680    41.3473
         TOT.                       27.660    9142.9805    42.2935   107.7066

 370.00  VIB.     0.1678D+05                  6630.0332    35.3798    37.2499
         ROT.     0.8647D+06                  1102.8996     2.9808    30.1462
         INT.     0.1451D+11                  7732.9328    38.3606    67.3961
         TRA.     0.1895D+28                  1838.1660     4.9680    41.4835
         TOT.                       28.089    9571.0989    43.3286   108.8796

 380.00  VIB.     0.2140D+05                  6988.9644    36.4046    38.2070
         ROT.     0.9000D+06                  1132.7077     2.9808    30.2257
         INT.     0.1926D+11                  8121.6721    39.3854    68.4327
         TRA.     0.1973D+28                  1887.8462     4.9680    41.6160
         TOT.                       28.527   10009.5182    44.3534   110.0487

 390.00  VIB.     0.2730D+05                  7358.0855    37.4176    39.1658
         ROT.     0.9358D+06                  1162.5158     2.9808    30.3031
         INT.     0.2555D+11                  8520.6013    40.3984    69.4689
         TRA.     0.2051D+28                  1937.5263     4.9680    41.7450
         TOT.                       28.976   10458.1277    45.3664   111.2139

 400.00  VIB.     0.3483D+05                  7737.2724    38.4175    40.1258
         ROT.     0.9720D+06                  1192.3239     2.9808    30.3786
         INT.     0.3385D+11                  8929.5963    41.3983    70.5044
         TRA.     0.2130D+28                  1987.2065     4.9680    41.8708
         TOT.                       29.434   10916.8028    46.3664   112.3751

   *: NOTE: HEATS OF FORMATION ARE RELATIVE TO THE
            ELEMENTS IN THEIR STANDARD STATE AT 298K
              (=  Standard Enthalpy of Formation).

            Hvib:  Zero-point energy is not included.
                   frequencies of less than zero cm-1 are not included.
            Hrot = (3/2)RT
            Htra = (3/2)RT + pV = (5/2)RT

            Heat capacity is Cp, not Cv

          For more information, see: HTTP://OpenMOPAC.net/Manual/thermochemistry.html


           FORCE CONSTANT IN CARTESIAN COORDINATES (Millidynes/A)

    ATOM   CHEMICAL       X               Y               Z
   NUMBER   SYMBOL  FORCE CONSTANT  FORCE CONSTANT  FORCE CONSTANT

      1       O        4.165497        6.838336        1.849345
      2       O       10.666986        1.979179        4.936603
      3       C        8.333508        8.272804        8.250531
      4       C        8.359177        8.272333        8.239198
      5       C        9.378081        6.295221        7.992204
      6       C        8.402836        7.845329        8.391246
      7       C        8.949731        7.009724        7.987199
      8       C       13.202547        5.027312       10.911650
      9       C        3.893239        7.049141        1.791023
     10       H        0.842329        4.661916        0.895697
     11       H        0.769779        0.739829        4.887487
     12       H        0.813124        4.655904        0.876326
     13       H        0.749149        0.735484        4.912061
     14       H        0.655707        0.580913        4.593326
     15       H        0.761127        0.723720        4.943901
     16       H        0.812767        4.599978        0.855165
     17       H        0.610532        0.513425        4.970068
     18       H        3.756494        1.036893        1.347000
     19       H        0.707321        0.636793        4.484497

 **********************
 *                    *
 * JOB ENDED NORMALLY *
 *                    *
 **********************



 TOTAL JOB TIME:             1.86 SECONDS

 == MOPAC DONE ==
