 *******************************************************************************
 ** Site#: 14399        For non-commercial use only    Version 18.184L 64BITS **
 *******************************************************************************
 ** Cite this program as: MOPAC2016, Version: 18.184L, James J. P. Stewart,   **
 ** Stewart Computational Chemistry, web: HTTP://OpenMOPAC.net. Days left:  18**
 *******************************************************************************
 **                                                                           **
 **                                MOPAC2016                                  **
 **                                                                           **
 *******************************************************************************

                              PM3 CALCULATION RESULTS

 *******************************************************************************
 *  CALCULATION DONE:                                Sat Jun 15 14:06:29 2019  *
 *  PM3        - The PM3 Hamiltonian to be used
 *  PRECISE    - CRITERIA TO BE INCREASED BY 100 TIMES
 *  NOSYM      - POINT-GROUP SYMMETRY SET TO C1
 *  THREADS=1  - MULTI-THREADING NOT USED
 *  T=         - A TIME OF 172800.0 SECONDS REQUESTED
 *  DUMP=N     - RESTART FILE WRITTEN EVERY  7200.000 SECONDS
 *******************************************************************************
pm3  precise nosym THREADS=1
 InChI=1S/C7H12/c1-2-4-7(3-1)5-6-7/h1-6H2

   ATOM   CHEMICAL          X               Y               Z
  NUMBER   SYMBOL      (ANGSTROMS)     (ANGSTROMS)     (ANGSTROMS)
 
     1       C          0.54460000  *  -0.16140000  *  -0.00390000  *
     2       C          0.07820000  *   1.24500000  *  -0.32480000  *
     3       C         -0.60830000  *  -1.08790000  *   0.32850000  *
     4       C          1.74300000  *  -0.72980000  *  -0.74810000  *
     5       C          1.86880000  *  -0.34040000  *   0.72240000  *
     6       C         -1.43950000  *   1.10750000  *  -0.38970000  *
     7       C         -1.80520000  *  -0.14620000  *   0.41280000  *
     8       H          0.48390000  *   1.61580000  *  -1.29100000  *
     9       H          0.35940000  *   1.93870000  *   0.49740000  *
    10       H         -1.94440000  *   2.00870000  *   0.02060000  *
    11       H         -1.75270000  *   0.96840000  *  -1.44810000  *
    12       H         -0.76120000  *  -1.81970000  *  -0.49460000  *
    13       H         -0.45750000  *  -1.62360000  *   1.29080000  *
    14       H          2.26600000  *  -0.03140000  *  -1.43550000  *
    15       H          1.73200000  *  -1.82820000  *  -0.91400000  *
    16       H         -2.72490000  *  -0.62520000  *   0.01260000  *
    17       H          2.46010000  *   0.58610000  *   0.88420000  *
    18       H          1.93590000  *  -1.21360000  *   1.40560000  *
    19       H         -1.97820000  *   0.13710000  *   1.47470000  *
 


          CARTESIAN COORDINATES 

    NO.       ATOM           X           Y           Z

     1         C          0.5446     -0.1614     -0.0039
     2         C          0.0782      1.2450     -0.3248
     3         C         -0.6083     -1.0879      0.3285
     4         C          1.7430     -0.7298     -0.7481
     5         C          1.8688     -0.3404      0.7224
     6         C         -1.4395      1.1075     -0.3897
     7         C         -1.8052     -0.1462      0.4128
     8         H          0.4839      1.6158     -1.2910
     9         H          0.3594      1.9387      0.4974
    10         H         -1.9444      2.0087      0.0206
    11         H         -1.7527      0.9684     -1.4481
    12         H         -0.7612     -1.8197     -0.4946
    13         H         -0.4575     -1.6236      1.2908
    14         H          2.2660     -0.0314     -1.4355
    15         H          1.7320     -1.8282     -0.9140
    16         H         -2.7249     -0.6252      0.0126
    17         H          2.4601      0.5861      0.8842
    18         H          1.9359     -1.2136      1.4056
    19         H         -1.9782      0.1371      1.4747

  H: (PM3): J. J. P. STEWART, J. COMP. CHEM. 10, 209 (1989).
  C: (PM3): J. J. P. STEWART, J. COMP. CHEM. 10, 209 (1989).

           Empirical Formula: C7 H12  =    19 atoms



      MOLECULAR POINT GROUP   :   C1  


      RHF CALCULATION, NO. OF DOUBLY OCCUPIED LEVELS = 20


          Geometry optimization using EF

          DIAGONAL MATRIX USED AS START HESSIAN

 CYCLE:     1 TIME:   0.004 TIME LEFT:  2.00D  GRAD.:    79.452 HEAT:  6.866678
 CYCLE:     2 TIME:   0.004 TIME LEFT:  2.00D  GRAD.:   155.261 HEAT:  6.790021
 CYCLE:     3 TIME:   0.004 TIME LEFT:  2.00D  GRAD.:    46.865 HEAT:  2.078368
 CYCLE:     4 TIME:   0.008 TIME LEFT:  2.00D  GRAD.:    55.004 HEAT:  1.298828
 CYCLE:     5 TIME:   0.000 TIME LEFT:  2.00D  GRAD.:    50.124 HEAT: 0.7629793
 CYCLE:     6 TIME:   0.008 TIME LEFT:  2.00D  GRAD.:    29.916 HEAT: 0.1508306
 CYCLE:     7 TIME:   0.004 TIME LEFT:  2.00D  GRAD.:    17.449 HEAT:-0.3517114E-01
 CYCLE:     8 TIME:   0.004 TIME LEFT:  2.00D  GRAD.:    17.390 HEAT:-0.9910602E-01
 CYCLE:     9 TIME:   0.004 TIME LEFT:  2.00D  GRAD.:    17.490 HEAT:-0.1193694
 CYCLE:    10 TIME:   0.004 TIME LEFT:  2.00D  GRAD.:    17.730 HEAT:-0.1377314
 CYCLE:    11 TIME:   0.008 TIME LEFT:  2.00D  GRAD.:     7.150 HEAT:-0.2102265
 CYCLE:    12 TIME:   0.004 TIME LEFT:  2.00D  GRAD.:     6.922 HEAT:-0.2204928
 CYCLE:    13 TIME:   0.004 TIME LEFT:  2.00D  GRAD.:     4.835 HEAT:-0.2368891
 CYCLE:    14 TIME:   0.004 TIME LEFT:  2.00D  GRAD.:     5.469 HEAT:-0.2466816
 CYCLE:    15 TIME:   0.004 TIME LEFT:  2.00D  GRAD.:     3.412 HEAT:-0.2600082
 CYCLE:    16 TIME:   0.004 TIME LEFT:  2.00D  GRAD.:     5.613 HEAT:-0.2641527
 CYCLE:    17 TIME:   0.004 TIME LEFT:  2.00D  GRAD.:     3.494 HEAT:-0.2741183
 CYCLE:    18 TIME:   0.004 TIME LEFT:  2.00D  GRAD.:     4.258 HEAT:-0.2745655
 CYCLE:    19 TIME:   0.004 TIME LEFT:  2.00D  GRAD.:     1.657 HEAT:-0.2802835
 CYCLE:    20 TIME:   0.004 TIME LEFT:  2.00D  GRAD.:     3.199 HEAT:-0.2804431
 CYCLE:    21 TIME:   0.004 TIME LEFT:  2.00D  GRAD.:     2.365 HEAT:-0.2838286
 CYCLE:    22 TIME:   0.004 TIME LEFT:  2.00D  GRAD.:     2.137 HEAT:-0.2869136
 CYCLE:    23 TIME:   0.004 TIME LEFT:  2.00D  GRAD.:     1.789 HEAT:-0.2904022
 CYCLE:    24 TIME:   0.000 TIME LEFT:  2.00D  GRAD.:     2.453 HEAT:-0.2942935
 CYCLE:    25 TIME:   0.004 TIME LEFT:  2.00D  GRAD.:     2.038 HEAT:-0.2974299
 CYCLE:    26 TIME:   0.004 TIME LEFT:  2.00D  GRAD.:     2.092 HEAT:-0.2998895
 CYCLE:    27 TIME:   0.004 TIME LEFT:  2.00D  GRAD.:     1.990 HEAT:-0.3034099
 CYCLE:    28 TIME:   0.004 TIME LEFT:  2.00D  GRAD.:     1.851 HEAT:-0.3085064
 CYCLE:    29 TIME:   0.004 TIME LEFT:  2.00D  GRAD.:     2.774 HEAT:-0.3135885
 CYCLE:    30 TIME:   0.004 TIME LEFT:  2.00D  GRAD.:     2.492 HEAT:-0.3190948
 CYCLE:    31 TIME:   0.004 TIME LEFT:  2.00D  GRAD.:     2.072 HEAT:-0.3258989
 CYCLE:    32 TIME:   0.000 TIME LEFT:  2.00D  GRAD.:     1.275 HEAT:-0.3304710
 CYCLE:    33 TIME:   0.004 TIME LEFT:  2.00D  GRAD.:     0.781 HEAT:-0.3320546
 CYCLE:    34 TIME:   0.004 TIME LEFT:  2.00D  GRAD.:     0.754 HEAT:-0.3332802
 CYCLE:    35 TIME:   0.004 TIME LEFT:  2.00D  GRAD.:     0.690 HEAT:-0.3339943
 CYCLE:    36 TIME:   0.004 TIME LEFT:  2.00D  GRAD.:     0.451 HEAT:-0.3342875
 CYCLE:    37 TIME:   0.004 TIME LEFT:  2.00D  GRAD.:     0.310 HEAT:-0.3344831
 CYCLE:    38 TIME:   0.004 TIME LEFT:  2.00D  GRAD.:     0.307 HEAT:-0.3347328
 CYCLE:    39 TIME:   0.000 TIME LEFT:  2.00D  GRAD.:     0.315 HEAT:-0.3349326
 CYCLE:    40 TIME:   0.004 TIME LEFT:  2.00D  GRAD.:     0.256 HEAT:-0.3351198
 CYCLE:    41 TIME:   0.004 TIME LEFT:  2.00D  GRAD.:     0.195 HEAT:-0.3352169
 CYCLE:    42 TIME:   0.004 TIME LEFT:  2.00D  GRAD.:     0.195 HEAT:-0.3353046
 CYCLE:    43 TIME:   0.004 TIME LEFT:  2.00D  GRAD.:     0.192 HEAT:-0.3353743
 CYCLE:    44 TIME:   0.004 TIME LEFT:  2.00D  GRAD.:     0.107 HEAT:-0.3354392
 CYCLE:    45 TIME:   0.004 TIME LEFT:  2.00D  GRAD.:     0.061 HEAT:-0.3354521
 CYCLE:    46 TIME:   0.000 TIME LEFT:  2.00D  GRAD.:     0.045 HEAT:-0.3354617

     GRADIENT =  0.04518  IS LESS THAN CUTOFF =  0.05000



 -------------------------------------------------------------------------------
 pm3  precise nosym THREADS=1
 InChI=1S/C7H12/c1-2-4-7(3-1)5-6-7/h1-6H2



     GEOMETRY OPTIMISED USING EIGENVECTOR FOLLOWING (EF).     
     SCF FIELD WAS ACHIEVED                                   


                              PM3 CALCULATION
                                                       MOPAC2016 (Version: 18.184L)
                                                       Sat Jun 15 14:06:29 2019
                                                       No. of days remaining =  18




          FINAL HEAT OF FORMATION =         -0.33546 KCAL/MOL =      -1.40357 KJ/MOL


          TOTAL ENERGY            =      -1014.48960 EV
          ELECTRONIC ENERGY       =      -5029.70281 EV  POINT GROUP:     C1  
          CORE-CORE REPULSION     =       4015.21321 EV
          COSMO AREA              =        147.30 SQUARE ANGSTROMS
          COSMO VOLUME            =        142.59 CUBIC ANGSTROMS

          GRADIENT NORM           =          0.04518 = 0.01037 PER ATOM
          IONIZATION POTENTIAL    =         10.642922 EV
          HOMO LUMO ENERGIES (EV) =        -10.643  2.864
          NO. OF FILLED LEVELS    =         20
          MOLECULAR WEIGHT        =         96.1718

          MOLECULAR DIMENSIONS (Angstroms)

            Atom       Atom       Distance
            H    15    H    10     5.42951
            H    16    H    17     4.80309
            H    13    H     8     3.62395


          SCF CALCULATIONS        =         55
 
          WALL-CLOCK TIME         =          0.184 SECONDS
          COMPUTATION TIME        =          0.166 SECONDS




   ATOM   CHEMICAL          X               Y               Z
  NUMBER   SYMBOL      (ANGSTROMS)     (ANGSTROMS)     (ANGSTROMS)
 
     1       C          0.57283897  *  -0.16992239  *  -0.00465508  *
     2       C          0.06146109  *   1.21713571  *  -0.33015950  *
     3       C         -0.60742051  *  -1.05616774  *   0.33126075  *
     4       C          1.76212041  *  -0.73707840  *  -0.73144546  *
     5       C          1.88719590  *  -0.34382577  *   0.70706336  *
     6       C         -1.46122066  *   1.12216877  *  -0.36808656  *
     7       C         -1.83106386  *  -0.14631461  *   0.39310035  *
     8       H          0.47180340  *   1.58382678  *  -1.28935428  *
     9       H          0.39932443  *   1.93636712  *   0.44023236  *
    10       H         -1.93922557  *   2.01746256  *   0.06825771  *
    11       H         -1.82256809  *   1.07003448  *  -1.41239943  *
    12       H         -0.72753604  *  -1.83743408  *  -0.44343350  *
    13       H         -0.44980902  *  -1.59457884  *   1.28424354  *
    14       H          2.25910805  *  -0.14336480  *  -1.50726660  *
    15       H          1.77101275  *  -1.79633155  *  -1.01278946  *
    16       H         -2.72688123  *  -0.63394220  *  -0.03125712  *
    17       H          2.47422882  *   0.53906449  *   0.98484859  *
    18       H          1.98960883  *  -1.11493468  *   1.47925940  *
    19       H         -2.08864520  *   0.08970764  *   1.44278045  *

                             CARTESIAN COORDINATES

   1    C        0.572838968    -0.169922392    -0.004655081
   2    C        0.061461085     1.217135715    -0.330159498
   3    C       -0.607420511    -1.056167738     0.331260746
   4    C        1.762120405    -0.737078399    -0.731445459
   5    C        1.887195899    -0.343825766     0.707063361
   6    C       -1.461220664     1.122168771    -0.368086560
   7    C       -1.831063857    -0.146314610     0.393100346
   8    H        0.471803397     1.583826777    -1.289354284
   9    H        0.399324431     1.936367120     0.440232364
  10    H       -1.939225570     2.017462564     0.068257707
  11    H       -1.822568094     1.070034477    -1.412399435
  12    H       -0.727536040    -1.837434079    -0.443433497
  13    H       -0.449809023    -1.594578844     1.284243540
  14    H        2.259108047    -0.143364800    -1.507266598
  15    H        1.771012748    -1.796331554    -1.012789455
  16    H       -2.726881229    -0.633942197    -0.031257117
  17    H        2.474228823     0.539064488     0.984848586
  18    H        1.989608825    -1.114934681     1.479259399
  19    H       -2.088645198     0.089707645     1.442780446


           Empirical Formula: C7 H12  =    19 atoms



      MOLECULAR POINT GROUP   :   C1  


                  EIGENVALUES  
 -41.82325 -34.54073 -28.78852 -24.73571 -22.31160 -20.28830 -18.90792 -17.01428
 -16.60149 -15.41914 -14.51170 -14.24827 -13.33494 -12.69945 -12.54424 -12.33016
 -12.21849 -11.59581 -11.11604 -10.64292   2.86372   3.22794   3.38951   3.43283
   3.72549   3.84427   3.86461   3.95481   4.14659   4.20326   4.33652   4.37194
   4.40242   4.79290   4.99273   5.14091   5.15861   5.21314   5.33224   5.37021


              NET ATOMIC CHARGES AND DIPOLE CONTRIBUTIONS

  ATOM NO.   TYPE          CHARGE      No. of ELECS.   s-Pop       p-Pop       
    1          C          -0.111186        4.1112     1.18629     2.92490
    2          C          -0.059437        4.0594     1.15588     2.90355
    3          C          -0.059438        4.0594     1.15587     2.90356
    4          C          -0.148715        4.1487     1.16406     2.98465
    5          C          -0.148746        4.1487     1.16408     2.98466
    6          C          -0.094143        4.0941     1.16247     2.93168
    7          C          -0.094121        4.0941     1.16246     2.93166
    8          H           0.052782        0.9472     0.94722
    9          H           0.051870        0.9481     0.94813
   10          H           0.049380        0.9506     0.95062
   11          H           0.047786        0.9522     0.95221
   12          H           0.051866        0.9481     0.94813
   13          H           0.052803        0.9472     0.94720
   14          H           0.078156        0.9218     0.92184
   15          H           0.077895        0.9221     0.92210
   16          H           0.049388        0.9506     0.95061
   17          H           0.077898        0.9221     0.92210
   18          H           0.078161        0.9218     0.92184
   19          H           0.047802        0.9522     0.95220
 DIPOLE           X         Y         Z       TOTAL
 POINT-CHG.    -0.166     0.049     0.001     0.173
 HYBRID         0.096    -0.028    -0.001     0.100
 SUM           -0.070     0.021     0.000     0.073


          ATOMIC ORBITAL ELECTRON POPULATIONS

     Atom    s        px        py        pz   
    1  C   1.18629   0.90753   0.97323   1.04413
    2  C   1.15588   0.95240   0.94151   1.00965
    3  C   1.15587   0.93258   0.96161   1.00937
    4  C   1.16406   1.01751   1.01396   0.95318
    5  C   1.16408   0.99875   1.03141   0.95449
    6  C   1.16247   0.95595   0.97415   1.00157
    7  C   1.16246   0.96972   0.96047   1.00148
    8  H   0.94722
    9  H   0.94813
   10  H   0.95062
   11  H   0.95221
   12  H   0.94813
   13  H   0.94720
   14  H   0.92184
   15  H   0.92210
   16  H   0.95061
   17  H   0.92210
   18  H   0.92184
   19  H   0.95220
 *******************************************************************************
 ** Site#: 14399        For non-commercial use only    Version 18.184L 64BITS **
 *******************************************************************************
 ** Cite this program as: MOPAC2016, Version: 18.184L, James J. P. Stewart,   **
 ** Stewart Computational Chemistry, web: HTTP://OpenMOPAC.net. Days left:  18**
 *******************************************************************************
 **                                                                           **
 **                                MOPAC2016                                  **
 **                                                                           **
 *******************************************************************************

                              PM3 CALCULATION RESULTS

 *******************************************************************************
 *  CALCULATION DONE:                                Sat Jun 15 14:06:29 2019  *
 *  PM3        - The PM3 Hamiltonian to be used
 *  OLDGEO     - PREVIOUS GEOMETRY TO BE USED
 *  PRECISE    - CRITERIA TO BE INCREASED BY 100 TIMES
 *  NOSYM      - POINT-GROUP SYMMETRY SET TO C1
 *  THREADS=1  - MULTI-THREADING NOT USED
 *  T=         - A TIME OF 172800.0 SECONDS REQUESTED
 *  DUMP=N     - RESTART FILE WRITTEN EVERY  7200.000 SECONDS
 *  THERMO     - THERMODYNAMIC QUANTITIES TO BE CALCULATED
 *******************************************************************************
oldgeo thermo nosym precise THREADS=1  pm3
 InChI=1S/C7H12/c1-2-4-7(3-1)5-6-7/h1-6H2

   ATOM   CHEMICAL          X               Y               Z
  NUMBER   SYMBOL      (ANGSTROMS)     (ANGSTROMS)     (ANGSTROMS)
 
     1       C          0.57283897  *  -0.16992239  *  -0.00465508  *
     2       C          0.06146109  *   1.21713571  *  -0.33015950  *
     3       C         -0.60742051  *  -1.05616774  *   0.33126075  *
     4       C          1.76212041  *  -0.73707840  *  -0.73144546  *
     5       C          1.88719590  *  -0.34382577  *   0.70706336  *
     6       C         -1.46122066  *   1.12216877  *  -0.36808656  *
     7       C         -1.83106386  *  -0.14631461  *   0.39310035  *
     8       H          0.47180340  *   1.58382678  *  -1.28935428  *
     9       H          0.39932443  *   1.93636712  *   0.44023236  *
    10       H         -1.93922557  *   2.01746256  *   0.06825771  *
    11       H         -1.82256809  *   1.07003448  *  -1.41239943  *
    12       H         -0.72753604  *  -1.83743408  *  -0.44343350  *
    13       H         -0.44980902  *  -1.59457884  *   1.28424354  *
    14       H          2.25910805  *  -0.14336480  *  -1.50726660  *
    15       H          1.77101275  *  -1.79633155  *  -1.01278946  *
    16       H         -2.72688123  *  -0.63394220  *  -0.03125712  *
    17       H          2.47422882  *   0.53906449  *   0.98484859  *
    18       H          1.98960883  *  -1.11493468  *   1.47925940  *
    19       H         -2.08864520  *   0.08970764  *   1.44278045  *
 


          CARTESIAN COORDINATES 

    NO.       ATOM           X           Y           Z

     1         C          0.5728     -0.1699     -0.0047
     2         C          0.0615      1.2171     -0.3302
     3         C         -0.6074     -1.0562      0.3313
     4         C          1.7621     -0.7371     -0.7314
     5         C          1.8872     -0.3438      0.7071
     6         C         -1.4612      1.1222     -0.3681
     7         C         -1.8311     -0.1463      0.3931
     8         H          0.4718      1.5838     -1.2894
     9         H          0.3993      1.9364      0.4402
    10         H         -1.9392      2.0175      0.0683
    11         H         -1.8226      1.0700     -1.4124
    12         H         -0.7275     -1.8374     -0.4434
    13         H         -0.4498     -1.5946      1.2842
    14         H          2.2591     -0.1434     -1.5073
    15         H          1.7710     -1.7963     -1.0128
    16         H         -2.7269     -0.6339     -0.0313
    17         H          2.4742      0.5391      0.9848
    18         H          1.9896     -1.1149      1.4793
    19         H         -2.0886      0.0897      1.4428

  H: (PM3): J. J. P. STEWART, J. COMP. CHEM. 10, 209 (1989).
  C: (PM3): J. J. P. STEWART, J. COMP. CHEM. 10, 209 (1989).

           Empirical Formula: C7 H12  =    19 atoms



      MOLECULAR POINT GROUP   :   C1  


      RHF CALCULATION, NO. OF DOUBLY OCCUPIED LEVELS = 20



          HEAT OF FORMATION =      -0.335462 KCALS/MOLE


          CARTESIAN COORDINATE DERIVATIVES

   NUMBER  ATOM         X            Y            Z

     1       C     -0.002269    -0.002467     0.003524
     2       C      0.003861     0.009073    -0.000274
     3       C     -0.002423     0.000031     0.000252
     4       C     -0.010667    -0.000747     0.001653
     5       C     -0.006376     0.001865    -0.003433
     6       C     -0.002308    -0.002418     0.000142
     7       C     -0.000967     0.014958    -0.012908
     8       H      0.009302     0.006203    -0.006007
     9       H     -0.001161    -0.005202     0.003972
    10       H      0.006931     0.007361     0.003493
    11       H      0.002048    -0.005254     0.003527
    12       H     -0.000107     0.006970    -0.002124
    13       H     -0.017734    -0.006808     0.001318
    14       H      0.002541    -0.001262    -0.003254
    15       H     -0.003643    -0.001606     0.000095
    16       H      0.004960    -0.014017     0.003926
    17       H      0.006926     0.002166     0.003618
    18       H      0.000606    -0.000233     0.002780
    19       H      0.010480    -0.008610    -0.000302
 


          GRADIENT NORM =   0.04484


          TIME FOR SCF CALCULATION =    0.00

          TIME FOR DERIVATIVES     =    0.00

          MOLECULAR WEIGHT =   96.17



          ROTATIONAL CONSTANTS IN CM(-1)

          A =    0.16970259   B =    0.07288450   C =    0.06106534



           PRINCIPAL MOMENTS OF INERTIA IN UNITS OF 10**(-40)*GRAM-CM**2

          A =      164.9520   B =      384.0703   C =      458.4069


          ORIENTATION OF MOLECULE IN FORCE CALCULATION

    NO.       ATOM         X         Y         Z

     1          C      -0.3215   -0.4484   -0.0011
     2          C       1.1922   -0.4484   -0.0011
     3          C      -0.8071    0.9853   -0.0011
     4          C      -1.0867   -1.5063   -0.7492
     5          C      -1.0780   -1.5124    0.7473
     6          C       1.6277    1.0025   -0.1865
     7          C       0.4267    1.8626    0.1915
     8          H       1.5958   -1.1009   -0.7975
     9          H       1.5714   -0.8622    0.9528
    10          H       2.5158    1.2455    0.4241
    11          H       1.9266    1.1887   -1.2352
    12          H      -1.3159    1.2133   -0.9572
    13          H      -1.5587    1.1571    0.7917
    14          H      -0.5438   -2.2803   -1.3037
    15          H      -1.9998   -1.2340   -1.2908
    16          H       0.3737    2.7841   -0.4154
    17          H      -0.5270   -2.2897    1.2891
    18          H      -1.9852   -1.2464    1.3019
    19          H       0.5042    2.2009    1.2419


    FIRST DERIVATIVES WILL BE USED IN THE CALCULATION OF SECOND DERIVATIVES

          ESTIMATED TIME TO COMPLETE CALCULATION =        1.78 SECONDS

    FOR POINT-GROUP C1   THERE ARE   1 UNIQUE SYMMETRY FUNCTIONS.

 STEP:   1 TIME =     0.01 SECS, INTEGRAL =      0.01 TIME LEFT: 172799.98
 STEP:   2 TIME =     0.02 SECS, INTEGRAL =      0.03 TIME LEFT: 172799.96
 STEP:   3 TIME =     0.01 SECS, INTEGRAL =      0.04 TIME LEFT: 172799.95
 STEP:   4 TIME =     0.02 SECS, INTEGRAL =      0.05 TIME LEFT: 172799.94
 STEP:   5 TIME =     0.02 SECS, INTEGRAL =      0.07 TIME LEFT: 172799.92
 STEP:   6 TIME =     0.01 SECS, INTEGRAL =      0.08 TIME LEFT: 172799.91
 STEP:   7 TIME =     0.02 SECS, INTEGRAL =      0.10 TIME LEFT: 172799.89
 STEP:   8 TIME =     0.01 SECS, INTEGRAL =      0.11 TIME LEFT: 172799.88
 STEP:   9 TIME =     0.02 SECS, INTEGRAL =      0.12 TIME LEFT: 172799.87
 STEP:  10 TIME =     0.01 SECS, INTEGRAL =      0.14 TIME LEFT: 172799.86
 STEP:  11 TIME =     0.02 SECS, INTEGRAL =      0.15 TIME LEFT: 172799.84
 STEP:  12 TIME =     0.01 SECS, INTEGRAL =      0.16 TIME LEFT: 172799.83
 STEP:  13 TIME =     0.02 SECS, INTEGRAL =      0.18 TIME LEFT: 172799.81
 STEP:  14 TIME =     0.01 SECS, INTEGRAL =      0.19 TIME LEFT: 172799.80
 STEP:  15 TIME =     0.01 SECS, INTEGRAL =      0.20 TIME LEFT: 172799.79
 STEP:  16 TIME =     0.02 SECS, INTEGRAL =      0.22 TIME LEFT: 172799.77
 STEP:  17 TIME =     0.01 SECS, INTEGRAL =      0.23 TIME LEFT: 172799.76
 STEP:  18 TIME =     0.01 SECS, INTEGRAL =      0.24 TIME LEFT: 172799.75
 STEP:  19 TIME =     0.01 SECS, INTEGRAL =      0.25 TIME LEFT: 172799.74
 STEP:  20 TIME =     0.02 SECS, INTEGRAL =      0.27 TIME LEFT: 172799.72
 STEP:  21 TIME =     0.01 SECS, INTEGRAL =      0.28 TIME LEFT: 172799.71
 STEP:  22 TIME =     0.02 SECS, INTEGRAL =      0.30 TIME LEFT: 172799.70
 STEP:  23 TIME =     0.02 SECS, INTEGRAL =      0.31 TIME LEFT: 172799.68
 STEP:  24 TIME =     0.01 SECS, INTEGRAL =      0.32 TIME LEFT: 172799.67
 STEP:  25 TIME =     0.02 SECS, INTEGRAL =      0.34 TIME LEFT: 172799.65
 STEP:  26 TIME =     0.01 SECS, INTEGRAL =      0.35 TIME LEFT: 172799.64
 STEP:  27 TIME =     0.01 SECS, INTEGRAL =      0.36 TIME LEFT: 172799.63
 STEP:  28 TIME =     0.02 SECS, INTEGRAL =      0.38 TIME LEFT: 172799.61
 STEP:  29 TIME =     0.01 SECS, INTEGRAL =      0.39 TIME LEFT: 172799.60
 STEP:  30 TIME =     0.02 SECS, INTEGRAL =      0.41 TIME LEFT: 172799.59
 STEP:  31 TIME =     0.01 SECS, INTEGRAL =      0.42 TIME LEFT: 172799.57
 STEP:  32 TIME =     0.02 SECS, INTEGRAL =      0.43 TIME LEFT: 172799.56
 STEP:  33 TIME =     0.01 SECS, INTEGRAL =      0.45 TIME LEFT: 172799.55
 STEP:  34 TIME =     0.02 SECS, INTEGRAL =      0.46 TIME LEFT: 172799.53
 STEP:  35 TIME =     0.02 SECS, INTEGRAL =      0.48 TIME LEFT: 172799.52
 STEP:  36 TIME =     0.01 SECS, INTEGRAL =      0.49 TIME LEFT: 172799.50
 STEP:  37 TIME =     0.02 SECS, INTEGRAL =      0.50 TIME LEFT: 172799.49
 STEP:  38 TIME =     0.01 SECS, INTEGRAL =      0.52 TIME LEFT: 172799.48
 STEP:  39 TIME =     0.02 SECS, INTEGRAL =      0.53 TIME LEFT: 172799.46
 STEP:  40 TIME =     0.02 SECS, INTEGRAL =      0.55 TIME LEFT: 172799.45
 STEP:  41 TIME =     0.01 SECS, INTEGRAL =      0.56 TIME LEFT: 172799.43
 STEP:  42 TIME =     0.02 SECS, INTEGRAL =      0.57 TIME LEFT: 172799.42
 STEP:  43 TIME =     0.01 SECS, INTEGRAL =      0.59 TIME LEFT: 172799.41
 STEP:  44 TIME =     0.01 SECS, INTEGRAL =      0.60 TIME LEFT: 172799.39
 STEP:  45 TIME =     0.02 SECS, INTEGRAL =      0.61 TIME LEFT: 172799.38
 STEP:  46 TIME =     0.01 SECS, INTEGRAL =      0.62 TIME LEFT: 172799.37
 STEP:  47 TIME =     0.01 SECS, INTEGRAL =      0.64 TIME LEFT: 172799.36
 STEP:  48 TIME =     0.01 SECS, INTEGRAL =      0.65 TIME LEFT: 172799.34
 STEP:  49 TIME =     0.01 SECS, INTEGRAL =      0.66 TIME LEFT: 172799.33
 STEP:  50 TIME =     0.02 SECS, INTEGRAL =      0.68 TIME LEFT: 172799.32
 STEP:  51 TIME =     0.01 SECS, INTEGRAL =      0.69 TIME LEFT: 172799.30
 STEP:  52 TIME =     0.02 SECS, INTEGRAL =      0.70 TIME LEFT: 172799.29
 STEP:  53 TIME =     0.02 SECS, INTEGRAL =      0.72 TIME LEFT: 172799.27
 STEP:  54 TIME =     0.01 SECS, INTEGRAL =      0.73 TIME LEFT: 172799.26
 STEP:  55 TIME =     0.02 SECS, INTEGRAL =      0.75 TIME LEFT: 172799.25
 STEP:  56 TIME =     0.01 SECS, INTEGRAL =      0.76 TIME LEFT: 172799.23
 STEP:  57 TIME =     0.01 SECS, INTEGRAL =      0.77 TIME LEFT: 172799.22

(To convert to Hartree/Bohr^2, multiply by (10^(-21) x N x a0^2)/(4.184 x 627.51) =  0.0642)


           FORCE MATRIX IN MILLIDYNES/ANGSTROM


                  C  1       C  2       C  3       C  4       C  5       C  6
 ------------------------------------------------------------------------------
     C    1  16.106403
     C    2   4.239785  14.594234
     C    3   4.241328   0.715769  14.596029
     C    4   4.755452   0.500634   0.506054  15.384395
     C    5   4.755236   0.506042   0.500415   5.162498  15.384532
     C    6   0.781090   4.034220   0.780295   0.024373   0.034918  14.456797
     C    7   0.781800   0.780364   4.034906   0.035527   0.024193   4.065878
     H    8   0.449531   4.523339   0.027551   0.023560   0.025435   0.437716
     H    9   0.445647   4.496459   0.020243   0.033087   0.022636   0.442465
     H   10   0.037850   0.436664   0.041144   0.003039   0.003157   4.563360
     H   11   0.013644   0.443408   0.012263   0.001031   0.002288   4.519448
     H   12   0.445698   0.020011   4.496354   0.022356   0.033186   0.013574
     H   13   0.449544   0.027767   4.523255   0.025197   0.023574   0.038300
     H   14   0.458861   0.021496   0.038428   4.815284   0.461735   0.002303
     H   15   0.458551   0.039217   0.019825   4.817762   0.461882   0.002069
     H   16   0.038015   0.041397   0.436444   0.003185   0.002806   0.439569
     H   17   0.458317   0.019814   0.039111   0.461834   4.817426   0.003169
     H   18   0.458913   0.038605   0.021617   0.461886   4.815418   0.003737
     H   19   0.013538   0.012260   0.443473   0.002116   0.000980   0.443517


                  C  7       H  8       H  9       H 10       H 11       H 12
 ------------------------------------------------------------------------------
     C    7  14.454157
     H    8   0.038350   5.130459
     H    9   0.013650   0.570074   5.096127
     H   10   0.439265   0.017314   0.031702   5.179971
     H   11   0.443435   0.031103   0.037436   0.581186   5.124043
     H   12   0.442507   0.001929   0.000603   0.001499   0.001209   5.095981
     H   13   0.437839   0.002019   0.001959   0.004312   0.001152   0.570080
     H   14   0.003965   0.024175   0.002797   0.000448   0.000233   0.002856
     H   15   0.003307   0.002743   0.005472   0.000547   0.000250   0.018952
     H   16   4.564118   0.004394   0.001487   0.015927   0.032368   0.031804
     H   17   0.002187   0.002453   0.019167   0.000532   0.000457   0.005448
     H   18   0.002322   0.003592   0.002904   0.000669   0.000345   0.002791
     H   19   4.518841   0.001154   0.001218   0.032513   0.040075   0.037562


                  H 13       H 14       H 15       H 16       H 17       H 18
 ------------------------------------------------------------------------------
     H   13   5.130607
     H   14   0.003562   5.422910
     H   15   0.002420   0.490969   5.424710
     H   16   0.017208   0.000701   0.000550   5.180768
     H   17   0.002723   0.021036   0.042140   0.000524   5.424510
     H   18   0.024254   0.042056   0.021049   0.000484   0.490997   5.422988
     H   19   0.031214   0.000338   0.000409   0.581481   0.000321   0.000238


                  H 19
 ------------------
     H   19   5.123511


          HEAT OF FORMATION =      -0.335462 KCALS/MOLE

          ZERO POINT ENERGY     108.598 KCAL/MOL


           NORMAL COORDINATE ANALYSIS (Total motion = 1 Angstrom)


   Root No.       1         2         3         4         5         6         7         8

                 1 A       2 A       3 A       4 A       5 A       6 A       7 A       8 A   

                  70.7     143.0     292.4     360.5     420.0     512.9     631.3     796.1
  
           1   -0.0001   -0.0006    0.0003    0.0394   -0.0048    0.0197    0.0164   -0.0021
           2    0.0000   -0.0008   -0.0000   -0.0282    0.0033    0.0275   -0.0118   -0.0036
           3    0.0171    0.0000    0.0000    0.0083    0.0688    0.0003   -0.0095    0.0000
           4   -0.0004   -0.0018    0.0004    0.0406   -0.0048    0.0118    0.0025   -0.0186
           5    0.0016   -0.0042    0.0015    0.0032   -0.0036   -0.0399   -0.0393    0.0024
           6    0.0386   -0.0170    0.0312   -0.0002   -0.0163    0.0012    0.0031   -0.0234
           7   -0.0017   -0.0035    0.0015    0.0099    0.0022   -0.0416    0.0380    0.0092
           8   -0.0002   -0.0031    0.0005   -0.0395    0.0057   -0.0015    0.0102   -0.0163
           9    0.0387    0.0168   -0.0312    0.0002   -0.0164   -0.0013    0.0032    0.0227
          10    0.0133   -0.0116   -0.0400   -0.0252    0.0274    0.0342   -0.0003    0.0060
          11    0.0158    0.0063    0.0293    0.0245    0.0302    0.0478   -0.0099    0.0097
          12   -0.0194    0.0002    0.0003    0.0005    0.0056   -0.0059   -0.0048   -0.0048
          13   -0.0107    0.0098    0.0403   -0.0317   -0.0200    0.0342    0.0093    0.0071
          14   -0.0177   -0.0090   -0.0283    0.0163   -0.0358    0.0474    0.0035    0.0081
          15   -0.0194   -0.0002   -0.0003    0.0006    0.0056    0.0060   -0.0047    0.0052
          16   -0.0043    0.0119    0.0001    0.0009   -0.0037   -0.0227   -0.0577   -0.0034
          17   -0.0062   -0.0014   -0.0022    0.0213   -0.0015   -0.0420   -0.0153   -0.0030
          18   -0.0267    0.0404    0.0049   -0.0028   -0.0076    0.0033    0.0173   -0.0146
          19    0.0046   -0.0050   -0.0023   -0.0198    0.0003   -0.0325   -0.0041   -0.0021
          20    0.0063    0.0110   -0.0006   -0.0077    0.0041   -0.0349    0.0595   -0.0025
          21   -0.0268   -0.0403   -0.0049   -0.0027   -0.0075   -0.0035    0.0176    0.0137
          22    0.0151   -0.0170    0.0240    0.0489   -0.0747   -0.0080    0.0099    0.0247
          23   -0.0373    0.0284   -0.0250    0.0168    0.0307   -0.0413    0.0000   -0.0690
          24    0.0784   -0.0519    0.0659   -0.0065   -0.0823   -0.0093   -0.0278    0.0607
          25   -0.0154    0.0084   -0.0268    0.0585    0.0705    0.0154    0.0211   -0.0758
          26    0.0514   -0.0515    0.0356    0.0110   -0.0540   -0.0620   -0.0770    0.0927
          27    0.0662   -0.0415    0.0576   -0.0048   -0.0699   -0.0094   -0.0212    0.0414
          28    0.0118   -0.0343    0.0020   -0.0050   -0.0050   -0.0283   -0.0064   -0.0303
          29    0.0164   -0.0168    0.0105    0.0486   -0.0069   -0.0193   -0.0129   -0.0650
          30   -0.0593    0.1146   -0.0031   -0.0053   -0.0036    0.0011   -0.0644    0.0520
          31   -0.0325    0.0996   -0.0057   -0.0071    0.0009   -0.0307   -0.1578    0.0635
          32   -0.0454    0.0130   -0.0204    0.0283    0.0034   -0.0470   -0.0422    0.0502
          33   -0.0417    0.0679    0.0000   -0.0038   -0.0056    0.0002   -0.0179    0.0161
          34   -0.0539   -0.0515    0.0425    0.0077    0.0745   -0.0635    0.0803    0.1090
          35   -0.0021   -0.0087   -0.0145   -0.0587   -0.0496   -0.0055    0.0049   -0.0412
          36    0.0660    0.0410   -0.0574   -0.0041   -0.0698    0.0090   -0.0210   -0.0392
          37    0.0399    0.0319   -0.0311    0.0002   -0.0525   -0.0368    0.0030   -0.0686
          38   -0.0024   -0.0070    0.0142   -0.0521    0.0609   -0.0205   -0.0095    0.0008
          39    0.0787    0.0517   -0.0660   -0.0057   -0.0826    0.0090   -0.0281   -0.0582
          40    0.0230   -0.0202   -0.0838   -0.0841    0.0545    0.0381   -0.0178    0.0326
          41    0.0287    0.0119    0.0479   -0.0156    0.0644    0.0541   -0.0259    0.0275
          42   -0.0280   -0.0159   -0.0665    0.0010   -0.0163   -0.0103    0.0004   -0.0047
          43    0.0215   -0.0195   -0.0705   -0.0005    0.0448    0.0391    0.0010    0.0083
          44    0.0265    0.0123    0.0653    0.1013    0.0484    0.0578    0.0004   -0.0044
          45   -0.0280    0.0164    0.0679   -0.0046   -0.0147   -0.0088   -0.0013   -0.0142
          46   -0.0115   -0.0044    0.0087   -0.0478    0.0050   -0.0090    0.0104   -0.0510
          47   -0.0163   -0.0375    0.0051   -0.0109    0.0072   -0.0330    0.0103   -0.0428
          48   -0.0597   -0.1148    0.0031   -0.0054   -0.0034   -0.0012   -0.0644   -0.0458
          49   -0.0182    0.0180    0.0835   -0.0967   -0.0315    0.0419   -0.0001   -0.0084
          50   -0.0290   -0.0145   -0.0461   -0.0314   -0.0582    0.0550   -0.0009    0.0035
          51   -0.0281   -0.0164   -0.0679   -0.0039   -0.0147    0.0087   -0.0012    0.0129
          52   -0.0198    0.0178    0.0722   -0.0127   -0.0437    0.0387    0.0189    0.0165
          53   -0.0311   -0.0154   -0.0632    0.0854   -0.0727    0.0529    0.0254    0.0402
          54   -0.0280    0.0159    0.0665    0.0004   -0.0162    0.0102    0.0004    0.0063
          55    0.0327   -0.0196   -0.0179   -0.0288   -0.0028   -0.0346   -0.0106    0.0276
          56    0.0459    0.0989   -0.0120   -0.0022   -0.0020   -0.0441    0.1632    0.0701
          57   -0.0416   -0.0675   -0.0001   -0.0038   -0.0055   -0.0004   -0.0172   -0.0138


   Root No.       9        10        11        12        13        14        15        16

                 9 A      10 A      11 A      12 A      13 A      14 A      15 A      16 A   

                 800.2     823.1     872.0     889.0     902.5     928.4    1013.7    1017.2
  
           1    0.0097    0.0021    0.0103    0.0002   -0.0018    0.0112    0.0008   -0.0093
           2   -0.0067   -0.0015    0.0145   -0.0000   -0.0026   -0.0080   -0.0015   -0.0127
           3    0.0008   -0.0004   -0.0001    0.0142   -0.0001    0.0015    0.0294   -0.0018
           4   -0.0040    0.0078    0.0553    0.0008   -0.0079   -0.0207    0.0022    0.0041
           5   -0.0166   -0.0099   -0.0215   -0.0035    0.0037    0.0182    0.0020    0.0123
           6   -0.0095   -0.0029   -0.0147    0.0257    0.0029    0.0014   -0.0094   -0.0121
           7    0.0138    0.0118   -0.0382    0.0029    0.0060   -0.0240    0.0000    0.0105
           8    0.0104   -0.0041    0.0453    0.0009   -0.0064    0.0140   -0.0019    0.0081
           9   -0.0110   -0.0029    0.0140    0.0259   -0.0035    0.0014   -0.0085    0.0132
          10    0.0080    0.0042   -0.0136   -0.0138   -0.0062    0.0208   -0.0100   -0.0028
          11    0.0046    0.0001   -0.0137   -0.0191    0.0082   -0.0175   -0.0104   -0.0006
          12    0.0066    0.0019    0.0144   -0.0187   -0.0022   -0.0017   -0.0139   -0.0077
          13   -0.0023    0.0012   -0.0091    0.0138    0.0094    0.0231    0.0067   -0.0005
          14   -0.0097   -0.0040   -0.0176    0.0189   -0.0037   -0.0143    0.0125   -0.0044
          15    0.0062    0.0019   -0.0140   -0.0189    0.0025   -0.0018   -0.0131    0.0093
          16   -0.0254   -0.0075    0.0027   -0.0057   -0.0001    0.0012   -0.0026   -0.0333
          17   -0.0038    0.0012   -0.0077    0.0012    0.0017   -0.0066   -0.0026    0.0006
          18   -0.0116   -0.0034   -0.0054   -0.0129    0.0082    0.0015    0.0066    0.0159
          19   -0.0044   -0.0035   -0.0081   -0.0031    0.0017    0.0066    0.0028    0.0110
          20    0.0256    0.0068   -0.0001    0.0052    0.0004    0.0009   -0.0002   -0.0315
          21   -0.0125   -0.0034    0.0058   -0.0130   -0.0079    0.0016    0.0055   -0.0167
          22    0.0260    0.0230    0.1051   -0.0686    0.0076   -0.0412   -0.0414    0.1286
          23   -0.0532   -0.0189   -0.0579    0.0200    0.0295    0.0203   -0.0653    0.0813
          24    0.0371    0.0128    0.0410   -0.0306   -0.0110   -0.0109    0.0255   -0.0038
          25   -0.0233    0.0043    0.0443    0.0739   -0.0289   -0.0231    0.0676   -0.0333
          26    0.0347    0.0087    0.0345   -0.0445   -0.0263    0.0072    0.0962    0.0223
          27    0.0225    0.0072    0.0162   -0.0225   -0.0025   -0.0027    0.0072    0.0069
          28   -0.0828   -0.0262   -0.0233   -0.0528    0.0149    0.0182    0.0280   -0.0525
          29   -0.0364    0.0010    0.0243    0.0319    0.0129   -0.0427   -0.0750    0.0753
          30    0.0886    0.0248    0.0222    0.0460   -0.0197   -0.0085   -0.0090    0.0139
          31    0.0802    0.0197    0.0256    0.0732   -0.0283   -0.0013   -0.0459   -0.0540
          32    0.0208    0.0112    0.0251   -0.0333   -0.0224   -0.0171    0.0852   -0.0042
          33    0.0264    0.0072    0.0074    0.0054   -0.0050   -0.0017    0.0098    0.0078
          34   -0.0482   -0.0072    0.0174    0.0659   -0.0172   -0.0140   -0.0662    0.0399
          35    0.0140   -0.0066    0.0542   -0.0557   -0.0348    0.0197   -0.0952   -0.0137
          36    0.0251    0.0073   -0.0156   -0.0225    0.0029   -0.0028    0.0062   -0.0076
          37    0.0632    0.0253   -0.0875   -0.0417    0.0266   -0.0328    0.0521    0.0305
          38   -0.0076   -0.0157    0.0795    0.0600    0.0154    0.0334    0.0725    0.1409
          39    0.0414    0.0130   -0.0407   -0.0311    0.0119   -0.0113    0.0265    0.0013
          40   -0.0037   -0.0045    0.0049   -0.0274    0.1271   -0.1196   -0.0125    0.0087
          41   -0.0199    0.1093   -0.0123   -0.0377    0.1182   -0.0683   -0.0187    0.0127
          42    0.0280   -0.1502    0.0285   -0.0058   -0.0311   -0.0595   -0.0048   -0.0146
          43    0.0363   -0.0975   -0.0446   -0.0280   -0.0614    0.0231   -0.0181    0.0334
          44    0.0370   -0.0238   -0.0851   -0.0419   -0.1453    0.1293   -0.0322    0.0475
          45   -0.0238    0.1523    0.0326   -0.0053    0.0197    0.0595   -0.0104   -0.0451
          46    0.0109   -0.0094    0.0317   -0.0472    0.0083    0.0469    0.0892    0.0775
          47    0.0929    0.0246   -0.0155    0.0398    0.0173   -0.0036   -0.0061   -0.0250
          48    0.0922    0.0250   -0.0236    0.0462    0.0188   -0.0086   -0.0111   -0.0124
          49   -0.0230   -0.0087   -0.0662    0.0277   -0.1182   -0.1151    0.0277    0.0314
          50   -0.0467    0.1001   -0.0700    0.0372   -0.1053   -0.0633    0.0316    0.0435
          51   -0.0248    0.1524   -0.0329   -0.0061   -0.0194    0.0596   -0.0064    0.0460
          52    0.0165   -0.1051   -0.0140    0.0280    0.0706    0.0265    0.0145    0.0075
          53    0.0071   -0.0314   -0.0009    0.0409    0.1577    0.1357    0.0189    0.0100
          54    0.0275   -0.1502   -0.0279   -0.0057    0.0310   -0.0594   -0.0033    0.0152
          55    0.0040   -0.0043    0.0138    0.0550   -0.0136    0.0158   -0.0936    0.0242
          56   -0.0877   -0.0224    0.0340   -0.0588   -0.0328    0.0069    0.0119   -0.0542
          57    0.0270    0.0071   -0.0074    0.0053    0.0047   -0.0017    0.0087   -0.0090


   Root No.      17        18        19        20        21        22        23        24

                17 A      18 A      19 A      20 A      21 A      22 A      23 A      24 A   

                1021.6    1058.6    1061.3    1080.0    1105.8    1127.9    1137.4    1144.1
  
           1   -0.0024   -0.0086   -0.0152    0.0006   -0.0003   -0.0006   -0.0000   -0.0017
           2   -0.0034    0.0061   -0.0212    0.0010   -0.0005    0.0004   -0.0001   -0.0024
           3   -0.0002    0.0021    0.0000   -0.0000    0.0000   -0.0034    0.0002    0.0000
           4    0.0015   -0.0064    0.0115   -0.0071    0.0016   -0.0013    0.0006   -0.0055
           5    0.0125   -0.0281   -0.0180    0.0014    0.0012   -0.0116    0.0143   -0.0219
           6    0.0195   -0.0056    0.0015   -0.0150    0.0097    0.0231   -0.0143    0.0011
           7    0.0114    0.0243   -0.0209    0.0039    0.0007    0.0102    0.0134   -0.0190
           8    0.0055    0.0152    0.0050   -0.0060    0.0019    0.0047    0.0052   -0.0123
           9   -0.0192   -0.0058   -0.0016    0.0150   -0.0097    0.0230    0.0147   -0.0014
          10    0.0019    0.0067   -0.0089   -0.0028   -0.0429    0.0014   -0.0001    0.0031
          11   -0.0028   -0.0048   -0.0151    0.0042    0.0291   -0.0001   -0.0020    0.0074
          12   -0.0018   -0.0006   -0.0171    0.0001   -0.0000    0.0002    0.0010   -0.0048
          13   -0.0034    0.0065   -0.0115    0.0049    0.0412    0.0006   -0.0018    0.0061
          14    0.0007   -0.0049   -0.0132   -0.0014   -0.0314   -0.0012   -0.0007    0.0053
          15    0.0020   -0.0005    0.0170   -0.0000   -0.0000    0.0003   -0.0011    0.0047
          16   -0.0274    0.0150    0.0201    0.0040   -0.0002    0.0054   -0.0002   -0.0095
          17   -0.0026    0.0207    0.0073    0.0018   -0.0016    0.0104   -0.0150    0.0242
          18   -0.0187    0.0038   -0.0033    0.0016   -0.0041   -0.0216    0.0369    0.0200
          19    0.0062   -0.0148    0.0006    0.0001   -0.0015   -0.0077   -0.0141    0.0261
          20   -0.0269   -0.0206    0.0215    0.0040   -0.0008   -0.0082   -0.0050   -0.0012
          21    0.0184    0.0038    0.0034   -0.0016    0.0041   -0.0212   -0.0373   -0.0198
          22   -0.0632   -0.0778    0.0036   -0.0692   -0.0143    0.0154   -0.0350   -0.0635
          23    0.0196   -0.1054   -0.0361   -0.0695    0.0095    0.0458   -0.0389   -0.0744
          24   -0.0192    0.0225    0.0109    0.0115   -0.0053   -0.0145    0.0117    0.0164
          25    0.1259   -0.0372    0.0493    0.0005    0.0307   -0.0578    0.1075   -0.0059
          26    0.0461   -0.0216   -0.0014    0.0460   -0.0044   -0.1060    0.1340   -0.0060
          27   -0.0166    0.0088   -0.0055    0.0001   -0.0040    0.0049   -0.0045    0.0082
          28   -0.0816   -0.0076    0.0281   -0.0425    0.0032    0.0152    0.0659   -0.0055
          29    0.0080    0.1364    0.0132    0.1657   -0.0329   -0.0827   -0.0791    0.0785
          30    0.0589   -0.0120   -0.0155    0.0030    0.0038   -0.0012   -0.0345   -0.0055
          31    0.0448   -0.0241    0.0234    0.0288    0.0078   -0.0176   -0.0860   -0.0898
          32    0.0420    0.0448    0.0095   -0.1162    0.0149    0.1822   -0.0301    0.1755
          33    0.0109   -0.0022   -0.0022   -0.0129    0.0014    0.0013    0.0104    0.0240
          34    0.0047    0.0076   -0.0175    0.0439   -0.0140    0.0801    0.0935   -0.0041
          35    0.1359    0.0427    0.0456    0.0163    0.0279    0.0856    0.1467   -0.0077
          36    0.0167    0.0090    0.0055    0.0002    0.0040    0.0053    0.0054   -0.0082
          37    0.0376    0.0749   -0.0357   -0.0428    0.0134   -0.0380   -0.0261   -0.0498
          38   -0.0546    0.1079   -0.0089   -0.0866   -0.0107   -0.0286   -0.0463   -0.0838
          39    0.0187    0.0232   -0.0112   -0.0117    0.0053   -0.0146   -0.0121   -0.0167
          40    0.0185   -0.0253    0.0559    0.0025    0.0445   -0.0024    0.0048   -0.0084
          41    0.0288   -0.0216    0.0882   -0.0077   -0.0260   -0.0049    0.0038   -0.0146
          42   -0.0297   -0.0076   -0.0992    0.0203    0.1542    0.0033   -0.0027    0.0141
          43   -0.0119    0.0119    0.0575    0.0026    0.0432   -0.0003   -0.0009   -0.0105
          44   -0.0142    0.0282    0.0754   -0.0079   -0.0255    0.0013   -0.0020   -0.0200
          45    0.0159    0.0061   -0.0853   -0.0138   -0.1642    0.0042    0.0031    0.0049
          46    0.0327   -0.1346    0.0049    0.1686   -0.0320    0.0848   -0.0943    0.0755
          47   -0.0741   -0.0364    0.0310    0.0125   -0.0075    0.0117    0.0370    0.0199
          48   -0.0587   -0.0124    0.0156   -0.0025   -0.0040   -0.0013    0.0342    0.0058
          49   -0.0099   -0.0224    0.0535   -0.0086   -0.0377   -0.0013   -0.0014   -0.0156
          50   -0.0161   -0.0198    0.0790   -0.0003    0.0331   -0.0002   -0.0012   -0.0164
          51   -0.0157    0.0063    0.0850    0.0139    0.1646    0.0041   -0.0030   -0.0050
          52    0.0211    0.0130    0.0655   -0.0079   -0.0387    0.0037    0.0023   -0.0110
          53    0.0265    0.0315    0.0807    0.0002    0.0342    0.0035    0.0061   -0.0125
          54    0.0298   -0.0066    0.0994   -0.0204   -0.1538    0.0033    0.0027   -0.0142
          55    0.0271   -0.0487    0.0014   -0.1197    0.0114   -0.1769   -0.0045    0.1962
          56    0.0554    0.0093    0.0252   -0.0105    0.0122   -0.0406   -0.0915   -0.0285
          57   -0.0108   -0.0025    0.0024    0.0126   -0.0014    0.0007   -0.0108   -0.0236


   Root No.      25        26        27        28        29        30        31        32

                25 A      26 A      27 A      28 A      29 A      30 A      31 A      32 A   

                1174.8    1185.6    1198.1    1262.9    1294.7    1318.9    1321.2    1350.2
  
           1    0.0007    0.0005    0.0242    0.0242    0.0005   -0.0097    0.0028    0.0589
           2   -0.0005   -0.0001    0.0339   -0.0173    0.0008    0.0068    0.0040   -0.0422
           3    0.0005    0.0779   -0.0003    0.0019   -0.0001   -0.0011   -0.0000   -0.0017
           4    0.0000   -0.0027    0.0018    0.0144    0.0279   -0.0171    0.0152   -0.0360
           5    0.0005   -0.0028    0.0122    0.0148    0.0303   -0.0244    0.0042   -0.0176
           6   -0.0027   -0.0202   -0.0010   -0.0026   -0.0010    0.0013   -0.0029    0.0033
           7   -0.0005    0.0019    0.0110   -0.0093    0.0198    0.0177   -0.0005    0.0050
           8   -0.0002    0.0036    0.0055   -0.0184    0.0362    0.0235    0.0163    0.0397
           9   -0.0027   -0.0202    0.0013   -0.0027    0.0011    0.0013    0.0030    0.0034
          10    0.0358   -0.0131   -0.0163   -0.0049   -0.0018    0.0024   -0.0013   -0.0067
          11    0.0502   -0.0189   -0.0237    0.0031   -0.0029   -0.0017   -0.0019    0.0050
          12   -0.0183   -0.0193    0.0527    0.0001   -0.0226    0.0001   -0.0075    0.0006
          13   -0.0362    0.0135   -0.0173   -0.0045   -0.0022    0.0024   -0.0014   -0.0069
          14   -0.0499    0.0182   -0.0232    0.0037   -0.0027   -0.0016   -0.0018    0.0047
          15   -0.0183   -0.0197   -0.0525    0.0000    0.0226   -0.0002    0.0075    0.0006
          16   -0.0002    0.0022   -0.0086   -0.0063    0.0072   -0.0005   -0.0248    0.0030
          17   -0.0001    0.0016   -0.0060    0.0177   -0.0330    0.0437    0.0385    0.0020
          18    0.0006    0.0009    0.0031    0.0014   -0.0011    0.0036    0.0038    0.0018
          19    0.0000   -0.0008   -0.0029   -0.0189   -0.0336   -0.0428    0.0434   -0.0010
          20    0.0002   -0.0027   -0.0100    0.0003   -0.0038   -0.0132   -0.0115   -0.0035
          21    0.0006    0.0010   -0.0032    0.0014    0.0010    0.0035   -0.0037    0.0018
          22    0.0054    0.1230   -0.0597   -0.1029   -0.0823    0.0699   -0.0304   -0.0419
          23    0.0020    0.0389   -0.0227   -0.0699   -0.0161   -0.0113   -0.0723    0.0772
          24   -0.0012    0.0115   -0.0029    0.0066   -0.0161    0.0308    0.0332   -0.0690
          25   -0.0071   -0.1334   -0.0616   -0.0954   -0.0848    0.0727   -0.0190   -0.0331
          26    0.0003   -0.0335   -0.0215   -0.0614   -0.0255   -0.0087   -0.0578    0.0921
          27    0.0000    0.0197    0.0096    0.0085    0.0176   -0.0242   -0.0131    0.0423
          28   -0.0001   -0.0023   -0.0189    0.0211   -0.0143    0.0846   -0.0219    0.0251
          29    0.0022    0.0296    0.0003   -0.0759    0.0143   -0.0787   -0.0910    0.0377
          30   -0.0004   -0.0044    0.0134   -0.0023    0.0099   -0.0646    0.0446   -0.0393
          31    0.0009    0.0039   -0.0333    0.0140   -0.0306    0.0849   -0.0297    0.0358
          32   -0.0078   -0.0288    0.0260   -0.0628    0.0461   -0.0642   -0.0923    0.0217
          33   -0.0005   -0.0047    0.0027   -0.0066    0.0029    0.0045   -0.0168    0.0114
          34   -0.0027   -0.0115   -0.0003    0.0275    0.0031    0.0330   -0.0477   -0.0979
          35    0.0063    0.1357   -0.0664    0.1097   -0.0887   -0.0646   -0.0379    0.0015
          36   -0.0000    0.0197   -0.0099    0.0087   -0.0177   -0.0244    0.0121    0.0417
          37   -0.0002    0.0027   -0.0025    0.0333    0.0111    0.0346   -0.0578   -0.0862
          38   -0.0057   -0.1288   -0.0632    0.1201   -0.0833   -0.0609   -0.0533    0.0152
          39   -0.0012    0.0113    0.0027    0.0070    0.0160    0.0318   -0.0328   -0.0693
          40   -0.0906   -0.0259    0.0677    0.0210   -0.0461   -0.0068   -0.0246    0.0337
          41   -0.1376   -0.0311    0.0746    0.0184   -0.0127   -0.0078   -0.0033    0.0284
          42    0.1204   -0.0127   -0.0017    0.0017   -0.0571    0.0003   -0.0313    0.0034
          43   -0.1008   -0.0197    0.0491   -0.0092    0.0024    0.0044    0.0045   -0.0140
          44   -0.1308   -0.0296    0.0868   -0.0275   -0.0463    0.0120   -0.0240   -0.0424
          45    0.1213   -0.0115   -0.0016   -0.0059   -0.0565    0.0031   -0.0312   -0.0071
          46   -0.0020   -0.0281    0.0064    0.0787    0.0181    0.1038   -0.0764   -0.0277
          47   -0.0006   -0.0077   -0.0177    0.0044   -0.0091   -0.0533   -0.0510   -0.0358
          48   -0.0004   -0.0048   -0.0134   -0.0020   -0.0101   -0.0634   -0.0464   -0.0396
          49    0.0921    0.0224    0.0664    0.0232   -0.0448   -0.0092   -0.0244    0.0356
          50    0.1376    0.0290    0.0743    0.0177   -0.0127   -0.0079   -0.0036    0.0269
          51    0.1206   -0.0113    0.0017   -0.0058    0.0565    0.0020    0.0312   -0.0071
          52    0.1013    0.0215    0.0487   -0.0106    0.0029    0.0050    0.0049   -0.0160
          53    0.1293    0.0349    0.0876   -0.0257   -0.0476    0.0098   -0.0242   -0.0411
          54    0.1211   -0.0125    0.0019    0.0017    0.0572   -0.0007    0.0312    0.0035
          55    0.0077    0.0288    0.0351    0.0642    0.0537    0.0903   -0.0756   -0.0090
          56    0.0016    0.0057   -0.0233    0.0069   -0.0144   -0.0584   -0.0589   -0.0409
          57   -0.0004   -0.0046   -0.0027   -0.0064   -0.0028    0.0041    0.0164    0.0113


   Root No.      33        34        35        36        37        38        39        40

                33 A      34 A      35 A      36 A      37 A      38 A      39 A      40 A   

                1399.6    1401.2    1405.5    1416.0    1419.8    1431.0    1627.6    2963.8
  
           1    0.0050    0.0082   -0.0269   -0.0154   -0.0159   -0.0016    0.0990    0.0001
           2   -0.0037    0.0113    0.0193   -0.0214    0.0116   -0.0021    0.1381    0.0001
           3    0.0020    0.0000    0.0004   -0.0000   -0.0004   -0.0000   -0.0000    0.0000
           4   -0.0042    0.0064    0.0287    0.0233    0.0106    0.0048   -0.0344    0.0002
           5    0.0018   -0.0220   -0.0084   -0.0034   -0.0205    0.0146   -0.0126    0.0017
           6   -0.0005    0.0020    0.0006    0.0006    0.0025   -0.0023    0.0004    0.0167
           7   -0.0031   -0.0228    0.0169   -0.0105    0.0232    0.0123   -0.0009    0.0016
           8    0.0036   -0.0009   -0.0244    0.0211   -0.0038    0.0091   -0.0366    0.0008
           9   -0.0005   -0.0021    0.0006   -0.0006    0.0026    0.0023   -0.0004   -0.0167
          10   -0.0102    0.0004    0.0021   -0.0020    0.0020   -0.0004   -0.0349   -0.0002
          11   -0.0126    0.0006   -0.0032   -0.0025   -0.0017   -0.0007   -0.0476    0.0001
          12   -0.0241    0.0073   -0.0021   -0.0180   -0.0002   -0.0022   -0.0939    0.0000
          13    0.0087    0.0005    0.0037   -0.0017    0.0022   -0.0005   -0.0338    0.0002
          14    0.0137    0.0006   -0.0009   -0.0027   -0.0013   -0.0006   -0.0483   -0.0001
          15   -0.0239   -0.0074   -0.0021    0.0181   -0.0004    0.0022    0.0939   -0.0000
          16    0.0022   -0.0108   -0.0187   -0.0039    0.0143   -0.0311   -0.0054   -0.0039
          17    0.0004    0.0106   -0.0069    0.0055    0.0206   -0.0029    0.0002   -0.0001
          18   -0.0003    0.0028    0.0047    0.0006   -0.0048    0.0106    0.0007   -0.0136
          19    0.0004    0.0134    0.0007    0.0063   -0.0151    0.0073    0.0020    0.0011
          20   -0.0023   -0.0070    0.0200   -0.0023   -0.0201   -0.0301   -0.0051   -0.0037
          21   -0.0004   -0.0028    0.0048   -0.0007   -0.0050   -0.0106   -0.0007    0.0135
          22    0.0025   -0.0427   -0.0478   -0.0590   -0.0260   -0.0020    0.0324    0.0447
          23   -0.0087    0.0650    0.0372    0.0167    0.0582   -0.0452    0.0245   -0.0703
          24    0.0096   -0.0821   -0.0651   -0.0503   -0.0699    0.0385    0.0029   -0.0836
          25    0.0071   -0.0455   -0.0526   -0.0543   -0.0264   -0.0002    0.0204   -0.0482
          26   -0.0070    0.0876    0.0543    0.0322    0.0757   -0.0494    0.0209    0.0511
          27   -0.0079    0.0598    0.0514    0.0405    0.0496   -0.0235   -0.0050   -0.1179
          28   -0.0058    0.0243    0.0476    0.0010   -0.0378    0.0789   -0.0020    0.0762
          29    0.0002   -0.0093    0.0131   -0.0204   -0.0601    0.0179    0.0061    0.0208
          30    0.0098   -0.0347   -0.0850    0.0040    0.0879   -0.1362   -0.0086    0.0506
          31   -0.0115    0.0444    0.0949    0.0007   -0.0855    0.1421    0.0051   -0.0317
          32   -0.0024   -0.0125    0.0245   -0.0163   -0.0607    0.0256    0.0041   -0.0196
          33   -0.0037    0.0111    0.0343   -0.0017   -0.0385    0.0515    0.0042    0.1128
          34    0.0089    0.0979   -0.0675    0.0472   -0.0821   -0.0467    0.0132    0.0632
          35   -0.0046   -0.0152    0.0321   -0.0410    0.0013   -0.0159    0.0258   -0.0294
          36   -0.0079   -0.0594    0.0504   -0.0397    0.0504    0.0233    0.0051    0.1182
          37    0.0089    0.0749   -0.0494    0.0337   -0.0643   -0.0419    0.0128   -0.0813
          38    0.0002   -0.0200    0.0331   -0.0507    0.0069   -0.0162    0.0389    0.0197
          39    0.0096    0.0825   -0.0644    0.0496   -0.0717   -0.0388   -0.0029    0.0831
          40    0.1566   -0.0443    0.0002    0.0902   -0.0061    0.0087    0.0721    0.0002
          41   -0.0017    0.0034   -0.0115   -0.0058   -0.0071   -0.0008   -0.0465   -0.0006
          42    0.1382   -0.0450    0.0102    0.0856    0.0004    0.0077    0.0116   -0.0004
          43   -0.0526    0.0168    0.0019   -0.0334    0.0039   -0.0034   -0.0668    0.0004
          44    0.1388   -0.0408    0.0284    0.0813    0.0117    0.0081    0.0536    0.0000
          45    0.1389   -0.0457    0.0138    0.0864    0.0025    0.0080    0.0130    0.0002
          46   -0.0021   -0.0163    0.0027   -0.0190    0.0449   -0.0087    0.0064   -0.0045
          47    0.0054    0.0204   -0.0493   -0.0045    0.0552    0.0791    0.0000    0.0787
          48    0.0099    0.0357   -0.0858   -0.0023    0.0889    0.1352    0.0086   -0.0500
          49   -0.1478   -0.0442   -0.0262    0.0884   -0.0108    0.0088    0.0722   -0.0001
          50    0.0052    0.0028   -0.0109   -0.0056   -0.0074   -0.0006   -0.0461    0.0004
          51    0.1382    0.0458    0.0137   -0.0869    0.0035   -0.0081   -0.0129   -0.0002
          52    0.0516    0.0175    0.0109   -0.0347    0.0052   -0.0036   -0.0672   -0.0006
          53   -0.1469   -0.0410    0.0035    0.0841    0.0070    0.0081    0.0533    0.0000
          54    0.1375    0.0452    0.0101   -0.0863    0.0015   -0.0078   -0.0117    0.0004
          55   -0.0016   -0.0259    0.0069   -0.0152    0.0305   -0.0212    0.0023   -0.0081
          56    0.0117    0.0392   -0.0985   -0.0025    0.1012    0.1416    0.0061   -0.0358
          57   -0.0037   -0.0114    0.0341    0.0009   -0.0382   -0.0505   -0.0041   -0.1130


   Root No.      41        42        43        44        45        46        47        48

                41 A      42 A      43 A      44 A      45 A      46 A      47 A      48 A   

                2967.1    2977.2    2988.5    3048.1    3048.9    3060.9    3065.9    3079.1
  
           1   -0.0000    0.0000    0.0000   -0.0004    0.0002    0.0000    0.0002    0.0000
           2    0.0000    0.0000    0.0000    0.0003    0.0003   -0.0000    0.0003    0.0000
           3   -0.0001   -0.0000   -0.0001    0.0000    0.0000    0.0000    0.0000    0.0000
           4   -0.0003   -0.0002   -0.0001   -0.0111    0.0107    0.0016   -0.0021   -0.0001
           5   -0.0022   -0.0014   -0.0010    0.0154   -0.0148   -0.0018    0.0026    0.0002
           6   -0.0217   -0.0139   -0.0089   -0.0005    0.0005    0.0000    0.0001   -0.0000
           7    0.0021   -0.0014    0.0009   -0.0177   -0.0179    0.0021    0.0031    0.0003
           8    0.0010   -0.0006    0.0004    0.0054    0.0055   -0.0009   -0.0012   -0.0001
           9   -0.0217    0.0138   -0.0089   -0.0006   -0.0005    0.0000   -0.0001    0.0000
          10    0.0001    0.0002    0.0000   -0.0004    0.0001    0.0001   -0.0001    0.0248
          11    0.0001   -0.0001    0.0000    0.0004   -0.0003   -0.0001    0.0001   -0.0179
          12   -0.0001   -0.0000   -0.0001    0.0001   -0.0003   -0.0000    0.0001   -0.0004
          13   -0.0000   -0.0001   -0.0000   -0.0005   -0.0004    0.0001    0.0001   -0.0249
          14   -0.0001    0.0001   -0.0000    0.0003   -0.0000   -0.0001   -0.0001    0.0178
          15   -0.0001    0.0000   -0.0001    0.0001    0.0003   -0.0000   -0.0001    0.0003
          16    0.0024   -0.0045   -0.0059    0.0027   -0.0027    0.0181   -0.0171   -0.0001
          17    0.0001   -0.0002   -0.0002    0.0011   -0.0012    0.0060   -0.0061   -0.0000
          18    0.0086   -0.0162   -0.0209   -0.0007    0.0008   -0.0038    0.0032    0.0000
          19    0.0007    0.0012   -0.0016   -0.0002   -0.0003    0.0001   -0.0003    0.0000
          20   -0.0023   -0.0044    0.0058   -0.0028   -0.0030   -0.0188   -0.0185   -0.0001
          21    0.0085    0.0161   -0.0210   -0.0006   -0.0008   -0.0037   -0.0033   -0.0000
          22   -0.0580   -0.0376   -0.0236    0.0750   -0.0707   -0.0101    0.0124    0.0010
          23    0.0921    0.0614    0.0394   -0.1228    0.1160    0.0182   -0.0215   -0.0027
          24    0.1088    0.0709    0.0446   -0.1691    0.1596    0.0239   -0.0288   -0.0032
          25    0.0615    0.0388    0.0243    0.0606   -0.0570   -0.0080    0.0094    0.0006
          26   -0.0662   -0.0441   -0.0288   -0.0628    0.0592    0.0091   -0.0105    0.0001
          27    0.1512    0.0967    0.0610    0.1755   -0.1654   -0.0244    0.0284    0.0010
          28   -0.0497    0.0925    0.1222   -0.0238    0.0283   -0.1777    0.1721    0.0005
          29   -0.0122    0.0269    0.0333   -0.0057    0.0064   -0.0482    0.0450    0.0001
          30   -0.0324    0.0606    0.0783   -0.0188    0.0219   -0.1391    0.1335    0.0004
          31    0.0207   -0.0382   -0.0516   -0.0055    0.0067   -0.0380    0.0361    0.0001
          32    0.0106   -0.0258   -0.0303   -0.0036    0.0043   -0.0284    0.0259    0.0001
          33   -0.0710    0.1333    0.1715    0.0261   -0.0314    0.1844   -0.1739   -0.0007
          34    0.0819   -0.0534    0.0349    0.0761    0.0754   -0.0108   -0.0129   -0.0002
          35   -0.0373    0.0227   -0.0139   -0.0366   -0.0361    0.0046    0.0057    0.0006
          36    0.1519   -0.0964    0.0615    0.1715    0.1700   -0.0238   -0.0288   -0.0011
          37   -0.1065    0.0702   -0.0453    0.1378    0.1368   -0.0201   -0.0248   -0.0030
          38    0.0253   -0.0157    0.0097   -0.0307   -0.0302    0.0036    0.0048    0.0001
          39    0.1085   -0.0701    0.0446   -0.1643   -0.1631    0.0232    0.0290    0.0034
          40   -0.0006   -0.0003   -0.0003    0.0019   -0.0029   -0.0006    0.0010   -0.1105
          41    0.0015    0.0005    0.0007   -0.0036    0.0049    0.0010   -0.0015    0.1654
          42    0.0010    0.0004    0.0005   -0.0026    0.0034    0.0007   -0.0011    0.1205
          43    0.0016   -0.0005    0.0008    0.0025    0.0020   -0.0008   -0.0001   -0.1905
          44   -0.0001    0.0000   -0.0001   -0.0003   -0.0003    0.0001   -0.0000    0.0520
          45    0.0009   -0.0002    0.0004    0.0016    0.0010   -0.0005   -0.0000   -0.1160
          46   -0.0042   -0.0040    0.0074   -0.0021   -0.0030   -0.0107   -0.0124   -0.0000
          47    0.0508    0.0958   -0.1269    0.0236    0.0295    0.1815    0.1814    0.0006
          48   -0.0320   -0.0598    0.0778   -0.0181   -0.0222   -0.1363   -0.1354   -0.0005
          49    0.0006    0.0002    0.0003    0.0011   -0.0009   -0.0004   -0.0000    0.1108
          50   -0.0015   -0.0005   -0.0007   -0.0024    0.0018    0.0008   -0.0001   -0.1643
          51    0.0009    0.0002    0.0004    0.0017   -0.0010   -0.0005   -0.0000    0.1165
          52   -0.0017    0.0006   -0.0007    0.0039    0.0057   -0.0012   -0.0018    0.1921
          53    0.0001   -0.0001    0.0001   -0.0007   -0.0012    0.0003    0.0004   -0.0516
          54    0.0010   -0.0004    0.0004   -0.0025   -0.0034    0.0007    0.0011   -0.1205
          55   -0.0032   -0.0118    0.0118    0.0015    0.0018    0.0139    0.0127    0.0001
          56   -0.0227   -0.0438    0.0583    0.0060    0.0077    0.0434    0.0423    0.0002
          57   -0.0710   -0.1333    0.1729    0.0252    0.0319    0.1811    0.1766    0.0007


   Root No.      49        50        51

                49 A      50 A      51 A   

                3093.1    3127.5    3128.2
  
           1   -0.0005    0.0000    0.0005
           2    0.0004    0.0000    0.0007
           3    0.0000    0.0005   -0.0000
           4    0.0005    0.0000   -0.0002
           5   -0.0002   -0.0001    0.0004
           6   -0.0000   -0.0003    0.0000
           7    0.0003    0.0001    0.0005
           8   -0.0004   -0.0000   -0.0001
           9   -0.0000   -0.0003   -0.0000
          10   -0.0247    0.0064   -0.0069
          11    0.0179    0.0081   -0.0089
          12    0.0004    0.0184   -0.0194
          13   -0.0248   -0.0058   -0.0061
          14    0.0176   -0.0088   -0.0091
          15    0.0004    0.0190    0.0189
          16    0.0001    0.0000   -0.0000
          17   -0.0000    0.0000   -0.0000
          18   -0.0000   -0.0000   -0.0000
          19    0.0000    0.0000    0.0000
          20   -0.0001   -0.0000   -0.0000
          21   -0.0000   -0.0000    0.0000
          22   -0.0011   -0.0007    0.0016
          23    0.0032    0.0020   -0.0034
          24    0.0039    0.0024   -0.0044
          25   -0.0008    0.0003    0.0011
          26    0.0017   -0.0010   -0.0017
          27   -0.0039    0.0016    0.0042
          28   -0.0006    0.0000    0.0003
          29   -0.0002    0.0000    0.0001
          30   -0.0005   -0.0000    0.0002
          31   -0.0001   -0.0001    0.0000
          32   -0.0001   -0.0000    0.0000
          33    0.0006    0.0002   -0.0002
          34   -0.0019    0.0009   -0.0020
          35    0.0002    0.0001    0.0005
          36   -0.0039    0.0014   -0.0042
          37   -0.0033   -0.0023   -0.0037
          38   -0.0000    0.0001    0.0004
          39    0.0039    0.0025    0.0044
          40    0.1095    0.1193   -0.1213
          41   -0.1627   -0.1632    0.1658
          42   -0.1229   -0.1114    0.1126
          43    0.1865   -0.1980    0.2001
          44   -0.0516    0.0630   -0.0638
          45    0.1179   -0.1111    0.1115
          46   -0.0000   -0.0000    0.0000
          47    0.0007   -0.0000    0.0003
          48   -0.0005   -0.0000   -0.0002
          49    0.1087   -0.1263   -0.1212
          50   -0.1600    0.1714    0.1644
          51    0.1179   -0.1139   -0.1084
          52    0.1886    0.1983    0.1911
          53   -0.0514   -0.0623   -0.0601
          54   -0.1225   -0.1146   -0.1098
          55    0.0001    0.0000    0.0000
          56    0.0002    0.0001    0.0000
          57    0.0006    0.0002    0.0002


           MASS-WEIGHTED COORDINATE ANALYSIS (NORMAL COORDINATES)


   Root No.       1         2         3         4         5         6         7         8

                 1 A       2 A       3 A       4 A       5 A       6 A       7 A       8 A   

                  70.7     143.0     292.4     360.5     420.0     512.9     631.3     796.1
  
           1   -0.0006   -0.0054    0.0025    0.3360   -0.0391    0.1412    0.1212   -0.0223
           2    0.0002   -0.0076   -0.0000   -0.2410    0.0270    0.1974   -0.0868   -0.0380
           3    0.1624    0.0001    0.0000    0.0711    0.5552    0.0019   -0.0701    0.0004
           4   -0.0037   -0.0173    0.0035    0.3462   -0.0388    0.0847    0.0182   -0.1942
           5    0.0150   -0.0399    0.0127    0.0273   -0.0294   -0.2860   -0.2905    0.0254
           6    0.3661   -0.1613    0.2695   -0.0017   -0.1319    0.0087    0.0226   -0.2444
           7   -0.0165   -0.0329    0.0126    0.0849    0.0179   -0.2983    0.2810    0.0955
           8   -0.0019   -0.0294    0.0044   -0.3370    0.0459   -0.0108    0.0756   -0.1697
           9    0.3664    0.1602   -0.2694    0.0014   -0.1324   -0.0094    0.0239    0.2367
          10    0.1260   -0.1103   -0.3452   -0.2152    0.2208    0.2454   -0.0022    0.0621
          11    0.1496    0.0604    0.2529    0.2093    0.2436    0.3431   -0.0731    0.1008
          12   -0.1840    0.0019    0.0027    0.0046    0.0455   -0.0420   -0.0351   -0.0496
          13   -0.1015    0.0932    0.3479   -0.2702   -0.1612    0.2454    0.0687    0.0737
          14   -0.1681   -0.0852   -0.2441    0.1391   -0.2893    0.3401    0.0260    0.0840
          15   -0.1840   -0.0016   -0.0025    0.0048    0.0455    0.0428   -0.0351    0.0544
          16   -0.0412    0.1129    0.0010    0.0075   -0.0296   -0.1627   -0.4264   -0.0355
          17   -0.0586   -0.0130   -0.0187    0.1814   -0.0118   -0.3015   -0.1127   -0.0310
          18   -0.2532    0.3837    0.0419   -0.0235   -0.0610    0.0236    0.1276   -0.1519
          19    0.0433   -0.0475   -0.0202   -0.1693    0.0028   -0.2330   -0.0306   -0.0216
          20    0.0595    0.1044   -0.0054   -0.0654    0.0331   -0.2505    0.4394   -0.0262
          21   -0.2537   -0.3826   -0.0422   -0.0234   -0.0605   -0.0249    0.1298    0.1427
          22    0.0413   -0.0468    0.0600    0.1209   -0.1746   -0.0166    0.0212    0.0748
          23   -0.1023    0.0782   -0.0626    0.0416    0.0719   -0.0858    0.0000   -0.2086
          24    0.2153   -0.1428    0.1648   -0.0160   -0.1923   -0.0194   -0.0595    0.1834
          25   -0.0422    0.0232   -0.0671    0.1445    0.1649    0.0320    0.0451   -0.2289
          26    0.1410   -0.1419    0.0890    0.0272   -0.1263   -0.1288   -0.1649    0.2800
          27    0.1816   -0.1143    0.1439   -0.0118   -0.1634   -0.0196   -0.0454    0.1250
          28    0.0325   -0.0945    0.0050   -0.0125   -0.0117   -0.0587   -0.0136   -0.0915
          29    0.0450   -0.0463    0.0262    0.1201   -0.0162   -0.0401   -0.0275   -0.1965
          30   -0.1628    0.3156   -0.0077   -0.0130   -0.0085    0.0023   -0.1379    0.1572
          31   -0.0893    0.2742   -0.0142   -0.0175    0.0021   -0.0638   -0.3376    0.1918
          32   -0.1246    0.0357   -0.0510    0.0699    0.0080   -0.0976   -0.0903    0.1517
          33   -0.1145    0.1870    0.0001   -0.0093   -0.0130    0.0004   -0.0383    0.0485
          34   -0.1479   -0.1417    0.1063    0.0191    0.1742   -0.1320    0.1718    0.3293
          35   -0.0057   -0.0239   -0.0363   -0.1452   -0.1159   -0.0113    0.0104   -0.1245
          36    0.1811    0.1129   -0.1434   -0.0101   -0.1632    0.0187   -0.0450   -0.1184
          37    0.1094    0.0878   -0.0777    0.0005   -0.1227   -0.0764    0.0063   -0.2072
          38   -0.0067   -0.0194    0.0355   -0.1287    0.1425   -0.0425   -0.0204    0.0025
          39    0.2160    0.1423   -0.1651   -0.0140   -0.1931    0.0188   -0.0602   -0.1759
          40    0.0631   -0.0557   -0.2096   -0.2079    0.1276    0.0792   -0.0382    0.0985
          41    0.0788    0.0327    0.1198   -0.0387    0.1507    0.1125   -0.0555    0.0830
          42   -0.0769   -0.0437   -0.1664    0.0024   -0.0380   -0.0214    0.0009   -0.0141
          43    0.0591   -0.0538   -0.1763   -0.0012    0.1047    0.0812    0.0021    0.0251
          44    0.0728    0.0339    0.1634    0.2504    0.1132    0.1201    0.0010   -0.0133
          45   -0.0769    0.0451    0.1697   -0.0114   -0.0343   -0.0183   -0.0028   -0.0429
          46   -0.0315   -0.0122    0.0218   -0.1182    0.0116   -0.0188    0.0223   -0.1540
          47   -0.0447   -0.1032    0.0129   -0.0269    0.0167   -0.0685    0.0221   -0.1294
          48   -0.1639   -0.3161    0.0078   -0.0134   -0.0080   -0.0026   -0.1379   -0.1384
          49   -0.0498    0.0496    0.2089   -0.2389   -0.0738    0.0870   -0.0003   -0.0253
          50   -0.0795   -0.0401   -0.1154   -0.0777   -0.1360    0.1142   -0.0020    0.0107
          51   -0.0770   -0.0450   -0.1699   -0.0097   -0.0344    0.0182   -0.0026    0.0388
          52   -0.0545    0.0491    0.1805   -0.0315   -0.1023    0.0805    0.0404    0.0498
          53   -0.0855   -0.0423   -0.1580    0.2111   -0.1701    0.1099    0.0545    0.1214
          54   -0.0768    0.0439    0.1664    0.0010   -0.0380    0.0213    0.0008    0.0190
          55    0.0898   -0.0540   -0.0448   -0.0712   -0.0066   -0.0720   -0.0226    0.0833
          56    0.1260    0.2723   -0.0299   -0.0055   -0.0046   -0.0917    0.3491    0.2117
          57   -0.1142   -0.1859   -0.0003   -0.0094   -0.0128   -0.0009   -0.0369   -0.0416


   Root No.       9        10        11        12        13        14        15        16

                 9 A      10 A      11 A      12 A      13 A      14 A      15 A      16 A   

                 800.2     823.1     872.0     889.0     902.5     928.4    1013.7    1017.2
  
           1    0.1015    0.0191    0.0847    0.0023   -0.0178    0.1041    0.0087   -0.0903
           2   -0.0705   -0.0134    0.1190   -0.0004   -0.0248   -0.0747   -0.0160   -0.1235
           3    0.0089   -0.0033   -0.0007    0.1498   -0.0009    0.0142    0.3167   -0.0171
           4   -0.0419    0.0695    0.4551    0.0079   -0.0765   -0.1931    0.0233    0.0402
           5   -0.1747   -0.0887   -0.1770   -0.0366    0.0354    0.1699    0.0218    0.1190
           6   -0.0996   -0.0256   -0.1208    0.2704    0.0282    0.0129   -0.1009   -0.1173
           7    0.1452    0.1056   -0.3139    0.0307    0.0582   -0.2243    0.0004    0.1023
           8    0.1091   -0.0364    0.3725    0.0098   -0.0613    0.1306   -0.0203    0.0788
           9   -0.1153   -0.0257    0.1155    0.2722   -0.0337    0.0132   -0.0913    0.1281
          10    0.0840    0.0374   -0.1117   -0.1449   -0.0601    0.1940   -0.1077   -0.0276
          11    0.0480    0.0008   -0.1123   -0.2015    0.0792   -0.1632   -0.1124   -0.0062
          12    0.0696    0.0174    0.1186   -0.1974   -0.0209   -0.0157   -0.1493   -0.0748
          13   -0.0243    0.0110   -0.0748    0.1454    0.0910    0.2158    0.0717   -0.0048
          14   -0.1018   -0.0360   -0.1448    0.1989   -0.0359   -0.1330    0.1350   -0.0424
          15    0.0654    0.0170   -0.1150   -0.1990    0.0243   -0.0163   -0.1408    0.0902
          16   -0.2672   -0.0672    0.0225   -0.0599   -0.0014    0.0111   -0.0278   -0.3232
          17   -0.0398    0.0107   -0.0632    0.0127    0.0166   -0.0615   -0.0277    0.0061
          18   -0.1215   -0.0305   -0.0448   -0.1358    0.0787    0.0144    0.0715    0.1546
          19   -0.0466   -0.0318   -0.0670   -0.0327    0.0168    0.0619    0.0301    0.1063
          20    0.2694    0.0607   -0.0010    0.0543    0.0036    0.0087   -0.0018   -0.3057
          21   -0.1312   -0.0309    0.0473   -0.1366   -0.0761    0.0148    0.0589   -0.1626
          22    0.0791    0.0597    0.2504   -0.2092    0.0212   -0.1114   -0.1292    0.3616
          23   -0.1621   -0.0492   -0.1380    0.0611    0.0824    0.0549   -0.2035    0.2287
          24    0.1128    0.0332    0.0977   -0.0932   -0.0306   -0.0295    0.0797   -0.0106
          25   -0.0710    0.0112    0.1056    0.2255   -0.0806   -0.0623    0.2107   -0.0937
          26    0.1057    0.0225    0.0823   -0.1356   -0.0734    0.0196    0.3000    0.0626
          27    0.0686    0.0187    0.0386   -0.0686   -0.0070   -0.0072    0.0223    0.0194
          28   -0.2519   -0.0682   -0.0556   -0.1609    0.0415    0.0492    0.0873   -0.1475
          29   -0.1108    0.0027    0.0579    0.0974    0.0360   -0.1154   -0.2337    0.2116
          30    0.2696    0.0645    0.0530    0.1404   -0.0549   -0.0231   -0.0282    0.0392
          31    0.2440    0.0513    0.0610    0.2234   -0.0789   -0.0036   -0.1431   -0.1517
          32    0.0634    0.0291    0.0598   -0.1016   -0.0626   -0.0462    0.2657   -0.0119
          33    0.0802    0.0187    0.0176    0.0165   -0.0138   -0.0046    0.0305    0.0219
          34   -0.1466   -0.0188    0.0415    0.2008   -0.0481   -0.0377   -0.2063    0.1121
          35    0.0426   -0.0172    0.1290   -0.1699   -0.0970    0.0532   -0.2968   -0.0384
          36    0.0764    0.0189   -0.0372   -0.0685    0.0081   -0.0076    0.0194   -0.0213
          37    0.1925    0.0656   -0.2084   -0.1272    0.0741   -0.0887    0.1626    0.0857
          38   -0.0231   -0.0409    0.1894    0.1830    0.0431    0.0902    0.2261    0.3962
          39    0.1259    0.0338   -0.0970   -0.0949    0.0331   -0.0305    0.0826    0.0036
          40   -0.0112   -0.0117    0.0117   -0.0837    0.3548   -0.3231   -0.0391    0.0245
          41   -0.0607    0.2840   -0.0293   -0.1150    0.3300   -0.1845   -0.0584    0.0357
          42    0.0853   -0.3904    0.0680   -0.0177   -0.0868   -0.1607   -0.0149   -0.0412
          43    0.1104   -0.2533   -0.1062   -0.0855   -0.1714    0.0623   -0.0565    0.0940
          44    0.1126   -0.0618   -0.2029   -0.1277   -0.4055    0.3493   -0.1004    0.1336
          45   -0.0725    0.3959    0.0777   -0.0162    0.0551    0.1607   -0.0324   -0.1269
          46    0.0331   -0.0244    0.0756   -0.1440    0.0233    0.1268    0.2783    0.2178
          47    0.2827    0.0638   -0.0368    0.1214    0.0484   -0.0098   -0.0191   -0.0702
          48    0.2807    0.0649   -0.0562    0.1409    0.0525   -0.0231   -0.0346   -0.0350
          49   -0.0699   -0.0226   -0.1578    0.0844   -0.3300   -0.3109    0.0864    0.0883
          50   -0.1421    0.2601   -0.1668    0.1133   -0.2938   -0.1710    0.0984    0.1224
          51   -0.0755    0.3960   -0.0785   -0.0186   -0.0541    0.1610   -0.0200    0.1293
          52    0.0501   -0.2732   -0.0333    0.0853    0.1970    0.0716    0.0453    0.0212
          53    0.0215   -0.0815   -0.0022    0.1247    0.4402    0.3666    0.0589    0.0280
          54    0.0837   -0.3905   -0.0666   -0.0175    0.0866   -0.1605   -0.0103    0.0428
          55    0.0123   -0.0111    0.0328    0.1677   -0.0379    0.0426   -0.2918    0.0680
          56   -0.2669   -0.0583    0.0810   -0.1794   -0.0916    0.0186    0.0371   -0.1524
          57    0.0822    0.0184   -0.0177    0.0162    0.0131   -0.0045    0.0272   -0.0253


   Root No.      17        18        19        20        21        22        23        24

                17 A      18 A      19 A      20 A      21 A      22 A      23 A      24 A   

                1021.6    1058.6    1061.3    1080.0    1105.8    1127.9    1137.4    1144.1
  
           1   -0.0242   -0.0837   -0.1456    0.0062   -0.0028   -0.0058   -0.0001   -0.0151
           2   -0.0340    0.0592   -0.2031    0.0096   -0.0039    0.0040   -0.0007   -0.0210
           3   -0.0022    0.0208    0.0003   -0.0004    0.0002   -0.0311    0.0016    0.0003
           4    0.0148   -0.0624    0.1102   -0.0704    0.0129   -0.0118    0.0056   -0.0488
           5    0.1245   -0.2727   -0.1722    0.0136    0.0097   -0.1051    0.1260   -0.1933
           6    0.1951   -0.0546    0.0148   -0.1496    0.0780    0.2103   -0.1259    0.0099
           7    0.1140    0.2359   -0.1998    0.0388    0.0054    0.0924    0.1181   -0.1677
           8    0.0546    0.1476    0.0478   -0.0602    0.0157    0.0428    0.0460   -0.1081
           9   -0.1922   -0.0561   -0.0155    0.1498   -0.0779    0.2086    0.1292   -0.0119
          10    0.0187    0.0650   -0.0855   -0.0276   -0.3449    0.0129   -0.0012    0.0270
          11   -0.0276   -0.0468   -0.1441    0.0415    0.2340   -0.0010   -0.0175    0.0651
          12   -0.0182   -0.0056   -0.1633    0.0007   -0.0002    0.0019    0.0085   -0.0419
          13   -0.0335    0.0635   -0.1098    0.0486    0.3314    0.0053   -0.0158    0.0533
          14    0.0069   -0.0473   -0.1263   -0.0138   -0.2529   -0.0109   -0.0062    0.0466
          15    0.0202   -0.0049    0.1631   -0.0005   -0.0002    0.0026   -0.0096    0.0418
          16   -0.2739    0.1458    0.1922    0.0396   -0.0020    0.0491   -0.0015   -0.0840
          17   -0.0261    0.2007    0.0696    0.0177   -0.0129    0.0941   -0.1319    0.2135
          18   -0.1863    0.0368   -0.0319    0.0156   -0.0329   -0.1964    0.3241    0.1757
          19    0.0619   -0.1439    0.0054    0.0013   -0.0118   -0.0698   -0.1243    0.2297
[...]
 FREQ.      1321.18         C  6 -- C  7         +19.5% ( 57.9%)     97.4%
 T-DIPOLE    0.0501         C  6 -- H 10         +11.9% ( 45.3%)      0.7%
 TRAVEL      0.0961         C  6 -- H 11         +11.7% ( 44.8%)      0.1%
 RED. MASS   0.9647         C  7 -- H 16         +11.5% ( 44.4%)      0.8%
 EFF. MASS   5.5280         C  7 -- H 19         +11.2% ( 43.9%)      0.1%

 VIBRATION   32   32A         ATOM PAIR      ENERGY CONTRIBUTION    RADIAL
 FREQ.      1350.22         C  1 -- C  3         +19.8% ( 62.8%)     93.4%
 T-DIPOLE    0.0375         C  1 -- C  2         +19.8% ( 62.8%)     93.4%
 TRAVEL      0.0819         C  1 -- C  5         +12.7% ( 50.3%)      0.0%
 RED. MASS   1.9650         C  1 -- C  4         +12.7% ( 50.3%)      0.0%
 EFF. MASS   7.4417

 VIBRATION   33   33A         ATOM PAIR      ENERGY CONTRIBUTION    RADIAL
 FREQ.      1399.63         C  4 -- H 14         +21.4% ( 46.2%)      2.5%
 T-DIPOLE    0.0843         C  5 -- H 18         +21.1% ( 46.0%)      2.5%
 TRAVEL      0.1565         C  4 -- H 15         +20.2% ( 45.0%)      3.0%
 RED. MASS   0.2623         C  5 -- H 17         +20.1% ( 44.8%)      3.0%
 EFF. MASS   1.9659

 VIBRATION   34   34A         ATOM PAIR      ENERGY CONTRIBUTION    RADIAL
 FREQ.      1401.17         C  3 -- H 12         +11.7% ( 37.4%)      4.4%
 T-DIPOLE    0.0192         C  2 -- H  9         +11.7% ( 37.4%)      4.4%
 TRAVEL      0.1225         C  3 -- H 13         +11.2% ( 36.5%)      5.7%
 RED. MASS   0.2040         C  2 -- H  8         +11.2% ( 36.5%)      5.7%
 EFF. MASS   3.2058

 VIBRATION   35   35A         ATOM PAIR      ENERGY CONTRIBUTION    RADIAL
 FREQ.      1405.45         C  1 -- C  2         +11.2% ( 40.9%)     80.1%
 T-DIPOLE    0.0077         C  1 -- C  3         +11.1% ( 40.8%)     80.3%
 TRAVEL      0.0990         C  2 -- H  9          +7.2% ( 32.9%)      5.1%
 RED. MASS   0.4156         C  3 -- H 12          +7.1% ( 32.6%)      5.0%
 EFF. MASS   4.8937

 VIBRATION   36   36A         ATOM PAIR      ENERGY CONTRIBUTION    RADIAL
 FREQ.      1416.01         C  5 -- H 18          +9.3% ( 35.1%)      2.6%
 T-DIPOLE    0.1234         C  4 -- H 14          +9.2% ( 34.9%)      2.6%
 TRAVEL      0.1146         C  5 -- H 17          +9.1% ( 34.8%)      2.7%
 RED. MASS   0.2447         C  4 -- H 15          +9.0% ( 34.6%)      2.7%
 EFF. MASS   3.6285

 VIBRATION   37   37A         ATOM PAIR      ENERGY CONTRIBUTION    RADIAL
 FREQ.      1419.78         C  7 -- H 16          +9.2% ( 34.4%)      4.7%
 T-DIPOLE    0.0332         C  7 -- H 19          +9.1% ( 34.2%)      4.0%
 TRAVEL      0.1118         C  6 -- H 10          +9.0% ( 34.1%)      4.7%
 RED. MASS   0.2537         C  6 -- H 11          +9.0% ( 34.0%)      4.0%
 EFF. MASS   3.7964

 VIBRATION   38   38A         ATOM PAIR      ENERGY CONTRIBUTION    RADIAL
 FREQ.      1430.98         C  6 -- H 10         +15.9% ( 42.8%)      5.6%
 T-DIPOLE    0.0315         C  7 -- H 16         +15.6% ( 42.4%)      5.6%
 TRAVEL      0.1205         C  6 -- H 11         +15.3% ( 41.9%)      5.5%
 RED. MASS   0.3280         C  7 -- H 19         +15.0% ( 41.5%)      5.5%
 EFF. MASS   3.2448         C  6 -- C  7         +11.9% ( 37.1%)     97.0%

 VIBRATION   39   39A         ATOM PAIR      ENERGY CONTRIBUTION    RADIAL
 FREQ.      1627.64         C  1 -- C  4         +20.9% ( 76.7%)     98.3%
 T-DIPOLE    0.0631         C  1 -- C  5         +20.9% ( 76.7%)     98.3%
 TRAVEL      0.0593         C  1 -- C  3         +13.0% ( 60.5%)     44.0%
 RED. MASS   3.9093         C  1 -- C  2         +13.0% ( 60.4%)     43.9%
 EFF. MASS  11.7752         C  4 -- C  5         +12.3% ( 58.8%)    100.0%

 VIBRATION   40   40A         ATOM PAIR      ENERGY CONTRIBUTION    RADIAL
 FREQ.      2963.77         C  3 -- H 12         +16.3% ( 42.1%)     97.0%
 T-DIPOLE    0.0064         C  2 -- H  9         +16.3% ( 42.1%)     97.0%
 TRAVEL      0.1207         C  2 -- H  8         +12.4% ( 36.7%)     95.6%
 RED. MASS   0.1374         C  3 -- H 13         +12.3% ( 36.6%)     95.6%
 EFF. MASS   1.5610         C  7 -- H 19         +12.2% ( 36.5%)     97.2%
                            C  6 -- H 11         +12.2% ( 36.5%)     97.2%

 VIBRATION   41   41A         ATOM PAIR      ENERGY CONTRIBUTION    RADIAL
 FREQ.      2967.14         C  3 -- H 12         +23.5% ( 50.4%)     97.1%
 T-DIPOLE    0.0257         C  2 -- H  9         +23.4% ( 50.3%)     97.1%
 TRAVEL      0.1211         C  3 -- H 13         +18.3% ( 44.5%)     95.7%
 RED. MASS   0.1986         C  2 -- H  8         +18.3% ( 44.5%)     95.7%
 EFF. MASS   1.5504

 VIBRATION   42   42A         ATOM PAIR      ENERGY CONTRIBUTION    RADIAL
 FREQ.      2977.24         C  6 -- H 11         +17.3% ( 43.1%)     97.4%
 T-DIPOLE    0.0031         C  7 -- H 19         +17.2% ( 43.0%)     97.4%
 TRAVEL      0.1215         C  6 -- H 10         +11.7% ( 35.4%)     95.2%
 RED. MASS   0.1372         C  7 -- H 16         +11.5% ( 35.2%)     95.1%
 EFF. MASS   1.5332         C  2 -- H  9         +11.1% ( 34.6%)     97.2%
                            C  3 -- H 12         +11.0% ( 34.4%)     97.3%

 VIBRATION   43   43A         ATOM PAIR      ENERGY CONTRIBUTION    RADIAL
 FREQ.      2988.48         C  7 -- H 19         +25.0% ( 51.6%)     97.6%
 T-DIPOLE    0.0302         C  6 -- H 11         +24.7% ( 51.3%)     97.6%
 TRAVEL      0.1217         C  7 -- H 16         +17.2% ( 42.8%)     95.5%
 RED. MASS   0.2012         C  6 -- H 10         +17.1% ( 42.8%)     95.5%
 EFF. MASS   1.5246

 VIBRATION   44   44A         ATOM PAIR      ENERGY CONTRIBUTION    RADIAL
 FREQ.      3048.05         C  2 -- H  8         +28.0% ( 52.2%)     98.3%
 T-DIPOLE    0.0544         C  3 -- H 13         +26.7% ( 51.0%)     98.3%
 TRAVEL      0.1317         C  2 -- H  9         +21.5% ( 45.8%)     96.8%
 RED. MASS   0.2365         C  3 -- H 12         +20.5% ( 44.6%)     96.8%
 EFF. MASS   1.2764

 VIBRATION   45   45A         ATOM PAIR      ENERGY CONTRIBUTION    RADIAL
 FREQ.      3048.88         C  3 -- H 13         +27.8% ( 52.0%)     98.3%
 T-DIPOLE    0.0395         C  2 -- H  8         +26.4% ( 50.7%)     98.3%
 TRAVEL      0.1311         C  3 -- H 12         +21.2% ( 45.5%)     96.7%
 RED. MASS   0.2318         C  2 -- H  9         +20.2% ( 44.3%)     96.7%
 EFF. MASS   1.2877

 VIBRATION   46   46A         ATOM PAIR      ENERGY CONTRIBUTION    RADIAL
 FREQ.      3060.87         C  6 -- H 10         +29.6% ( 53.6%)     98.6%
 T-DIPOLE    0.0373         C  7 -- H 16         +28.7% ( 52.8%)     98.6%
 TRAVEL      0.1311         C  6 -- H 11         +19.7% ( 43.7%)     96.2%
 RED. MASS   0.2414         C  7 -- H 19         +18.9% ( 42.9%)     96.2%
 EFF. MASS   1.2814

 VIBRATION   47   47A         ATOM PAIR      ENERGY CONTRIBUTION    RADIAL
 FREQ.      3065.92         C  7 -- H 16         +29.9% ( 53.9%)     98.7%
 T-DIPOLE    0.0331         C  6 -- H 10         +28.8% ( 52.9%)     98.7%
 TRAVEL      0.1307         C  7 -- H 19         +18.8% ( 42.7%)     96.0%
 RED. MASS   0.2384         C  6 -- H 11         +18.3% ( 42.1%)     96.0%
 EFF. MASS   1.2874

 VIBRATION   48   48A         ATOM PAIR      ENERGY CONTRIBUTION    RADIAL
 FREQ.      3079.11         C  5 -- H 18         +24.7% ( 51.5%)     97.1%
 T-DIPOLE    0.0020         C  4 -- H 14         +24.7% ( 51.5%)     97.1%
 TRAVEL      0.1185         C  5 -- H 17         +24.2% ( 51.0%)     97.0%
 RED. MASS   0.2602         C  4 -- H 15         +24.0% ( 50.8%)     96.9%
 EFF. MASS   1.5584

 VIBRATION   49   49A         ATOM PAIR      ENERGY CONTRIBUTION    RADIAL
 FREQ.      3093.15         C  4 -- H 14         +25.0% ( 51.5%)     97.4%
 T-DIPOLE    0.2280         C  5 -- H 18         +24.8% ( 51.3%)     97.4%
 TRAVEL      0.1187         C  4 -- H 15         +24.0% ( 50.5%)     97.2%
 RED. MASS   0.2608         C  5 -- H 17         +24.0% ( 50.5%)     97.2%
 EFF. MASS   1.5468

 VIBRATION   50   50A         ATOM PAIR      ENERGY CONTRIBUTION    RADIAL
 FREQ.      3127.53         C  5 -- H 17         +25.8% ( 50.4%)     96.6%
 T-DIPOLE    0.2140         C  5 -- H 18         +24.9% ( 49.5%)     96.4%
 TRAVEL      0.1303         C  4 -- H 15         +24.5% ( 49.1%)     96.6%
 RED. MASS   0.2423         C  4 -- H 14         +23.5% ( 48.1%)     96.3%
 EFF. MASS   1.2695

 VIBRATION   51   51A         ATOM PAIR      ENERGY CONTRIBUTION    RADIAL
 FREQ.      3128.18         C  4 -- H 15         +25.5% ( 50.3%)     96.4%
 T-DIPOLE    0.1596         C  4 -- H 14         +24.7% ( 49.5%)     96.1%
 TRAVEL      0.1272         C  5 -- H 17         +24.1% ( 48.9%)     96.3%
 RED. MASS   0.2425         C  5 -- H 18         +23.5% ( 48.3%)     96.1%
 EFF. MASS   1.3331

      SYMMETRY NUMBER FOR POINT-GROUP C1  =  1


          SYSTEM IS A GROUND STATE



 InChI=1S/C7H12/c1-2-4-7(3-1)5-6-7/h1-6H2


          MOLECULE IS NOT LINEAR

          THERE ARE 51 GENUINE VIBRATIONS IN THIS SYSTEM
          THIS THERMODYNAMICS CALCULATION IS LIMITED TO
          MOLECULES WHICH HAVE NO INTERNAL ROTATIONS




                    CALCULATED THERMODYNAMIC PROPERTIES
                                          *
   TEMP. (K)   PARTITION FUNCTION   H.O.F.    ENTHALPY  HEAT CAPACITY ENTROPY
                                   KCAL/MOL   CAL/MOLE    CAL/K/MOL  CAL/K/MOL


 298.00  VIB.     0.1787D+02                  2353.0900    19.7051    13.6261
         ROT.     0.1922D+06                   888.2813     2.9808    27.1582
         INT.     0.3436D+07                  3241.3713    22.6860    40.7843
         TRA.     0.9118D+27                  1480.4688     4.9680    39.5994
         TOT.                       -0.335    4721.8401    27.6540    80.3837

 200.00  VIB.     0.5347D+01                   905.9755    10.3329     7.8617
         ROT.     0.1057D+06                   596.1620     2.9808    25.9695
         INT.     0.5652D+06                  1502.1375    13.3137    33.8312
         TRA.     0.5013D+27                   993.6033     4.9680    37.6183
         TOT.                       -2.562    2495.7407    18.2817    71.4495

 210.00  VIB.     0.5998D+01                  1013.2647    11.1322     8.3850
         ROT.     0.1137D+06                   625.9700     2.9808    26.1149
         INT.     0.6821D+06                  1639.2347    14.1130    34.4999
         TRA.     0.5394D+27                  1043.2834     4.9680    37.8607
         TOT.                       -2.375    2682.5181    19.0810    72.3606

 220.00  VIB.     0.6739D+01                  1128.7611    11.9741     8.9221
         ROT.     0.1219D+06                   655.7781     2.9808    26.2536
         INT.     0.8218D+06                  1784.5393    14.9549    35.1757
         TRA.     0.5784D+27                  1092.9636     4.9680    38.0918
         TOT.                       -2.180    2877.5028    19.9230    73.2675

 230.00  VIB.     0.7585D+01                  1252.8843    12.8572     9.4737
         ROT.     0.1304D+06                   685.5862     2.9808    26.3861
         INT.     0.9887D+06                  1938.4706    15.8380    35.8598
         TRA.     0.6182D+27                  1142.6437     4.9680    38.3126
         TOT.                       -1.976    3081.1143    20.8060    74.1725

 240.00  VIB.     0.8553D+01                  1386.0330    13.7788    10.0403
         ROT.     0.1389D+06                   715.3943     2.9808    26.5130
         INT.     0.1188D+07                  2101.4274    16.7596    36.5532
         TRA.     0.6590D+27                  1192.3239     4.9680    38.5241
         TOT.                       -1.764    3293.7513    21.7276    75.0773

 250.00  VIB.     0.9664D+01                  1528.5778    14.7358    10.6220
         ROT.     0.1477D+06                   745.2024     2.9808    26.6347
         INT.     0.1427D+07                  2273.7803    17.7166    37.2567
         TRA.     0.7006D+27                  1242.0041     4.9680    38.7269
         TOT.                       -1.542    3515.7843    22.6847    75.9835

 260.00  VIB.     0.1094D+02                  1680.8561    15.7248    11.2191
         ROT.     0.1567D+06                   775.0105     2.9808    26.7516
         INT.     0.1714D+07                  2455.8666    18.7056    37.9707
         TRA.     0.7431D+27                  1291.6842     4.9680    38.9217
         TOT.                       -1.310    3747.5509    23.6737    76.8924

 270.00  VIB.     0.1241D+02                  1843.1683    16.7419    11.8316
         ROT.     0.1658D+06                   804.8186     2.9808    26.8641
         INT.     0.2058D+07                  2647.9869    19.7228    38.6957
         TRA.     0.7864D+27                  1341.3644     4.9680    39.1092
         TOT.                       -1.068    3989.3513    24.6908    77.8049

 280.00  VIB.     0.1411D+02                  2015.7753    17.7831    12.4592
         ROT.     0.1751D+06                   834.6267     2.9808    26.9725
         INT.     0.2471D+07                  2850.4021    20.7640    39.4317
         TRA.     0.8304D+27                  1391.0445     4.9680    39.2899
         TOT.                       -0.816    4241.4466    25.7320    78.7216

 290.00  VIB.     0.1608D+02                  2198.8980    18.8444    13.1017
         ROT.     0.1846D+06                   864.4348     2.9808    27.0771
         INT.     0.2967D+07                  3063.3328    21.8252    40.1788
         TRA.     0.8753D+27                  1440.7247     4.9680    39.4642
         TOT.                       -0.553    4504.0575    26.7932    79.6430

 300.00  VIB.     0.1836D+02                  2392.7167    19.9217    13.7587
         ROT.     0.1942D+06                   894.2429     2.9808    27.1781
         INT.     0.3565D+07                  3286.9597    22.9025    40.9368
         TRA.     0.9210D+27                  1490.4049     4.9680    39.6326
         TOT.                       -0.280    4777.3645    27.8705    80.5694

 310.00  VIB.     0.2101D+02                  2597.3726    21.0112    14.4296
         ROT.     0.2040D+06                   924.0510     2.9808    27.2759
         INT.     0.4285D+07                  3521.4236    23.9920    41.7055
         TRA.     0.9674D+27                  1540.0850     4.9680    39.7955
         TOT.                        0.004    5061.5086    28.9600    81.5010

 320.00  VIB.     0.2410D+02                  2812.9687    22.1092    15.1140
         ROT.     0.2139D+06                   953.8591     2.9808    27.3705
         INT.     0.5155D+07                  3766.8279    25.0900    42.4845
         TRA.     0.1015D+28                  1589.7652     4.9680    39.9533
         TOT.                        0.299    5356.5931    30.0580    82.4378

 330.00  VIB.     0.2770D+02                  3039.5729    23.2122    15.8112
         ROT.     0.2240D+06                   983.6672     2.9808    27.4622
         INT.     0.6206D+07                  4023.2401    26.1930    43.2735
         TRA.     0.1063D+28                  1639.4454     4.9680    40.1062
         TOT.                        0.605    5662.6854    31.1610    83.3796

 340.00  VIB.     0.3191D+02                  3277.2192    24.3171    16.5206
         ROT.     0.2343D+06                  1013.4753     2.9808    27.5512
         INT.     0.7477D+07                  4290.6945    27.2979    44.0718
         TRA.     0.1111D+28                  1689.1255     4.9680    40.2545
         TOT.                        0.923    5979.8200    32.2659    84.3263

 350.00  VIB.     0.3685D+02                  3525.9114    25.4209    17.2414
         ROT.     0.2447D+06                  1043.2834     2.9808    27.6376
         INT.     0.9016D+07                  4569.1948    28.4017    44.8790
         TRA.     0.1161D+28                  1738.8057     4.9680    40.3985
         TOT.                        1.251    6308.0005    33.3698    85.2775

 360.00  VIB.     0.4264D+02                  3785.6254    26.5210    17.9730
         ROT.     0.2553D+06                  1073.0915     2.9808    27.7216
         INT.     0.1088D+08                  4858.7169    29.5019    45.6946
         TRA.     0.1211D+28                  1788.4859     4.9680    40.5384
         TOT.                        1.590    6647.2027    34.4699    86.2330

 370.00  VIB.     0.4944D+02                  4056.3121    27.6151    18.7146
         ROT.     0.2660D+06                  1102.8996     2.9808    27.8033
         INT.     0.1315D+08                  5159.2117    30.5959    46.5178
         TRA.     0.1261D+28                  1838.1660     4.9680    40.6745
         TOT.                        1.940    6997.3777    35.5639    87.1924

 380.00  VIB.     0.5745D+02                  4337.9004    28.7010    19.4655
         ROT.     0.2768D+06                  1132.7077     2.9808    27.8828
         INT.     0.1590D+08                  5470.6081    31.6818    47.3482
         TRA.     0.1313D+28                  1887.8462     4.9680    40.8070
         TOT.                        2.301    7358.4542    36.6499    88.1552

 390.00  VIB.     0.6689D+02                  4630.2994    29.7770    20.2249
         ROT.     0.2878D+06                  1162.5158     2.9808    27.9602
         INT.     0.1925D+08                  5792.8152    32.7578    48.1851
         TRA.     0.1365D+28                  1937.5263     4.9680    40.9361
         TOT.                        2.673    7730.3415    37.7258    89.1212

 400.00  VIB.     0.7804D+02                  4933.4017    30.8414    20.9923
         ROT.     0.2990D+06                  1192.3239     2.9808    28.0357
         INT.     0.2333D+08                  6125.7256    33.8222    49.0279
         TRA.     0.1418D+28                  1987.2065     4.9680    41.0619
         TOT.                        3.056    8112.9321    38.7903    90.0898

   *: NOTE: HEATS OF FORMATION ARE RELATIVE TO THE
            ELEMENTS IN THEIR STANDARD STATE AT 298K
              (=  Standard Enthalpy of Formation).

            Hvib:  Zero-point energy is not included.
                   frequencies of less than zero cm-1 are not included.
            Hrot = (3/2)RT
            Htra = (3/2)RT + pV = (5/2)RT

            Heat capacity is Cp, not Cv

          For more information, see: HTTP://OpenMOPAC.net/Manual/thermochemistry.html


           FORCE CONSTANT IN CARTESIAN COORDINATES (Millidynes/A)

    ATOM   CHEMICAL       X               Y               Z
   NUMBER   SYMBOL  FORCE CONSTANT  FORCE CONSTANT  FORCE CONSTANT

      1       C        9.931241       11.252127        5.156399
      2       C        8.318256        8.677732        8.222724
      3       C        9.043164        7.956532        8.221959
      4       C        7.952776        7.114898       10.087155
      5       C        7.922566        7.144009       10.088736
      6       C        9.053734        7.637441        8.256792
      7       C        7.473540        9.211950        8.258258
      8       H        1.256941        2.148468        3.045137
      9       H        1.181170        1.250554        3.974187
     10       H        3.451473        0.904842        2.146182
     11       H        0.962504        0.838469        4.645338
     12       H        1.520826        0.895846        3.988567
     13       H        2.607933        0.817478        3.025400
     14       H        1.822420        2.941182        1.878671
     15       H        3.889554        0.924702        1.824196
     16       H        0.713666        3.658620        2.130200
     17       H        1.851210        2.963208        1.824621
     18       H        3.844335        0.918254        1.879109
     19       H        0.749942        1.039518        4.655941

 **********************
 *                    *
 * JOB ENDED NORMALLY *
 *                    *
 **********************



 TOTAL JOB TIME:             1.18 SECONDS

 == MOPAC DONE ==
