 *******************************************************************************
 ** Site#: 14399        For non-commercial use only    Version 18.184L 64BITS **
 *******************************************************************************
 ** Cite this program as: MOPAC2016, Version: 18.184L, James J. P. Stewart,   **
 ** Stewart Computational Chemistry, web: HTTP://OpenMOPAC.net. Days left:  18**
 *******************************************************************************
 **                                                                           **
 **                                MOPAC2016                                  **
 **                                                                           **
 *******************************************************************************

                              PM3 CALCULATION RESULTS

 *******************************************************************************
 *  CALCULATION DONE:                                Sat Jun 15 10:16:15 2019  *
 *  PM3        - The PM3 Hamiltonian to be used
 *  PRECISE    - CRITERIA TO BE INCREASED BY 100 TIMES
 *  NOSYM      - POINT-GROUP SYMMETRY SET TO C1
 *  THREADS=1  - MULTI-THREADING NOT USED
 *  T=         - A TIME OF 172800.0 SECONDS REQUESTED
 *  DUMP=N     - RESTART FILE WRITTEN EVERY  7200.000 SECONDS
 *******************************************************************************
pm3  precise nosym THREADS=1
 InChI=1S/C10H10/c1-2-6-10-7-3-5-9(10)8(10)4-1/h1-4,6-9H,5H2

   ATOM   CHEMICAL          X               Y               Z
  NUMBER   SYMBOL      (ANGSTROMS)     (ANGSTROMS)     (ANGSTROMS)
 
     1       C          0.20180000  *   0.53060000  *  -0.22140000  *
     2       C          0.44720000  *  -0.75970000  *   0.56190000  *
     3       C         -0.32400000  *  -0.80000000  *  -0.75840000  *
     4       C          1.95650000  *  -1.01420000  *   0.49070000  *
     5       C          1.55460000  *   0.99350000  *  -0.63520000  *
     6       C         -0.76400000  *   1.48100000  *   0.42980000  *
     7       C         -1.81060000  *  -0.99620000  *  -0.60300000  *
     8       C          2.50580000  *   0.15820000  *  -0.24810000  *
     9       C         -2.60320000  *  -0.07240000  *  -0.04400000  *
    10       C         -2.06710000  *   1.19390000  *   0.49220000  *
    11       H         -0.10300000  *  -0.83800000  *   1.52590000  *
    12       H          0.20170000  *  -1.21230000  *  -1.64650000  *
    13       H          2.38730000  *  -1.05190000  *   1.51320000  *
    14       H          2.17500000  *  -1.95740000  *  -0.05340000  *
    15       H         -2.24910000  *  -1.91410000  *  -0.97240000  *
    16       H          1.74460000  *   1.90040000  *  -1.19960000  *
    17       H         -0.40030000  *   2.41460000  *   0.84000000  *
    18       H          3.55920000  *   0.30860000  *  -0.45970000  *
    19       H         -2.74650000  *   1.89810000  *   0.95500000  *
    20       H         -3.66610000  *  -0.26260000  *   0.03320000  *
 


          CARTESIAN COORDINATES 

    NO.       ATOM           X           Y           Z

     1         C          0.2018      0.5306     -0.2214
     2         C          0.4472     -0.7597      0.5619
     3         C         -0.3240     -0.8000     -0.7584
     4         C          1.9565     -1.0142      0.4907
     5         C          1.5546      0.9935     -0.6352
     6         C         -0.7640      1.4810      0.4298
     7         C         -1.8106     -0.9962     -0.6030
     8         C          2.5058      0.1582     -0.2481
     9         C         -2.6032     -0.0724     -0.0440
    10         C         -2.0671      1.1939      0.4922
    11         H         -0.1030     -0.8380      1.5259
    12         H          0.2017     -1.2123     -1.6465
    13         H          2.3873     -1.0519      1.5132
    14         H          2.1750     -1.9574     -0.0534
    15         H         -2.2491     -1.9141     -0.9724
    16         H          1.7446      1.9004     -1.1996
    17         H         -0.4003      2.4146      0.8400
    18         H          3.5592      0.3086     -0.4597
    19         H         -2.7465      1.8981      0.9550
    20         H         -3.6661     -0.2626      0.0332

  H: (PM3): J. J. P. STEWART, J. COMP. CHEM. 10, 209 (1989).
  C: (PM3): J. J. P. STEWART, J. COMP. CHEM. 10, 209 (1989).

           Empirical Formula: C10 H10  =    20 atoms



      MOLECULAR POINT GROUP   :   C1  


      RHF CALCULATION, NO. OF DOUBLY OCCUPIED LEVELS = 25


          Geometry optimization using EF

          DIAGONAL MATRIX USED AS START HESSIAN

 CYCLE:     1 TIME:   0.008 TIME LEFT:  2.00D  GRAD.:   102.487 HEAT:  79.05241
 CYCLE:     2 TIME:   0.008 TIME LEFT:  2.00D  GRAD.:   129.271 HEAT:  78.23680
 CYCLE:     3 TIME:   0.004 TIME LEFT:  2.00D  GRAD.:   121.597 HEAT:  77.19989
 CYCLE:     4 TIME:   0.004 TIME LEFT:  2.00D  GRAD.:   121.981 HEAT:  76.82936
 CYCLE:     5 TIME:   0.004 TIME LEFT:  2.00D  GRAD.:   116.544 HEAT:  76.06599
 CYCLE:     6 TIME:   0.008 TIME LEFT:  2.00D  GRAD.:    54.350 HEAT:  73.79639
 CYCLE:     7 TIME:   0.008 TIME LEFT:  2.00D  GRAD.:    28.271 HEAT:  73.03834
 CYCLE:     8 TIME:   0.008 TIME LEFT:  2.00D  GRAD.:    24.474 HEAT:  72.79112
 CYCLE:     9 TIME:   0.004 TIME LEFT:  2.00D  GRAD.:    31.370 HEAT:  72.54692
 CYCLE:    10 TIME:   0.008 TIME LEFT:  2.00D  GRAD.:    34.621 HEAT:  72.32880
 CYCLE:    11 TIME:   0.004 TIME LEFT:  2.00D  GRAD.:    39.988 HEAT:  72.10043
 CYCLE:    12 TIME:   0.004 TIME LEFT:  2.00D  GRAD.:    36.174 HEAT:  71.98143
 CYCLE:    13 TIME:   0.004 TIME LEFT:  2.00D  GRAD.:    39.899 HEAT:  71.93028
 CYCLE:    14 TIME:   0.008 TIME LEFT:  2.00D  GRAD.:    17.826 HEAT:  71.55939
 CYCLE:    15 TIME:   0.008 TIME LEFT:  2.00D  GRAD.:    19.799 HEAT:  71.52779
 CYCLE:    16 TIME:   0.004 TIME LEFT:  2.00D  GRAD.:     9.361 HEAT:  71.43537
 CYCLE:    17 TIME:   0.004 TIME LEFT:  2.00D  GRAD.:    13.435 HEAT:  71.40189
 CYCLE:    18 TIME:   0.004 TIME LEFT:  2.00D  GRAD.:    13.572 HEAT:  71.35853
 CYCLE:    19 TIME:   0.004 TIME LEFT:  2.00D  GRAD.:    15.639 HEAT:  71.30804
 CYCLE:    20 TIME:   0.004 TIME LEFT:  2.00D  GRAD.:    10.703 HEAT:  71.23943
 CYCLE:    21 TIME:   0.004 TIME LEFT:  2.00D  GRAD.:    10.364 HEAT:  71.19711
 CYCLE:    22 TIME:   0.004 TIME LEFT:  2.00D  GRAD.:     8.137 HEAT:  71.16647
 CYCLE:    23 TIME:   0.008 TIME LEFT:  2.00D  GRAD.:     8.179 HEAT:  71.14538
 CYCLE:    24 TIME:   0.004 TIME LEFT:  2.00D  GRAD.:     3.504 HEAT:  71.12063
 CYCLE:    25 TIME:   0.004 TIME LEFT:  2.00D  GRAD.:     3.303 HEAT:  71.10889
 CYCLE:    26 TIME:   0.004 TIME LEFT:  2.00D  GRAD.:     3.775 HEAT:  71.09842
 CYCLE:    27 TIME:   0.004 TIME LEFT:  2.00D  GRAD.:     3.109 HEAT:  71.08832
 CYCLE:    28 TIME:   0.004 TIME LEFT:  2.00D  GRAD.:     2.365 HEAT:  71.07893
 CYCLE:    29 TIME:   0.004 TIME LEFT:  2.00D  GRAD.:     1.982 HEAT:  71.06891
 CYCLE:    30 TIME:   0.004 TIME LEFT:  2.00D  GRAD.:     2.243 HEAT:  71.06265
 CYCLE:    31 TIME:   0.004 TIME LEFT:  2.00D  GRAD.:     2.068 HEAT:  71.05917
 CYCLE:    32 TIME:   0.004 TIME LEFT:  2.00D  GRAD.:     2.097 HEAT:  71.05550
 CYCLE:    33 TIME:   0.004 TIME LEFT:  2.00D  GRAD.:     0.947 HEAT:  71.05262
 CYCLE:    34 TIME:   0.004 TIME LEFT:  2.00D  GRAD.:     0.750 HEAT:  71.05114
 CYCLE:    35 TIME:   0.008 TIME LEFT:  2.00D  GRAD.:     0.674 HEAT:  71.05017
 CYCLE:    36 TIME:   0.004 TIME LEFT:  2.00D  GRAD.:     0.530 HEAT:  71.04929
 CYCLE:    37 TIME:   0.004 TIME LEFT:  2.00D  GRAD.:     0.475 HEAT:  71.04876
 CYCLE:    38 TIME:   0.004 TIME LEFT:  2.00D  GRAD.:     0.410 HEAT:  71.04833
 CYCLE:    39 TIME:   0.004 TIME LEFT:  2.00D  GRAD.:     0.318 HEAT:  71.04798
 CYCLE:    40 TIME:   0.004 TIME LEFT:  2.00D  GRAD.:     0.252 HEAT:  71.04777
 CYCLE:    41 TIME:   0.004 TIME LEFT:  2.00D  GRAD.:     0.205 HEAT:  71.04766
 CYCLE:    42 TIME:   0.004 TIME LEFT:  2.00D  GRAD.:     0.159 HEAT:  71.04758
 CYCLE:    43 TIME:   0.004 TIME LEFT:  2.00D  GRAD.:     0.115 HEAT:  71.04751
 CYCLE:    44 TIME:   0.004 TIME LEFT:  2.00D  GRAD.:     0.083 HEAT:  71.04748
 CYCLE:    45 TIME:   0.004 TIME LEFT:  2.00D  GRAD.:     0.060 HEAT:  71.04747
 CYCLE:    46 TIME:   0.004 TIME LEFT:  2.00D  GRAD.:     0.044 HEAT:  71.04746

     GRADIENT =  0.04382  IS LESS THAN CUTOFF =  0.05000



 -------------------------------------------------------------------------------
 pm3  precise nosym THREADS=1
 InChI=1S/C10H10/c1-2-6-10-7-3-5-9(10)8(10)4-1/h1-4,6-9H,5H2



     GEOMETRY OPTIMISED USING EIGENVECTOR FOLLOWING (EF).     
     SCF FIELD WAS ACHIEVED                                   


                              PM3 CALCULATION
                                                       MOPAC2016 (Version: 18.184L)
                                                       Sat Jun 15 10:16:15 2019
                                                       No. of days remaining =  18




          FINAL HEAT OF FORMATION =         71.04746 KCAL/MOL =     297.26257 KJ/MOL


          TOTAL ENERGY            =      -1336.65003 EV
          ELECTRONIC ENERGY       =      -7211.80282 EV  POINT GROUP:     C1  
          CORE-CORE REPULSION     =       5875.15279 EV
          COSMO AREA              =        168.00 SQUARE ANGSTROMS
          COSMO VOLUME            =        170.79 CUBIC ANGSTROMS

          GRADIENT NORM           =          0.04382 = 0.00980 PER ATOM
          IONIZATION POTENTIAL    =          8.968058 EV
          HOMO LUMO ENERGIES (EV) =         -8.968  0.174
          NO. OF FILLED LEVELS    =         25
          MOLECULAR WEIGHT        =        130.1890

          MOLECULAR DIMENSIONS (Angstroms)

            Atom       Atom       Distance
            H    20    H    18     7.25066
            H    17    H    14     4.68497
            H    13    H    12     3.19895


          SCF CALCULATIONS        =         53
 
          WALL-CLOCK TIME         =          0.227 SECONDS
          COMPUTATION TIME        =          0.210 SECONDS




   ATOM   CHEMICAL          X               Y               Z
  NUMBER   SYMBOL      (ANGSTROMS)     (ANGSTROMS)     (ANGSTROMS)
 
     1       C          0.19883574  *   0.54087990  *  -0.09494388  *
     2       C          0.47827326  *  -0.78925711  *   0.60157418  *
     3       C         -0.32183162  *  -0.77392095  *  -0.67901224  *
     4       C          1.97094144  *  -1.04933829  *   0.46091815  *
     5       C          1.51671551  *   1.01910233  *  -0.59821197  *
     6       C         -0.78029345  *   1.51615666  *   0.38547809  *
     7       C         -1.77472263  *  -0.98158903  *  -0.59685522  *
     8       C          2.48927307  *   0.14611735  *  -0.29042811  *
     9       C         -2.58745134  *  -0.06385594  *  -0.04609814  *
    10       C         -2.08774518  *   1.20730717  *   0.43644171  *
    11       H          0.00509219  *  -1.08352784  *   1.54855578  *
    12       H          0.13417891  *  -1.18630211  *  -1.59722019  *
    13       H          2.46231548  *  -1.14011577  *   1.44628663  *
    14       H          2.17595111  *  -1.98785699  *  -0.08614034  *
    15       H         -2.16544113  *  -1.91205233  *  -1.02126991  *
    16       H          1.61907199  *   1.96560263  *  -1.12692429  *
    17       H         -0.40239591  *   2.49914580  *   0.68428598  *
    18       H          3.54661159  *   0.24135822  *  -0.53451379  *
    19       H         -2.82239775  *   1.92728957  *   0.81176342  *
    20       H         -3.66742891  *  -0.23457168  *   0.01608796  *

                             CARTESIAN COORDINATES

   1    C        0.198835736     0.540879898    -0.094943879
   2    C        0.478273265    -0.789257111     0.601574184
   3    C       -0.321831621    -0.773920954    -0.679012245
   4    C        1.970941438    -1.049338292     0.460918149
   5    C        1.516715514     1.019102330    -0.598211970
   6    C       -0.780293455     1.516156658     0.385478092
   7    C       -1.774722630    -0.981589031    -0.596855217
   8    C        2.489273072     0.146117351    -0.290428110
   9    C       -2.587451345    -0.063855943    -0.046098140
  10    C       -2.087745180     1.207307166     0.436441708
  11    H        0.005092188    -1.083527845     1.548555784
  12    H        0.134178911    -1.186302107    -1.597220188
  13    H        2.462315479    -1.140115767     1.446286628
  14    H        2.175951108    -1.987856995    -0.086140344
  15    H       -2.165441134    -1.912052330    -1.021269908
  16    H        1.619071993     1.965602628    -1.126924292
  17    H       -0.402395915     2.499145797     0.684285975
  18    H        3.546611593     0.241358222    -0.534513792
  19    H       -2.822397746     1.927289572     0.811763419
  20    H       -3.667428906    -0.234571684     0.016087964


           Empirical Formula: C10 H10  =    20 atoms



      MOLECULAR POINT GROUP   :   C1  


                  EIGENVALUES  
 -42.90120 -35.67120 -30.56373 -28.96772 -27.21374 -22.46499 -21.75729 -19.46059
 -19.41159 -17.87448 -16.95226 -16.34609 -15.46322 -14.76886 -14.36923 -14.04881
 -13.41567 -13.22393 -12.82244 -12.37312 -12.09262 -11.74250 -11.14701  -9.57228
  -8.96806   0.17406   0.87340   1.74245   2.95206   3.08263   3.29821   3.37298
   3.40281   3.46801   3.61494   3.85563   3.88278   3.99012   4.17364   4.20678
   4.40411   4.67786   4.74557   4.86354   5.27598   5.39362   5.53221   5.81864
   6.05610   6.18911


              NET ATOMIC CHARGES AND DIPOLE CONTRIBUTIONS

  ATOM NO.   TYPE          CHARGE      No. of ELECS.   s-Pop       p-Pop       
    1          C          -0.064797        4.0648     1.16920     2.89560
    2          C          -0.124380        4.1244     1.18550     2.93888
    3          C          -0.075640        4.0756     1.16795     2.90769
    4          C          -0.038654        4.0387     1.14831     2.89034
    5          C          -0.110841        4.1108     1.19324     2.91760
    6          C          -0.078149        4.0781     1.18015     2.89800
    7          C          -0.110005        4.1100     1.18698     2.92303
    8          C          -0.156709        4.1567     1.20668     2.95003
    9          C          -0.106618        4.1066     1.17931     2.92731
   10          C          -0.115817        4.1158     1.17976     2.93606
   11          H           0.112893        0.8871     0.88711
   12          H           0.101893        0.8981     0.89811
   13          H           0.061259        0.9387     0.93874
   14          H           0.064069        0.9359     0.93593
   15          H           0.103103        0.8969     0.89690
   16          H           0.117450        0.8825     0.88255
   17          H           0.106089        0.8939     0.89391
   18          H           0.112383        0.8876     0.88762
   19          H           0.101813        0.8982     0.89819
   20          H           0.100657        0.8993     0.89934
 DIPOLE           X         Y         Z       TOTAL
 POINT-CHG.     0.299    -0.283     0.100     0.424
 HYBRID        -0.032     0.065    -0.105     0.127
 SUM            0.267    -0.219    -0.005     0.345


          ATOMIC ORBITAL ELECTRON POPULATIONS

     Atom    s        px        py        pz   
    1  C   1.16920   0.96193   0.89349   1.04019
    2  C   1.18550   0.95738   1.01199   0.96952
    3  C   1.16795   0.93984   0.99131   0.97655
    4  C   1.14831   0.92887   0.96596   0.99551
    5  C   1.19324   0.93072   0.98687   1.00000
    6  C   1.18015   0.93950   0.97699   0.98151
    7  C   1.18698   0.94363   0.98442   0.99497
    8  C   1.20668   0.98168   0.96373   1.00462
    9  C   1.17931   0.98210   0.94750   0.99771
   10  C   1.17976   0.95954   0.96817   1.00835
   11  H   0.88711
   12  H   0.89811
   13  H   0.93874
   14  H   0.93593
   15  H   0.89690
   16  H   0.88255
   17  H   0.89391
   18  H   0.88762
   19  H   0.89819
   20  H   0.89934
 *******************************************************************************
 ** Site#: 14399        For non-commercial use only    Version 18.184L 64BITS **
 *******************************************************************************
 ** Cite this program as: MOPAC2016, Version: 18.184L, James J. P. Stewart,   **
 ** Stewart Computational Chemistry, web: HTTP://OpenMOPAC.net. Days left:  18**
 *******************************************************************************
 **                                                                           **
 **                                MOPAC2016                                  **
 **                                                                           **
 *******************************************************************************

                              PM3 CALCULATION RESULTS

 *******************************************************************************
 *  CALCULATION DONE:                                Sat Jun 15 10:16:15 2019  *
 *  PM3        - The PM3 Hamiltonian to be used
 *  OLDGEO     - PREVIOUS GEOMETRY TO BE USED
 *  PRECISE    - CRITERIA TO BE INCREASED BY 100 TIMES
 *  NOSYM      - POINT-GROUP SYMMETRY SET TO C1
 *  THREADS=1  - MULTI-THREADING NOT USED
 *  T=         - A TIME OF 172800.0 SECONDS REQUESTED
 *  DUMP=N     - RESTART FILE WRITTEN EVERY  7200.000 SECONDS
 *  THERMO     - THERMODYNAMIC QUANTITIES TO BE CALCULATED
 *******************************************************************************
oldgeo thermo nosym precise THREADS=1  pm3
 InChI=1S/C10H10/c1-2-6-10-7-3-5-9(10)8(10)4-1/h1-4,6-9H,5H2

   ATOM   CHEMICAL          X               Y               Z
  NUMBER   SYMBOL      (ANGSTROMS)     (ANGSTROMS)     (ANGSTROMS)
 
     1       C          0.19883574  *   0.54087990  *  -0.09494388  *
     2       C          0.47827326  *  -0.78925711  *   0.60157418  *
     3       C         -0.32183162  *  -0.77392095  *  -0.67901224  *
     4       C          1.97094144  *  -1.04933829  *   0.46091815  *
     5       C          1.51671551  *   1.01910233  *  -0.59821197  *
     6       C         -0.78029345  *   1.51615666  *   0.38547809  *
     7       C         -1.77472263  *  -0.98158903  *  -0.59685522  *
     8       C          2.48927307  *   0.14611735  *  -0.29042811  *
     9       C         -2.58745134  *  -0.06385594  *  -0.04609814  *
    10       C         -2.08774518  *   1.20730717  *   0.43644171  *
    11       H          0.00509219  *  -1.08352784  *   1.54855578  *
    12       H          0.13417891  *  -1.18630211  *  -1.59722019  *
    13       H          2.46231548  *  -1.14011577  *   1.44628663  *
    14       H          2.17595111  *  -1.98785699  *  -0.08614034  *
    15       H         -2.16544113  *  -1.91205233  *  -1.02126991  *
    16       H          1.61907199  *   1.96560263  *  -1.12692429  *
    17       H         -0.40239591  *   2.49914580  *   0.68428598  *
    18       H          3.54661159  *   0.24135822  *  -0.53451379  *
    19       H         -2.82239775  *   1.92728957  *   0.81176342  *
    20       H         -3.66742891  *  -0.23457168  *   0.01608796  *
 


          CARTESIAN COORDINATES 

    NO.       ATOM           X           Y           Z

     1         C          0.1988      0.5409     -0.0949
     2         C          0.4783     -0.7893      0.6016
     3         C         -0.3218     -0.7739     -0.6790
     4         C          1.9709     -1.0493      0.4609
     5         C          1.5167      1.0191     -0.5982
     6         C         -0.7803      1.5162      0.3855
     7         C         -1.7747     -0.9816     -0.5969
     8         C          2.4893      0.1461     -0.2904
     9         C         -2.5875     -0.0639     -0.0461
    10         C         -2.0877      1.2073      0.4364
    11         H          0.0051     -1.0835      1.5486
    12         H          0.1342     -1.1863     -1.5972
    13         H          2.4623     -1.1401      1.4463
    14         H          2.1760     -1.9879     -0.0861
    15         H         -2.1654     -1.9121     -1.0213
    16         H          1.6191      1.9656     -1.1269
    17         H         -0.4024      2.4991      0.6843
    18         H          3.5466      0.2414     -0.5345
    19         H         -2.8224      1.9273      0.8118
    20         H         -3.6674     -0.2346      0.0161

  H: (PM3): J. J. P. STEWART, J. COMP. CHEM. 10, 209 (1989).
  C: (PM3): J. J. P. STEWART, J. COMP. CHEM. 10, 209 (1989).

           Empirical Formula: C10 H10  =    20 atoms



      MOLECULAR POINT GROUP   :   C1  


      RHF CALCULATION, NO. OF DOUBLY OCCUPIED LEVELS = 25



          HEAT OF FORMATION =      71.047461 KCALS/MOLE


          CARTESIAN COORDINATE DERIVATIVES

   NUMBER  ATOM         X            Y            Z

     1       C     -0.009588    -0.020338     0.007875
     2       C     -0.003003    -0.001513     0.005833
     3       C      0.006968     0.003890    -0.002819
     4       C     -0.001900    -0.006130     0.008225
     5       C      0.000690    -0.005946     0.006778
     6       C      0.006655     0.002621     0.003071
     7       C     -0.000745    -0.005250     0.015393
     8       C     -0.002576    -0.004805     0.001328
     9       C     -0.006787    -0.012517     0.000217
    10       C      0.009050     0.013914    -0.011414
    11       H     -0.005909     0.004897    -0.014762
    12       H      0.004527    -0.004111     0.004115
    13       H      0.002820     0.001752    -0.003322
    14       H     -0.004202     0.008404    -0.009907
    15       H     -0.004673    -0.002860     0.003553
    16       H      0.008183     0.006997    -0.001475
    17       H     -0.001066     0.007189    -0.008820
    18       H     -0.001431     0.015063    -0.001495
    19       H      0.003266    -0.001473     0.002109
    20       H     -0.000279     0.000216    -0.004481
 


          GRADIENT NORM =   0.05423


          TIME FOR SCF CALCULATION =    0.00

          TIME FOR DERIVATIVES     =    0.00

          MOLECULAR WEIGHT =  130.19



          ROTATIONAL CONSTANTS IN CM(-1)

          A =    0.10548120   B =    0.03993283   C =    0.03306298



           PRINCIPAL MOMENTS OF INERTIA IN UNITS OF 10**(-40)*GRAM-CM**2

          A =      265.3816   B =      700.9965   C =      846.6500


          ORIENTATION OF MOLECULE IN FORCE CALCULATION

    NO.       ATOM         X         Y         Z

     1          C      -0.3910   -0.3273    0.2146
     2          C       1.1362   -0.3273    0.2146
     3          C       0.3925    0.9869    0.2146
     4          C       1.5717   -0.8556    1.5736
     5          C      -0.7959   -0.8629    1.5443
     6          C      -1.2005   -0.6461   -0.9618
     7          C       0.3450    1.7620   -1.0334
     8          C       0.2827   -1.1546    2.2887
     9          C      -0.3518    1.3365   -2.1009
    10          C      -1.1475    0.1266   -2.0606
    11          H       1.7378   -0.6250   -0.6553
    12          H       0.4163    1.6126    1.1251
    13          H       2.1901   -1.7660    1.4766
    14          H       2.1771   -0.1157    2.1286
    15          H       0.8903    2.7113   -1.0464
    16          H      -1.8426   -0.9913    1.8158
    17          H      -1.8512   -1.5241   -0.8986
    18          H       0.2819   -1.5598    3.2998
    19          H      -1.7378   -0.1175   -2.9499
    20          H      -0.3724    1.9198   -3.0276


    FIRST DERIVATIVES WILL BE USED IN THE CALCULATION OF SECOND DERIVATIVES

          ESTIMATED TIME TO COMPLETE CALCULATION =        1.88 SECONDS

    FOR POINT-GROUP C1   THERE ARE   1 UNIQUE SYMMETRY FUNCTIONS.

 STEP:   1 TIME =     0.02 SECS, INTEGRAL =      0.02 TIME LEFT: 172799.97
 STEP:   2 TIME =     0.02 SECS, INTEGRAL =      0.04 TIME LEFT: 172799.95
 STEP:   3 TIME =     0.02 SECS, INTEGRAL =      0.06 TIME LEFT: 172799.93
 STEP:   4 TIME =     0.02 SECS, INTEGRAL =      0.07 TIME LEFT: 172799.92
 STEP:   5 TIME =     0.02 SECS, INTEGRAL =      0.09 TIME LEFT: 172799.90
 STEP:   6 TIME =     0.02 SECS, INTEGRAL =      0.11 TIME LEFT: 172799.88
 STEP:   7 TIME =     0.02 SECS, INTEGRAL =      0.13 TIME LEFT: 172799.86
 STEP:   8 TIME =     0.02 SECS, INTEGRAL =      0.15 TIME LEFT: 172799.84
 STEP:   9 TIME =     0.02 SECS, INTEGRAL =      0.17 TIME LEFT: 172799.82
 STEP:  10 TIME =     0.02 SECS, INTEGRAL =      0.19 TIME LEFT: 172799.80
 STEP:  11 TIME =     0.02 SECS, INTEGRAL =      0.20 TIME LEFT: 172799.79
 STEP:  12 TIME =     0.02 SECS, INTEGRAL =      0.22 TIME LEFT: 172799.77
 STEP:  13 TIME =     0.02 SECS, INTEGRAL =      0.24 TIME LEFT: 172799.75
 STEP:  14 TIME =     0.02 SECS, INTEGRAL =      0.26 TIME LEFT: 172799.73
 STEP:  15 TIME =     0.02 SECS, INTEGRAL =      0.28 TIME LEFT: 172799.71
 STEP:  16 TIME =     0.02 SECS, INTEGRAL =      0.30 TIME LEFT: 172799.69
 STEP:  17 TIME =     0.02 SECS, INTEGRAL =      0.32 TIME LEFT: 172799.67
 STEP:  18 TIME =     0.02 SECS, INTEGRAL =      0.34 TIME LEFT: 172799.66
 STEP:  19 TIME =     0.02 SECS, INTEGRAL =      0.36 TIME LEFT: 172799.64
 STEP:  20 TIME =     0.02 SECS, INTEGRAL =      0.38 TIME LEFT: 172799.62
 STEP:  21 TIME =     0.02 SECS, INTEGRAL =      0.39 TIME LEFT: 172799.60
 STEP:  22 TIME =     0.02 SECS, INTEGRAL =      0.41 TIME LEFT: 172799.58
 STEP:  23 TIME =     0.02 SECS, INTEGRAL =      0.43 TIME LEFT: 172799.56
 STEP:  24 TIME =     0.02 SECS, INTEGRAL =      0.45 TIME LEFT: 172799.54
 STEP:  25 TIME =     0.02 SECS, INTEGRAL =      0.47 TIME LEFT: 172799.52
 STEP:  26 TIME =     0.02 SECS, INTEGRAL =      0.49 TIME LEFT: 172799.50
 STEP:  27 TIME =     0.02 SECS, INTEGRAL =      0.51 TIME LEFT: 172799.48
 STEP:  28 TIME =     0.02 SECS, INTEGRAL =      0.53 TIME LEFT: 172799.46
 STEP:  29 TIME =     0.02 SECS, INTEGRAL =      0.55 TIME LEFT: 172799.45
 STEP:  30 TIME =     0.02 SECS, INTEGRAL =      0.57 TIME LEFT: 172799.43
 STEP:  31 TIME =     0.02 SECS, INTEGRAL =      0.58 TIME LEFT: 172799.41
 STEP:  32 TIME =     0.02 SECS, INTEGRAL =      0.60 TIME LEFT: 172799.39
 STEP:  33 TIME =     0.02 SECS, INTEGRAL =      0.62 TIME LEFT: 172799.38
 STEP:  34 TIME =     0.02 SECS, INTEGRAL =      0.64 TIME LEFT: 172799.36
 STEP:  35 TIME =     0.02 SECS, INTEGRAL =      0.66 TIME LEFT: 172799.34
 STEP:  36 TIME =     0.02 SECS, INTEGRAL =      0.68 TIME LEFT: 172799.32
 STEP:  37 TIME =     0.02 SECS, INTEGRAL =      0.70 TIME LEFT: 172799.30
 STEP:  38 TIME =     0.02 SECS, INTEGRAL =      0.71 TIME LEFT: 172799.28
 STEP:  39 TIME =     0.02 SECS, INTEGRAL =      0.73 TIME LEFT: 172799.27
 STEP:  40 TIME =     0.02 SECS, INTEGRAL =      0.74 TIME LEFT: 172799.25
 STEP:  41 TIME =     0.02 SECS, INTEGRAL =      0.76 TIME LEFT: 172799.23
 STEP:  42 TIME =     0.02 SECS, INTEGRAL =      0.78 TIME LEFT: 172799.21
 STEP:  43 TIME =     0.02 SECS, INTEGRAL =      0.80 TIME LEFT: 172799.19
 STEP:  44 TIME =     0.02 SECS, INTEGRAL =      0.82 TIME LEFT: 172799.17
 STEP:  45 TIME =     0.02 SECS, INTEGRAL =      0.84 TIME LEFT: 172799.15
 STEP:  46 TIME =     0.02 SECS, INTEGRAL =      0.86 TIME LEFT: 172799.14
 STEP:  47 TIME =     0.02 SECS, INTEGRAL =      0.88 TIME LEFT: 172799.12
 STEP:  48 TIME =     0.02 SECS, INTEGRAL =      0.89 TIME LEFT: 172799.10
 STEP:  49 TIME =     0.02 SECS, INTEGRAL =      0.91 TIME LEFT: 172799.08
 STEP:  50 TIME =     0.02 SECS, INTEGRAL =      0.93 TIME LEFT: 172799.06
 STEP:  51 TIME =     0.02 SECS, INTEGRAL =      0.95 TIME LEFT: 172799.04
 STEP:  52 TIME =     0.02 SECS, INTEGRAL =      0.97 TIME LEFT: 172799.02
 STEP:  53 TIME =     0.02 SECS, INTEGRAL =      0.99 TIME LEFT: 172799.00
 STEP:  54 TIME =     0.02 SECS, INTEGRAL =      1.01 TIME LEFT: 172798.98
 STEP:  55 TIME =     0.02 SECS, INTEGRAL =      1.02 TIME LEFT: 172798.97
 STEP:  56 TIME =     0.02 SECS, INTEGRAL =      1.04 TIME LEFT: 172798.95
 STEP:  57 TIME =     0.02 SECS, INTEGRAL =      1.06 TIME LEFT: 172798.93
 STEP:  58 TIME =     0.02 SECS, INTEGRAL =      1.08 TIME LEFT: 172798.91
 STEP:  59 TIME =     0.02 SECS, INTEGRAL =      1.10 TIME LEFT: 172798.89
 STEP:  60 TIME =     0.02 SECS, INTEGRAL =      1.12 TIME LEFT: 172798.87

(To convert to Hartree/Bohr^2, multiply by (10^(-21) x N x a0^2)/(4.184 x 627.51) =  0.0642)


           FORCE MATRIX IN MILLIDYNES/ANGSTROM


                  C  1       C  2       C  3       C  4       C  5       C  6
 ------------------------------------------------------------------------------
     C    1  16.264723
     C    2   3.873279  15.033475
     C    3   3.654017   4.559678  15.393303
     C    4   0.796720   4.020182   0.578045  14.726444
     C    5   4.704355   0.902958   0.544170   1.117484  18.336239
     C    6   5.408839   0.513276   0.677341   0.045066   0.592376  18.218571
     C    7   0.714936   0.612093   5.277521   0.051650   0.046889   0.269434
     C    8   1.250096   0.932033   0.087759   4.427347  10.303524   0.048255
     C    9   0.267124   0.050788   0.994973   0.016922   0.017113   1.194447
     C   10   1.050561   0.051524   0.260037   0.016556   0.055208   9.920265
     H   11   0.418898   4.772217   0.434264   0.409456   0.034175   0.025233
     H   12   0.414987   0.446815   4.575423   0.021778   0.024944   0.034342
     H   13   0.019748   0.432071   0.044282   4.546539   0.037154   0.003931
     H   14   0.041335   0.434344   0.018313   4.511924   0.038751   0.008289
     H   15   0.066220   0.015817   0.430548   0.001455   0.006821   0.033705
     H   16   0.420635   0.039965   0.012338   0.114682   5.042578   0.010460
     H   17   0.441759   0.018900   0.057569   0.001584   0.019087   4.863133
     H   18   0.113668   0.044339   0.014767   0.408613   0.444363   0.011105
     H   19   0.121845   0.014009   0.010579   0.002608   0.009278   0.438090
     H   20   0.010359   0.017044   0.121217   0.002920   0.001836   0.049295


                  C  7       C  8       C  9       C 10       H 11       H 12
 ------------------------------------------------------------------------------
     C    7  18.039648
     C    8   0.009757  18.119910
     C    9   9.956291   0.002155  18.189816
     C   10   1.184055   0.009355   5.603917  18.193052
     H   11   0.025632   0.035739   0.009263   0.008212   5.309199
     H   12   0.415191   0.009078   0.050474   0.018748   0.031772   5.099535
     H   13   0.009374   0.427268   0.003163   0.003231   0.030661   0.004340
     H   14   0.004495   0.429906   0.001997   0.001665   0.014522   0.011808
     H   15   4.858776   0.001600   0.444899   0.125615   0.002920   0.033398
     H   16   0.001868   0.446152   0.000698   0.002519   0.003469   0.003138
     H   17   0.027399   0.002424   0.124120   0.442131   0.002800   0.003719
     H   18   0.004379   5.031633   0.001090   0.002656   0.004902   0.001572
     H   19   0.048939   0.001998   0.433369   4.854934   0.001470   0.001243
     H   20   0.439043   0.000816   4.849655   0.432605   0.001102   0.009827


                  H 13       H 14       H 15       H 16       H 17       H 18
 ------------------------------------------------------------------------------
     H   13   5.138783
     H   14   0.552023   5.118852
     H   15   0.000269   0.000306   5.226016
     H   16   0.015698   0.015392   0.000518   5.434297
     H   17   0.000549   0.000561   0.009282   0.006203   5.229196
     H   18   0.013789   0.012802   0.000724   0.046354   0.000659   5.424480
     H   19   0.000222   0.000496   0.006905   0.000439   0.061377   0.000531
     H   20   0.000529   0.000294   0.062677   0.000498   0.006877   0.000314


                  H 19       H 20
 ------------------------------
     H   19   5.217183
     H   20   0.033209   5.210323


          HEAT OF FORMATION =      71.047461 KCALS/MOLE

          ZERO POINT ENERGY     105.993 KCAL/MOL


           NORMAL COORDINATE ANALYSIS (Total motion = 1 Angstrom)


   Root No.       1         2         3         4         5         6         7         8

                 1 A       2 A       3 A       4 A       5 A       6 A       7 A       8 A   

                 172.6     197.4     252.1     329.0     404.1     438.8     464.3     528.9
  
           1   -0.0267   -0.0024   -0.0181    0.0139   -0.0309    0.0056    0.0076    0.0060
           2    0.0244    0.0002   -0.0376   -0.0092    0.0025    0.0036   -0.0225   -0.0033
           3    0.0209   -0.0004   -0.0100   -0.0134    0.0169   -0.0191   -0.0112    0.0160
           4   -0.0263   -0.0042   -0.0168    0.0148   -0.0331    0.0050    0.0101   -0.0120
           5    0.0258   -0.0134   -0.0233    0.0371    0.0026    0.0013   -0.0096   -0.0143
           6   -0.0069   -0.0124   -0.0198    0.0170    0.0018   -0.0291    0.0135   -0.0165
           7   -0.0268    0.0052   -0.0245   -0.0303   -0.0305    0.0091   -0.0217    0.0071
           8    0.0258   -0.0055   -0.0302    0.0131    0.0007   -0.0004   -0.0188    0.0067
           9    0.0171    0.0036    0.0088    0.0175   -0.0019    0.0211   -0.0040   -0.0226
          10    0.0032   -0.0026    0.0107    0.0035    0.0004   -0.0057    0.0137   -0.0157
          11   -0.0100   -0.0377    0.0263   -0.0294    0.0096    0.0281   -0.0049   -0.0010
          12   -0.0333   -0.0230   -0.0119   -0.0068   -0.0141   -0.0234    0.0193   -0.0077
          13    0.0020   -0.0050    0.0076    0.0050   -0.0036   -0.0161    0.0140   -0.0096
          14   -0.0012    0.0384   -0.0232    0.0014    0.0073    0.0383    0.0494   -0.0159
          15    0.0197    0.0136    0.0049   -0.0123    0.0338   -0.0230    0.0240    0.0107
          16   -0.0211    0.0229   -0.0273    0.0058    0.0309   -0.0050   -0.0018    0.0404
          17    0.0169   -0.0199    0.0067   -0.0126   -0.0275   -0.0390    0.0054   -0.0202
          18    0.0204   -0.0114   -0.0169   -0.0074   -0.0214    0.0056   -0.0210    0.0061
          19   -0.0099   -0.0263    0.0028    0.0076    0.0436    0.0174   -0.0289   -0.0243
          20    0.0094    0.0169   -0.0060   -0.0114   -0.0162    0.0002   -0.0023    0.0382
          21    0.0061    0.0203    0.0278   -0.0012   -0.0171    0.0340    0.0069   -0.0063
          22    0.0184   -0.0025    0.0212   -0.0015    0.0153   -0.0142    0.0106   -0.0079
          23   -0.0286    0.0312    0.0542    0.0192   -0.0132    0.0017   -0.0308   -0.0018
          24   -0.0142    0.0077    0.0178    0.0033    0.0020   -0.0430   -0.0002    0.0125
          25    0.0454   -0.0162    0.0334    0.0110   -0.0101    0.0167    0.0126    0.0317
          26   -0.0315    0.0127    0.0023   -0.0151    0.0251   -0.0296    0.0002   -0.0067
          27   -0.0144    0.0150    0.0054   -0.0020    0.0044    0.0469   -0.0213   -0.0250
          28    0.0360    0.0310    0.0066   -0.0295    0.0008   -0.0144   -0.0115   -0.0137
          29   -0.0247   -0.0193    0.0193    0.0107    0.0148   -0.0133    0.0166    0.0251
          30   -0.0067   -0.0110   -0.0085    0.0083    0.0056    0.0276   -0.0171    0.0362
          31   -0.0463   -0.0158   -0.0203    0.0454   -0.0543    0.0040    0.0284   -0.0388
          32    0.0414   -0.0118   -0.0168    0.0937   -0.0019    0.0161    0.0031   -0.0558
          33   -0.0271   -0.0211   -0.0239    0.0179   -0.0123   -0.0342    0.0223   -0.0210
          34   -0.0196    0.0201   -0.0302   -0.0867   -0.0453    0.0121   -0.0547    0.0492
          35    0.0256   -0.0196   -0.0510    0.0186    0.0156   -0.0267   -0.0234   -0.0043
          36    0.0160    0.0134    0.0239    0.0139   -0.0122    0.0395    0.0008   -0.0160
          37    0.0005   -0.0611    0.0068   -0.0703    0.0246    0.0483    0.0658   -0.0191
          38   -0.0077   -0.0759    0.0208   -0.0754    0.0276    0.0628    0.0303   -0.0040
          39   -0.0739   -0.0420    0.0156   -0.0592   -0.0259    0.0125    0.0313   -0.0011
          40    0.0161    0.0570    0.0241    0.0741   -0.0113   -0.0648   -0.0391   -0.0117
          41   -0.0265   -0.0762    0.0493   -0.0992    0.0254    0.0733    0.0256    0.0048
          42   -0.0255   -0.0377   -0.0569    0.0064   -0.0214   -0.0161    0.0387   -0.0207
          43   -0.0294   -0.0648    0.0073    0.0454    0.1389    0.0258   -0.0530   -0.0749
          44    0.0205    0.0393   -0.0084   -0.0334   -0.0713   -0.0053    0.0120    0.0676
          45    0.0073    0.0374    0.0566   -0.0175   -0.0358    0.0189    0.0366    0.0114
          46    0.0080   -0.0054    0.0142    0.0023    0.0043   -0.0205    0.0125   -0.0107
          47   -0.0020    0.0803   -0.0538    0.0103    0.0215    0.0886    0.1633   -0.0365
          48    0.0426    0.0310    0.0155   -0.0183    0.0699   -0.0169    0.0716   -0.0040
          49   -0.0502    0.0476   -0.0620    0.0133    0.1089    0.0156   -0.0238    0.0803
          50    0.0396   -0.0389    0.0315   -0.0179   -0.0889   -0.0529    0.0215   -0.0515
          51    0.0346   -0.0253   -0.0329   -0.0047   -0.0782    0.0158   -0.0258   -0.0176
          52    0.0404    0.0001    0.0376   -0.0104    0.0405   -0.0158    0.0021    0.0058
          53   -0.0592    0.0654    0.1179    0.0545   -0.0348   -0.0239   -0.0648    0.0034
          54   -0.0264    0.0213    0.0433    0.0174   -0.0064   -0.0538   -0.0136    0.0146
          55    0.0638    0.0662    0.0045   -0.0701    0.0177   -0.0279   -0.0450   -0.0985
          56   -0.0456   -0.0405    0.0467    0.0432    0.0089    0.0238    0.0451    0.0686
          57   -0.0193   -0.0284   -0.0149    0.0264   -0.0042    0.0268   -0.0031    0.0803
          58    0.0852   -0.0444    0.0703    0.0527   -0.0181    0.0423    0.0519    0.0932
          59   -0.0610    0.0334    0.0013   -0.0391    0.0296   -0.0472   -0.0067   -0.0734
          60   -0.0338    0.0285    0.0041   -0.0180    0.0076    0.0353   -0.0264   -0.0681


   Root No.       9        10        11        12        13        14        15        16

                 9 A      10 A      11 A      12 A      13 A      14 A      15 A      16 A   

                 593.0     687.1     740.0     755.6     777.3     815.8     839.8     895.8
  
           1    0.0140   -0.0310   -0.0104    0.0095   -0.0114    0.0148   -0.0032   -0.0082
           2   -0.0463    0.0221    0.0154    0.0047    0.0073    0.0165   -0.0162    0.0044
           3   -0.0134   -0.0268    0.0072   -0.0073    0.0055   -0.0080    0.0066   -0.0136
           4    0.0090   -0.0286    0.0074    0.0026   -0.0133   -0.0214    0.0026   -0.0226
           5    0.0120   -0.0072   -0.0207   -0.0076   -0.0030   -0.0238    0.0078    0.0058
           6   -0.0064    0.0315    0.0192   -0.0125    0.0235   -0.0069    0.0099    0.0011
           7   -0.0297    0.0175   -0.0230   -0.0055   -0.0006   -0.0263    0.0154    0.0107
           8   -0.0090    0.0200   -0.0206    0.0069    0.0099    0.0140    0.0021    0.0071
           9   -0.0507   -0.0199   -0.0069    0.0009    0.0062    0.0101   -0.0049    0.0223
          10   -0.0112    0.0191    0.0416   -0.0095    0.0270   -0.0029    0.0123   -0.0091
          11   -0.0022   -0.0113   -0.0045   -0.0152   -0.0197   -0.0169    0.0133    0.0233
          12   -0.0016    0.0336    0.0160    0.0022    0.0024    0.0015    0.0049    0.0115
          13   -0.0004    0.0328   -0.0158    0.0201   -0.0135    0.0269   -0.0242    0.0339
          14    0.0022    0.0069    0.0174   -0.0095   -0.0228    0.0147   -0.0107   -0.0027
          15    0.0015   -0.0110   -0.0193   -0.0109   -0.0185   -0.0169    0.0108   -0.0315
          16   -0.0322   -0.0408   -0.0046   -0.0146    0.0076    0.0274    0.0103   -0.0191
          17   -0.0292   -0.0380    0.0040    0.0096   -0.0019   -0.0017   -0.0133   -0.0284
          18    0.0308   -0.0328    0.0195    0.0071    0.0034    0.0010   -0.0133    0.0024
          19    0.0289    0.0212   -0.0164   -0.0129    0.0067   -0.0054   -0.0168   -0.0215
          20    0.0463    0.0496   -0.0021    0.0190   -0.0012    0.0055    0.0201   -0.0374
          21   -0.0243   -0.0022    0.0008    0.0021   -0.0077    0.0026    0.0055    0.0034
          22   -0.0079    0.0193    0.0023   -0.0008    0.0033    0.0012   -0.0004    0.0029
          23   -0.0101   -0.0022    0.0239   -0.0124   -0.0052    0.0016    0.0014   -0.0082
          24    0.0032    0.0118   -0.0409    0.0156   -0.0328    0.0153   -0.0165    0.0093
          25    0.0042    0.0107   -0.0015   -0.0119    0.0046   -0.0077   -0.0196    0.0021
          26    0.0276   -0.0174    0.0146    0.0075   -0.0024    0.0028    0.0095    0.0215
          27    0.0037    0.0306   -0.0136    0.0055   -0.0069    0.0036    0.0116   -0.0329
          28    0.0445   -0.0204    0.0067   -0.0095    0.0060    0.0153    0.0095    0.0270
          29   -0.0049   -0.0080    0.0084    0.0026   -0.0011   -0.0141   -0.0096    0.0117
          30    0.0521   -0.0120    0.0257    0.0040    0.0058   -0.0054   -0.0128    0.0316
          31    0.0451   -0.0424   -0.0280    0.0127   -0.0506   -0.0634   -0.0107   -0.0293
          32    0.0364   -0.0628   -0.0629    0.0009   -0.0267   -0.0537   -0.0286   -0.0160
          33    0.0096    0.0410    0.0102   -0.0074    0.0054   -0.0252    0.0126    0.0042
          34   -0.1139    0.0134   -0.0503    0.0059   -0.0099   -0.0713    0.0842    0.1320
          35   -0.0109    0.0126   -0.0178   -0.0038    0.0244    0.0048   -0.0029    0.0121
          36   -0.0469   -0.0144   -0.0070    0.0076   -0.0041    0.0171   -0.0031    0.0160
          37   -0.0156   -0.0040    0.0132    0.0363    0.0996    0.0310   -0.0232   -0.0677
          38   -0.0039   -0.0265   -0.0280    0.0146    0.0290    0.0029   -0.0087   -0.0109
          39   -0.0160    0.0120    0.0361    0.0331    0.0197    0.0486   -0.0326   -0.0528
          40   -0.0130    0.0551    0.0693   -0.0593   -0.0401   -0.0290    0.0478    0.0592
          41   -0.0144   -0.0350   -0.0256    0.0273    0.0184    0.0391   -0.0362   -0.0282
          42    0.0154    0.0243    0.0133    0.0023    0.0295   -0.0436    0.0305    0.0010
          43    0.0257   -0.0373    0.0324    0.1024   -0.0500    0.0757    0.1271    0.0020
          44    0.0479    0.0834   -0.0303   -0.0479    0.0316   -0.0417   -0.0632   -0.0512
          45    0.0066   -0.0179    0.0186   -0.0468    0.0030   -0.0273   -0.0648    0.0160
          46   -0.0061    0.0424   -0.0108    0.0130   -0.0108    0.0181   -0.0179    0.0238
          47    0.0573   -0.0555   -0.0803    0.0682    0.1147   -0.0385    0.0315    0.1152
          48    0.0058   -0.0032   -0.0449   -0.0024    0.0575   -0.0775    0.0564   -0.0170
          49   -0.1168   -0.0130    0.0544    0.0666   -0.0109   -0.0779   -0.1147   -0.0260
          50    0.0338   -0.0595   -0.0415   -0.0521    0.0124    0.0826    0.0816   -0.0264
          51    0.0352   -0.0482   -0.0064   -0.0185    0.0133    0.0857    0.0246   -0.0331
          52   -0.0078   -0.0186   -0.0316   -0.0177   -0.0154   -0.0354    0.0208   -0.0470
          53    0.0004   -0.0428   -0.0559    0.0934    0.2229   -0.0253    0.0029   -0.0224
          54    0.0073   -0.0039   -0.0734    0.0580    0.0582    0.0041   -0.0157    0.0029
          55    0.0556    0.0013    0.0621    0.1124   -0.0447   -0.0919   -0.0405    0.0062
          56   -0.0039    0.0461   -0.0521   -0.0852    0.0242    0.0421    0.0382    0.0259
          57    0.0440   -0.0423    0.0063   -0.0525    0.0326    0.0507    0.0066    0.0422
          58   -0.0837    0.0061    0.0538    0.1145   -0.0610   -0.0164    0.0973   -0.0067
          59    0.0191   -0.0342   -0.0335   -0.0828    0.0275    0.0031   -0.0661    0.0368
          60    0.0003    0.0192   -0.0446   -0.0539    0.0131    0.0042   -0.0385   -0.0236


   Root No.      17        18        19        20        21        22        23        24

                17 A      18 A      19 A      20 A      21 A      22 A      23 A      24 A   

                 904.6     951.3     965.0     988.6    1011.5    1026.7    1032.1    1053.1
  
           1    0.0153   -0.0161   -0.0020   -0.0172    0.0139    0.0004   -0.0068   -0.0035
           2   -0.0058    0.0317    0.0009    0.0287   -0.0282   -0.0068   -0.0017    0.0125
           3    0.0006    0.0047    0.0015   -0.0011   -0.0009    0.0016    0.0096    0.0146
           4   -0.0092    0.0262    0.0029    0.0032   -0.0077   -0.0263    0.0024    0.0357
           5   -0.0074    0.0085   -0.0098   -0.0079    0.0047   -0.0202    0.0150    0.0192
           6   -0.0015   -0.0131   -0.0061    0.0015    0.0080    0.0106   -0.0152   -0.0294
           7   -0.0128   -0.0149   -0.0051    0.0011    0.0190   -0.0131   -0.0272   -0.0036
           8   -0.0016   -0.0274    0.0053   -0.0130    0.0088   -0.0078   -0.0097    0.0044
           9   -0.0097   -0.0254    0.0064   -0.0072    0.0090   -0.0093   -0.0156    0.0041
          10   -0.0005   -0.0115    0.0066   -0.0129    0.0102    0.0185    0.0219    0.0264
          11    0.0336    0.0137   -0.0094    0.0010    0.0021    0.0167   -0.0159    0.0036
          12    0.0082    0.0059    0.0055   -0.0006   -0.0073    0.0032    0.0038    0.0088
          13    0.0042    0.0118   -0.0072    0.0073   -0.0061   -0.0037    0.0033   -0.0109
          14   -0.0207    0.0081   -0.0224   -0.0154    0.0089    0.0182   -0.0125   -0.0019
          15   -0.0145    0.0010   -0.0031   -0.0088    0.0039    0.0024   -0.0080    0.0140
          16    0.0172   -0.0103   -0.0150    0.0037   -0.0278    0.0096    0.0068   -0.0093
          17    0.0262    0.0072    0.0114   -0.0016    0.0237    0.0112    0.0052   -0.0172
          18    0.0084    0.0057    0.0052    0.0025    0.0113    0.0034    0.0017   -0.0087
          19    0.0113   -0.0122   -0.0101    0.0209    0.0048    0.0052    0.0160    0.0017
          20    0.0067    0.0043    0.0205   -0.0151   -0.0063    0.0095   -0.0028   -0.0081
          21    0.0024    0.0124   -0.0007   -0.0055   -0.0046   -0.0004   -0.0025   -0.0043
          22   -0.0020    0.0026    0.0001    0.0062   -0.0078   -0.0080   -0.0090   -0.0165
          23   -0.0064   -0.0208    0.0179    0.0041   -0.0027   -0.0308    0.0232   -0.0266
          24   -0.0000   -0.0024    0.0011   -0.0025    0.0082    0.0000    0.0226    0.0130
          25    0.0026    0.0101    0.0119   -0.0276   -0.0212    0.0007   -0.0056   -0.0027
          26   -0.0147   -0.0043   -0.0086    0.0218    0.0071   -0.0040    0.0011    0.0011
          27    0.0161    0.0057   -0.0062    0.0115    0.0082    0.0058    0.0115    0.0006
          28   -0.0157    0.0128    0.0105    0.0139    0.0316   -0.0037   -0.0034    0.0000
          29   -0.0021   -0.0160   -0.0102   -0.0119   -0.0154   -0.0029   -0.0051    0.0034
          30   -0.0094   -0.0108   -0.0070   -0.0040   -0.0112   -0.0041   -0.0067    0.0002
          31   -0.0733    0.0168    0.0574    0.0810   -0.0615    0.1047   -0.0525   -0.0863
          32   -0.1166   -0.0439    0.0677    0.0641   -0.0389    0.1392    0.0459   -0.0199
          33   -0.0094   -0.0009    0.0067    0.0323   -0.0167    0.0479   -0.0647   -0.1020
          34   -0.0770    0.0103    0.0339   -0.0509   -0.0755    0.1053    0.1428   -0.0325
          35   -0.0120   -0.0319   -0.0043    0.0032    0.0133   -0.0112   -0.0072    0.0195
          36   -0.0011   -0.0211    0.0116   -0.0166    0.0075   -0.0108   -0.0221   -0.0056
          37   -0.0955   -0.0446   -0.0056   -0.0422    0.0459    0.0078    0.0946   -0.0252
          38   -0.0280   -0.0042   -0.0272   -0.0253    0.0339    0.0139    0.0421   -0.0447
          39   -0.0480   -0.0445    0.0955    0.0594   -0.0778   -0.0563   -0.0644    0.1333
          40    0.1032   -0.0093    0.0174    0.0069    0.0103    0.1188   -0.0392    0.0945
          41   -0.0393   -0.0509    0.0292    0.0261   -0.0007    0.0318   -0.0309    0.0346
          42   -0.0144    0.0871   -0.0560   -0.0556   -0.0037   -0.1272    0.0923   -0.1069
          43   -0.0135    0.0791    0.0724   -0.0904   -0.0347    0.0086   -0.0256   -0.0284
          44    0.0211   -0.0481   -0.0274    0.0498    0.0157    0.0079    0.0221    0.0088
          45    0.0116    0.0466   -0.0516    0.0701   -0.0441    0.0109    0.0608   -0.0125
          46   -0.0082    0.0186   -0.0036    0.0190   -0.0266   -0.0241   -0.0086   -0.0208
          47    0.1561   -0.0441    0.0814    0.0504   -0.0086   -0.0242    0.0534    0.0033
          48    0.0202    0.0020    0.0600    0.0656   -0.0814   -0.0926   -0.0192   -0.0148
          49    0.0447    0.0641    0.0690    0.0009    0.0924    0.0190    0.0040   -0.0479
          50    0.0085   -0.0475   -0.0535    0.0035   -0.0731    0.0057    0.0086    0.0085
          51    0.0363    0.0074   -0.0328    0.0431   -0.1000    0.0197    0.0181   -0.0479
          52   -0.0075   -0.0001   -0.0018    0.0179   -0.0128   -0.0751   -0.1182   -0.1076
          53   -0.0333    0.0988   -0.0845   -0.0173   -0.0032    0.0747   -0.0823    0.0338
          54   -0.0112    0.0460   -0.0397   -0.0109    0.0075    0.0414   -0.0199    0.0379
          55    0.0178   -0.0946   -0.0672   -0.0599   -0.0963   -0.0142   -0.0138    0.0324
          56   -0.0491    0.0715    0.0430    0.0279    0.0820   -0.0256   -0.0046    0.0642
          57   -0.0183    0.0366    0.0295    0.0344    0.0465    0.0092   -0.0001   -0.0388
          58   -0.0139   -0.0203   -0.0848    0.1340    0.0544   -0.0100    0.0351    0.0150
          59    0.0000    0.0393    0.0270   -0.0728   -0.0528   -0.0120   -0.0095    0.0059
          60    0.0265    0.0346    0.0178   -0.0511   -0.0313    0.0015    0.0048    0.0028


   Root No.      25        26        27        28        29        30        31        32

                25 A      26 A      27 A      28 A      29 A      30 A      31 A      32 A   

                1060.8    1072.1    1082.6    1099.9    1121.3    1133.4    1161.3    1181.8
  
           1    0.0047    0.0083    0.0170    0.0140    0.0054    0.0121    0.0097    0.0240
           2   -0.0175   -0.0084   -0.0082   -0.0285    0.0059    0.0060   -0.0087    0.0167
           3   -0.0032   -0.0068    0.0010   -0.0049    0.0011   -0.0046   -0.0019    0.0012
           4   -0.0089    0.0002    0.0022   -0.0144   -0.0166    0.0153   -0.0136    0.0081
           5   -0.0080   -0.0008    0.0060    0.0127   -0.0287   -0.0056    0.0005   -0.0371
           6   -0.0236   -0.0095    0.0096    0.0051   -0.0224    0.0061    0.0037   -0.0249
           7   -0.0217    0.0085   -0.0332    0.0044    0.0068   -0.0233    0.0151   -0.0166
           8    0.0091    0.0098    0.0108    0.0131    0.0076    0.0021    0.0009    0.0299
           9    0.0170    0.0300   -0.0044   -0.0159   -0.0020    0.0143   -0.0023    0.0177
          10   -0.0061    0.0091   -0.0037   -0.0087    0.0129   -0.0045   -0.0010    0.0080
          11    0.0077    0.0062   -0.0067   -0.0057    0.0089    0.0007    0.0009    0.0076
          12    0.0197    0.0077   -0.0010   -0.0004    0.0153   -0.0096    0.0043    0.0011
          13    0.0090   -0.0108   -0.0055    0.0060   -0.0075   -0.0048   -0.0000   -0.0124
          14    0.0148    0.0017    0.0032    0.0084   -0.0050   -0.0018    0.0021   -0.0071
          15    0.0010    0.0117    0.0037   -0.0020    0.0063    0.0029   -0.0002    0.0099
          16    0.0073   -0.0189   -0.0108   -0.0033   -0.0023   -0.0075    0.0004   -0.0096
          17    0.0164   -0.0176   -0.0021    0.0050   -0.0089   -0.0051    0.0056   -0.0096
          18    0.0016   -0.0003    0.0024    0.0101    0.0028   -0.0007   -0.0019   -0.0037
          19    0.0164    0.0214    0.0083   -0.0070   -0.0086    0.0052   -0.0049    0.0054
          20   -0.0003    0.0210   -0.0060   -0.0085   -0.0074   -0.0019   -0.0021    0.0004
          21   -0.0096   -0.0078   -0.0023    0.0074   -0.0015   -0.0085    0.0026    0.0000
          22    0.0106   -0.0042    0.0052    0.0039    0.0003   -0.0052    0.0013   -0.0061
          23   -0.0065   -0.0068   -0.0026    0.0009    0.0001    0.0019   -0.0002    0.0010
          24   -0.0225    0.0005   -0.0075   -0.0158   -0.0002    0.0024   -0.0045    0.0028
          25   -0.0115    0.0065   -0.0020    0.0036    0.0015   -0.0027   -0.0030   -0.0001
          26   -0.0056    0.0365    0.0048    0.0028    0.0017    0.0039   -0.0042    0.0041
          27    0.0076   -0.0353    0.0054    0.0047    0.0005   -0.0026   -0.0011   -0.0028
          28    0.0095   -0.0196   -0.0002   -0.0018    0.0015    0.0042    0.0007   -0.0049
          29    0.0034   -0.0235   -0.0059   -0.0059    0.0025    0.0030    0.0027   -0.0081
          30    0.0025   -0.0214   -0.0065   -0.0050    0.0009   -0.0010   -0.0025   -0.0015
          31   -0.0095   -0.0415   -0.0214   -0.0272    0.0168    0.0496   -0.0574    0.1064
          32    0.0281    0.0054   -0.0627   -0.0186    0.1172   -0.1032    0.0642   -0.0664
          33   -0.0351   -0.0412    0.0181    0.0063   -0.0503    0.0645   -0.0500    0.0535
          34    0.0761   -0.0032    0.1441    0.0224   -0.0680    0.0520   -0.0152   -0.0142
          35   -0.0413   -0.0940    0.0601    0.1014    0.0444   -0.0453    0.0645    0.1512
          36    0.0488    0.1050   -0.0442   -0.0801   -0.0285    0.0465   -0.0465   -0.0684
          37   -0.0768   -0.0061   -0.0307   -0.0206   -0.0058    0.0289   -0.0166    0.0251
          38   -0.0465   -0.0046   -0.0363   -0.0169   -0.0018    0.0295   -0.0104    0.0238
          39    0.0784    0.0089    0.0996    0.0409   -0.0140   -0.0740    0.0192   -0.0669
          40   -0.0136    0.0219   -0.0108   -0.0084    0.0083    0.0081   -0.0051    0.0214
          41   -0.0474   -0.0187    0.0107    0.0278   -0.0593    0.0156   -0.0008   -0.0368
          42    0.0986    0.0270   -0.0150   -0.0471    0.1100   -0.0428    0.0101    0.0449
          43   -0.0538    0.0293   -0.0204    0.0125   -0.0288   -0.0401    0.0611    0.0161
          44    0.0384    0.0209    0.0118   -0.0181    0.0027    0.0221   -0.0375   -0.0023
          45   -0.0664    0.1094    0.0390    0.0294   -0.0962   -0.0760    0.1902    0.1121
          46    0.0376   -0.0090   -0.0426    0.0538   -0.0214    0.0179    0.0068   -0.0025
          47   -0.0662   -0.0221    0.0346   -0.0764    0.0169   -0.0304   -0.0122   -0.0148
          48    0.0678    0.0097   -0.1244    0.1371   -0.0344    0.0768    0.0181    0.0459
          49    0.0040    0.0403    0.0190    0.0462    0.0255    0.0344    0.0369   -0.0519
          50    0.0155   -0.0551   -0.0234   -0.0292   -0.0227   -0.0279   -0.0149    0.0129
          51   -0.0623    0.1438    0.0223    0.0561    0.1034    0.1139    0.0770   -0.1253
          52   -0.0248    0.0087    0.1832   -0.1251    0.0362   -0.0482    0.0076   -0.0212
          53    0.0411    0.0131    0.0112    0.0093    0.0048   -0.0048    0.0033   -0.0001
          54   -0.0035    0.0091   -0.0011   -0.0138    0.0025   -0.0008   -0.0031    0.0026
          55   -0.0128   -0.0699    0.0042   -0.0115    0.0462    0.0568    0.0586   -0.0197
          56   -0.0103   -0.1065    0.0389   -0.0126    0.0959    0.1297    0.1294   -0.0350
          57    0.0211    0.0331   -0.0220    0.0042   -0.0536   -0.0710   -0.0770    0.0143
          58   -0.0372    0.0232    0.0461    0.0971    0.0701   -0.0239   -0.1325   -0.0097
          59   -0.0732    0.0457    0.0339    0.1033    0.0810   -0.0242   -0.1538   -0.0076
          60   -0.0345   -0.0326    0.0230    0.0671    0.0484   -0.0216   -0.0927   -0.0096


   Root No.      33        34        35        36        37        38        39        40

                33 A      34 A      35 A      36 A      37 A      38 A      39 A      40 A   

                1215.8    1228.7    1262.1    1340.0    1356.7    1395.2    1423.0    1497.6
  
           1    0.0027   -0.0177    0.0113   -0.0277    0.0274   -0.0216    0.0413   -0.0009
           2    0.0072   -0.0099    0.0042   -0.0227    0.0223   -0.0132    0.0192   -0.0280
           3   -0.0222    0.0065    0.0253    0.0298   -0.0193    0.0068    0.0124    0.1164
           4    0.0140    0.0048    0.0288    0.0048    0.0056   -0.0052   -0.0357    0.0239
           5   -0.0048    0.0041   -0.0333    0.0220   -0.0066    0.0085    0.0190   -0.0295
           6    0.0026   -0.0046    0.0415   -0.0477    0.0027   -0.0199   -0.0059    0.0050
           7   -0.0081    0.0030   -0.0095    0.0061   -0.0060    0.0035   -0.0016   -0.0039
           8   -0.0089   -0.0108   -0.0235   -0.0128    0.0210   -0.0002    0.0003    0.0643
           9    0.0003    0.0119    0.0211    0.0200   -0.0232    0.0102   -0.0439   -0.0399
          10    0.0021    0.0022   -0.0206   -0.0415   -0.0095    0.0627    0.0126   -0.0085
          11   -0.0015    0.0051    0.0131   -0.0312   -0.0128   -0.0068   -0.0059    0.0023
          12    0.0137   -0.0156   -0.0141    0.0805    0.0338    0.0160    0.0029   -0.0057
          13   -0.0076    0.0047    0.0136    0.0097   -0.0173    0.0000   -0.0039    0.0260
          14    0.0045   -0.0027    0.0011    0.0073   -0.0194    0.0104   -0.0036    0.0150
          15   -0.0101    0.0124   -0.0075   -0.0106    0.0419   -0.0220   -0.0026   -0.0452
          16   -0.0058   -0.0051   -0.0048    0.0110   -0.0156    0.0071   -0.0011   -0.0304
          17    0.0021   -0.0028   -0.0099   -0.0011   -0.0041    0.0038   -0.0141   -0.0228
          18   -0.0118   -0.0138    0.0083    0.0128   -0.0199    0.0037    0.0268   -0.0323
          19   -0.0009    0.0021    0.0076    0.0073   -0.0064    0.0015    0.0052   -0.0065
          20   -0.0053    0.0011    0.0234    0.0106   -0.0174    0.0052   -0.0307   -0.0215
          21    0.0119    0.0138   -0.0055    0.0007    0.0040   -0.0057    0.0579    0.0041
          22   -0.0204    0.0133    0.0093    0.0231    0.0357   -0.0253   -0.0068   -0.0212
          23   -0.0059    0.0007    0.0050    0.0124    0.0092   -0.0066    0.0016    0.0033
          24    0.0127   -0.0022   -0.0125   -0.0318   -0.0214    0.0154   -0.0010   -0.0077
          25    0.0061    0.0104    0.0049    0.0048   -0.0020   -0.0029    0.0375    0.0035
          26    0.0044    0.0124    0.0124    0.0111   -0.0081   -0.0034    0.0591   -0.0043
          27    0.0076    0.0025   -0.0114   -0.0085    0.0114   -0.0023   -0.0029    0.0193
          28    0.0093    0.0018   -0.0164   -0.0142    0.0158   -0.0012   -0.0316    0.0145
          29    0.0110    0.0088   -0.0178   -0.0140    0.0195   -0.0019   -0.0351    0.0390
          30    0.0029   -0.0078   -0.0099   -0.0078    0.0030    0.0016   -0.0203   -0.0280
          31   -0.0706    0.0399   -0.1063    0.0354   -0.0393    0.0515    0.0104    0.0329
          32    0.0362   -0.0461    0.0956   -0.0402    0.0247   -0.0372    0.0078    0.0299
          33   -0.0725    0.0374   -0.0986   -0.0041   -0.0402    0.0352    0.0316   -0.0090
          34    0.0249   -0.0099    0.0234   -0.0237    0.0051   -0.0082   -0.0095   -0.0325
          35    0.0716    0.1077    0.0630    0.0648   -0.0613    0.0236   -0.0619   -0.0822
          36   -0.0590   -0.0720   -0.0409   -0.0341    0.0345   -0.0055   -0.0012    0.0659
          37    0.0369   -0.0311   -0.0820    0.0763   -0.0718   -0.1845   -0.0122    0.0115
          38    0.0277   -0.0229   -0.0157    0.0678   -0.0309   -0.1354   -0.0212    0.0151
          39   -0.0482    0.0402   -0.0768   -0.1221   -0.1117   -0.1343    0.0126   -0.0135
          40    0.0441   -0.0314   -0.0698    0.0717   -0.0747   -0.1897   -0.0211    0.0114
          41    0.0058   -0.0093    0.0494    0.0278    0.0954    0.1888    0.0172   -0.0102
          42   -0.0398    0.0385   -0.0167   -0.1185   -0.0530   -0.0081    0.0042   -0.0102
          43   -0.0233   -0.0212   -0.0037   -0.0017   -0.0055    0.0058   -0.0479   -0.0075
          44    0.0057    0.0134    0.0317    0.0174   -0.0203    0.0038   -0.0048   -0.0233
          45   -0.0701   -0.0801   -0.0471   -0.0229    0.0181    0.0118   -0.1236    0.0233
          46    0.0243   -0.0257    0.0145   -0.0021   -0.0493    0.0151    0.0064    0.0470
          47   -0.0378    0.0306    0.0097    0.0185    0.0238   -0.0134   -0.0083    0.0005
          48    0.0938   -0.0869   -0.0075   -0.0536   -0.0563    0.0293    0.0325    0.0145
          49    0.0184    0.0247   -0.0345   -0.0049    0.0037    0.0067   -0.0378   -0.0021
          50   -0.0113   -0.0185    0.0052    0.0085   -0.0152    0.0049    0.0022   -0.0430
          51    0.0529    0.0988   -0.0726   -0.0048    0.0224    0.0126   -0.0938    0.0730
          52    0.1153   -0.0897   -0.0451    0.0472   -0.0752    0.0686    0.0116    0.0424
          53   -0.0042   -0.0011    0.0063    0.0144    0.0115   -0.0080    0.0032    0.0052
          54    0.0152   -0.0036   -0.0144   -0.0324   -0.0209    0.0167   -0.0005   -0.0109
          55   -0.0321   -0.0307    0.0034    0.0061   -0.0151    0.0052   -0.0117   -0.0355
          56   -0.0841   -0.0643    0.0317    0.0369   -0.0533    0.0137    0.0158   -0.0652
          57    0.0578    0.0336   -0.0396   -0.0375    0.0453   -0.0067   -0.0542    0.0305
          58   -0.0338   -0.0570    0.0115   -0.0059   -0.0082    0.0080   -0.0776   -0.0263
          59   -0.0416   -0.0616    0.0244    0.0020   -0.0176    0.0098   -0.0686   -0.0380
          60   -0.0198   -0.0433   -0.0067   -0.0163    0.0081    0.0054   -0.0847    0.0022


   Root No.      41        42        43        44        45        46        47        48

                41 A      42 A      43 A      44 A      45 A      46 A      47 A      48 A   

                1581.7    1803.6    1815.8    1848.7    2982.1    3010.8    3051.0    3052.5
  
           1    0.1116    0.0122   -0.0005   -0.0130    0.0001    0.0007   -0.0000   -0.0003
           2    0.0488   -0.0041    0.0044    0.0003   -0.0001   -0.0003    0.0001    0.0001
           3    0.0691    0.0261   -0.0108   -0.0338    0.0001   -0.0003   -0.0002   -0.0003
           4   -0.0798    0.0019    0.0005    0.0004   -0.0014   -0.0027   -0.0001   -0.0019
           5    0.0532    0.0019    0.0012   -0.0018    0.0005    0.0007    0.0001    0.0008
           6   -0.0208   -0.0045   -0.0017    0.0005    0.0015    0.0020    0.0001    0.0036
           7    0.0056    0.0002   -0.0057    0.0035   -0.0002   -0.0017    0.0001   -0.0001
           8   -0.1111   -0.0020   -0.0005   -0.0089   -0.0000   -0.0379   -0.0006   -0.0001
           9    0.0393    0.0038   -0.0127    0.0249   -0.0007   -0.0540   -0.0007   -0.0004
          10    0.0064   -0.0145   -0.0034    0.0005   -0.0010   -0.0005   -0.0003    0.0366
          11   -0.0064    0.0011   -0.0001    0.0009   -0.0551    0.0005    0.0001   -0.0072
          12    0.0060   -0.0026   -0.0006   -0.0001   -0.0223    0.0002   -0.0001    0.0129
          13    0.0033   -0.1287   -0.0460   -0.0094    0.0000   -0.0000   -0.0000    0.0002
          14   -0.0010    0.0433    0.0130    0.0011   -0.0002   -0.0002   -0.0000    0.0001
          15   -0.0077   -0.1127   -0.0373   -0.0029   -0.0001    0.0000   -0.0000   -0.0003
          16   -0.0406   -0.0062    0.0036    0.0146   -0.0000   -0.0003   -0.0064   -0.0002
          17   -0.0231    0.0217   -0.0541   -0.0586    0.0000   -0.0003   -0.0084   -0.0002
          18   -0.0439   -0.0432    0.0944    0.1223   -0.0000    0.0001    0.0001    0.0001
          19   -0.0022   -0.0180    0.0556   -0.0595   -0.0000    0.0028   -0.0080   -0.0000
          20    0.0291   -0.0083    0.0254   -0.0192    0.0000    0.0046   -0.0145   -0.0000
          21   -0.0405   -0.0326    0.0987   -0.1157    0.0001    0.0004    0.0009    0.0000
          22   -0.0130    0.1519    0.0518    0.0090   -0.0000    0.0000    0.0000    0.0007
          23    0.0063   -0.0326   -0.0114   -0.0024   -0.0001   -0.0001   -0.0000    0.0006
          24   -0.0106    0.0843    0.0295    0.0058   -0.0000   -0.0000    0.0000   -0.0014
          25   -0.0164    0.0264   -0.0772    0.0642    0.0000    0.0001   -0.0008   -0.0000
          26   -0.0308    0.0247   -0.0696    0.0390   -0.0000   -0.0001    0.0148    0.0001
          27    0.0056    0.0253   -0.0782    0.0955    0.0000    0.0000   -0.0242   -0.0002
          28    0.0233   -0.0108    0.0285    0.0051   -0.0000   -0.0001    0.0111    0.0003
          29    0.0394   -0.0379    0.0912    0.0717   -0.0000   -0.0001    0.0043    0.0001
          30   -0.0109    0.0338   -0.0767   -0.0998    0.0000    0.0000    0.0173    0.0005
          31    0.0078    0.0034    0.0015   -0.0027    0.0151    0.0198    0.0006    0.0275
          32   -0.0096    0.0015   -0.0011   -0.0028   -0.0090   -0.0067   -0.0003   -0.0133
          33    0.0688   -0.0052   -0.0009   -0.0016   -0.0176   -0.0305   -0.0010   -0.0360
          34   -0.0181   -0.0016   -0.0001    0.0073   -0.0004    0.0170    0.0001    0.0007
          35    0.0114   -0.0074    0.0181   -0.0013    0.0033    0.4611    0.0066    0.0028
          36   -0.0472    0.0071   -0.0246    0.0191    0.0036    0.6457    0.0113    0.0046
          37    0.0068   -0.0189   -0.0059   -0.0019   -0.2491    0.0070    0.0021   -0.2304
          38   -0.0058   -0.0078   -0.0044   -0.0007    0.3528   -0.0107   -0.0034    0.3792
          39    0.0277    0.0181    0.0076    0.0000    0.0337   -0.0008   -0.0004    0.0521
          40   -0.0029   -0.0187   -0.0062   -0.0004    0.2639    0.0011    0.0018   -0.2076
          41    0.0001   -0.0074   -0.0019    0.0001    0.3108    0.0004    0.0025   -0.2938
          42    0.0039    0.0197    0.0074    0.0033    0.2371    0.0010    0.0018   -0.2066
          43    0.0084   -0.0131    0.0358   -0.0225   -0.0000   -0.0321    0.0985    0.0002
          44    0.0232   -0.0166    0.0544   -0.0607   -0.0001   -0.0545    0.1730    0.0004
          45    0.0025    0.0054   -0.0225    0.0393   -0.0000   -0.0032   -0.0048   -0.0001
          46    0.0223   -0.1052   -0.0394   -0.0106    0.0004   -0.0004   -0.0002   -0.0094
          47   -0.0113   -0.0258   -0.0093   -0.0022   -0.0006   -0.0001   -0.0000   -0.0010
          48    0.0445    0.0699    0.0246    0.0025   -0.0003    0.0003   -0.0000    0.0022
          49   -0.0267    0.0131   -0.0358   -0.0496   -0.0000    0.0061    0.0753    0.0023
          50   -0.0324    0.0180   -0.0528   -0.0468   -0.0001    0.0077    0.1008    0.0030
          51    0.0081    0.0091   -0.0158   -0.0362    0.0000   -0.0003   -0.0055   -0.0002
          52    0.0141   -0.0440   -0.0149   -0.0033    0.0000    0.0000   -0.0000    0.0016
          53    0.0111   -0.0468   -0.0160   -0.0038   -0.0009    0.0001    0.0001   -0.0055
          54   -0.0118    0.1123    0.0399    0.0081   -0.0010    0.0001   -0.0002    0.0138
          55   -0.0168    0.0121   -0.0240   -0.0646    0.0000   -0.0000   -0.1311   -0.0035
          56   -0.0519    0.0053   -0.0105   -0.0636    0.0000   -0.0001   -0.0539   -0.0015
          57    0.0405    0.0147   -0.0331   -0.0393    0.0000   -0.0000   -0.1989   -0.0054
          58    0.0265    0.0009    0.0025   -0.0337    0.0000    0.0009    0.0058    0.0001
          59    0.0146   -0.0066    0.0290   -0.0815   -0.0000   -0.0016   -0.1759   -0.0013
          60    0.0354    0.0126   -0.0376    0.0434    0.0000    0.0031    0.2796    0.0022


   Root No.      49        50        51        52        53        54

                49 A      50 A      51 A      52 A      53 A      54 A   

                3056.5    3070.0    3077.1    3077.4    3120.1    3138.7
  
           1    0.0001    0.0002   -0.0001   -0.0002   -0.0000   -0.0005
           2    0.0001    0.0001   -0.0005   -0.0001   -0.0002    0.0003
           3   -0.0001    0.0002    0.0001   -0.0006    0.0003   -0.0010
           4   -0.0003   -0.0005    0.0156    0.0116   -0.0001    0.0014
           5    0.0001    0.0003   -0.0076   -0.0056   -0.0000   -0.0001
           6    0.0003    0.0007   -0.0216   -0.0163    0.0004   -0.0018
           7   -0.0001   -0.0001    0.0003   -0.0000    0.0001    0.0000
           8   -0.0010   -0.0009    0.0002   -0.0009    0.0001    0.0001
           9   -0.0013   -0.0016   -0.0002   -0.0020   -0.0000   -0.0002
          10    0.0002   -0.0000    0.0016    0.0012   -0.0002    0.0019
          11   -0.0000    0.0000   -0.0013   -0.0010    0.0001   -0.0003
          12    0.0001    0.0000    0.0000    0.0000   -0.0002    0.0006
          13    0.0001   -0.0001    0.0003    0.0003   -0.0324   -0.0446
          14    0.0000   -0.0000    0.0000    0.0000   -0.0043   -0.0037
          15    0.0001   -0.0001   -0.0001    0.0001    0.0091    0.0070
          16    0.0128   -0.0132   -0.0076    0.0085   -0.0001   -0.0000
          17    0.0171   -0.0190   -0.0113    0.0125   -0.0000   -0.0001
          18   -0.0009    0.0032    0.0022   -0.0024    0.0001    0.0002
          19   -0.0084   -0.0143    0.0055   -0.0066   -0.0000    0.0000
          20   -0.0147   -0.0233    0.0085   -0.0107   -0.0000   -0.0000
          21    0.0003   -0.0020    0.0011   -0.0012   -0.0000    0.0000
          22   -0.0000    0.0000   -0.0001   -0.0001   -0.0005    0.0050
          23    0.0000   -0.0000    0.0001    0.0001    0.0159   -0.0137
          24   -0.0000    0.0000   -0.0004   -0.0003   -0.0398    0.0343
          25    0.0000    0.0019   -0.0007    0.0009    0.0000   -0.0000
          26    0.0080   -0.0071    0.0054   -0.0063    0.0000    0.0000
          27   -0.0121    0.0155   -0.0100    0.0116    0.0000   -0.0000
          28   -0.0123   -0.0058   -0.0070    0.0078    0.0000   -0.0000
          29   -0.0053   -0.0009   -0.0021    0.0023    0.0000    0.0000
          30   -0.0182   -0.0113   -0.0119    0.0132    0.0000   -0.0001
          31    0.0024    0.0057   -0.1839   -0.1381    0.0016   -0.0094
          32   -0.0011   -0.0027    0.0904    0.0680   -0.0007    0.0048
          33   -0.0035   -0.0081    0.2596    0.1947   -0.0018    0.0133
          34    0.0002    0.0003   -0.0008   -0.0004    0.0000    0.0000
          35    0.0096    0.0110    0.0045    0.0147    0.0001    0.0009
          36    0.0155    0.0185    0.0031    0.0205    0.0000    0.0010
          37   -0.0011    0.0004   -0.0149   -0.0109    0.0033   -0.0075
          38    0.0018   -0.0007    0.0236    0.0172   -0.0036    0.0110
          39    0.0003   -0.0000    0.0010    0.0007   -0.0018    0.0022
          40   -0.0012    0.0000   -0.0035   -0.0024    0.0031   -0.0066
          41   -0.0017    0.0000   -0.0070   -0.0050    0.0037   -0.0090
          42   -0.0012    0.0000   -0.0041   -0.0029    0.0011   -0.0053
          43    0.1000    0.1519   -0.0547    0.0676    0.0003   -0.0001
          44    0.1750    0.2642   -0.0949    0.1174    0.0004   -0.0002
          45   -0.0039   -0.0035    0.0011   -0.0013    0.0000   -0.0000
          46   -0.0000   -0.0001   -0.0072   -0.0049    0.3895    0.4608
          47    0.0001   -0.0001   -0.0010   -0.0006    0.0485    0.0564
          48    0.0002   -0.0002    0.0019    0.0015   -0.1037   -0.1199
          49   -0.1518    0.1548    0.0880   -0.0974    0.0000    0.0002
          50   -0.2039    0.2093    0.1192   -0.1319    0.0001    0.0005
          51    0.0126   -0.0150   -0.0087    0.0098    0.0003    0.0004
          52    0.0000    0.0000   -0.0001   -0.0001   -0.0035    0.0004
          53   -0.0000    0.0002   -0.0031   -0.0021   -0.1866    0.1434
          54    0.0000   -0.0004    0.0076    0.0051    0.4662   -0.3581
          55    0.1444    0.0715    0.0809   -0.0893   -0.0001    0.0003
          56    0.0619    0.0282    0.0339   -0.0373   -0.0001    0.0001
          57    0.2152    0.1105    0.1222   -0.1346   -0.0001    0.0004
          58    0.0012   -0.0046    0.0018   -0.0022    0.0000    0.0000
          59   -0.0936    0.0957   -0.0652    0.0755    0.0001   -0.0003
          60    0.1444   -0.1556    0.1030   -0.1194   -0.0001    0.0005


           MASS-WEIGHTED COORDINATE ANALYSIS (NORMAL COORDINATES)


   Root No.       1         2         3         4         5         6         7         8

                 1 A       2 A       3 A       4 A       5 A       6 A       7 A       8 A   

                 172.6     197.4     252.1     329.0     404.1     438.8     464.3     528.9
  
           1   -0.1974   -0.0200   -0.1361    0.1231   -0.2392    0.0407    0.0624    0.0466
           2    0.1808    0.0019   -0.2835   -0.0813    0.0193    0.0266   -0.1850   -0.0255
           3    0.1551   -0.0029   -0.0756   -0.1182    0.1305   -0.1395   -0.0917    0.1255
           4   -0.1944   -0.0348   -0.1264    0.1310   -0.2562    0.0367    0.0829   -0.0940
           5    0.1907   -0.1114   -0.1758    0.3274    0.0201    0.0095   -0.0786   -0.1122
           6   -0.0514   -0.1029   -0.1492    0.1502    0.0136   -0.2125    0.1104   -0.1288
           7   -0.1984    0.0432   -0.1849   -0.2676   -0.2357    0.0662   -0.1779    0.0559
           8    0.1911   -0.0454   -0.2273    0.1156    0.0055   -0.0028   -0.1542    0.0524
           9    0.1269    0.0298    0.0665    0.1545   -0.0147    0.1543   -0.0330   -0.1766
          10    0.0237   -0.0214    0.0804    0.0307    0.0032   -0.0413    0.1122   -0.1228
          11   -0.0738   -0.3126    0.1980   -0.2596    0.0745    0.2052   -0.0400   -0.0082
          12   -0.2464   -0.1912   -0.0898   -0.0602   -0.1087   -0.1710    0.1582   -0.0603
          13    0.0148   -0.0412    0.0573    0.0438   -0.0279   -0.1179    0.1146   -0.0748
          14   -0.0091    0.3189   -0.1751    0.0128    0.0568    0.2803    0.4051   -0.1242
          15    0.1462    0.1126    0.0367   -0.1086    0.2613   -0.1682    0.1973    0.0838
          16   -0.1560    0.1899   -0.2062    0.0509    0.2391   -0.0363   -0.0148    0.3162
          17    0.1251   -0.1652    0.0509   -0.1115   -0.2128   -0.2850    0.0442   -0.1583
          18    0.1513   -0.0947   -0.1272   -0.0652   -0.1653    0.0408   -0.1722    0.0477
          19   -0.0736   -0.2183    0.0212    0.0674    0.3373    0.1270   -0.2370   -0.1897
          20    0.0697    0.1406   -0.0454   -0.1008   -0.1251    0.0014   -0.0189    0.2992
          21    0.0449    0.1682    0.2092   -0.0107   -0.1325    0.2487    0.0568   -0.0496
          22    0.1362   -0.0206    0.1597   -0.0133    0.1181   -0.1035    0.0866   -0.0615
          23   -0.2117    0.2590    0.4085    0.1694   -0.1023    0.0124   -0.2525   -0.0140
          24   -0.1051    0.0635    0.1340    0.0292    0.0158   -0.3140   -0.0017    0.0977
          25    0.3363   -0.1341    0.2521    0.0973   -0.0783    0.1219    0.1033    0.2481
          26   -0.2336    0.1057    0.0177   -0.1333    0.1941   -0.2166    0.0016   -0.0524
          27   -0.1068    0.1245    0.0405   -0.0180    0.0337    0.3428   -0.1751   -0.1952
          28    0.2662    0.2575    0.0496   -0.2602    0.0060   -0.1052   -0.0946   -0.1073
          29   -0.1826   -0.1605    0.1451    0.0943    0.1142   -0.0974    0.1364    0.1963
          30   -0.0494   -0.0909   -0.0642    0.0734    0.0434    0.2014   -0.1402    0.2834
          31   -0.0994   -0.0380   -0.0442    0.1161   -0.1217    0.0085    0.0675   -0.0879
          32    0.0888   -0.0283   -0.0368    0.2398   -0.0043    0.0341    0.0073   -0.1264
          33   -0.0581   -0.0508   -0.0521    0.0457   -0.0275   -0.0725    0.0529   -0.0475
          34   -0.0420    0.0483   -0.0660   -0.2217   -0.1015    0.0256   -0.1300    0.1114
          35    0.0548   -0.0470   -0.1115    0.0477    0.0348   -0.0566   -0.0556   -0.0098
          36    0.0344    0.0321    0.0522    0.0355   -0.0273    0.0835    0.0018   -0.0363
          37    0.0010   -0.1468    0.0150   -0.1799    0.0550    0.1023    0.1564   -0.0434
          38   -0.0164   -0.1823    0.0455   -0.1930    0.0618    0.1329    0.0720   -0.0090
          39   -0.1584   -0.1009    0.0340   -0.1515   -0.0579    0.0264    0.0745   -0.0025
          40    0.0346    0.1371    0.0527    0.1897   -0.0254   -0.1372   -0.0929   -0.0266
          41   -0.0569   -0.1833    0.1076   -0.2539    0.0568    0.1551    0.0608    0.0109
          42   -0.0547   -0.0905   -0.1241    0.0163   -0.0479   -0.0340    0.0920   -0.0469
          43   -0.0631   -0.1558    0.0160    0.1161    0.3110    0.0546   -0.1259   -0.1697
          44    0.0440    0.0945   -0.0183   -0.0855   -0.1597   -0.0113    0.0285    0.1531
          45    0.0156    0.0898    0.1235   -0.0447   -0.0801    0.0401    0.0870    0.0258
          46    0.0172   -0.0129    0.0310    0.0059    0.0096   -0.0435    0.0298   -0.0243
          47   -0.0042    0.1931   -0.1174    0.0264    0.0480    0.1876    0.3881   -0.0826
          48    0.0913    0.0745    0.0338   -0.0468    0.1565   -0.0357    0.1702   -0.0091
          49   -0.1078    0.1145   -0.1354    0.0339    0.2439    0.0330   -0.0566    0.1819
          50    0.0850   -0.0935    0.0687   -0.0459   -0.1991   -0.1121    0.0511   -0.1167
          51    0.0743   -0.0608   -0.0718   -0.0120   -0.1750    0.0335   -0.0612   -0.0399
          52    0.0867    0.0003    0.0821   -0.0266    0.0906   -0.0335    0.0049    0.0132
          53   -0.1269    0.1572    0.2575    0.1395   -0.0780   -0.0507   -0.1540    0.0078
          54   -0.0566    0.0512    0.0946    0.0445   -0.0143   -0.1138   -0.0323    0.0330
          55    0.1368    0.1592    0.0099   -0.1792    0.0396   -0.0591   -0.1069   -0.2232
          56   -0.0979   -0.0974    0.1019    0.1105    0.0199    0.0505    0.1073    0.1555
          57   -0.0414   -0.0684   -0.0326    0.0675   -0.0094    0.0568   -0.0074    0.1820
          58    0.1828   -0.1067    0.1535    0.1347   -0.0406    0.0896    0.1235    0.2112
          59   -0.1310    0.0802    0.0029   -0.0999    0.0664   -0.1000   -0.0160   -0.1663
          60   -0.0726    0.0685    0.0090   -0.0461    0.0170    0.0746   -0.0628   -0.1544


   Root No.       9        10        11        12        13        14        15        16

                 9 A      10 A      11 A      12 A      13 A      14 A      15 A      16 A   

                 593.0     687.1     740.0     755.6     777.3     815.8     839.8     895.8
  
           1    0.0918   -0.2141   -0.0886    0.0911   -0.0995    0.1365   -0.0298   -0.0655
           2   -0.3044    0.1523    0.1314    0.0453    0.0637    0.1523   -0.1525    0.0350
           3   -0.0878   -0.1846    0.0615   -0.0701    0.0480   -0.0736    0.0624   -0.1079
           4    0.0594   -0.1972    0.0627    0.0252   -0.1166   -0.1976    0.0241   -0.1794
           5    0.0790   -0.0500   -0.1764   -0.0730   -0.0264   -0.2193    0.0736    0.0458
           6   -0.0418    0.2170    0.1639   -0.1205    0.2050   -0.0633    0.0934    0.0090
           7   -0.1949    0.1207   -0.1962   -0.0529   -0.0057   -0.2421    0.1452    0.0853
           8   -0.0590    0.1378   -0.1751    0.0665    0.0866    0.1287    0.0194    0.0568
           9   -0.3332   -0.1371   -0.0588    0.0086    0.0539    0.0931   -0.0461    0.1772
          10   -0.0734    0.1319    0.3544   -0.0913    0.2361   -0.0272    0.1154   -0.0722
          11   -0.0146   -0.0776   -0.0384   -0.1464   -0.1724   -0.1557    0.1255    0.1852
          12   -0.0106    0.2318    0.1363    0.0216    0.0211    0.0137    0.0462    0.0911
          13   -0.0025    0.2259   -0.1347    0.1934   -0.1183    0.2481   -0.2277    0.2691
          14    0.0146    0.0478    0.1483   -0.0912   -0.1993    0.1353   -0.1012   -0.0218
          15    0.0096   -0.0759   -0.1644   -0.1051   -0.1617   -0.1561    0.1020   -0.2505
          16   -0.2118   -0.2814   -0.0394   -0.1402    0.0660    0.2522    0.0970   -0.1518
          17   -0.1920   -0.2618    0.0342    0.0928   -0.0162   -0.0153   -0.1250   -0.2260
          18    0.2023   -0.2264    0.1660    0.0684    0.0295    0.0096   -0.1250    0.0195
          19    0.1898    0.1463   -0.1393   -0.1240    0.0586   -0.0502   -0.1586   -0.1707
          20    0.3042    0.3421   -0.0176    0.1831   -0.0105    0.0511    0.1894   -0.2976
          21   -0.1599   -0.0151    0.0064    0.0203   -0.0671    0.0242    0.0519    0.0271
          22   -0.0517    0.1329    0.0193   -0.0078    0.0289    0.0113   -0.0042    0.0233
[...]
 TRAVEL      0.1259         C 10 -- H 19          +8.1% ( 35.6%)      2.5%
 RED. MASS   0.2032         C  5 -- H 16          +7.8% ( 35.0%)      0.5%
 EFF. MASS   3.5000

 VIBRATION   34   34A         ATOM PAIR      ENERGY CONTRIBUTION    RADIAL
 FREQ.      1228.70         C  3 -- H 12         +13.1% ( 44.5%)      0.4%
 T-DIPOLE    0.0490         C  6 -- H 17          +8.6% ( 36.2%)      0.4%
 TRAVEL      0.1356         C  9 -- H 20          +8.3% ( 35.5%)      0.4%
 RED. MASS   0.1641         C  5 -- H 16          +7.2% ( 32.9%)      0.1%
 EFF. MASS   2.9849

 VIBRATION   35   35A         ATOM PAIR      ENERGY CONTRIBUTION    RADIAL
 FREQ.      1262.11         C  2 -- H 11         +18.1% ( 64.2%)      0.3%
 T-DIPOLE    0.2388         C  2 -- C  4         +13.4% ( 55.2%)     83.1%
 TRAVEL      0.0840         C  1 -- C  2         +10.0% ( 47.8%)     15.5%
 RED. MASS   0.9772         C  2 -- C  3          +9.4% ( 46.2%)     37.9%
 EFF. MASS   7.5717

 VIBRATION   36   36A         ATOM PAIR      ENERGY CONTRIBUTION    RADIAL
 FREQ.      1340.05         C  2 -- C  4         +17.2% ( 64.5%)     66.9%
 T-DIPOLE    0.1645         C  4 -- C  8         +15.8% ( 62.0%)     73.8%
 TRAVEL      0.0735         C  4 -- H 13         +14.7% ( 59.7%)      0.1%
 RED. MASS   2.2407         C  4 -- H 14         +13.7% ( 57.6%)      0.0%
 EFF. MASS   9.3100

 VIBRATION   37   37A         ATOM PAIR      ENERGY CONTRIBUTION    RADIAL
 FREQ.      1356.67         C  1 -- C  5         +13.0% ( 51.5%)     89.4%
 T-DIPOLE    0.2634         C  5 -- C  8         +10.3% ( 45.7%)      0.0%
 TRAVEL      0.0781         C  4 -- C  8          +9.0% ( 42.8%)     86.2%
 RED. MASS   0.8034         C  5 -- H 16          +6.6% ( 36.6%)     10.3%
 EFF. MASS   8.1422

 VIBRATION   38   38A         ATOM PAIR      ENERGY CONTRIBUTION    RADIAL
 FREQ.      1395.18         C  4 -- H 14         +24.3% ( 59.9%)      5.9%
 T-DIPOLE    0.0353         C  4 -- H 13         +23.8% ( 59.2%)      6.4%
 TRAVEL      0.1008         C  4 -- C  8         +14.8% ( 46.6%)     72.8%
 RED. MASS   0.7581         C  2 -- C  4         +12.4% ( 42.7%)     52.6%
 EFF. MASS   4.7551

 VIBRATION   39   39A         ATOM PAIR      ENERGY CONTRIBUTION    RADIAL
 FREQ.      1423.04         C  9 -- C 10         +15.0% ( 59.2%)     96.7%
 T-DIPOLE    0.1843         C  3 -- C  7         +11.9% ( 52.8%)     93.3%
 TRAVEL      0.0694         C  7 -- C  9         +11.4% ( 51.6%)      0.1%
 RED. MASS   1.3407         C  9 -- H 20          +9.3% ( 46.6%)      5.0%
 EFF. MASS   9.8247

 VIBRATION   40   40A         ATOM PAIR      ENERGY CONTRIBUTION    RADIAL
 FREQ.      1497.57         C  1 -- C  5         +17.0% ( 67.4%)     97.3%
 T-DIPOLE    0.1832         C  1 -- C  3         +16.7% ( 66.9%)     18.3%
 TRAVEL      0.0639         C  1 -- C  6         +15.9% ( 65.3%)     78.9%
 RED. MASS   2.7142         C  1 -- C  2         +12.2% ( 57.2%)      4.7%
 EFF. MASS  11.0305

 VIBRATION   41   41A         ATOM PAIR      ENERGY CONTRIBUTION    RADIAL
 FREQ.      1581.71         C  1 -- C  3         +16.9% ( 67.3%)     97.4%
 T-DIPOLE    0.1444         C  1 -- C  2         +15.2% ( 63.8%)     81.9%
 TRAVEL      0.0602         C  1 -- C  6         +13.5% ( 60.1%)     88.5%
 RED. MASS   2.7353         C  2 -- C  3         +12.5% ( 57.9%)     90.3%
 EFF. MASS  11.7508

 VIBRATION   42   42A         ATOM PAIR      ENERGY CONTRIBUTION    RADIAL
 FREQ.      1803.65         C  5 -- C  8         +39.8% ( 94.0%)    100.0%
 T-DIPOLE    0.1197         C  1 -- C  5         +12.5% ( 52.8%)     25.5%
 TRAVEL      0.0560         C  4 -- C  8         +12.2% ( 51.9%)     24.6%
 RED. MASS   4.1934         C  8 -- H 18         +11.3% ( 50.1%)     10.0%
 EFF. MASS  11.9126         C  5 -- H 16         +11.2% ( 49.9%)     10.2%

 VIBRATION   43   43A         ATOM PAIR      ENERGY CONTRIBUTION    RADIAL
 FREQ.      1815.76         C  7 -- C  9         +20.6% ( 67.8%)     98.9%
 T-DIPOLE    0.2865         C  6 -- C 10         +18.1% ( 63.6%)     98.7%
 TRAVEL      0.0558         C  9 -- C 10         +15.0% ( 58.0%)     99.9%
 RED. MASS   2.3360         C  9 -- H 20          +6.9% ( 39.3%)      1.7%
 EFF. MASS  11.9480

 VIBRATION   44   44A         ATOM PAIR      ENERGY CONTRIBUTION    RADIAL
 FREQ.      1848.73         C  6 -- C 10         +22.2% ( 68.9%)     98.7%
 T-DIPOLE    0.1861         C  7 -- C  9         +21.1% ( 67.2%)     99.0%
 TRAVEL      0.0556         C  9 -- C 10         +11.8% ( 50.3%)      0.0%
 RED. MASS   2.6294         C  1 -- C  6          +8.8% ( 43.4%)     57.2%
 EFF. MASS  11.7896

 VIBRATION   45   45A         ATOM PAIR      ENERGY CONTRIBUTION    RADIAL
 FREQ.      2982.11         C  4 -- H 14         +52.6% ( 75.2%)     97.1%
 T-DIPOLE    0.0624         C  4 -- H 13         +45.0% ( 69.6%)     96.2%
 TRAVEL      0.1211         C  2 -- C  4          +1.1% ( 11.0%)      0.1%
 RED. MASS   0.5200         C  4 -- C  8          +1.1% ( 11.0%)      0.0%
 EFF. MASS   1.5421

 VIBRATION   46   46A         ATOM PAIR      ENERGY CONTRIBUTION    RADIAL
 FREQ.      3010.76         C  3 -- H 12         +95.6% ( 99.6%)    100.0%
 T-DIPOLE    0.2268         C  2 -- C  3          +1.2% ( 11.1%)     25.1%
 TRAVEL      0.1239         C  3 -- C  7          +1.2% ( 11.0%)     12.0%
 RED. MASS   0.9134         C  1 -- C  3          +1.2% ( 10.9%)     26.1%
 EFF. MASS   1.4594

 VIBRATION   47   47A         ATOM PAIR      ENERGY CONTRIBUTION    RADIAL
 FREQ.      3051.04         C  9 -- H 20         +47.4% ( 70.0%)    100.0%
 T-DIPOLE    0.1347         C 10 -- H 19         +25.9% ( 51.8%)    100.0%
 TRAVEL      0.1221         C  7 -- H 15         +17.2% ( 42.1%)    100.0%
 RED. MASS   0.3195         C  6 -- H 17          +6.9% ( 26.7%)     99.9%
 EFF. MASS   1.4818

 VIBRATION   48   48A         ATOM PAIR      ENERGY CONTRIBUTION    RADIAL
 FREQ.      3052.55         C  4 -- H 13         +52.7% ( 71.8%)     97.9%
 T-DIPOLE    0.1147         C  4 -- H 14         +45.1% ( 66.3%)     96.8%
 TRAVEL      0.1311         C  2 -- C  4          +0.7% (  8.3%)     29.9%
 RED. MASS   0.4797         C  4 -- C  8          +0.7% (  8.3%)     32.4%
 EFF. MASS   1.2853

 VIBRATION   49   49A         ATOM PAIR      ENERGY CONTRIBUTION    RADIAL
 FREQ.      3056.54         C 10 -- H 19         +33.5% ( 58.8%)    100.0%
 T-DIPOLE    0.3483         C  6 -- H 17         +30.6% ( 56.2%)    100.0%
 TRAVEL      0.1229         C  7 -- H 15         +19.2% ( 44.5%)    100.0%
 RED. MASS   0.2569         C  9 -- H 20         +14.0% ( 37.9%)    100.0%
 EFF. MASS   1.4617

 VIBRATION   50   50A         ATOM PAIR      ENERGY CONTRIBUTION    RADIAL
 FREQ.      3070.04         C  7 -- H 15         +42.0% ( 65.9%)    100.0%
 T-DIPOLE    0.4897         C  6 -- H 17         +30.8% ( 56.4%)    100.0%
 TRAVEL      0.1184         C  9 -- H 20         +15.2% ( 39.6%)     99.8%
 RED. MASS   0.3011         C 10 -- H 19          +8.2% ( 29.2%)     99.6%
 EFF. MASS   1.5665

 VIBRATION   51   51A         ATOM PAIR      ENERGY CONTRIBUTION    RADIAL
 FREQ.      3077.10         C  2 -- H 11         +57.8% ( 77.3%)    100.0%
 T-DIPOLE    0.3421         C 10 -- H 19         +12.0% ( 35.3%)    100.0%
 TRAVEL      0.1201         C  6 -- H 17         +11.8% ( 34.8%)     99.9%
 RED. MASS   0.3708         C  9 -- H 20          +7.9% ( 28.6%)    100.0%
 EFF. MASS   1.5188

 VIBRATION   52   52A         ATOM PAIR      ENERGY CONTRIBUTION    RADIAL
 FREQ.      3077.44         C  2 -- H 11         +37.9% ( 62.6%)    100.0%
 T-DIPOLE    0.2815         C 10 -- H 19         +17.1% ( 42.0%)    100.0%
 TRAVEL      0.1189         C  6 -- H 17         +16.8% ( 41.6%)     99.9%
 RED. MASS   0.2295         C  9 -- H 20         +12.4% ( 35.8%)    100.0%
 EFF. MASS   1.5504         C  7 -- H 15         +11.4% ( 34.3%)     99.9%

 VIBRATION   53   53A         ATOM PAIR      ENERGY CONTRIBUTION    RADIAL
 FREQ.      3120.09         C  8 -- H 18         +58.9% ( 78.0%)    100.0%
 T-DIPOLE    0.3899         C  5 -- H 16         +38.5% ( 63.0%)    100.0%
 TRAVEL      0.1213         C  5 -- C  8          +1.1% ( 10.9%)      0.9%
 RED. MASS   0.4856         C  4 -- C  8          +0.9% (  9.6%)     26.0%
 EFF. MASS   1.4677

 VIBRATION   54   54A         ATOM PAIR      ENERGY CONTRIBUTION    RADIAL
 FREQ.      3138.71         C  5 -- H 16         +58.0% ( 77.6%)     99.9%
 T-DIPOLE    0.3773         C  8 -- H 18         +37.6% ( 62.4%)     99.9%
 TRAVEL      0.1142         C  5 -- C  8          +2.4% ( 15.9%)     98.8%
 RED. MASS   0.4868         C  1 -- C  5          +1.1% ( 10.8%)     20.8%
 EFF. MASS   1.6473

      SYMMETRY NUMBER FOR POINT-GROUP C1  =  1


          SYSTEM IS A GROUND STATE



 InChI=1S/C10H10/c1-2-6-10-7-3-5-9(10)8(10)4-1/h1-4,6-9H,5H2


          MOLECULE IS NOT LINEAR

          THERE ARE 54 GENUINE VIBRATIONS IN THIS SYSTEM
          THIS THERMODYNAMICS CALCULATION IS LIMITED TO
          MOLECULES WHICH HAVE NO INTERNAL ROTATIONS




                    CALCULATED THERMODYNAMIC PROPERTIES
                                          *
   TEMP. (K)   PARTITION FUNCTION   H.O.F.    ENTHALPY  HEAT CAPACITY ENTROPY
                                   KCAL/MOL   CAL/MOLE    CAL/K/MOL  CAL/K/MOL


 298.00  VIB.     0.1167D+02                  2766.6535    24.7120    14.1671
         ROT.     0.4477D+06                   888.2813     2.9808    28.8381
         INT.     0.5226D+07                  3654.9348    27.6928    43.0052
         TRA.     0.1436D+28                  1480.4688     4.9680    40.5022
         TOT.                       71.047    5135.4037    32.6608    83.5073

 200.00  VIB.     0.3015D+01                   936.7162    12.9539     6.8767
         ROT.     0.2462D+06                   596.1620     2.9808    27.6494
         INT.     0.7422D+06                  1532.8782    15.9347    34.5261
         TRA.     0.7896D+27                   993.6033     4.9680    38.5210
         TOT.                       68.439    2526.4814    20.9028    73.0471

 210.00  VIB.     0.3400D+01                  1071.6764    14.0440     7.5349
         ROT.     0.2648D+06                   625.9700     2.9808    27.7949
         INT.     0.9004D+06                  1697.6465    17.0248    35.3298
         TRA.     0.8496D+27                  1043.2834     4.9680    38.7634
         TOT.                       68.653    2740.9299    21.9928    74.0932

 220.00  VIB.     0.3850D+01                  1217.7104    15.1683     8.2141
         ROT.     0.2840D+06                   655.7781     2.9808    27.9335
         INT.     0.1093D+07                  1873.4886    18.1491    36.1476
         TRA.     0.9110D+27                  1092.9636     4.9680    38.9945
         TOT.                       68.879    2966.4522    23.1171    75.1421

 230.00  VIB.     0.4379D+01                  1375.1458    16.3237     8.9137
         ROT.     0.3036D+06                   685.5862     2.9808    28.0660
         INT.     0.1329D+07                  2060.7321    19.3045    36.9797
         TRA.     0.9738D+27                  1142.6437     4.9680    39.2154
         TOT.                       69.115    3203.3758    24.2726    76.1951

 240.00  VIB.     0.5001D+01                  1544.2775    17.5069     9.6333
         ROT.     0.3236D+06                   715.3943     2.9808    28.1929
         INT.     0.1618D+07                  2259.6718    20.4877    37.8262
         TRA.     0.1038D+28                  1192.3239     4.9680    39.4268
         TOT.                       69.364    3451.9957    25.4557    77.2530

 250.00  VIB.     0.5735D+01                  1725.3636    18.7139    10.3724
         ROT.     0.3440D+06                   745.2024     2.9808    28.3146
         INT.     0.1973D+07                  2470.5660    21.6948    38.6870
         TRA.     0.1103D+28                  1242.0041     4.9680    39.6296
         TOT.                       69.625    3712.5701    26.6628    78.3166

 260.00  VIB.     0.6603D+01                  1918.6225    19.9408    11.1302
         ROT.     0.3649D+06                   775.0105     2.9808    28.4315
         INT.     0.2409D+07                  2693.6330    22.9216    39.5617
         TRA.     0.1170D+28                  1291.6842     4.9680    39.8245
         TOT.                       69.897    3985.3172    27.8896    79.3862

 270.00  VIB.     0.7631D+01                  2124.2319    21.1834    11.9061
         ROT.     0.3861D+06                   804.8186     2.9808    28.5440
         INT.     0.2947D+07                  2929.0505    24.1642    40.4500
         TRA.     0.1239D+28                  1341.3644     4.9680    40.0120
         TOT.                       70.182    4270.4149    29.1322    80.4620

 280.00  VIB.     0.8853D+01                  2342.3284    22.4376    12.6991
         ROT.     0.4078D+06                   834.6267     2.9808    28.6524
         INT.     0.3610D+07                  3176.9551    25.4184    41.3515
         TRA.     0.1308D+28                  1391.0445     4.9680    40.1926
         TOT.                       70.480    4567.9997    30.3864    81.5441

 290.00  VIB.     0.1031D+02                  2573.0087    23.6995    13.5084
         ROT.     0.4298D+06                   864.4348     2.9808    28.7570
         INT.     0.4430D+07                  3437.4435    26.6803    42.2654
         TRA.     0.1379D+28                  1440.7247     4.9680    40.3670
         TOT.                       70.790    4878.1682    31.6483    82.6324

 300.00  VIB.     0.1204D+02                  2816.3309    24.9653    14.3332
         ROT.     0.4522D+06                   894.2429     2.9808    28.8580
         INT.     0.5447D+07                  3710.5738    27.9462    43.1912
         TRA.     0.1451D+28                  1490.4049     4.9680    40.5354
         TOT.                       71.113    5200.9787    32.9142    83.7266

 310.00  VIB.     0.1412D+02                  3072.3170    26.2317    15.1725
         ROT.     0.4750D+06                   924.0510     2.9808    28.9558
         INT.     0.6709D+07                  3996.3681    29.2125    44.1282
         TRA.     0.1524D+28                  1540.0850     4.9680    40.6983
         TOT.                       71.449    5536.4531    34.1805    84.8265

 320.00  VIB.     0.1662D+02                  3340.9555    27.4953    16.0253
         ROT.     0.4982D+06                   953.8591     2.9808    29.0504
         INT.     0.8278D+07                  4294.8146    30.4761    45.0757
         TRA.     0.1598D+28                  1589.7652     4.9680    40.8560
         TOT.                       71.797    5884.5798    35.4441    85.9317

 330.00  VIB.     0.1961D+02                  3622.2040    28.7532    16.8906
         ROT.     0.5217D+06                   983.6672     2.9808    29.1421
         INT.     0.1023D+08                  4605.8712    31.7340    46.0327
         TRA.     0.1674D+28                  1639.4454     4.9680    41.0089
         TOT.                       72.157    6245.3165    36.7020    87.0416

 340.00  VIB.     0.2322D+02                  3915.9921    30.0028    17.7676
         ROT.     0.5456D+06                  1013.4753     2.9808    29.2311
         INT.     0.1267D+08                  4929.4675    32.9836    46.9987
         TRA.     0.1750D+28                  1689.1255     4.9680    41.1572
         TOT.                       72.531    6618.5930    37.9517    88.1559

 350.00  VIB.     0.2758D+02                  4222.2250    31.2418    18.6552
         ROT.     0.5699D+06                  1043.2834     2.9808    29.3175
         INT.     0.1572D+08                  5265.5084    34.2226    47.9727
         TRA.     0.1828D+28                  1738.8057     4.9680    41.3012
         TOT.                       72.916    7004.3141    39.1906    89.2739

 360.00  VIB.     0.3285D+02                  4540.7857    32.4681    19.5525
         ROT.     0.5944D+06                  1073.0915     2.9808    29.4015
         INT.     0.1953D+08                  5613.8772    35.4489    48.9540
         TRA.     0.1907D+28                  1788.4859     4.9680    41.4412
         TOT.                       73.314    7402.3630    40.4169    90.3952

 370.00  VIB.     0.3924D+02                  4871.5381    33.6799    20.4587
         ROT.     0.6194D+06                  1102.8996     2.9808    29.4832
         INT.     0.2430D+08                  5974.4377    36.6607    49.9418
         TRA.     0.1987D+28                  1838.1660     4.9680    41.5773
         TOT.                       73.725    7812.6037    41.6287    91.5191

 380.00  VIB.     0.4700D+02                  5214.3299    34.8757    21.3727
         ROT.     0.6447D+06                  1132.7077     2.9808    29.5627
         INT.     0.3030D+08                  6347.0376    37.8565    50.9354
         TRA.     0.2068D+28                  1887.8462     4.9680    41.7098
         TOT.                       74.147    8234.8838    42.8245    92.6452

 390.00  VIB.     0.5643D+02                  5568.9949    36.0543    22.2939
         ROT.     0.6703D+06                  1162.5158     2.9808    29.6401
         INT.     0.3783D+08                  6731.5107    39.0351    51.9340
         TRA.     0.2150D+28                  1937.5263     4.9680    41.8388
         TOT.                       74.581    8669.0371    44.0031    93.7729

 400.00  VIB.     0.6793D+02                  5935.3554    37.2147    23.2214
         ROT.     0.6962D+06                  1192.3239     2.9808    29.7156
         INT.     0.4730D+08                  7127.6793    40.1955    52.9370
         TRA.     0.2233D+28                  1987.2065     4.9680    41.9646
         TOT.                       75.027    9114.8858    45.1635    94.9016

   *: NOTE: HEATS OF FORMATION ARE RELATIVE TO THE
            ELEMENTS IN THEIR STANDARD STATE AT 298K
              (=  Standard Enthalpy of Formation).

            Hvib:  Zero-point energy is not included.
                   frequencies of less than zero cm-1 are not included.
            Hrot = (3/2)RT
            Htra = (3/2)RT + pV = (5/2)RT

            Heat capacity is Cp, not Cv

          For more information, see: HTTP://OpenMOPAC.net/Manual/thermochemistry.html


           FORCE CONSTANT IN CARTESIAN COORDINATES (Millidynes/A)

    ATOM   CHEMICAL       X               Y               Z
   NUMBER   SYMBOL  FORCE CONSTANT  FORCE CONSTANT  FORCE CONSTANT

      1       C        9.151435        6.043904       11.186898
      2       C        8.863411        6.508317        9.320063
      3       C        4.377386       10.801238       10.023225
      4       C        9.467273        8.133733        7.762961
      5       C       14.642700        3.530991        9.364104
      6       C        5.998587        9.316868       12.204044
      7       C        6.334559        8.985012       11.969050
      8       C       11.589586        3.872352       11.634620
      9       C        6.467720        8.591905       12.386884
     10       C        5.559290        9.449712       12.431164
     11       H        2.061232        0.940151        3.502928
     12       H        0.519013        2.222518        3.577705
     13       H        1.955217        3.703006        0.731760
     14       H        1.899378        2.697800        1.748133
     15       H        1.566643        3.974530        0.716584
     16       H        5.014794        0.457205        0.948253
     17       H        2.087064        3.458067        0.709116
     18       H        0.708817        1.046422        4.673511
     19       H        1.798059        0.864491        3.602012
     20       H        0.504891        1.903904        3.850481

 **********************
 *                    *
 * JOB ENDED NORMALLY *
 *                    *
 **********************



 TOTAL JOB TIME:             1.61 SECONDS

 == MOPAC DONE ==
