 *******************************************************************************
 ** Site#: 14399        For non-commercial use only    Version 18.184L 64BITS **
 *******************************************************************************
 ** Cite this program as: MOPAC2016, Version: 18.184L, James J. P. Stewart,   **
 ** Stewart Computational Chemistry, web: HTTP://OpenMOPAC.net. Days left:  18**
 *******************************************************************************
 **                                                                           **
 **                                MOPAC2016                                  **
 **                                                                           **
 *******************************************************************************

                              PM3 CALCULATION RESULTS

 *******************************************************************************
 *  CALCULATION DONE:                                Sat Jun 15 10:14:16 2019  *
 *  PM3        - The PM3 Hamiltonian to be used
 *  PRECISE    - CRITERIA TO BE INCREASED BY 100 TIMES
 *  NOSYM      - POINT-GROUP SYMMETRY SET TO C1
 *  THREADS=1  - MULTI-THREADING NOT USED
 *  T=         - A TIME OF 172800.0 SECONDS REQUESTED
 *  DUMP=N     - RESTART FILE WRITTEN EVERY  7200.000 SECONDS
 *******************************************************************************
pm3  precise nosym THREADS=1
 InChI=1S/C10H8/c1-3-9-7-5-6-8-10(9)4-2/h5-8H,1-2H2

   ATOM   CHEMICAL          X               Y               Z
  NUMBER   SYMBOL      (ANGSTROMS)     (ANGSTROMS)     (ANGSTROMS)
 
     1       C         -0.33500000  *  -0.61360000  *   0.13180000  *
     2       C          0.41690000  *   0.56420000  *  -0.11810000  *
     3       C          0.33640000  *  -1.81130000  *   0.42740000  *
     4       C          1.81940000  *   0.51190000  *  -0.06550000  *
     5       C          1.73210000  *  -1.84570000  *   0.47560000  *
     6       C          2.47130000  *  -0.68790000  *   0.23000000  *
     7       C         -2.95040000  *  -0.62120000  *   0.05810000  *
     8       C         -0.73800000  *   2.84450000  *  -0.67720000  *
     9       C         -1.64820000  *  -0.61880000  *   0.09510000  *
    10       C         -0.16170000  *   1.70970000  *  -0.39890000  *
    11       H         -0.21700000  *  -2.72380000  *   0.62180000  *
    12       H          2.41490000  *   1.39900000  *  -0.25290000  *
    13       H          2.24180000  *  -2.77290000  *   0.70410000  *
    14       H          3.55250000  *  -0.71970000  *   0.26850000  *
    15       H         -3.48560000  *   0.29090000  *  -0.16770000  *
    16       H         -3.49500000  *  -1.53480000  *   0.25300000  *
    17       H         -1.81680000  *   2.90510000  *  -0.72230000  *
    18       H         -0.13760000  *   3.72440000  *  -0.86280000  *
 


          CARTESIAN COORDINATES 

    NO.       ATOM           X           Y           Z

     1         C         -0.3350     -0.6136      0.1318
     2         C          0.4169      0.5642     -0.1181
     3         C          0.3364     -1.8113      0.4274
     4         C          1.8194      0.5119     -0.0655
     5         C          1.7321     -1.8457      0.4756
     6         C          2.4713     -0.6879      0.2300
     7         C         -2.9504     -0.6212      0.0581
     8         C         -0.7380      2.8445     -0.6772
     9         C         -1.6482     -0.6188      0.0951
    10         C         -0.1617      1.7097     -0.3989
    11         H         -0.2170     -2.7238      0.6218
    12         H          2.4149      1.3990     -0.2529
    13         H          2.2418     -2.7729      0.7041
    14         H          3.5525     -0.7197      0.2685
    15         H         -3.4856      0.2909     -0.1677
    16         H         -3.4950     -1.5348      0.2530
    17         H         -1.8168      2.9051     -0.7223
    18         H         -0.1376      3.7244     -0.8628

  H: (PM3): J. J. P. STEWART, J. COMP. CHEM. 10, 209 (1989).
  C: (PM3): J. J. P. STEWART, J. COMP. CHEM. 10, 209 (1989).

           Empirical Formula: C10 H8  =    18 atoms



      MOLECULAR POINT GROUP   :   C1  


      RHF CALCULATION, NO. OF DOUBLY OCCUPIED LEVELS = 24


          Geometry optimization using EF

          DIAGONAL MATRIX USED AS START HESSIAN

 CYCLE:     1 TIME:   0.004 TIME LEFT:  2.00D  GRAD.:   207.995 HEAT:  205.5257
 CYCLE:     2 TIME:   0.012 TIME LEFT:  2.00D  GRAD.:    54.917 HEAT:  200.5069
 CYCLE:     3 TIME:   0.008 TIME LEFT:  2.00D  GRAD.:    48.745 HEAT:  199.7277
 CYCLE:     4 TIME:   0.000 TIME LEFT:  2.00D  GRAD.:    72.740 HEAT:  199.4278
 CYCLE:     5 TIME:   0.004 TIME LEFT:  2.00D  GRAD.:    54.999 HEAT:  198.8834
 CYCLE:     6 TIME:   0.008 TIME LEFT:  2.00D  GRAD.:    48.781 HEAT:  198.5978
 CYCLE:     7 TIME:   0.000 TIME LEFT:  2.00D  GRAD.:    60.091 HEAT:  198.4500
 CYCLE:     8 TIME:   0.012 TIME LEFT:  2.00D  GRAD.:    21.648 HEAT:  197.8741
 CYCLE:     9 TIME:   0.004 TIME LEFT:  2.00D  GRAD.:    20.469 HEAT:  197.7667
 CYCLE:    10 TIME:   0.004 TIME LEFT:  2.00D  GRAD.:    11.325 HEAT:  197.6387
 CYCLE:    11 TIME:   0.004 TIME LEFT:  2.00D  GRAD.:    13.692 HEAT:  197.5517
 CYCLE:    12 TIME:   0.004 TIME LEFT:  2.00D  GRAD.:    16.334 HEAT:  197.5271
 CYCLE:    13 TIME:   0.004 TIME LEFT:  2.00D  GRAD.:     7.261 HEAT:  197.4624
 CYCLE:    14 TIME:   0.008 TIME LEFT:  2.00D  GRAD.:     6.348 HEAT:  197.4482
 CYCLE:    15 TIME:   0.004 TIME LEFT:  2.00D  GRAD.:     6.284 HEAT:  197.4382
 CYCLE:    16 TIME:   0.004 TIME LEFT:  2.00D  GRAD.:     4.007 HEAT:  197.4113
 CYCLE:    17 TIME:   0.004 TIME LEFT:  2.00D  GRAD.:     4.729 HEAT:  197.3638
 CYCLE:    18 TIME:   0.004 TIME LEFT:  2.00D  GRAD.:     8.966 HEAT:  197.2690
 CYCLE:    19 TIME:   0.008 TIME LEFT:  2.00D  GRAD.:    21.372 HEAT:  197.2363
 CYCLE:    20 TIME:   0.004 TIME LEFT:  2.00D  GRAD.:    14.512 HEAT:  197.0235
 CYCLE:    21 TIME:   0.004 TIME LEFT:  2.00D  GRAD.:    13.941 HEAT:  196.7120
 CYCLE:    22 TIME:   0.004 TIME LEFT:  2.00D  GRAD.:    25.369 HEAT:  196.1735
 CYCLE:    23 TIME:   0.008 TIME LEFT:  2.00D  GRAD.:    38.979 HEAT:  195.0211
 CYCLE:    24 TIME:   0.004 TIME LEFT:  2.00D  GRAD.:    99.864 HEAT:  194.5516
 CYCLE:    25 TIME:   0.004 TIME LEFT:  2.00D  GRAD.:    69.132 HEAT:  191.1694
 CYCLE:    26 TIME:   0.004 TIME LEFT:  2.00D  GRAD.:    69.617 HEAT:  186.4045
 CYCLE:    27 TIME:   0.004 TIME LEFT:  2.00D  GRAD.:    84.500 HEAT:  182.6513
 CYCLE:    28 TIME:   0.008 TIME LEFT:  2.00D  GRAD.:   132.599 HEAT:  172.1827
 CYCLE:    29 TIME:   0.004 TIME LEFT:  2.00D  GRAD.:   126.651 HEAT:  164.0573
 CYCLE:    30 TIME:   0.008 TIME LEFT:  2.00D  GRAD.:   159.879 HEAT:  161.0460
 CYCLE:    31 TIME:   0.004 TIME LEFT:  2.00D  GRAD.:   111.296 HEAT:  151.8559
 CYCLE:    32 TIME:   0.004 TIME LEFT:  2.00D  GRAD.:    86.513 HEAT:  144.4190
 CYCLE:    33 TIME:   0.004 TIME LEFT:  2.00D  GRAD.:   159.925 HEAT:  141.7994
 CYCLE:    34 TIME:   0.004 TIME LEFT:  2.00D  GRAD.:   105.350 HEAT:  135.9455
 CYCLE:    35 TIME:   0.012 TIME LEFT:  2.00D  GRAD.:   110.112 HEAT:  134.3963
 CYCLE:    36 TIME:   0.004 TIME LEFT:  2.00D  GRAD.:    30.404 HEAT:  130.8930
 CYCLE:    37 TIME:   0.004 TIME LEFT:  2.00D  GRAD.:    61.441 HEAT:  129.7665
 CYCLE:    38 TIME:   0.004 TIME LEFT:  2.00D  GRAD.:    73.164 HEAT:  127.8553
 CYCLE:    39 TIME:   0.004 TIME LEFT:  2.00D  GRAD.:    76.401 HEAT:  127.2761
 CYCLE:    40 TIME:   0.004 TIME LEFT:  2.00D  GRAD.:    80.244 HEAT:  127.0496
 CYCLE:    41 TIME:   0.004 TIME LEFT:  2.00D  GRAD.:    53.189 HEAT:  125.8159
 CYCLE:    42 TIME:   0.004 TIME LEFT:  2.00D  GRAD.:    27.560 HEAT:  125.0113
 CYCLE:    43 TIME:   0.004 TIME LEFT:  2.00D  GRAD.:    25.204 HEAT:  124.7868
 CYCLE:    44 TIME:   0.004 TIME LEFT:  2.00D  GRAD.:    18.900 HEAT:  124.6535
 CYCLE:    45 TIME:   0.004 TIME LEFT:  2.00D  GRAD.:     9.638 HEAT:  124.4997
 CYCLE:    46 TIME:   0.004 TIME LEFT:  2.00D  GRAD.:     8.059 HEAT:  124.4086
 CYCLE:    47 TIME:   0.004 TIME LEFT:  2.00D  GRAD.:     8.815 HEAT:  124.3171
 CYCLE:    48 TIME:   0.004 TIME LEFT:  2.00D  GRAD.:     6.227 HEAT:  124.2582
 CYCLE:    49 TIME:   0.004 TIME LEFT:  2.00D  GRAD.:     5.773 HEAT:  124.2190
 CYCLE:    50 TIME:   0.004 TIME LEFT:  2.00D  GRAD.:     5.422 HEAT:  124.1850
 CYCLE:    51 TIME:   0.004 TIME LEFT:  2.00D  GRAD.:     5.264 HEAT:  124.1427
 CYCLE:    52 TIME:   0.004 TIME LEFT:  2.00D  GRAD.:     4.200 HEAT:  124.1195
 CYCLE:    53 TIME:   0.004 TIME LEFT:  2.00D  GRAD.:     3.784 HEAT:  124.0991
 CYCLE:    54 TIME:   0.004 TIME LEFT:  2.00D  GRAD.:     2.349 HEAT:  124.0843
 CYCLE:    55 TIME:   0.004 TIME LEFT:  2.00D  GRAD.:     1.693 HEAT:  124.0774
 CYCLE:    56 TIME:   0.004 TIME LEFT:  2.00D  GRAD.:     2.061 HEAT:  124.0723
 CYCLE:    57 TIME:   0.004 TIME LEFT:  2.00D  GRAD.:     2.121 HEAT:  124.0674
 CYCLE:    58 TIME:   0.004 TIME LEFT:  2.00D  GRAD.:     1.515 HEAT:  124.0629
 CYCLE:    59 TIME:   0.004 TIME LEFT:  2.00D  GRAD.:     0.845 HEAT:  124.0608
 CYCLE:    60 TIME:   0.004 TIME LEFT:  2.00D  GRAD.:     0.862 HEAT:  124.0594
 CYCLE:    61 TIME:   0.004 TIME LEFT:  2.00D  GRAD.:     1.070 HEAT:  124.0585
 CYCLE:    62 TIME:   0.004 TIME LEFT:  2.00D  GRAD.:     1.057 HEAT:  124.0576
 CYCLE:    63 TIME:   0.004 TIME LEFT:  2.00D  GRAD.:     0.857 HEAT:  124.0566
 CYCLE:    64 TIME:   0.000 TIME LEFT:  2.00D  GRAD.:     0.634 HEAT:  124.0559
 CYCLE:    65 TIME:   0.008 TIME LEFT:  2.00D  GRAD.:     0.495 HEAT:  124.0550
 CYCLE:    66 TIME:   0.004 TIME LEFT:  2.00D  GRAD.:     0.442 HEAT:  124.0546
 CYCLE:    67 TIME:   0.004 TIME LEFT:  2.00D  GRAD.:     0.438 HEAT:  124.0539
 CYCLE:    68 TIME:   0.004 TIME LEFT:  2.00D  GRAD.:     0.381 HEAT:  124.0536
 CYCLE:    69 TIME:   0.004 TIME LEFT:  2.00D  GRAD.:     0.313 HEAT:  124.0533
 CYCLE:    70 TIME:   0.004 TIME LEFT:  2.00D  GRAD.:     0.225 HEAT:  124.0532
 CYCLE:    71 TIME:   0.000 TIME LEFT:  2.00D  GRAD.:     0.266 HEAT:  124.0530
 CYCLE:    72 TIME:   0.004 TIME LEFT:  2.00D  GRAD.:     0.302 HEAT:  124.0529
 CYCLE:    73 TIME:   0.004 TIME LEFT:  2.00D  GRAD.:     0.419 HEAT:  124.0526
 CYCLE:    74 TIME:   0.004 TIME LEFT:  2.00D  GRAD.:     0.412 HEAT:  124.0523
 CYCLE:    75 TIME:   0.004 TIME LEFT:  2.00D  GRAD.:     0.685 HEAT:  124.0513
 CYCLE:    76 TIME:   0.008 TIME LEFT:  2.00D  GRAD.:     0.444 HEAT:  124.0510
 CYCLE:    77 TIME:   0.004 TIME LEFT:  2.00D  GRAD.:     0.350 HEAT:  124.0505
 CYCLE:    78 TIME:   0.004 TIME LEFT:  2.00D  GRAD.:     0.262 HEAT:  124.0504
 CYCLE:    79 TIME:   0.004 TIME LEFT:  2.00D  GRAD.:     0.184 HEAT:  124.0503
 CYCLE:    80 TIME:   0.004 TIME LEFT:  2.00D  GRAD.:     0.143 HEAT:  124.0502
 CYCLE:    81 TIME:   0.004 TIME LEFT:  2.00D  GRAD.:     0.252 HEAT:  124.0502
 CYCLE:    82 TIME:   0.004 TIME LEFT:  2.00D  GRAD.:     0.123 HEAT:  124.0501
 CYCLE:    83 TIME:   0.000 TIME LEFT:  2.00D  GRAD.:     0.103 HEAT:  124.0501
 CYCLE:    84 TIME:   0.004 TIME LEFT:  2.00D  GRAD.:     0.112 HEAT:  124.0501
 CYCLE:    85 TIME:   0.004 TIME LEFT:  2.00D  GRAD.:     0.116 HEAT:  124.0500
 CYCLE:    86 TIME:   0.004 TIME LEFT:  2.00D  GRAD.:     0.099 HEAT:  124.0500
 CYCLE:    87 TIME:   0.008 TIME LEFT:  2.00D  GRAD.:     0.130 HEAT:  124.0500
 CYCLE:    88 TIME:   0.004 TIME LEFT:  2.00D  GRAD.:     0.100 HEAT:  124.0499
 CYCLE:    89 TIME:   0.004 TIME LEFT:  2.00D  GRAD.:     0.119 HEAT:  124.0499
 CYCLE:    90 TIME:   0.004 TIME LEFT:  2.00D  GRAD.:     0.156 HEAT:  124.0499
 CYCLE:    91 TIME:   0.004 TIME LEFT:  2.00D  GRAD.:     0.134 HEAT:  124.0498
 CYCLE:    92 TIME:   0.004 TIME LEFT:  2.00D  GRAD.:     0.383 HEAT:  124.0498
 CYCLE:    93 TIME:   0.000 TIME LEFT:  2.00D  GRAD.:     0.169 HEAT:  124.0496
 CYCLE:    94 TIME:   0.004 TIME LEFT:  2.00D  GRAD.:     0.159 HEAT:  124.0495
 CYCLE:    95 TIME:   0.004 TIME LEFT:  2.00D  GRAD.:     0.190 HEAT:  124.0494
 CYCLE:    96 TIME:   0.004 TIME LEFT:  2.00D  GRAD.:     0.077 HEAT:  124.0493
 CYCLE:    97 TIME:   0.008 TIME LEFT:  2.00D  GRAD.:     0.120 HEAT:  124.0493
 CYCLE:    98 TIME:   0.004 TIME LEFT:  2.00D  GRAD.:     0.038 HEAT:  124.0493

     GRADIENT =  0.03829  IS LESS THAN CUTOFF =  0.05000



 -------------------------------------------------------------------------------
 pm3  precise nosym THREADS=1
 InChI=1S/C10H8/c1-3-9-7-5-6-8-10(9)4-2/h5-8H,1-2H2



     GEOMETRY OPTIMISED USING EIGENVECTOR FOLLOWING (EF).     
     SCF FIELD WAS ACHIEVED                                   


                              PM3 CALCULATION
                                                       MOPAC2016 (Version: 18.184L)
                                                       Sat Jun 15 10:14:16 2019
                                                       No. of days remaining =  18




          FINAL HEAT OF FORMATION =        124.04930 KCAL/MOL =     519.02226 KJ/MOL


          TOTAL ENERGY            =      -1303.68629 EV
          ELECTRONIC ENERGY       =      -6376.99582 EV  POINT GROUP:     C1  
          CORE-CORE REPULSION     =       5073.30952 EV
          COSMO AREA              =        180.96 SQUARE ANGSTROMS
          COSMO VOLUME            =        177.14 CUBIC ANGSTROMS

          GRADIENT NORM           =          0.03829 = 0.00903 PER ATOM
          IONIZATION POTENTIAL    =          8.118718 EV
          HOMO LUMO ENERGIES (EV) =         -8.119 -0.719
          NO. OF FILLED LEVELS    =         24
          MOLECULAR WEIGHT        =        128.1732

          MOLECULAR DIMENSIONS (Angstroms)

            Atom       Atom       Distance
            H    16    H    14     7.19100
            H    13    H    17     6.43935
            H    18    H    15     2.96609


          SCF CALCULATIONS        =        109
 
          WALL-CLOCK TIME         =          0.434 SECONDS
          COMPUTATION TIME        =          0.392 SECONDS




   ATOM   CHEMICAL          X               Y               Z
  NUMBER   SYMBOL      (ANGSTROMS)     (ANGSTROMS)     (ANGSTROMS)
 
     1       C         -0.36195557  *  -0.62476895  *   0.13258286  *
     2       C          0.41462396  *   0.59280993  *  -0.12504225  *
     3       C          0.37077947  *  -1.84354259  *   0.45643337  *
     4       C          1.86791273  *   0.50396585  *  -0.03954322  *
     5       C          1.71475872  *  -1.85418530  *   0.51820022  *
     6       C          2.47944665  *  -0.65512723  *   0.26503021  *
     7       C         -2.97163180  *  -0.66376574  *   0.02854887  *
     8       C         -0.71755306  *   2.86999415  *  -0.72119175  *
     9       C         -1.68003414  *  -0.64144690  *   0.07917777  *
    10       C         -0.15999475  *   1.74162794  *  -0.42586898  *
    11       H         -0.21645396  *  -2.74835238  *   0.64713217  *
    12       H          2.44034967  *   1.41763360  *  -0.23301995  *
    13       H          2.26327696  *  -2.76991326  *   0.76143796  *
    14       H          3.57043937  *  -0.72030972  *   0.32897240  *
    15       H         -3.59225277  *  -0.45914393  *   0.89760220  *
    16       H         -3.51514051  *  -0.88613102  *  -0.88656397  *
    17       H         -1.00943324  *   3.59193508  *   0.03768592  *
    18       H         -0.93036882  *   3.16401856  *  -1.74616112  *

                             CARTESIAN COORDINATES

   1    C       -0.361955572    -0.624768949     0.132582858
   2    C        0.414623960     0.592809932    -0.125042246
   3    C        0.370779466    -1.843542586     0.456433368
   4    C        1.867912734     0.503965852    -0.039543219
   5    C        1.714758715    -1.854185299     0.518200217
   6    C        2.479446652    -0.655127235     0.265030210
   7    C       -2.971631803    -0.663765738     0.028548873
   8    C       -0.717553061     2.869994147    -0.721191746
   9    C       -1.680034139    -0.641446900     0.079177773
  10    C       -0.159994749     1.741627945    -0.425868975
  11    H       -0.216453957    -2.748352380     0.647132168
  12    H        2.440349666     1.417633604    -0.233019947
  13    H        2.263276958    -2.769913258     0.761437956
  14    H        3.570439370    -0.720309720     0.328972397
  15    H       -3.592252766    -0.459143928     0.897602204
  16    H       -3.515140506    -0.886131018    -0.886563969
  17    H       -1.009433235     3.591935084     0.037685923
  18    H       -0.930368819     3.164018562    -1.746161124


           Empirical Formula: C10 H8  =    18 atoms



      MOLECULAR POINT GROUP   :   C1  


                  EIGENVALUES  
 -39.60305 -33.34510 -32.76220 -29.08017 -28.18991 -23.53023 -21.91866 -19.62209
 -18.01398 -17.09567 -16.59870 -16.31976 -15.42953 -15.37134 -15.11944 -14.70466
 -13.13676 -12.98222 -12.57935 -10.75999 -10.52791 -10.49360 -10.34808  -8.11872
  -0.71947   0.95881   1.12593   1.18146   1.19889   2.76705   2.85205   2.94733
   3.35572   3.61623   3.62968   3.78699   4.04841   4.12725   4.60694   4.82699
   4.88270   5.02934   5.04302   5.25631   5.82681   6.26240   6.29110   6.70741


              NET ATOMIC CHARGES AND DIPOLE CONTRIBUTIONS

  ATOM NO.   TYPE          CHARGE      No. of ELECS.   s-Pop       p-Pop       
    1          C           0.030551        3.9694     1.12937     2.84008
    2          C           0.030555        3.9694     1.12937     2.84007
    3          C          -0.082104        4.0821     1.17917     2.90294
    4          C          -0.082087        4.0821     1.17917     2.90292
    5          C          -0.105098        4.1051     1.17936     2.92574
    6          C          -0.105080        4.1051     1.17935     2.92573
    7          C          -0.080891        4.0809     1.14653     2.93436
    8          C          -0.080889        4.0809     1.14653     2.93436
    9          C          -0.162032        4.1620     1.21317     2.94886
   10          C          -0.162033        4.1620     1.21317     2.94886
   11          H           0.104793        0.8952     0.89521
   12          H           0.104795        0.8952     0.89520
   13          H           0.102386        0.8976     0.89761
   14          H           0.102390        0.8976     0.89761
   15          H           0.096179        0.9038     0.90382
   16          H           0.096194        0.9038     0.90381
   17          H           0.096189        0.9038     0.90381
   18          H           0.096183        0.9038     0.90382
 DIPOLE           X         Y         Z       TOTAL
 POINT-CHG.    -0.318     0.190    -0.059     0.375
 HYBRID        -0.123     0.074    -0.023     0.146
 SUM           -0.442     0.264    -0.082     0.521


          ATOMIC ORBITAL ELECTRON POPULATIONS

     Atom    s        px        py        pz   
    1  C   1.12937   0.88474   0.92991   1.02543
    2  C   1.12937   0.92328   0.89378   1.02302
    3  C   1.17917   0.94941   0.95626   0.99727
    4  C   1.17917   0.92865   0.97572   0.99855
    5  C   1.17936   0.94978   0.97061   1.00536
    6  C   1.17935   0.98065   0.94164   1.00343
    7  C   1.14653   0.91331   1.01569   1.00536
    8  C   1.14653   0.99597   0.93817   1.00021
    9  C   1.21317   0.95984   0.99415   0.99488
   10  C   1.21317   0.98817   0.96758   0.99312
   11  H   0.89521
   12  H   0.89520
   13  H   0.89761
   14  H   0.89761
   15  H   0.90382
   16  H   0.90381
   17  H   0.90381
   18  H   0.90382
 *******************************************************************************
 ** Site#: 14399        For non-commercial use only    Version 18.184L 64BITS **
 *******************************************************************************
 ** Cite this program as: MOPAC2016, Version: 18.184L, James J. P. Stewart,   **
 ** Stewart Computational Chemistry, web: HTTP://OpenMOPAC.net. Days left:  18**
 *******************************************************************************
 **                                                                           **
 **                                MOPAC2016                                  **
 **                                                                           **
 *******************************************************************************

                              PM3 CALCULATION RESULTS

 *******************************************************************************
 *  CALCULATION DONE:                                Sat Jun 15 10:14:16 2019  *
 *  PM3        - The PM3 Hamiltonian to be used
 *  OLDGEO     - PREVIOUS GEOMETRY TO BE USED
 *  PRECISE    - CRITERIA TO BE INCREASED BY 100 TIMES
 *  NOSYM      - POINT-GROUP SYMMETRY SET TO C1
 *  THREADS=1  - MULTI-THREADING NOT USED
 *  T=         - A TIME OF 172800.0 SECONDS REQUESTED
 *  DUMP=N     - RESTART FILE WRITTEN EVERY  7200.000 SECONDS
 *  THERMO     - THERMODYNAMIC QUANTITIES TO BE CALCULATED
 *******************************************************************************
oldgeo thermo nosym precise THREADS=1  pm3
 InChI=1S/C10H8/c1-3-9-7-5-6-8-10(9)4-2/h5-8H,1-2H2

   ATOM   CHEMICAL          X               Y               Z
  NUMBER   SYMBOL      (ANGSTROMS)     (ANGSTROMS)     (ANGSTROMS)
 
     1       C         -0.36195557  *  -0.62476895  *   0.13258286  *
     2       C          0.41462396  *   0.59280993  *  -0.12504225  *
     3       C          0.37077947  *  -1.84354259  *   0.45643337  *
     4       C          1.86791273  *   0.50396585  *  -0.03954322  *
     5       C          1.71475872  *  -1.85418530  *   0.51820022  *
     6       C          2.47944665  *  -0.65512723  *   0.26503021  *
     7       C         -2.97163180  *  -0.66376574  *   0.02854887  *
     8       C         -0.71755306  *   2.86999415  *  -0.72119175  *
     9       C         -1.68003414  *  -0.64144690  *   0.07917777  *
    10       C         -0.15999475  *   1.74162794  *  -0.42586898  *
    11       H         -0.21645396  *  -2.74835238  *   0.64713217  *
    12       H          2.44034967  *   1.41763360  *  -0.23301995  *
    13       H          2.26327696  *  -2.76991326  *   0.76143796  *
    14       H          3.57043937  *  -0.72030972  *   0.32897240  *
    15       H         -3.59225277  *  -0.45914393  *   0.89760220  *
    16       H         -3.51514051  *  -0.88613102  *  -0.88656397  *
    17       H         -1.00943324  *   3.59193508  *   0.03768592  *
    18       H         -0.93036882  *   3.16401856  *  -1.74616112  *
 


          CARTESIAN COORDINATES 

    NO.       ATOM           X           Y           Z

     1         C         -0.3620     -0.6248      0.1326
     2         C          0.4146      0.5928     -0.1250
     3         C          0.3708     -1.8435      0.4564
     4         C          1.8679      0.5040     -0.0395
     5         C          1.7148     -1.8542      0.5182
     6         C          2.4794     -0.6551      0.2650
     7         C         -2.9716     -0.6638      0.0285
     8         C         -0.7176      2.8700     -0.7212
     9         C         -1.6800     -0.6414      0.0792
    10         C         -0.1600      1.7416     -0.4259
    11         H         -0.2165     -2.7484      0.6471
    12         H          2.4403      1.4176     -0.2330
    13         H          2.2633     -2.7699      0.7614
    14         H          3.5704     -0.7203      0.3290
    15         H         -3.5923     -0.4591      0.8976
    16         H         -3.5151     -0.8861     -0.8866
    17         H         -1.0094      3.5919      0.0377
    18         H         -0.9304      3.1640     -1.7462

  H: (PM3): J. J. P. STEWART, J. COMP. CHEM. 10, 209 (1989).
  C: (PM3): J. J. P. STEWART, J. COMP. CHEM. 10, 209 (1989).

           Empirical Formula: C10 H8  =    18 atoms



      MOLECULAR POINT GROUP   :   C1  


      RHF CALCULATION, NO. OF DOUBLY OCCUPIED LEVELS = 24



          HEAT OF FORMATION =     124.049298 KCALS/MOLE


          CARTESIAN COORDINATE DERIVATIVES

   NUMBER  ATOM         X            Y            Z

     1       C     -0.001011     0.017322     0.004695
     2       C     -0.004818     0.010196    -0.001651
     3       C      0.004626    -0.012613    -0.000745
     4       C      0.004118    -0.008993     0.006078
     5       C      0.018183     0.009175     0.003000
     6       C     -0.009590     0.011555    -0.005469
     7       C      0.004952     0.008943     0.006956
     8       C     -0.004251     0.005855    -0.005419
     9       C     -0.006161    -0.018053    -0.002100
    10       C     -0.001353    -0.019040    -0.001030
    11       H      0.000648     0.005944    -0.003866
    12       H      0.006704     0.001543     0.001397
    13       H     -0.018765    -0.011901     0.002337
    14       H      0.002779     0.000392    -0.003539
    15       H      0.003200     0.005890     0.000645
    16       H      0.001763    -0.003407    -0.006458
    17       H     -0.000734    -0.003079     0.004834
    18       H     -0.000290     0.000272     0.000334
 


          GRADIENT NORM =   0.05632

          MOLECULAR WEIGHT =  128.17



          ROTATIONAL CONSTANTS IN CM(-1)

          A =    0.06128747   B =    0.04327491   C =    0.02562692



           PRINCIPAL MOMENTS OF INERTIA IN UNITS OF 10**(-40)*GRAM-CM**2

          A =      456.7455   B =      646.8592   C =     1092.3192


          ORIENTATION OF MOLECULE IN FORCE CALCULATION

    NO.       ATOM         X         Y         Z

     1          C      -0.7334   -0.0655    0.0001
     2          C       0.7335   -0.0655    0.0001
     3          C      -1.4140    1.2244    0.0001
     4          C       1.4141    1.2245   -0.0006
     5          C      -0.7222    2.3784   -0.0004
     6          C       0.7223    2.3784   -0.0009
     7          C      -2.1291   -2.2735   -0.0005
     8          C       2.1289   -2.2736    0.0015
     9          C      -1.4357   -1.1824   -0.0001
    10          C       1.4357   -1.1824    0.0007
    11          H      -2.5094    1.2157    0.0004
    12          H       2.5095    1.2157   -0.0009
    13          H      -1.2346    3.3459   -0.0004
    14          H       1.2345    3.3460   -0.0016
    15          H      -2.4404   -2.7654   -0.9189
    16          H      -2.4406   -2.7662    0.9173
    17          H       2.4403   -2.7667   -0.9162
    18          H       2.4403   -2.7653    0.9199


    FIRST DERIVATIVES WILL BE USED IN THE CALCULATION OF SECOND DERIVATIVES

    FOR POINT-GROUP C1   THERE ARE   1 UNIQUE SYMMETRY FUNCTIONS.

 STEP:   1 TIME =     0.02 SECS, INTEGRAL =      0.02 TIME LEFT: 172799.98
 STEP:   2 TIME =     0.02 SECS, INTEGRAL =      0.04 TIME LEFT: 172799.96
 STEP:   3 TIME =     0.02 SECS, INTEGRAL =      0.05 TIME LEFT: 172799.95
 STEP:   4 TIME =     0.02 SECS, INTEGRAL =      0.07 TIME LEFT: 172799.93
 STEP:   5 TIME =     0.02 SECS, INTEGRAL =      0.09 TIME LEFT: 172799.91
 STEP:   6 TIME =     0.02 SECS, INTEGRAL =      0.10 TIME LEFT: 172799.90
 STEP:   7 TIME =     0.02 SECS, INTEGRAL =      0.12 TIME LEFT: 172799.88
 STEP:   8 TIME =     0.02 SECS, INTEGRAL =      0.13 TIME LEFT: 172799.87
 STEP:   9 TIME =     0.02 SECS, INTEGRAL =      0.15 TIME LEFT: 172799.85
 STEP:  10 TIME =     0.02 SECS, INTEGRAL =      0.17 TIME LEFT: 172799.83
 STEP:  11 TIME =     0.02 SECS, INTEGRAL =      0.18 TIME LEFT: 172799.82
 STEP:  12 TIME =     0.02 SECS, INTEGRAL =      0.20 TIME LEFT: 172799.80
 STEP:  13 TIME =     0.02 SECS, INTEGRAL =      0.22 TIME LEFT: 172799.78
 STEP:  14 TIME =     0.02 SECS, INTEGRAL =      0.24 TIME LEFT: 172799.76
 STEP:  15 TIME =     0.02 SECS, INTEGRAL =      0.25 TIME LEFT: 172799.75
 STEP:  16 TIME =     0.02 SECS, INTEGRAL =      0.27 TIME LEFT: 172799.73
 STEP:  17 TIME =     0.02 SECS, INTEGRAL =      0.29 TIME LEFT: 172799.71
 STEP:  18 TIME =     0.02 SECS, INTEGRAL =      0.30 TIME LEFT: 172799.70
 STEP:  19 TIME =     0.02 SECS, INTEGRAL =      0.32 TIME LEFT: 172799.68
 STEP:  20 TIME =     0.02 SECS, INTEGRAL =      0.34 TIME LEFT: 172799.66
 STEP:  21 TIME =     0.02 SECS, INTEGRAL =      0.36 TIME LEFT: 172799.64
 STEP:  22 TIME =     0.02 SECS, INTEGRAL =      0.37 TIME LEFT: 172799.63
 STEP:  23 TIME =     0.02 SECS, INTEGRAL =      0.39 TIME LEFT: 172799.61
 STEP:  24 TIME =     0.02 SECS, INTEGRAL =      0.41 TIME LEFT: 172799.59
 STEP:  25 TIME =     0.02 SECS, INTEGRAL =      0.42 TIME LEFT: 172799.58
 STEP:  26 TIME =     0.02 SECS, INTEGRAL =      0.44 TIME LEFT: 172799.56
 STEP:  27 TIME =     0.02 SECS, INTEGRAL =      0.46 TIME LEFT: 172799.54
 STEP:  28 TIME =     0.02 SECS, INTEGRAL =      0.47 TIME LEFT: 172799.53
 STEP:  29 TIME =     0.02 SECS, INTEGRAL =      0.49 TIME LEFT: 172799.51
 STEP:  30 TIME =     0.02 SECS, INTEGRAL =      0.51 TIME LEFT: 172799.49
 STEP:  31 TIME =     0.02 SECS, INTEGRAL =      0.53 TIME LEFT: 172799.47
 STEP:  32 TIME =     0.02 SECS, INTEGRAL =      0.54 TIME LEFT: 172799.46
 STEP:  33 TIME =     0.02 SECS, INTEGRAL =      0.56 TIME LEFT: 172799.44
 STEP:  34 TIME =     0.02 SECS, INTEGRAL =      0.58 TIME LEFT: 172799.42
 STEP:  35 TIME =     0.02 SECS, INTEGRAL =      0.59 TIME LEFT: 172799.41
 STEP:  36 TIME =     0.02 SECS, INTEGRAL =      0.61 TIME LEFT: 172799.39
 STEP:  37 TIME =     0.02 SECS, INTEGRAL =      0.63 TIME LEFT: 172799.37
 STEP:  38 TIME =     0.02 SECS, INTEGRAL =      0.64 TIME LEFT: 172799.36
 STEP:  39 TIME =     0.02 SECS, INTEGRAL =      0.66 TIME LEFT: 172799.34
 STEP:  40 TIME =     0.02 SECS, INTEGRAL =      0.68 TIME LEFT: 172799.32
 STEP:  41 TIME =     0.02 SECS, INTEGRAL =      0.70 TIME LEFT: 172799.30
 STEP:  42 TIME =     0.02 SECS, INTEGRAL =      0.71 TIME LEFT: 172799.29
 STEP:  43 TIME =     0.02 SECS, INTEGRAL =      0.73 TIME LEFT: 172799.27
 STEP:  44 TIME =     0.02 SECS, INTEGRAL =      0.75 TIME LEFT: 172799.25
 STEP:  45 TIME =     0.02 SECS, INTEGRAL =      0.76 TIME LEFT: 172799.24
 STEP:  46 TIME =     0.02 SECS, INTEGRAL =      0.78 TIME LEFT: 172799.22
 STEP:  47 TIME =     0.02 SECS, INTEGRAL =      0.80 TIME LEFT: 172799.20
 STEP:  48 TIME =     0.02 SECS, INTEGRAL =      0.82 TIME LEFT: 172799.18
 STEP:  49 TIME =     0.02 SECS, INTEGRAL =      0.83 TIME LEFT: 172799.17
 STEP:  50 TIME =     0.02 SECS, INTEGRAL =      0.85 TIME LEFT: 172799.15
 STEP:  51 TIME =     0.02 SECS, INTEGRAL =      0.87 TIME LEFT: 172799.13
 STEP:  52 TIME =     0.02 SECS, INTEGRAL =      0.89 TIME LEFT: 172799.11
 STEP:  53 TIME =     0.02 SECS, INTEGRAL =      0.90 TIME LEFT: 172799.10
 STEP:  54 TIME =     0.02 SECS, INTEGRAL =      0.92 TIME LEFT: 172799.08

(To convert to Hartree/Bohr^2, multiply by (10^(-21) x N x a0^2)/(4.184 x 627.51) =  0.0642)


           FORCE MATRIX IN MILLIDYNES/ANGSTROM


                  C  1       C  2       C  3       C  4       C  5       C  6
 ------------------------------------------------------------------------------
     C    1  18.975390
     C    2   4.999972  18.974681
     C    3   5.262964   0.694983  18.211146
     C    4   0.695043   5.262230   0.307843  18.210089
     C    5   1.146235   0.252474   9.793636   1.252867  18.191058
     C    6   0.253599   1.146344   1.254421   9.791996   5.722217  18.184644
     C    7   0.793867   0.107673   0.107638   0.015449   0.040583   0.022018
     C    8   0.107638   0.793860   0.015608   0.107571   0.021592   0.040579
     C    9  10.297958   1.068942   1.275913   0.088917   0.219961   0.121638
     C   10   1.068941  10.297885   0.088974   1.275659   0.120573   0.220467
     H   11   0.442060   0.044295   4.846794   0.010947   0.438750   0.120542
     H   12   0.044307   0.442069   0.010971   4.846585   0.120571   0.438971
     H   13   0.115814   0.003815   0.439121   0.049977   4.860478   0.435112
     H   14   0.003779   0.115747   0.049961   0.439124   0.435086   4.860349
     H   15   0.042869   0.064951   0.069725   0.002200   0.006136   0.005283
     H   16   0.042983   0.064927   0.069778   0.002201   0.006221   0.005325
     H   17   0.065000   0.043037   0.002242   0.070316   0.005257   0.006204
     H   18   0.064902   0.042992   0.002203   0.070229   0.005271   0.006192


                  C  7       C  8       C  9       C 10       H 11       H 12
 ------------------------------------------------------------------------------
     C    7  18.081420
     C    8   0.007532  18.081101
     C    9  11.902464   0.037809  24.413146
     C   10   0.037788  11.902146   0.182997  24.412685
     H   11   0.004914   0.001417   0.037972   0.008218   5.215002
     H   12   0.001413   0.004854   0.008234   0.037986   0.008614   5.214810
     H   13   0.005557   0.001110   0.007931   0.001664   0.062705   0.007113
     H   14   0.001115   0.005547   0.001664   0.007944   0.007096   0.062622
     H   15   4.989115   0.002902   0.479834   0.004657   0.001328   0.001732
     H   16   4.988901   0.002908   0.479904   0.004613   0.001323   0.001723
     H   17   0.002949   4.989186   0.004630   0.479906   0.001726   0.001355
     H   18   0.002920   4.988588   0.004624   0.479987   0.001726   0.001331


                  H 13       H 14       H 15       H 16       H 17       H 18
 ------------------------------------------------------------------------------
     H   13   5.223450
     H   14   0.031518   5.223387
     H   15   0.005187   0.000341   5.373851
     H   16   0.005175   0.000345   0.408566   5.373696
     H   17   0.000330   0.005141   0.001630   0.002896   5.373953
     H   18   0.000334   0.005136   0.002871   0.001643   0.408679   5.373366


          HEAT OF FORMATION =     124.049298 KCALS/MOLE

          ZERO POINT ENERGY      88.787 KCAL/MOL


           NORMAL COORDINATE ANALYSIS (Total motion = 1 Angstrom)


   Root No.       1         2         3         4         5         6         7         8

                 1 A       2 A       3 A       4 A       5 A       6 A       7 A       8 A   

                  58.2     118.2     141.5     197.3     278.2     313.7     411.0     434.7
  
           1   -0.0000    0.0005    0.0000    0.0397    0.0000    0.0000   -0.0242    0.0000
           2   -0.0000   -0.0186   -0.0000   -0.0166   -0.0000    0.0000   -0.0441    0.0000
           3   -0.0112   -0.0001    0.0524   -0.0000   -0.0316   -0.0077    0.0000   -0.0226
           4   -0.0000   -0.0006    0.0000    0.0397    0.0000    0.0000   -0.0242    0.0000
           5   -0.0000   -0.0187   -0.0000    0.0166    0.0000   -0.0000    0.0440   -0.0000
           6    0.0114   -0.0001    0.0524   -0.0001    0.0316   -0.0077    0.0000    0.0224
           7   -0.0000    0.0023   -0.0000    0.0059   -0.0000    0.0000    0.0288   -0.0000
           8   -0.0000   -0.0158   -0.0000   -0.0343   -0.0000    0.0000   -0.0201    0.0000
           9   -0.0596   -0.0000    0.0253   -0.0000    0.0020    0.0505    0.0000   -0.0292
          10    0.0000   -0.0023   -0.0000    0.0059    0.0000    0.0000    0.0288   -0.0000
          11    0.0000   -0.0159   -0.0000    0.0343    0.0000    0.0000    0.0201    0.0000
          12    0.0598   -0.0001    0.0250   -0.0000   -0.0020    0.0505    0.0001    0.0291
          13   -0.0000    0.0002   -0.0000   -0.0249    0.0000   -0.0000    0.0504   -0.0000
          14   -0.0000   -0.0152   -0.0000   -0.0170   -0.0000   -0.0000   -0.0279    0.0000
          15   -0.0372    0.0002   -0.0454    0.0000    0.0240   -0.0249    0.0000    0.0460
          16    0.0000   -0.0002   -0.0000   -0.0249   -0.0000   -0.0000    0.0504   -0.0000
          17    0.0000   -0.0152   -0.0000    0.0170   -0.0000   -0.0000    0.0279   -0.0000
          18    0.0370    0.0001   -0.0455    0.0000   -0.0240   -0.0251   -0.0001   -0.0460
          19   -0.0001   -0.0973   -0.0002   -0.0394   -0.0000    0.0000   -0.0387    0.0000
          20    0.0000    0.0431    0.0001    0.0338   -0.0000   -0.0000   -0.0519    0.0000
          21    0.0482    0.0000   -0.0399    0.0000    0.0256    0.0139   -0.0000   -0.0006
          22    0.0001    0.0974    0.0001   -0.0392    0.0000   -0.0000   -0.0387    0.0000
          23    0.0000    0.0432    0.0000   -0.0337   -0.0000   -0.0000    0.0519   -0.0000
          24   -0.0483    0.0002   -0.0397    0.0001   -0.0256    0.0139   -0.0000    0.0006
          25   -0.0000   -0.0269   -0.0000    0.0344    0.0000    0.0000   -0.0129    0.0000
          26   -0.0000   -0.0014    0.0000   -0.0132    0.0000    0.0000   -0.0610    0.0000
          27    0.0165   -0.0001    0.0233   -0.0000   -0.0722   -0.0481    0.0000    0.0278
          28    0.0000    0.0268    0.0001    0.0344   -0.0000   -0.0000   -0.0128    0.0000
          29   -0.0000   -0.0014    0.0000    0.0132    0.0000   -0.0000    0.0610   -0.0000
          30   -0.0165   -0.0000    0.0234   -0.0000    0.0722   -0.0482   -0.0001   -0.0274
          31   -0.0000    0.0021    0.0000    0.0059    0.0000    0.0000    0.0285   -0.0000
          32   -0.0000   -0.0152   -0.0000   -0.0636   -0.0000    0.0000    0.0228   -0.0000
          33   -0.1124   -0.0000    0.0485   -0.0000    0.0227    0.1331    0.0000   -0.0386
          34    0.0000   -0.0021   -0.0000    0.0059   -0.0000    0.0000    0.0285   -0.0000
          35    0.0000   -0.0153    0.0000    0.0636    0.0000    0.0001   -0.0229    0.0000
          36    0.1127   -0.0002    0.0480   -0.0000   -0.0227    0.1330    0.0001    0.0387
          37   -0.0000   -0.0006   -0.0000   -0.0500    0.0000   -0.0000    0.0364    0.0000
          38   -0.0000   -0.0156   -0.0001   -0.0304    0.0000   -0.0000   -0.0346    0.0001
          39   -0.0728    0.0003   -0.0917    0.0000    0.0749   -0.0429    0.0002    0.1637
          40    0.0001    0.0007   -0.0001   -0.0500   -0.0000   -0.0000    0.0363   -0.0001
          41    0.0000   -0.0157   -0.0001    0.0303   -0.0000   -0.0000    0.0346   -0.0001
          42    0.0723    0.0002   -0.0919    0.0001   -0.0748   -0.0434   -0.0002   -0.1634
          43    0.0086   -0.1283    0.0334   -0.0723   -0.0360   -0.0640   -0.0524    0.0818
          44   -0.0322    0.0626    0.0369    0.0547   -0.0835   -0.0316   -0.0486   -0.0088
          45    0.0625    0.0001   -0.0712    0.0000    0.0835    0.0532    0.0021   -0.0243
          46   -0.0088   -0.1282   -0.0339   -0.0722    0.0359    0.0641   -0.0528   -0.0818
          47    0.0323    0.0628   -0.0366    0.0547    0.0835    0.0316   -0.0486    0.0088
          48    0.0625    0.0001   -0.0713    0.0001    0.0837    0.0534   -0.0022   -0.0244
          49    0.0089    0.1286   -0.0335   -0.0721   -0.0360    0.0645   -0.0526    0.0823
          50    0.0325    0.0627    0.0366   -0.0546    0.0835   -0.0314    0.0485    0.0096
          51   -0.0628    0.0003   -0.0710    0.0001   -0.0837    0.0534   -0.0022    0.0240
          52   -0.0087    0.1282    0.0339   -0.0721    0.0360   -0.0645   -0.0526   -0.0822
          53   -0.0325    0.0629   -0.0366   -0.0545   -0.0837    0.0315    0.0486   -0.0097
          54   -0.0627    0.0003   -0.0710    0.0001   -0.0836    0.0534    0.0022    0.0240


   Root No.       9        10        11        12        13        14        15        16

                 9 A      10 A      11 A      12 A      13 A      14 A      15 A      16 A   

                 476.4     511.6     552.1     564.5     571.2     629.4     719.3     774.0
  
           1   -0.0000    0.0083   -0.0000   -0.0000    0.0064   -0.0311    0.0000    0.0000
           2   -0.0000    0.0253   -0.0000   -0.0000   -0.0180    0.0167    0.0000   -0.0000
           3    0.0545    0.0001    0.0243   -0.0021    0.0000   -0.0001   -0.0826    0.0236
           4   -0.0000   -0.0083   -0.0000    0.0000   -0.0064   -0.0311    0.0000   -0.0000
           5   -0.0000    0.0254    0.0000   -0.0000   -0.0179   -0.0167    0.0000   -0.0000
           6    0.0547    0.0001    0.0242    0.0029    0.0000   -0.0000    0.0826    0.0235
           7    0.0000   -0.0441    0.0000    0.0000    0.0606   -0.0285    0.0000    0.0000
           8    0.0000   -0.0141    0.0000    0.0000    0.0207    0.0423   -0.0000   -0.0001
           9   -0.0155   -0.0000   -0.0099   -0.0186    0.0000    0.0000    0.0044   -0.0278
          10   -0.0000    0.0441   -0.0000   -0.0000   -0.0606   -0.0285   -0.0000   -0.0001
          11   -0.0000   -0.0141   -0.0000    0.0000    0.0208   -0.0423   -0.0000   -0.0000
          12   -0.0152    0.0000   -0.0107    0.0182   -0.0000    0.0000   -0.0045   -0.0278
          13    0.0000   -0.0032    0.0000    0.0000    0.0028    0.0011   -0.0000    0.0000
          14    0.0000   -0.0405    0.0000    0.0000    0.0641    0.0316   -0.0000   -0.0001
          15    0.0086    0.0001    0.0048    0.0143   -0.0000   -0.0000   -0.0260   -0.0209
          16    0.0000    0.0032    0.0000   -0.0000   -0.0028    0.0011    0.0000    0.0000
          17    0.0000   -0.0405    0.0000    0.0000    0.0641   -0.0315    0.0000    0.0000
          18    0.0082   -0.0000    0.0054   -0.0141   -0.0000    0.0000    0.0260   -0.0208
          19   -0.0000    0.0110   -0.0000   -0.0000   -0.0165   -0.0062    0.0000    0.0000
          20   -0.0000    0.0408   -0.0000   -0.0000   -0.0154    0.0012    0.0000    0.0001
          21   -0.0002    0.0000   -0.0011   -0.0006   -0.0000    0.0000    0.0094   -0.0031
          22    0.0000   -0.0110   -0.0000    0.0000    0.0164   -0.0062   -0.0000   -0.0000
          23   -0.0000    0.0408   -0.0000   -0.0000   -0.0154   -0.0012   -0.0000    0.0000
          24   -0.0002   -0.0000   -0.0011    0.0006    0.0000    0.0000   -0.0094   -0.0031
          25   -0.0000    0.0949    0.0000   -0.0001    0.0587    0.0726   -0.0000    0.0000
          26    0.0000   -0.0198   -0.0000    0.0000   -0.0585   -0.0481    0.0000    0.0000
          27   -0.0442   -0.0000   -0.0094    0.0014   -0.0000    0.0000    0.0167   -0.0030
          28    0.0001   -0.0949    0.0000    0.0001   -0.0587    0.0726    0.0000   -0.0000
          29   -0.0000   -0.0198    0.0000    0.0000   -0.0585    0.0481   -0.0000    0.0000
          30   -0.0444   -0.0000   -0.0092   -0.0018    0.0000   -0.0000   -0.0167   -0.0030
          31   -0.0000   -0.0431   -0.0000    0.0000    0.0606   -0.0280    0.0001    0.0001
          32    0.0000   -0.0226    0.0000    0.0000    0.0198    0.0681   -0.0000   -0.0001
          33   -0.0981   -0.0002   -0.0882   -0.0543    0.0001    0.0002    0.1966    0.1257
          34   -0.0001    0.0431   -0.0000   -0.0000   -0.0606   -0.0280   -0.0001   -0.0001
          35   -0.0001   -0.0226   -0.0001    0.0000    0.0199   -0.0681   -0.0001   -0.0001
          36   -0.0975   -0.0001   -0.0905    0.0509   -0.0000    0.0002   -0.1964    0.1256
          37   -0.0000    0.0214   -0.0000    0.0000   -0.0352    0.0523   -0.0000    0.0000
          38    0.0000   -0.0275    0.0000    0.0000    0.0443    0.0591   -0.0000   -0.0001
          39   -0.0180    0.0001   -0.0338    0.0529   -0.0000    0.0001   -0.0219    0.2320
          40    0.0000   -0.0214    0.0000   -0.0000    0.0352    0.0523    0.0000    0.0001
          41   -0.0000   -0.0275   -0.0000   -0.0000    0.0443   -0.0591    0.0000    0.0001
          42   -0.0193   -0.0001   -0.0314   -0.0543    0.0000    0.0001    0.0222    0.2316
          43    0.0588   -0.0338   -0.1435   -0.1526   -0.0627   -0.0589   -0.0042   -0.0312
          44   -0.1092    0.0747    0.0711    0.0989    0.0098    0.0340    0.0661    0.0011
          45    0.0395   -0.0022    0.0098   -0.0019    0.0016    0.0003   -0.0260    0.0074
          46   -0.0587   -0.0334    0.1435    0.1526   -0.0628   -0.0591    0.0042    0.0314
          47    0.1092    0.0745   -0.0711   -0.0989    0.0098    0.0340   -0.0661   -0.0010
          48    0.0397    0.0023    0.0098   -0.0019   -0.0017   -0.0003   -0.0261    0.0074
          49   -0.0589    0.0334    0.1495   -0.1462    0.0626   -0.0590   -0.0041    0.0312
          50   -0.1095    0.0744    0.0751   -0.0955    0.0097   -0.0339   -0.0660    0.0011
          51    0.0398   -0.0023    0.0096    0.0023    0.0017   -0.0003    0.0261    0.0073
          52    0.0587    0.0338   -0.1495    0.1460    0.0629   -0.0590    0.0040   -0.0313
          53    0.1095    0.0748   -0.0751    0.0954    0.0099   -0.0340    0.0661   -0.0010
          54    0.0397    0.0023    0.0097    0.0022   -0.0016    0.0003    0.0260    0.0074


   Root No.      17        18        19        20        21        22        23        24

                17 A      18 A      19 A      20 A      21 A      22 A      23 A      24 A   

                 788.8     827.9     859.5     915.5     919.1     970.3     989.3     992.2
  
           1    0.0321    0.0249    0.0000    0.0000    0.0000   -0.0000    0.0009    0.0006
           2   -0.0132   -0.0159    0.0000    0.0000    0.0000   -0.0000   -0.0008    0.0001
           3   -0.0000    0.0001   -0.0310    0.0084    0.0203    0.0114   -0.0000   -0.0000
           4   -0.0321    0.0250    0.0000   -0.0000    0.0000   -0.0000    0.0009   -0.0006
           5   -0.0132    0.0159    0.0000    0.0000   -0.0000   -0.0000    0.0008    0.0001
           6   -0.0001    0.0000    0.0311    0.0086   -0.0203    0.0114    0.0000   -0.0000
           7    0.0640    0.0550    0.0000    0.0000   -0.0000   -0.0000   -0.0046   -0.0015
           8   -0.0397    0.0182    0.0000   -0.0000   -0.0000   -0.0000    0.0020    0.0008
           9    0.0000   -0.0001    0.0308    0.0022   -0.0042   -0.0447    0.0000    0.0000
          10   -0.0640    0.0551   -0.0000   -0.0000   -0.0000   -0.0000   -0.0046    0.0014
          11   -0.0397   -0.0182   -0.0000   -0.0000   -0.0000   -0.0000   -0.0021    0.0008
          12    0.0001   -0.0000   -0.0309    0.0021    0.0043   -0.0447   -0.0000   -0.0000
          13    0.0059   -0.0468    0.0000   -0.0000    0.0000    0.0000    0.0010   -0.0011
          14   -0.0119    0.0794    0.0000    0.0000   -0.0000   -0.0000    0.0007    0.0023
          15    0.0000   -0.0000    0.0284   -0.0040   -0.0088    0.0316   -0.0000   -0.0000
          16   -0.0060   -0.0469   -0.0000   -0.0000    0.0000    0.0000    0.0010    0.0011
          17   -0.0119   -0.0794   -0.0000   -0.0000    0.0000    0.0000   -0.0008    0.0023
          18    0.0000    0.0000   -0.0284   -0.0041    0.0088    0.0317    0.0000    0.0000
          19    0.0245   -0.0170   -0.0000   -0.0000    0.0000    0.0000   -0.0421   -0.0444
          20    0.0378   -0.0274   -0.0000   -0.0000   -0.0000    0.0000    0.0259    0.0271
          21    0.0000   -0.0000    0.0099    0.0425    0.0394    0.0035    0.0000    0.0000
          22   -0.0245   -0.0170    0.0000    0.0000   -0.0000    0.0000   -0.0426    0.0439
          23    0.0378    0.0274   -0.0000    0.0001   -0.0000    0.0000   -0.0262    0.0268
          24   -0.0000   -0.0000   -0.0099    0.0429   -0.0390    0.0034    0.0000   -0.0000
          25    0.0042   -0.0166   -0.0000    0.0000    0.0000    0.0000    0.0158    0.0170
          26    0.0304   -0.0120   -0.0000    0.0000    0.0000    0.0000   -0.0105   -0.0113
          27    0.0000   -0.0000   -0.0014   -0.0384   -0.0382   -0.0055   -0.0000    0.0000
          28   -0.0042   -0.0166   -0.0000   -0.0000    0.0000   -0.0000    0.0160   -0.0168
          29    0.0304    0.0120   -0.0000   -0.0000    0.0000   -0.0000    0.0106   -0.0111
          30    0.0000    0.0000    0.0014   -0.0388    0.0378   -0.0054   -0.0000    0.0000
          31    0.0651    0.0562   -0.0000    0.0000   -0.0000    0.0001   -0.0047   -0.0015
          32   -0.0887   -0.0459   -0.0000   -0.0000   -0.0000    0.0000    0.0055   -0.0023
          33   -0.0003    0.0002   -0.1662   -0.0171    0.0105    0.2119    0.0000   -0.0002
          34   -0.0650    0.0563    0.0000   -0.0000   -0.0000    0.0001   -0.0047    0.0014
          35   -0.0886    0.0461    0.0001   -0.0000   -0.0000    0.0000   -0.0055   -0.0024
          36   -0.0001    0.0001    0.1666   -0.0170   -0.0109    0.2117    0.0002   -0.0000
          37   -0.0463   -0.0154   -0.0000   -0.0000    0.0000   -0.0001    0.0134   -0.0016
          38   -0.0419    0.0968   -0.0000    0.0000   -0.0000   -0.0001    0.0073    0.0023
          39   -0.0004    0.0003   -0.1410    0.0252    0.0464   -0.1588    0.0000    0.0002
          40    0.0463   -0.0155    0.0000    0.0000    0.0000   -0.0001    0.0134    0.0018
          41   -0.0420   -0.0967    0.0001    0.0000   -0.0000   -0.0000   -0.0074    0.0021
          42   -0.0004    0.0002    0.1413    0.0256   -0.0461   -0.1591   -0.0002   -0.0001
          43    0.0449   -0.0178    0.0231    0.0878    0.0844   -0.0009    0.1681    0.1767
          44    0.0451   -0.0445    0.0348    0.1417    0.1297    0.0156   -0.1072   -0.1137
          45   -0.0088    0.0076   -0.0177   -0.0675   -0.0626   -0.0049    0.0000    0.0004
          46    0.0448   -0.0177   -0.0231   -0.0879   -0.0846    0.0010    0.1680    0.1767
          47    0.0452   -0.0445   -0.0349   -0.1419   -0.1298   -0.0156   -0.1072   -0.1137
          48    0.0088   -0.0076   -0.0177   -0.0678   -0.0629   -0.0049   -0.0001   -0.0004
          49   -0.0449   -0.0176    0.0232   -0.0886    0.0836    0.0010    0.1701   -0.1744
          50    0.0452    0.0445   -0.0348    0.1429   -0.1283    0.0154    0.1085   -0.1123
          51   -0.0089   -0.0076    0.0177   -0.0683    0.0621   -0.0048   -0.0001    0.0005
          52   -0.0448   -0.0177   -0.0232    0.0887   -0.0836   -0.0012    0.1703   -0.1746
          53    0.0452    0.0445    0.0349   -0.1433    0.1286   -0.0156    0.1085   -0.1122
          54    0.0087    0.0075    0.0177   -0.0682    0.0621   -0.0048   -0.0001   -0.0003


   Root No.      25        26        27        28        29        30        31        32

                25 A      26 A      27 A      28 A      29 A      30 A      31 A      32 A   

                1004.1    1078.4    1109.0    1154.5    1186.8    1211.7    1232.0    1324.8
  
           1    0.0000   -0.0041    0.0294    0.0110   -0.0387    0.0108   -0.0067    0.0357
           2   -0.0000   -0.0040   -0.0068   -0.0037    0.0100    0.0205   -0.0272   -0.0096
           3    0.0170   -0.0000   -0.0000    0.0000    0.0000   -0.0000   -0.0000    0.0000
           4    0.0000    0.0041    0.0294   -0.0109   -0.0387    0.0108    0.0067    0.0357
           5   -0.0000   -0.0040    0.0068   -0.0037   -0.0101   -0.0205   -0.0272    0.0096
           6   -0.0170    0.0000    0.0000   -0.0000    0.0000    0.0000    0.0000   -0.0000
           7   -0.0000    0.0232   -0.0331   -0.0005    0.0147   -0.0081   -0.0132   -0.0282
           8    0.0000    0.0031   -0.0024    0.0025   -0.0005    0.0153    0.0012    0.0298
           9   -0.0425   -0.0000    0.0000    0.0000    0.0000    0.0000    0.0000    0.0000
          10    0.0000   -0.0232   -0.0331    0.0005    0.0147   -0.0081    0.0132   -0.0282
          11    0.0000    0.0031    0.0024    0.0025    0.0005   -0.0152    0.0012   -0.0298
          12    0.0425    0.0000   -0.0000    0.0000   -0.0000    0.0000   -0.0000    0.0000
          13    0.0000    0.0387    0.0037    0.0017    0.0110    0.0131   -0.0138    0.0194
          14    0.0000   -0.0273   -0.0038    0.0061    0.0054   -0.0011    0.0122    0.0094
          15    0.0546   -0.0000    0.0000   -0.0000   -0.0000   -0.0000   -0.0000   -0.0000
          16   -0.0000   -0.0387    0.0037   -0.0017    0.0110    0.0131    0.0138    0.0195
          17   -0.0000   -0.0273    0.0038    0.0061   -0.0054    0.0011    0.0122   -0.0094
          18   -0.0547    0.0000    0.0000    0.0000   -0.0000   -0.0000   -0.0000   -0.0000
          19   -0.0000    0.0020   -0.0032   -0.0003    0.0023   -0.0035   -0.0006   -0.0147
          20    0.0000    0.0050   -0.0102   -0.0012    0.0071   -0.0048   -0.0015   -0.0252
          21    0.0026    0.0000   -0.0000    0.0000    0.0000   -0.0000    0.0000   -0.0000
          22   -0.0000   -0.0020   -0.0032    0.0003    0.0023   -0.0035    0.0006   -0.0147
          23    0.0000    0.0050    0.0102   -0.0012   -0.0071    0.0048   -0.0015    0.0253
          24   -0.0026    0.0000    0.0000   -0.0000   -0.0000    0.0000    0.0000   -0.0000
          25    0.0000    0.0024   -0.0077   -0.0010    0.0041    0.0055   -0.0077   -0.0092
          26   -0.0000   -0.0003    0.0036    0.0006   -0.0063    0.0064   -0.0115   -0.0062
          27   -0.0055   -0.0000    0.0000    0.0000   -0.0000    0.0000   -0.0000    0.0000
          28    0.0000   -0.0024   -0.0077    0.0009    0.0041    0.0055    0.0077   -0.0092
          29    0.0000   -0.0003   -0.0036    0.0006    0.0063   -0.0064   -0.0115    0.0062
          30    0.0055   -0.0000   -0.0000    0.0000   -0.0000    0.0000    0.0000   -0.0000
          31    0.0000    0.0254   -0.0334    0.0013    0.0158   -0.0083   -0.0148   -0.0298
          32   -0.0000    0.2254   -0.0978   -0.1802   -0.2820   -0.0718    0.0232   -0.0305
          33    0.1571    0.0000    0.0000    0.0000    0.0000   -0.0000   -0.0000    0.0000
          34   -0.0000   -0.0254   -0.0334   -0.0013    0.0158   -0.0083    0.0148   -0.0298
          35   -0.0000    0.2253    0.0979   -0.1802    0.2820    0.0719    0.0231    0.0307
          36   -0.1570   -0.0001    0.0000    0.0001   -0.0001   -0.0000   -0.0000    0.0000
          37   -0.0000    0.1532    0.2090    0.2481   -0.0016   -0.0834    0.0076   -0.0933
          38    0.0000    0.0323    0.1042    0.1384   -0.0028   -0.0528    0.0259   -0.0497
          39   -0.1997   -0.0000   -0.0001   -0.0001    0.0000    0.0000   -0.0000    0.0000
          40    0.0001   -0.1532    0.2091   -0.2481   -0.0016   -0.0834   -0.0076   -0.0933
          41    0.0001    0.0323   -0.1042    0.1383    0.0028    0.0528    0.0259    0.0497
          42    0.2001    0.0000   -0.0001    0.0000    0.0000    0.0000   -0.0000    0.0000
          43    0.0029    0.0108   -0.0227   -0.0034    0.0323   -0.0605    0.0855    0.0438
          44    0.0093    0.0109   -0.0268   -0.0049    0.0495   -0.0971    0.1349    0.0690
          45   -0.0035   -0.0054    0.0136    0.0027   -0.0298    0.0629   -0.0941   -0.0673
          46   -0.0025    0.0108   -0.0226   -0.0033    0.0322   -0.0604    0.0853    0.0437
          47   -0.0095    0.0108   -0.0267   -0.0049    0.0495   -0.0969    0.1346    0.0688
          48   -0.0036    0.0054   -0.0136   -0.0027    0.0299   -0.0629    0.0942    0.0673
          49    0.0026   -0.0108   -0.0226    0.0033    0.0323   -0.0605   -0.0854    0.0438
          50   -0.0094    0.0109    0.0268   -0.0048   -0.0495    0.0971    0.1347   -0.0689
          51    0.0035   -0.0054   -0.0137    0.0027    0.0299   -0.0630   -0.0942    0.0674
          52   -0.0027   -0.0108   -0.0226    0.0033    0.0322   -0.0605   -0.0853    0.0437
          53    0.0095    0.0109    0.0267   -0.0048   -0.0495    0.0970    0.1346   -0.0689
          54    0.0036    0.0053    0.0136   -0.0026   -0.0298    0.0628    0.0939   -0.0673


   Root No.      33        34        35        36        37        38        39        40

                33 A      34 A      35 A      36 A      37 A      38 A      39 A      40 A   

                1357.7    1519.2    1531.2    1562.2    1802.2    1846.3    2224.3    2244.7
  
           1   -0.0268   -0.0266    0.0115    0.1429    0.0001    0.0043   -0.0476   -0.0450
           2    0.0373    0.0730    0.0991    0.0309   -0.0215   -0.0333   -0.0693   -0.0757
           3    0.0000    0.0000    0.0000    0.0000   -0.0000    0.0000   -0.0000   -0.0000
           4    0.0268    0.0265    0.0115   -0.1429   -0.0002    0.0043    0.0477   -0.0449
           5    0.0373    0.0732   -0.0989    0.0309   -0.0218    0.0332   -0.0694    0.0756
           6   -0.0000   -0.0000    0.0000   -0.0000    0.0000   -0.0000    0.0000   -0.0000
           7    0.0175    0.0297    0.0252   -0.0160    0.0620    0.0447   -0.0033    0.0004
           8    0.0207   -0.0607   -0.0161    0.0142    0.1380    0.1295   -0.0043   -0.0006
           9   -0.0000    0.0000   -0.0000   -0.0000   -0.0000   -0.0000    0.0000    0.0000
          10   -0.0175   -0.0297    0.0252    0.0160   -0.0621    0.0445    0.0033    0.0004
          11    0.0206   -0.0607    0.0159    0.0141    0.1388   -0.1290   -0.0043    0.0006
          12   -0.0000    0.0000   -0.0000   -0.0000   -0.0000    0.0000    0.0000   -0.0000
          13    0.0466   -0.0642   -0.0205    0.0078   -0.1276   -0.0648    0.0063    0.0010
          14   -0.0199    0.0006   -0.0300   -0.0063   -0.1101   -0.1048    0.0065    0.0036
          15   -0.0000    0.0000    0.0000    0.0000    0.0001    0.0000   -0.0000   -0.0000
          16   -0.0466    0.0642   -0.0203   -0.0078    0.1278   -0.0644   -0.0063    0.0010
          17   -0.0199    0.0005    0.0300   -0.0063   -0.1107    0.1044    0.0065   -0.0036
          18    0.0000   -0.0000   -0.0000    0.0000    0.0000   -0.0000   -0.0000    0.0000
          19   -0.0154   -0.0205   -0.0378   -0.0371   -0.0011    0.0047   -0.0438   -0.0441
          20   -0.0225   -0.0308   -0.0575   -0.0616   -0.0014    0.0072   -0.0688   -0.0695
          21   -0.0000   -0.0000   -0.0000   -0.0000   -0.0000    0.0000   -0.0000   -0.0000
          22    0.0154    0.0206   -0.0377    0.0371    0.0011    0.0047    0.0438   -0.0440
          23   -0.0224   -0.0310    0.0574   -0.0616   -0.0014   -0.0072   -0.0689    0.0694
          24    0.0000    0.0000   -0.0000    0.0000   -0.0000    0.0000    0.0000   -0.0000
          25   -0.0007    0.0034    0.0113    0.0039    0.0059   -0.0021    0.0900    0.0913
          26   -0.0074    0.0035    0.0067    0.0161    0.0016   -0.0057    0.1412    0.1458
          27    0.0000    0.0000    0.0000    0.0000    0.0000   -0.0000    0.0000    0.0000
          28    0.0007   -0.0034    0.0113   -0.0039   -0.0059   -0.0021   -0.0901    0.0912
          29   -0.0074    0.0036   -0.0067    0.0161    0.0016    0.0057    0.1413   -0.1457
          30    0.0000   -0.0000    0.0000   -0.0000   -0.0000   -0.0000   -0.0001    0.0001
          31    0.0205    0.0307    0.0289   -0.0142    0.0842    0.0655   -0.0091   -0.0016
          32   -0.1220    0.0709    0.0309    0.0588   -0.0254   -0.0441   -0.0066   -0.0082
          33    0.0000    0.0000    0.0000   -0.0000   -0.0000   -0.0000   -0.0000   -0.0000
          34   -0.0205   -0.0307    0.0289    0.0142   -0.0845    0.0652    0.0091   -0.0016
          35   -0.1220    0.0710   -0.0307    0.0588   -0.0257    0.0440   -0.0066    0.0081
          36    0.0000   -0.0000   -0.0000   -0.0000    0.0001   -0.0000   -0.0000   -0.0000
          37   -0.0289    0.0543    0.0598   -0.0174    0.0314    0.0890   -0.0024   -0.0025
          38   -0.0659    0.0665    0.0084   -0.0214   -0.0491   -0.0439    0.0060    0.0050
          39    0.0000   -0.0000   -0.0000    0.0000   -0.0000   -0.0000   -0.0000    0.0000
          40    0.0288   -0.0544    0.0596    0.0173   -0.0318    0.0889    0.0024   -0.0025
          41   -0.0658    0.0664   -0.0082   -0.0213   -0.0495    0.0438    0.0060   -0.0050
          42    0.0000   -0.0000   -0.0000    0.0000    0.0000   -0.0001   -0.0000    0.0000
          43    0.0281    0.0093    0.0166    0.0156   -0.0005    0.0007   -0.0189   -0.0192
          44    0.0456    0.0169    0.0270    0.0215   -0.0014    0.0003   -0.0301   -0.0309
          45   -0.0499   -0.0379   -0.0680   -0.0680    0.0004    0.0070   -0.0570   -0.0595
          46    0.0280    0.0093    0.0165    0.0156   -0.0005    0.0007   -0.0190   -0.0193
          47    0.0455    0.0168    0.0269    0.0213   -0.0015    0.0004   -0.0302   -0.0310
          48    0.0499    0.0379    0.0680    0.0680   -0.0005   -0.0070    0.0570    0.0594
          49   -0.0280   -0.0093    0.0165   -0.0156    0.0005    0.0007    0.0190   -0.0192
          50    0.0455    0.0169   -0.0269    0.0214   -0.0015   -0.0003   -0.0302    0.0310
          51   -0.0499   -0.0382    0.0679   -0.0681    0.0005   -0.0070   -0.0571    0.0594
          52   -0.0280   -0.0093    0.0165   -0.0156    0.0005    0.0007    0.0190   -0.0193
          53    0.0455    0.0170   -0.0269    0.0214   -0.0015   -0.0003   -0.0301    0.0309
          54    0.0498    0.0381   -0.0679    0.0680   -0.0005    0.0070    0.0571   -0.0594


   Root No.      41        42        43        44        45        46        47        48

                41 A      42 A      43 A      44 A      45 A      46 A      47 A      48 A   

                3051.8    3054.7    3067.9    3077.3    3111.4    3111.6    3114.8    3114.9
  
           1    0.0002   -0.0002    0.0001    0.0003   -0.0003   -0.0000    0.0000    0.0000
           2    0.0002   -0.0003   -0.0004    0.0007   -0.0003   -0.0002    0.0000    0.0000
           3   -0.0000    0.0000    0.0000   -0.0000    0.0000    0.0000    0.0001   -0.0001
           4    0.0002    0.0002    0.0001   -0.0003   -0.0003   -0.0000    0.0000    0.0000
           5   -0.0001   -0.0003    0.0004    0.0007    0.0003   -0.0001   -0.0000   -0.0000
           6    0.0000    0.0000   -0.0000   -0.0000   -0.0000    0.0000   -0.0001   -0.0001
           7   -0.0183   -0.0237   -0.0216    0.0170    0.0001   -0.0001   -0.0000   -0.0000
           8   -0.0000   -0.0003   -0.0024    0.0025   -0.0001   -0.0002   -0.0000   -0.0000
           9    0.0000    0.0000    0.0000   -0.0000   -0.0000    0.0000    0.0000   -0.0000
          10   -0.0187    0.0235   -0.0217   -0.0169    0.0000    0.0001    0.0000   -0.0000
          11    0.0000   -0.0003    0.0024    0.0025    0.0002   -0.0002   -0.0000   -0.0000
          12    0.0000   -0.0000    0.0000    0.0000   -0.0000    0.0000   -0.0000   -0.0000
          13    0.0097    0.0079   -0.0069    0.0103   -0.0000   -0.0000    0.0000    0.0000
          14   -0.0180   -0.0132    0.0184   -0.0230    0.0001    0.0003    0.0000   -0.0000
          15    0.0000    0.0000   -0.0000    0.0000    0.0000    0.0000    0.0000   -0.0000
          16    0.0098   -0.0077   -0.0069   -0.0103   -0.0000   -0.0000   -0.0000   -0.0000
          17    0.0182   -0.0129   -0.0186   -0.0229   -0.0002    0.0003    0.0000    0.0000
          18   -0.0000    0.0000    0.0000    0.0000   -0.0000    0.0000   -0.0000    0.0000
          19   -0.0000   -0.0000   -0.0000   -0.0001   -0.0118   -0.0138    0.0000   -0.0000
          20   -0.0000   -0.0000    0.0000   -0.0001   -0.0186   -0.0218    0.0001    0.0000
          21    0.0000    0.0000    0.0000    0.0000    0.0001   -0.0000    0.0267   -0.0381
          22   -0.0000    0.0000   -0.0000    0.0001   -0.0139    0.0117    0.0004    0.0002
          23    0.0000   -0.0000   -0.0000   -0.0001    0.0219   -0.0184   -0.0006   -0.0004
          24   -0.0000    0.0000   -0.0000    0.0000   -0.0008    0.0006   -0.0381   -0.0267
          25   -0.0001   -0.0000    0.0000   -0.0001    0.0021    0.0024   -0.0000   -0.0000
          26    0.0001    0.0003    0.0003   -0.0003    0.0034    0.0038   -0.0000   -0.0000
          27    0.0000    0.0000    0.0000    0.0000    0.0000   -0.0000    0.0002   -0.0003
          28   -0.0001    0.0000    0.0000    0.0001    0.0025   -0.0020   -0.0001   -0.0000
          29   -0.0001    0.0003   -0.0003   -0.0003   -0.0039    0.0032    0.0001    0.0001
          30   -0.0000   -0.0000   -0.0000    0.0000   -0.0000    0.0000   -0.0003   -0.0002
          31    0.2153    0.2785    0.2403   -0.1799   -0.0002    0.0015    0.0000    0.0000
          32   -0.0007   -0.0001    0.0021   -0.0020   -0.0000    0.0000    0.0000   -0.0000
          33   -0.0001   -0.0001   -0.0001    0.0000   -0.0000    0.0000    0.0000   -0.0000
          34    0.2195   -0.2756    0.2406    0.1787    0.0001   -0.0015   -0.0000    0.0000
          35    0.0007   -0.0000   -0.0021   -0.0020    0.0000    0.0000   -0.0000   -0.0000
          36   -0.0001    0.0001   -0.0001   -0.0000    0.0000    0.0000   -0.0000    0.0000
          37   -0.1127   -0.0893    0.0988   -0.1287    0.0004    0.0013    0.0000   -0.0000
          38    0.2124    0.1623   -0.1914    0.2407   -0.0008   -0.0024   -0.0000    0.0000
          39   -0.0000   -0.0000    0.0000   -0.0000   -0.0000    0.0000   -0.0000    0.0000
          40   -0.1139    0.0874    0.0995    0.1283    0.0006   -0.0012   -0.0000   -0.0000
          41   -0.2148    0.1587    0.1927    0.2400    0.0012   -0.0022   -0.0000   -0.0000
          42    0.0001   -0.0001   -0.0001   -0.0002   -0.0000    0.0000    0.0000    0.0000
          43    0.0002    0.0000   -0.0001    0.0006    0.0585    0.0690   -0.0566    0.0806
          44    0.0002    0.0000   -0.0003    0.0010    0.0923    0.1090   -0.0895    0.1273
          45    0.0005    0.0001   -0.0005    0.0019    0.1845    0.2178   -0.1617    0.2300
          46    0.0002    0.0001   -0.0001    0.0006    0.0591    0.0691    0.0563   -0.0805
          47    0.0003    0.0000   -0.0003    0.0010    0.0934    0.1092    0.0890   -0.1273
          48   -0.0006   -0.0001    0.0005   -0.0020   -0.1859   -0.2176   -0.1603    0.2294
          49    0.0002   -0.0000   -0.0001   -0.0006    0.0676   -0.0571   -0.0824   -0.0575
          50   -0.0002    0.0000    0.0003    0.0010   -0.1070    0.0904    0.1304    0.0910
          51   -0.0006    0.0001    0.0005    0.0020   -0.2137    0.1805    0.2355    0.1643
          52    0.0002   -0.0001   -0.0001   -0.0006    0.0712   -0.0597    0.0786    0.0553
          53   -0.0003    0.0000    0.0003    0.0010   -0.1123    0.0943   -0.1242   -0.0874
          54    0.0006   -0.0001   -0.0005   -0.0020    0.2239   -0.1880    0.2238    0.1576


           MASS-WEIGHTED COORDINATE ANALYSIS (NORMAL COORDINATES)


   Root No.       1         2         3         4         5         6         7         8

                 1 A       2 A       3 A       4 A       5 A       6 A       7 A       8 A   

                  58.2     118.2     141.5     197.3     278.2     313.7     411.0     434.7
  
           1   -0.0000    0.0026    0.0002    0.2804    0.0000    0.0001   -0.1341    0.0001
           2   -0.0001   -0.1031   -0.0002   -0.1172   -0.0000    0.0001   -0.2437    0.0002
           3   -0.0790   -0.0007    0.3754   -0.0002   -0.2181   -0.0584    0.0001   -0.1808
           4   -0.0000   -0.0031    0.0002    0.2804    0.0001    0.0001   -0.1341    0.0001
           5   -0.0000   -0.1033   -0.0001    0.1170    0.0001   -0.0000    0.2436   -0.0001
           6    0.0803   -0.0008    0.3750   -0.0004    0.2181   -0.0582    0.0002    0.1789
           7   -0.0000    0.0124   -0.0000    0.0417   -0.0000    0.0000    0.1591   -0.0001
           8   -0.0001   -0.0872   -0.0002   -0.2426   -0.0000    0.0001   -0.1109    0.0000
           9   -0.4212   -0.0000    0.1810   -0.0001    0.0136    0.3821    0.0001   -0.2329
          10    0.0001   -0.0125   -0.0001    0.0417    0.0000    0.0001    0.1591   -0.0002
          11    0.0001   -0.0876   -0.0001    0.2424    0.0001    0.0002    0.1110    0.0001
          12    0.4225   -0.0006    0.1793   -0.0003   -0.0136    0.3820    0.0003    0.2325
          13   -0.0001    0.0013   -0.0002   -0.1757    0.0000   -0.0001    0.2789   -0.0001
          14   -0.0000   -0.0839   -0.0003   -0.1203   -0.0000   -0.0001   -0.1544    0.0003
          15   -0.2629    0.0009   -0.3251    0.0001    0.1652   -0.1886    0.0003    0.3672
          16    0.0001   -0.0010   -0.0002   -0.1758   -0.0000   -0.0001    0.2791   -0.0003
          17    0.0001   -0.0841   -0.0003    0.1201   -0.0000   -0.0001    0.1544   -0.0001
          18    0.2613    0.0004   -0.3261    0.0002   -0.1653   -0.1899   -0.0005   -0.3672
          19   -0.0006   -0.5378   -0.0011   -0.2782   -0.0002    0.0001   -0.2142    0.0002
          20    0.0001    0.2384    0.0009    0.2386   -0.0001   -0.0001   -0.2870    0.0002
          21    0.3403    0.0001   -0.2861    0.0001    0.1763    0.1051   -0.0001   -0.0052
          22    0.0005    0.5384    0.0011   -0.2772    0.0000   -0.0002   -0.2141    0.0000
          23    0.0001    0.2388    0.0001   -0.2382   -0.0002   -0.0000    0.2870   -0.0004
          24   -0.3413    0.0010   -0.2847    0.0004   -0.1763    0.1054   -0.0002    0.0048
          25   -0.0001   -0.1487   -0.0001    0.2428    0.0001    0.0000   -0.0712    0.0000
          26   -0.0001   -0.0077    0.0000   -0.0932    0.0000    0.0001   -0.3373    0.0002
          27    0.1169   -0.0006    0.1672   -0.0000   -0.4976   -0.3645    0.0002    0.2216
          28    0.0001    0.1482    0.0006    0.2432   -0.0000   -0.0000   -0.0710    0.0001
          29   -0.0000   -0.0079    0.0001    0.0933    0.0003   -0.0002    0.3373   -0.0004
          30   -0.1165   -0.0002    0.1675   -0.0002    0.4978   -0.3648   -0.0003   -0.2186
          31   -0.0000    0.0033    0.0000    0.0121    0.0000    0.0001    0.0456   -0.0000
          32   -0.0000   -0.0243   -0.0001   -0.1303   -0.0000    0.0000    0.0366   -0.0001
          33   -0.2299   -0.0000    0.1006   -0.0001    0.0453    0.2919    0.0001   -0.0892
          34    0.0000   -0.0033   -0.0000    0.0121   -0.0000    0.0001    0.0456   -0.0000
          35    0.0001   -0.0245    0.0000    0.1303    0.0000    0.0001   -0.0367    0.0001
          36    0.2305   -0.0003    0.0997   -0.0001   -0.0452    0.2916    0.0002    0.0894
          37   -0.0001   -0.0009   -0.0001   -0.1022    0.0000   -0.0000    0.0583    0.0001
          38   -0.0000   -0.0251   -0.0001   -0.0622    0.0000   -0.0000   -0.0555    0.0001
          39   -0.1489    0.0005   -0.1903    0.0000    0.1495   -0.0942    0.0003    0.3787
          40    0.0001    0.0011   -0.0001   -0.1023   -0.0001   -0.0000    0.0583   -0.0002
          41    0.0000   -0.0252   -0.0001    0.0621   -0.0000   -0.0001    0.0555   -0.0002
          42    0.1478    0.0003   -0.1907    0.0001   -0.1494   -0.0953   -0.0004   -0.3779
          43    0.0175   -0.2055    0.0693   -0.1479   -0.0718   -0.1404   -0.0841    0.1892
          44   -0.0658    0.1003    0.0766    0.1119   -0.1668   -0.0692   -0.0779   -0.0203
          45    0.1279    0.0002   -0.1478    0.0000    0.1667    0.1168    0.0034   -0.0562
          46   -0.0180   -0.2053   -0.0703   -0.1479    0.0717    0.1405   -0.0846   -0.1891
          47    0.0660    0.1005   -0.0759    0.1119    0.1668    0.0692   -0.0778    0.0204
          48    0.1280    0.0001   -0.1480    0.0001    0.1671    0.1170   -0.0036   -0.0563
          49    0.0183    0.2060   -0.0695   -0.1476   -0.0719    0.1414   -0.0843    0.1903
          50    0.0664    0.1004    0.0759   -0.1118    0.1667   -0.0688    0.0778    0.0223
          51   -0.1284    0.0005   -0.1474    0.0002   -0.1670    0.1172   -0.0035    0.0554
          52   -0.0179    0.2053    0.0703   -0.1475    0.0720   -0.1415   -0.0843   -0.1902
          53   -0.0664    0.1007   -0.0760   -0.1116   -0.1671    0.0691    0.0779   -0.0224
          54   -0.1283    0.0004   -0.1474    0.0001   -0.1670    0.1172    0.0035    0.0555


   Root No.       9        10        11        12        13        14        15        16

                 9 A      10 A      11 A      12 A      13 A      14 A      15 A      16 A   

                 476.4     511.6     552.1     564.5     571.2     629.4     719.3     774.0
  
           1   -0.0001    0.0448   -0.0001   -0.0001    0.0346   -0.1843    0.0001    0.0002
           2   -0.0000    0.1370   -0.0001   -0.0001   -0.0967    0.0991    0.0000   -0.0001
           3    0.4078    0.0003    0.2204   -0.0185    0.0000   -0.0003   -0.5329    0.1892
           4   -0.0000   -0.0449   -0.0001    0.0000   -0.0346   -0.1843    0.0000   -0.0003
           5   -0.0000    0.1371    0.0001   -0.0002   -0.0966   -0.0992    0.0003   -0.0001
           6    0.4094    0.0004    0.2190    0.0262    0.0001   -0.0002    0.5330    0.1881
           7    0.0001   -0.2384    0.0001    0.0001    0.3264   -0.1688    0.0000    0.0002
           8    0.0001   -0.0764    0.0001    0.0001    0.1116    0.2508   -0.0001   -0.0005
           9   -0.1161   -0.0003   -0.0896   -0.1649    0.0001    0.0001    0.0287   -0.2229
          10   -0.0003    0.2383   -0.0002   -0.0002   -0.3263   -0.1690   -0.0000   -0.0008
          11   -0.0001   -0.0764   -0.0000    0.0001    0.1118   -0.2508   -0.0001   -0.0003
          12   -0.1139    0.0000   -0.0971    0.1618   -0.0000    0.0001   -0.0288   -0.2226
          13    0.0000   -0.0174    0.0001    0.0000    0.0150    0.0064   -0.0001    0.0002
          14    0.0002   -0.2190    0.0002    0.0002    0.3450    0.1871   -0.0001   -0.0006
          15    0.0641    0.0003    0.0436    0.1268   -0.0002   -0.0001   -0.1676   -0.1678
          16    0.0000    0.0174    0.0001   -0.0001   -0.0150    0.0064    0.0001    0.0001
          17    0.0001   -0.2190    0.0002    0.0001    0.3451   -0.1870    0.0000    0.0003
          18    0.0615   -0.0001    0.0490   -0.1252   -0.0001    0.0000    0.1674   -0.1667
          19   -0.0000    0.0597   -0.0001   -0.0002   -0.0886   -0.0370    0.0000    0.0003
          20   -0.0001    0.2204   -0.0001   -0.0001   -0.0830    0.0068    0.0000    0.0005
          21   -0.0016    0.0000   -0.0101   -0.0055   -0.0001    0.0000    0.0605   -0.0248
          22    0.0001   -0.0597   -0.0002    0.0002    0.0886   -0.0370   -0.0000   -0.0001
          23   -0.0001    0.2204   -0.0001   -0.0001   -0.0831   -0.0068   -0.0000    0.0002
          24   -0.0018   -0.0002   -0.0102    0.0052    0.0001    0.0001   -0.0605   -0.0247
          25   -0.0001    0.5129    0.0002   -0.0005    0.3161    0.4304   -0.0001    0.0000
          26    0.0001   -0.1071   -0.0003    0.0001   -0.3149   -0.2852    0.0001    0.0004
          27   -0.3307   -0.0002   -0.0851    0.0127   -0.0000    0.0001    0.1080   -0.0242
          28    0.0006   -0.5128    0.0003    0.0006   -0.3162    0.4304    0.0001   -0.0000
          29   -0.0000   -0.1070    0.0001    0.0001   -0.3149    0.2851   -0.0000    0.0001
          30   -0.3322   -0.0002   -0.0839   -0.0155    0.0001   -0.0000   -0.1080   -0.0241
          31   -0.0000   -0.0675   -0.0000    0.0000    0.0945   -0.0480    0.0001    0.0002
          32    0.0000   -0.0354    0.0001    0.0000    0.0309    0.1170   -0.0000   -0.0002
          33   -0.2125   -0.0003   -0.2317   -0.1395    0.0002    0.0003    0.3673    0.2917
          34   -0.0001    0.0675   -0.0001   -0.0000   -0.0945   -0.0481   -0.0001   -0.0001
          35   -0.0001   -0.0354   -0.0001    0.0001    0.0310   -0.1170   -0.0002   -0.0002
          36   -0.2112   -0.0001   -0.2377    0.1309   -0.0001    0.0003   -0.3670    0.2915
          37   -0.0000    0.0336   -0.0000    0.0000   -0.0549    0.0898   -0.0000    0.0001
          38    0.0000   -0.0431    0.0000    0.0001    0.0691    0.1016   -0.0000   -0.0002
          39   -0.0390    0.0001   -0.0887    0.1359   -0.0000    0.0001   -0.0410    0.5385
          40    0.0000   -0.0335    0.0000   -0.0000    0.0549    0.0898    0.0000    0.0003
          41   -0.0000   -0.0431   -0.0000   -0.0001    0.0691   -0.1016    0.0000    0.0003
          42   -0.0418   -0.0002   -0.0824   -0.1396    0.0001    0.0002    0.0414    0.5375
          43    0.1273   -0.0530   -0.3768   -0.3921   -0.0979   -0.1013   -0.0078   -0.0725
          44   -0.2366    0.1170    0.1868    0.2540    0.0153    0.0584    0.1234    0.0026
          45    0.0856   -0.0035    0.0257   -0.0049    0.0026    0.0004   -0.0485    0.0171
          46   -0.1273   -0.0523    0.3768    0.3921   -0.0980   -0.1015    0.0078    0.0729
          47    0.2366    0.1167   -0.1869   -0.2542    0.0153    0.0584   -0.1234   -0.0022
          48    0.0860    0.0036    0.0257   -0.0050   -0.0026   -0.0005   -0.0488    0.0172
          49   -0.1277    0.0523    0.3926   -0.3755    0.0977   -0.1014   -0.0076    0.0725
          50   -0.2373    0.1165    0.1972   -0.2454    0.0152   -0.0583   -0.1232    0.0026
          51    0.0862   -0.0035    0.0253    0.0060    0.0026   -0.0004    0.0487    0.0171
          52    0.1273    0.0529   -0.3926    0.3752    0.0981   -0.1013    0.0075   -0.0726
          53    0.2373    0.1172   -0.1972    0.2452    0.0154   -0.0584    0.1234   -0.0024
          54    0.0860    0.0035    0.0255    0.0057   -0.0026    0.0005    0.0487    0.0171


   Root No.      17        18        19        20        21        22        23        24

                17 A      18 A      19 A      20 A      21 A      22 A      23 A      24 A   

                 788.8     827.9     859.5     915.5     919.1     970.3     989.3     992.2
  
           1    0.2070    0.1402    0.0000    0.0001    0.0000   -0.0001    0.0068    0.0042
           2   -0.0851   -0.0894    0.0000    0.0000    0.0000   -0.0000   -0.0060    0.0005
           3   -0.0003    0.0003   -0.2592    0.0625    0.1578    0.0848   -0.0000   -0.0001
           4   -0.2069    0.1405    0.0000   -0.0000    0.0000   -0.0001    0.0068   -0.0041
           5   -0.0850    0.0896    0.0001    0.0001   -0.0001   -0.0000    0.0060    0.0006
           6   -0.0003    0.0002    0.2596    0.0640   -0.1573    0.0844    0.0001   -0.0000
           7    0.4123    0.3090    0.0001    0.0001   -0.0000   -0.0000   -0.0333   -0.0101
           8   -0.2554    0.1023    0.0000   -0.0000   -0.0000   -0.0001    0.0147    0.0058
           9    0.0003   -0.0003    0.2572    0.0163   -0.0327   -0.3316    0.0000    0.0003
          10   -0.4120    0.3094   -0.0000   -0.0000   -0.0002   -0.0001   -0.0334    0.0097
          11   -0.2555   -0.1020   -0.0001   -0.0000   -0.0000   -0.0001   -0.0148    0.0056
          12    0.0005   -0.0003   -0.2579    0.0159    0.0333   -0.3312   -0.0003   -0.0000
          13    0.0383   -0.2632    0.0000   -0.0000    0.0001    0.0001    0.0075   -0.0077
          14   -0.0764    0.4461    0.0001    0.0000   -0.0001   -0.0000    0.0054    0.0160
          15    0.0003   -0.0002    0.2372   -0.0297   -0.0685    0.2346   -0.0001   -0.0003
          16   -0.0385   -0.2634   -0.0002   -0.0000    0.0001    0.0001    0.0075    0.0078
          17   -0.0768   -0.4460   -0.0001   -0.0001    0.0001    0.0002   -0.0055    0.0159
          18    0.0002    0.0002   -0.2373   -0.0303    0.0680    0.2347    0.0003    0.0001
          19    0.1577   -0.0955   -0.0000   -0.0000    0.0001    0.0000   -0.3030   -0.3078
          20    0.2432   -0.1541   -0.0000   -0.0000   -0.0000    0.0001    0.1866    0.1880
          21    0.0000   -0.0001    0.0831    0.3172    0.3056    0.0257    0.0001    0.0000
          22   -0.1578   -0.0954    0.0000    0.0000   -0.0001    0.0003   -0.3068    0.3040
          23    0.2434    0.1538   -0.0001    0.0004   -0.0003    0.0001   -0.1890    0.1857
          24   -0.0001   -0.0002   -0.0830    0.3202   -0.3026    0.0254    0.0002   -0.0003
          25    0.0268   -0.0933   -0.0000    0.0000    0.0001    0.0000    0.1136    0.1175
          26    0.1956   -0.0677   -0.0000    0.0001    0.0001    0.0000   -0.0754   -0.0782
          27    0.0001   -0.0000   -0.0118   -0.2867   -0.2959   -0.0404   -0.0000    0.0000
          28   -0.0269   -0.0933   -0.0000   -0.0001    0.0001   -0.0001    0.1151   -0.1162
          29    0.1957    0.0675   -0.0000   -0.0001    0.0002   -0.0001    0.0763   -0.0772
          30    0.0001    0.0000    0.0117   -0.2895    0.2932   -0.0402   -0.0001    0.0001
          31    0.1214    0.0915   -0.0001    0.0000   -0.0000    0.0001   -0.0098   -0.0030
          32   -0.1654   -0.0746   -0.0000   -0.0001   -0.0000    0.0000    0.0114   -0.0047
          33   -0.0005    0.0003   -0.4021   -0.0370    0.0236    0.4549    0.0000   -0.0003
          34   -0.1213    0.0916    0.0001   -0.0000   -0.0001    0.0001   -0.0098    0.0029
          35   -0.1653    0.0750    0.0002   -0.0001   -0.0000    0.0001   -0.0115   -0.0048
          36   -0.0002    0.0002    0.4033   -0.0368   -0.0246    0.4545    0.0004   -0.0001
          37   -0.0864   -0.0251   -0.0001   -0.0000    0.0000   -0.0003    0.0279   -0.0031
[...]
 FREQ.      1109.03         C  6 -- H 14         +17.1% ( 54.6%)      0.3%
 T-DIPOLE    0.0826         C  5 -- H 13         +17.1% ( 54.6%)      0.3%
 TRAVEL      0.1125         C  2 -- C  4         +11.5% ( 44.8%)     27.9%
 RED. MASS   0.3706         C  1 -- C  3         +11.5% ( 44.8%)     27.9%
 EFF. MASS   4.8001

 VIBRATION   28   28A         ATOM PAIR      ENERGY CONTRIBUTION    RADIAL
 FREQ.      1154.47         C  5 -- H 13         +32.7% ( 57.5%)      0.1%
 T-DIPOLE    0.0359         C  6 -- H 14         +32.7% ( 57.5%)      0.1%
 TRAVEL      0.2138         C  3 -- H 11         +13.9% ( 37.5%)      0.0%
 RED. MASS   0.2874         C  4 -- H 12         +13.9% ( 37.5%)      0.0%
 EFF. MASS   1.2782

 VIBRATION   29   29A         ATOM PAIR      ENERGY CONTRIBUTION    RADIAL
 FREQ.      1186.78         C  4 -- H 12         +24.7% ( 57.5%)      1.7%
 T-DIPOLE    0.0252         C  3 -- H 11         +24.7% ( 57.5%)      1.7%
 TRAVEL      0.1338         C  2 -- C  4          +9.0% ( 34.7%)     39.6%
 RED. MASS   0.4262         C  1 -- C  3          +9.0% ( 34.7%)     39.6%
 EFF. MASS   3.1755

 VIBRATION   30   30A         ATOM PAIR      ENERGY CONTRIBUTION    RADIAL
 FREQ.      1211.73         C  1 -- C  2         +11.7% ( 39.7%)      0.0%
 T-DIPOLE    0.0247         C  6 -- H 14          +7.1% ( 31.0%)      1.5%
 TRAVEL      0.1320         C  5 -- H 13          +7.1% ( 31.0%)      1.5%
 RED. MASS   0.1819         C  8 -- H 17          +7.0% ( 30.8%)      0.1%
 EFF. MASS   3.1917

 VIBRATION   31   31A         ATOM PAIR      ENERGY CONTRIBUTION    RADIAL
 FREQ.      1232.03         C  1 -- C  2         +11.6% ( 37.6%)    100.0%
 T-DIPOLE    0.1418         C  7 -- H 15         +11.0% ( 36.6%)      0.2%
 TRAVEL      0.1287         C  8 -- H 17         +11.0% ( 36.6%)      0.2%
 RED. MASS   0.2418         C  7 -- H 16         +10.9% ( 36.5%)      0.2%
 EFF. MASS   3.3025         C  8 -- H 18         +10.9% ( 36.5%)      0.2%

 VIBRATION   32   32A         ATOM PAIR      ENERGY CONTRIBUTION    RADIAL
 FREQ.      1324.76         C  2 -- C  4         +11.9% ( 48.6%)     74.2%
 T-DIPOLE    0.0210         C  1 -- C  3         +11.9% ( 48.6%)     74.2%
 TRAVEL      0.0821         C  4 -- C  6          +5.9% ( 34.3%)      1.8%
 RED. MASS   0.6346         C  3 -- C  5          +5.9% ( 34.3%)      1.8%
 EFF. MASS   7.5537

 VIBRATION   33   33A         ATOM PAIR      ENERGY CONTRIBUTION    RADIAL
 FREQ.      1357.69         C  5 -- C  6         +15.9% ( 58.4%)    100.0%
 T-DIPOLE    0.0811         C  1 -- C  2         +10.4% ( 47.2%)    100.0%
 TRAVEL      0.0745         C  3 -- C  5          +7.1% ( 39.0%)     15.8%
 RED. MASS   0.9501         C  4 -- C  6          +7.1% ( 39.0%)     15.8%
 EFF. MASS   8.9412

 VIBRATION   34   34A         ATOM PAIR      ENERGY CONTRIBUTION    RADIAL
 FREQ.      1519.20         C  2 -- C  4         +13.5% ( 55.9%)     99.2%
 T-DIPOLE    0.0985         C  1 -- C  3         +13.5% ( 55.8%)     99.2%
 TRAVEL      0.0630         C  1 -- C  2         +11.0% ( 50.4%)    100.0%
 RED. MASS   1.4873         C  5 -- C  6         +10.5% ( 49.3%)    100.0%
 EFF. MASS  11.2005

 VIBRATION   35   35A         ATOM PAIR      ENERGY CONTRIBUTION    RADIAL
 FREQ.      1531.22         C  1 -- C  2         +20.1% ( 72.1%)      0.0%
 T-DIPOLE    0.0273         C  1 -- C  3         +11.1% ( 53.6%)     87.2%
 TRAVEL      0.0621         C  2 -- C  4         +11.1% ( 53.5%)     87.1%
 RED. MASS   2.1835         C  1 -- C  9          +8.2% ( 46.1%)     71.8%
 EFF. MASS  11.4373

 VIBRATION   36   36A         ATOM PAIR      ENERGY CONTRIBUTION    RADIAL
 FREQ.      1562.18         C  1 -- C  2         +30.6% ( 86.3%)    100.0%
 T-DIPOLE    0.0082         C  1 -- C  3         +12.2% ( 54.4%)     13.8%
 TRAVEL      0.0608         C  2 -- C  4         +12.2% ( 54.4%)     13.8%
 RED. MASS   3.5434         C  1 -- C  9         +10.4% ( 50.3%)     38.3%
 EFF. MASS  11.6658         C  2 -- C 10         +10.4% ( 50.3%)     38.3%

 VIBRATION   37   37A         ATOM PAIR      ENERGY CONTRIBUTION    RADIAL
 FREQ.      1802.24         C  4 -- C  6         +21.7% ( 70.3%)     98.8%
 T-DIPOLE    0.3640         C  3 -- C  5         +21.5% ( 70.0%)     98.7%
 TRAVEL      0.0559         C  5 -- C  6         +16.7% ( 61.6%)    100.0%
 RED. MASS   2.8735         C  6 -- H 14          +7.2% ( 40.6%)      1.6%
 EFF. MASS  11.9810

 VIBRATION   38   38A         ATOM PAIR      ENERGY CONTRIBUTION    RADIAL
 FREQ.      1846.30         C  3 -- C  5         +21.7% ( 68.0%)     98.9%
 T-DIPOLE    0.4030         C  4 -- C  6         +21.5% ( 67.7%)     98.9%
 TRAVEL      0.0557         C  5 -- C  6         +11.7% ( 49.8%)      0.0%
 RED. MASS   2.6252         C  1 -- C  3          +8.5% ( 42.7%)     55.7%
 EFF. MASS  11.7881

 VIBRATION   39   39A         ATOM PAIR      ENERGY CONTRIBUTION    RADIAL
 FREQ.      2224.28         C  8 -- C 10         +21.2% ( 61.0%)    100.0%
 T-DIPOLE    0.6345         C  7 -- C  9         +21.1% ( 60.9%)    100.0%
 TRAVEL      0.0505         C  2 -- C 10         +20.6% ( 60.1%)    100.0%
 RED. MASS   2.9058         C  1 -- C  9         +20.5% ( 60.1%)    100.0%
 EFF. MASS  11.9059

 VIBRATION   40   40A         ATOM PAIR      ENERGY CONTRIBUTION    RADIAL
 FREQ.      2244.67         C  7 -- C  9         +21.0% ( 60.2%)    100.0%
 T-DIPOLE    0.8529         C  8 -- C 10         +21.0% ( 60.1%)    100.0%
 TRAVEL      0.0502         C  1 -- C  9         +20.8% ( 59.9%)    100.0%
 RED. MASS   2.9179         C  2 -- C 10         +20.8% ( 59.8%)    100.0%
 EFF. MASS  11.9007

 VIBRATION   41   41A         ATOM PAIR      ENERGY CONTRIBUTION    RADIAL
 FREQ.      3051.81         C  6 -- H 14         +27.3% ( 53.1%)    100.0%
 T-DIPOLE    0.2376         C  5 -- H 13         +26.7% ( 52.5%)    100.0%
 TRAVEL      0.1223         C  4 -- H 12         +22.2% ( 47.9%)    100.0%
 RED. MASS   0.2351         C  3 -- H 11         +21.4% ( 47.0%)    100.0%
 EFF. MASS   1.4779

 VIBRATION   42   42A         ATOM PAIR      ENERGY CONTRIBUTION    RADIAL
 FREQ.      3054.73         C  3 -- H 11         +34.3% ( 59.4%)    100.0%
 T-DIPOLE    0.2823         C  4 -- H 12         +33.6% ( 58.8%)    100.0%
 TRAVEL      0.1227         C  5 -- H 13         +15.1% ( 39.5%)     99.9%
 RED. MASS   0.2684         C  6 -- H 14         +14.5% ( 38.6%)     99.9%
 EFF. MASS   1.4668

 VIBRATION   43   43A         ATOM PAIR      ENERGY CONTRIBUTION    RADIAL
 FREQ.      3067.94         C  4 -- H 12         +26.7% ( 52.5%)     99.9%
 T-DIPOLE    0.4202         C  3 -- H 11         +26.6% ( 52.4%)     99.9%
 TRAVEL      0.1183         C  6 -- H 14         +21.7% ( 47.4%)     99.8%
 RED. MASS   0.2355         C  5 -- H 13         +21.4% ( 47.0%)     99.8%
 EFF. MASS   1.5708

 VIBRATION   44   44A         ATOM PAIR      ENERGY CONTRIBUTION    RADIAL
 FREQ.      3077.27         C  5 -- H 13         +33.7% ( 58.8%)    100.0%
 T-DIPOLE    0.4428         C  6 -- H 14         +33.5% ( 58.7%)    100.0%
 TRAVEL      0.1168         C  3 -- H 11         +14.7% ( 38.8%)     99.9%
 RED. MASS   0.2692         C  4 -- H 12         +14.5% ( 38.6%)     99.9%
 EFF. MASS   1.6052

 VIBRATION   45   45A         ATOM PAIR      ENERGY CONTRIBUTION    RADIAL
 FREQ.      3111.44         C  8 -- H 18         +30.0% ( 54.8%)     95.6%
 T-DIPOLE    0.3436         C  8 -- H 17         +27.2% ( 52.2%)     94.7%
 TRAVEL      0.1238         C  7 -- H 16         +20.7% ( 45.5%)     95.3%
 RED. MASS   0.2499         C  7 -- H 15         +20.3% ( 45.1%)     95.1%
 EFF. MASS   1.4138

 VIBRATION   46   46A         ATOM PAIR      ENERGY CONTRIBUTION    RADIAL
 FREQ.      3111.61         C  7 -- H 16         +28.6% ( 53.5%)     95.2%
 T-DIPOLE    0.4232         C  7 -- H 15         +28.6% ( 53.5%)     95.2%
 TRAVEL      0.1240         C  8 -- H 18         +21.4% ( 46.3%)     95.6%
 RED. MASS   0.2497         C  8 -- H 17         +19.6% ( 44.3%)     94.8%
 EFF. MASS   1.4095

 VIBRATION   47   47A         ATOM PAIR      ENERGY CONTRIBUTION    RADIAL
 FREQ.      3114.84         C  8 -- H 17         +34.7% ( 60.3%)     97.4%
 T-DIPOLE    0.0602         C  8 -- H 18         +31.6% ( 57.5%)     96.8%
 TRAVEL      0.1166         C  7 -- H 15         +16.4% ( 41.5%)     97.2%
 RED. MASS   0.2979         C  7 -- H 16         +16.2% ( 41.1%)     97.1%
 EFF. MASS   1.5921

 VIBRATION   48   48A         ATOM PAIR      ENERGY CONTRIBUTION    RADIAL
 FREQ.      3114.93         C  7 -- H 15         +33.2% ( 59.0%)     97.1%
 T-DIPOLE    0.3397         C  7 -- H 16         +33.1% ( 58.9%)     97.1%
 TRAVEL      0.1166         C  8 -- H 17         +16.9% ( 42.1%)     97.3%
 RED. MASS   0.2975         C  8 -- H 18         +15.7% ( 40.5%)     96.9%
 EFF. MASS   1.5921

      SYMMETRY NUMBER FOR POINT-GROUP C1  =  1


          SYSTEM IS A GROUND STATE



 InChI=1S/C10H8/c1-3-9-7-5-6-8-10(9)4-2/h5-8H,1-2H2


          MOLECULE IS NOT LINEAR

          THERE ARE 48 GENUINE VIBRATIONS IN THIS SYSTEM
          THIS THERMODYNAMICS CALCULATION IS LIMITED TO
          MOLECULES WHICH HAVE NO INTERNAL ROTATIONS




                    CALCULATED THERMODYNAMIC PROPERTIES
                                          *
   TEMP. (K)   PARTITION FUNCTION   H.O.F.    ENTHALPY  HEAT CAPACITY ENTROPY
                                   KCAL/MOL   CAL/MOLE    CAL/K/MOL  CAL/K/MOL


 298.00  VIB.     0.1353D+03                  3844.0451    28.4328    22.6511
         ROT.     0.6409D+06                   888.2813     2.9808    29.5509
         INT.     0.8668D+08                  4732.3264    31.4136    52.2019
         TRA.     0.1403D+28                  1480.4688     4.9680    40.4556
         TOT.                      124.049    6212.7952    36.3816    92.6576

 200.00  VIB.     0.1742D+02                  1582.1039    17.6868    13.5894
         ROT.     0.3524D+06                   596.1620     2.9808    28.3622
         INT.     0.6139D+07                  2178.2658    20.6677    41.9516
         TRA.     0.7713D+27                   993.6033     4.9680    38.4745
         TOT.                      121.008    3171.8691    25.6357    80.4261

 210.00  VIB.     0.2128D+02                  1764.4408    18.7819    14.4788
         ROT.     0.3791D+06                   625.9700     2.9808    28.5076
         INT.     0.8069D+07                  2390.4108    21.7627    42.9865
         TRA.     0.8299D+27                  1043.2834     4.9680    38.7169
         TOT.                      121.270    3433.6942    26.7307    81.7034

 220.00  VIB.     0.2606D+02                  1957.7631    19.8835    15.3780
         ROT.     0.4065D+06                   655.7781     2.9808    28.6463
         INT.     0.1059D+08                  2613.5413    22.8643    44.0243
         TRA.     0.8899D+27                  1092.9636     4.9680    38.9480
         TOT.                      121.543    3706.5049    27.8323    82.9723

 230.00  VIB.     0.3198D+02                  2162.1246    20.9892    16.2862
         ROT.     0.4345D+06                   685.5862     2.9808    28.7788
         INT.     0.1389D+08                  2847.7109    23.9701    45.0650
         TRA.     0.9512D+27                  1142.6437     4.9680    39.1689
         TOT.                      121.827    3990.3546    28.9381    84.2339

 240.00  VIB.     0.3932D+02                  2377.5531    22.0965    17.2029
         ROT.     0.4632D+06                   715.3943     2.9808    28.9056
         INT.     0.1821D+08                  3092.9474    25.0773    46.1086
         TRA.     0.1014D+28                  1192.3239     4.9680    39.3803
         TOT.                      122.122    4285.2713    30.0453    85.4889

 250.00  VIB.     0.4844D+02                  2604.0516    23.2029    18.1274
         ROT.     0.4924D+06                   745.2024     2.9808    29.0273
         INT.     0.2386D+08                  3349.2541    26.1837    47.1547
         TRA.     0.1078D+28                  1242.0041     4.9680    39.5831
         TOT.                      122.428    4591.2581    31.1517    86.7378

 260.00  VIB.     0.5980D+02                  2841.5995    24.3060    19.0589
         ROT.     0.5223D+06                   775.0105     2.9808    29.1442
         INT.     0.3123D+08                  3616.6101    27.2868    48.2031
         TRA.     0.1143D+28                  1291.6842     4.9680    39.7779
         TOT.                      122.745    4908.2943    32.2548    87.9811

 270.00  VIB.     0.7395D+02                  3090.1538    25.4038    19.9968
         ROT.     0.5527D+06                   804.8186     2.9808    29.2567
         INT.     0.4087D+08                  3894.9724    28.3846    49.2536
         TRA.     0.1210D+28                  1341.3644     4.9680    39.9654
         TOT.                      123.073    5236.3368    33.3526    89.2190

 280.00  VIB.     0.9162D+02                  3349.6506    26.4942    20.9404
         ROT.     0.5837D+06                   834.6267     2.9808    29.3651
         INT.     0.5347D+08                  4184.2773    29.4750    50.3056
         TRA.     0.1278D+28                  1391.0445     4.9680    40.1461
         TOT.                      123.412    5575.3218    34.4430    90.4517

 290.00  VIB.     0.1137D+03                  3620.0072    27.5755    21.8890
         ROT.     0.6152D+06                   864.4348     2.9808    29.4697
         INT.     0.6994D+08                  4484.4421    30.5563    51.3588
         TRA.     0.1347D+28                  1440.7247     4.9680    40.3205
         TOT.                      123.762    5925.1668    35.5243    91.6792

 300.00  VIB.     0.1413D+03                  3901.1239    28.6459    22.8420
         ROT.     0.6473D+06                   894.2429     2.9808    29.5708
         INT.     0.9146D+08                  4795.3668    31.6268    52.4128
         TRA.     0.1417D+28                  1490.4049     4.9680    40.4889
         TOT.                      124.122    6285.7717    36.5948    92.9016

 310.00  VIB.     0.1758D+03                  4192.8854    29.7042    23.7986
         ROT.     0.6799D+06                   924.0510     2.9808    29.6685
         INT.     0.1196D+09                  5116.9364    32.6850    53.4671
         TRA.     0.1488D+28                  1540.0850     4.9680    40.6518
         TOT.                      124.494    6657.0214    37.6530    94.1189

 320.00  VIB.     0.2192D+03                  4495.1631    30.7490    24.7582
         ROT.     0.7131D+06                   953.8591     2.9808    29.7632
         INT.     0.1563D+09                  5449.0222    33.7298    54.5213
         TRA.     0.1561D+28                  1589.7652     4.9680    40.8095
         TOT.                      124.875    7038.7874    38.6978    95.3308

 330.00  VIB.     0.2735D+03                  4807.8170    31.7793    25.7202
         ROT.     0.7468D+06                   983.6672     2.9808    29.8549
         INT.     0.2043D+09                  5791.4842    34.7601    55.5751
         TRA.     0.1635D+28                  1639.4454     4.9680    40.9624
         TOT.                      125.267    7430.9296    39.7281    96.5375

 340.00  VIB.     0.3418D+03                  5130.6969    32.7941    26.6840
         ROT.     0.7810D+06                  1013.4753     2.9808    29.9439
         INT.     0.2669D+09                  6144.1722    35.7749    56.6279
         TRA.     0.1710D+28                  1689.1255     4.9680    41.1107
         TOT.                      125.670    7833.2977    40.7429    97.7386

 350.00  VIB.     0.4275D+03                  5463.6447    33.7927    27.6490
         ROT.     0.8157D+06                  1043.2834     2.9808    30.0303
         INT.     0.3488D+09                  6506.9281    36.7735    57.6793
         TRA.     0.1786D+28                  1738.8057     4.9680    41.2547
         TOT.                      126.082    8245.7338    41.7416    98.9340

 360.00  VIB.     0.5354D+03                  5806.4956    34.7746    28.6148
         ROT.     0.8509D+06                  1073.0915     2.9808    30.1143
         INT.     0.4556D+09                  6879.5871    37.7554    58.7291
         TRA.     0.1863D+28                  1788.4859     4.9680    41.3947
         TOT.                      126.505    8668.0730    42.7234   100.1237

 370.00  VIB.     0.6711D+03                  6159.0795    35.7393    29.5808
         ROT.     0.8866D+06                  1102.8996     2.9808    30.1959
         INT.     0.5950D+09                  7261.9791    38.7201    59.7767
         TRA.     0.1941D+28                  1838.1660     4.9680    41.5308
         TOT.                      126.937    9100.1451    43.6881   101.3075

 380.00  VIB.     0.8420D+03                  6521.2223    36.6864    30.5465
         ROT.     0.9228D+06                  1132.7077     2.9808    30.2754
         INT.     0.7770D+09                  7653.9300    39.6672    60.8220
         TRA.     0.2020D+28                  1887.8462     4.9680    41.6633
         TOT.                      127.378    9541.7762    44.6352   102.4852

 390.00  VIB.     0.1057D+04                  6892.7475    37.6157    31.5115
         ROT.     0.9595D+06                  1162.5158     2.9808    30.3529
         INT.     0.1014D+10                  8055.2633    40.5965    61.8644
         TRA.     0.2100D+28                  1937.5263     4.9680    41.7923
         TOT.                      127.829    9992.7896    45.5645   103.6567

 400.00  VIB.     0.1329D+04                  7273.4766    38.5271    32.4754
         ROT.     0.9966D+06                  1192.3239     2.9808    30.4283
         INT.     0.1324D+10                  8465.8005    41.5079    62.9037
         TRA.     0.2182D+28                  1987.2065     4.9680    41.9181
         TOT.                      128.290   10453.0070    46.4760   104.8218

   *: NOTE: HEATS OF FORMATION ARE RELATIVE TO THE
            ELEMENTS IN THEIR STANDARD STATE AT 298K
              (=  Standard Enthalpy of Formation).

            Hvib:  Zero-point energy is not included.
                   frequencies of less than zero cm-1 are not included.
            Hrot = (3/2)RT
            Htra = (3/2)RT + pV = (5/2)RT

            Heat capacity is Cp, not Cv

          For more information, see: HTTP://OpenMOPAC.net/Manual/thermochemistry.html


           FORCE CONSTANT IN CARTESIAN COORDINATES (Millidynes/A)

    ATOM   CHEMICAL       X               Y               Z
   NUMBER   SYMBOL  FORCE CONSTANT  FORCE CONSTANT  FORCE CONSTANT

      1       C       11.775328       14.283373        2.328165
      2       C       11.774384       14.283233        2.327810
      3       C       11.589840       13.518438        2.194076
      4       C       11.589665       13.517542        2.191485
      5       C       11.524492       13.699774        2.209407
      6       C       11.514438       13.699943        2.209939
      7       C        5.920292       11.905733        8.313805
      8       C        5.918354       11.907097        8.313596
      9       C        8.421514       17.945375        1.566073
     10       C        8.419359       17.946948        1.566345
     11       H        5.146066        0.771797        0.343862
     12       H        5.145869        0.771798        0.343895
     13       H        1.730495        4.186197        0.344848
     14       H        1.729854        4.186743        0.345219
     15       H        0.767368        1.468995        4.000190
     16       H        0.767885        1.472297        3.995498
     17       H        0.767147        1.473426        3.995643
     18       H        0.767318        1.468086        3.999832

 **********************
 *                    *
 * JOB ENDED NORMALLY *
 *                    *
 **********************



 TOTAL JOB TIME:             1.81 SECONDS

 == MOPAC DONE ==
