 *******************************************************************************
 ** Site#: 14399        For non-commercial use only    Version 18.184L 64BITS **
 *******************************************************************************
 ** Cite this program as: MOPAC2016, Version: 18.184L, James J. P. Stewart,   **
 ** Stewart Computational Chemistry, web: HTTP://OpenMOPAC.net. Days left:  18**
 *******************************************************************************
 **                                                                           **
 **                                MOPAC2016                                  **
 **                                                                           **
 *******************************************************************************

                              PM3 CALCULATION RESULTS

 *******************************************************************************
 *  CALCULATION DONE:                                Sat Jun 15 10:23:03 2019  *
 *  PM3        - The PM3 Hamiltonian to be used
 *  PRECISE    - CRITERIA TO BE INCREASED BY 100 TIMES
 *  NOSYM      - POINT-GROUP SYMMETRY SET TO C1
 *  THREADS=1  - MULTI-THREADING NOT USED
 *  T=         - A TIME OF 172800.0 SECONDS REQUESTED
 *  DUMP=N     - RESTART FILE WRITTEN EVERY  7200.000 SECONDS
 *******************************************************************************
pm3  precise nosym THREADS=1
 InChI=1S/C7H12O2/c8-9-7-5-3-1-2-4-6-7/h5,8H,1-4,6H2

   ATOM   CHEMICAL          X               Y               Z
  NUMBER   SYMBOL      (ANGSTROMS)     (ANGSTROMS)     (ANGSTROMS)
 
     1       O          2.57700000  *   0.34930000  *   0.72190000  *
     2       O          3.36670000  *  -0.73300000  *   0.74240000  *
     3       C         -1.70650000  *  -0.74910000  *  -0.37660000  *
     4       C         -0.41730000  *  -1.47650000  *   0.02980000  *
     5       C         -1.79000000  *   0.68660000  *   0.15920000  *
     6       C          0.83460000  *  -0.88710000  *  -0.63630000  *
     7       C         -0.75550000  *   1.62150000  *  -0.48210000  *
     8       C          1.33030000  *   0.34640000  *   0.08770000  *
     9       C          0.60260000  *   1.46950000  *   0.14470000  *
    10       H         -0.51340000  *  -2.53700000  *  -0.29020000  *
    11       H         -0.30660000  *  -1.47820000  *   1.13680000  *
    12       H         -2.56770000  *  -1.32000000  *   0.03360000  *
    13       H         -1.81360000  *  -0.75050000  *  -1.48360000  *
    14       H         -1.68770000  *   0.69190000  *   1.26710000  *
    15       H         -2.80330000  *   1.07810000  *  -0.07760000  *
    16       H          1.62080000  *  -1.66980000  *  -0.63690000  *
    17       H          0.63740000  *  -0.64760000  *  -1.70380000  *
    18       H         -1.09020000  *   2.67000000  *  -0.32710000  *
    19       H         -0.69520000  *   1.45700000  *  -1.57980000  *
    20       H          1.01060000  *   2.32480000  *   0.67050000  *
    21       H          4.16700000  *  -0.44660000  *   1.25040000  *
 


          CARTESIAN COORDINATES 

    NO.       ATOM           X           Y           Z

     1         O          2.5770      0.3493      0.7219
     2         O          3.3667     -0.7330      0.7424
     3         C         -1.7065     -0.7491     -0.3766
     4         C         -0.4173     -1.4765      0.0298
     5         C         -1.7900      0.6866      0.1592
     6         C          0.8346     -0.8871     -0.6363
     7         C         -0.7555      1.6215     -0.4821
     8         C          1.3303      0.3464      0.0877
     9         C          0.6026      1.4695      0.1447
    10         H         -0.5134     -2.5370     -0.2902
    11         H         -0.3066     -1.4782      1.1368
    12         H         -2.5677     -1.3200      0.0336
    13         H         -1.8136     -0.7505     -1.4836
    14         H         -1.6877      0.6919      1.2671
    15         H         -2.8033      1.0781     -0.0776
    16         H          1.6208     -1.6698     -0.6369
    17         H          0.6374     -0.6476     -1.7038
    18         H         -1.0902      2.6700     -0.3271
    19         H         -0.6952      1.4570     -1.5798
    20         H          1.0106      2.3248      0.6705
    21         H          4.1670     -0.4466      1.2504

  H: (PM3): J. J. P. STEWART, J. COMP. CHEM. 10, 209 (1989).
  C: (PM3): J. J. P. STEWART, J. COMP. CHEM. 10, 209 (1989).
  O: (PM3): J. J. P. STEWART, J. COMP. CHEM. 10, 209 (1989).

           Empirical Formula: C7 H12 O2  =    21 atoms



      MOLECULAR POINT GROUP   :   C1  


      RHF CALCULATION, NO. OF DOUBLY OCCUPIED LEVELS = 26


          Geometry optimization using EF

          DIAGONAL MATRIX USED AS START HESSIAN

 CYCLE:     1 TIME:   0.004 TIME LEFT:  2.00D  GRAD.:   193.597 HEAT: -16.45815
 CYCLE:     2 TIME:   0.004 TIME LEFT:  2.00D  GRAD.:   158.513 HEAT: -24.56353
 CYCLE:     3 TIME:   0.008 TIME LEFT:  2.00D  GRAD.:   151.442 HEAT: -25.31843
 CYCLE:     4 TIME:   0.008 TIME LEFT:  2.00D  GRAD.:   102.286 HEAT: -27.44114
 CYCLE:     5 TIME:   0.008 TIME LEFT:  2.00D  GRAD.:    31.486 HEAT: -29.64016
 CYCLE:     6 TIME:   0.008 TIME LEFT:  2.00D  GRAD.:    30.273 HEAT: -29.81378
 CYCLE:     7 TIME:   0.008 TIME LEFT:  2.00D  GRAD.:    15.706 HEAT: -30.05721
 CYCLE:     8 TIME:   0.004 TIME LEFT:  2.00D  GRAD.:    19.759 HEAT: -30.11190
 CYCLE:     9 TIME:   0.004 TIME LEFT:  2.00D  GRAD.:    20.669 HEAT: -30.20545
 CYCLE:    10 TIME:   0.004 TIME LEFT:  2.00D  GRAD.:    17.237 HEAT: -30.31789
 CYCLE:    11 TIME:   0.004 TIME LEFT:  2.00D  GRAD.:    21.045 HEAT: -30.34109
 CYCLE:    12 TIME:   0.004 TIME LEFT:  2.00D  GRAD.:    20.282 HEAT: -30.41312
 CYCLE:    13 TIME:   0.008 TIME LEFT:  2.00D  GRAD.:     8.611 HEAT: -30.51460
 CYCLE:    14 TIME:   0.008 TIME LEFT:  2.00D  GRAD.:     7.297 HEAT: -30.54198
 CYCLE:    15 TIME:   0.004 TIME LEFT:  2.00D  GRAD.:     7.186 HEAT: -30.57729
 CYCLE:    16 TIME:   0.004 TIME LEFT:  2.00D  GRAD.:     7.594 HEAT: -30.62353
 CYCLE:    17 TIME:   0.004 TIME LEFT:  2.00D  GRAD.:    10.751 HEAT: -30.66242
 CYCLE:    18 TIME:   0.008 TIME LEFT:  2.00D  GRAD.:     8.417 HEAT: -30.72095
 CYCLE:    19 TIME:   0.008 TIME LEFT:  2.00D  GRAD.:    11.116 HEAT: -30.73349
 CYCLE:    20 TIME:   0.004 TIME LEFT:  2.00D  GRAD.:     8.098 HEAT: -30.76272
 CYCLE:    21 TIME:   0.008 TIME LEFT:  2.00D  GRAD.:     9.861 HEAT: -30.76877
 CYCLE:    22 TIME:   0.004 TIME LEFT:  2.00D  GRAD.:     5.261 HEAT: -30.79452
 CYCLE:    23 TIME:   0.004 TIME LEFT:  2.00D  GRAD.:     5.690 HEAT: -30.80476
 CYCLE:    24 TIME:   0.004 TIME LEFT:  2.00D  GRAD.:     3.841 HEAT: -30.81943
 CYCLE:    25 TIME:   0.004 TIME LEFT:  2.00D  GRAD.:     5.779 HEAT: -30.82150
 CYCLE:    26 TIME:   0.004 TIME LEFT:  2.00D  GRAD.:     1.932 HEAT: -30.83298
 CYCLE:    27 TIME:   0.004 TIME LEFT:  2.00D  GRAD.:     1.561 HEAT: -30.83624
 CYCLE:    28 TIME:   0.004 TIME LEFT:  2.00D  GRAD.:     1.581 HEAT: -30.83943
 CYCLE:    29 TIME:   0.004 TIME LEFT:  2.00D  GRAD.:     1.939 HEAT: -30.84172
 CYCLE:    30 TIME:   0.004 TIME LEFT:  2.00D  GRAD.:     1.031 HEAT: -30.84375
 CYCLE:    31 TIME:   0.004 TIME LEFT:  2.00D  GRAD.:     0.900 HEAT: -30.84476
 CYCLE:    32 TIME:   0.008 TIME LEFT:  2.00D  GRAD.:     0.642 HEAT: -30.84597
 CYCLE:    33 TIME:   0.004 TIME LEFT:  2.00D  GRAD.:     0.761 HEAT: -30.84730
 CYCLE:    34 TIME:   0.004 TIME LEFT:  2.00D  GRAD.:     0.782 HEAT: -30.84816
 CYCLE:    35 TIME:   0.004 TIME LEFT:  2.00D  GRAD.:     0.632 HEAT: -30.84902
 CYCLE:    36 TIME:   0.004 TIME LEFT:  2.00D  GRAD.:     0.556 HEAT: -30.84988
 CYCLE:    37 TIME:   0.004 TIME LEFT:  2.00D  GRAD.:     0.619 HEAT: -30.85065
 CYCLE:    38 TIME:   0.004 TIME LEFT:  2.00D  GRAD.:     0.574 HEAT: -30.85139
 CYCLE:    39 TIME:   0.004 TIME LEFT:  2.00D  GRAD.:     0.581 HEAT: -30.85225
 CYCLE:    40 TIME:   0.008 TIME LEFT:  2.00D  GRAD.:     0.709 HEAT: -30.85317
 CYCLE:    41 TIME:   0.004 TIME LEFT:  2.00D  GRAD.:     0.940 HEAT: -30.85492
 CYCLE:    42 TIME:   0.004 TIME LEFT:  2.00D  GRAD.:     1.567 HEAT: -30.85847
 CYCLE:    43 TIME:   0.004 TIME LEFT:  2.00D  GRAD.:     3.263 HEAT: -30.86586
 CYCLE:    44 TIME:   0.004 TIME LEFT:  2.00D  GRAD.:     7.477 HEAT: -30.87513
 CYCLE:    45 TIME:   0.004 TIME LEFT:  2.00D  GRAD.:     6.270 HEAT: -30.92366
 CYCLE:    46 TIME:   0.004 TIME LEFT:  2.00D  GRAD.:    12.543 HEAT: -31.02205
 CYCLE:    47 TIME:   0.008 TIME LEFT:  2.00D  GRAD.:    16.956 HEAT: -31.11121
 CYCLE:    48 TIME:   0.004 TIME LEFT:  2.00D  GRAD.:    10.552 HEAT: -31.31420
 CYCLE:    49 TIME:   0.008 TIME LEFT:  2.00D  GRAD.:     8.192 HEAT: -31.37298
 CYCLE:    50 TIME:   0.004 TIME LEFT:  2.00D  GRAD.:    11.025 HEAT: -31.45297
 CYCLE:    51 TIME:   0.004 TIME LEFT:  2.00D  GRAD.:    11.572 HEAT: -31.55883
 CYCLE:    52 TIME:   0.004 TIME LEFT:  2.00D  GRAD.:     9.914 HEAT: -31.70391
 CYCLE:    53 TIME:   0.004 TIME LEFT:  2.00D  GRAD.:     9.178 HEAT: -31.82956
 CYCLE:    54 TIME:   0.004 TIME LEFT:  2.00D  GRAD.:    11.019 HEAT: -31.88783
 CYCLE:    55 TIME:   0.004 TIME LEFT:  2.00D  GRAD.:    13.478 HEAT: -31.92025
 CYCLE:    56 TIME:   0.004 TIME LEFT:  2.00D  GRAD.:     7.081 HEAT: -31.99264
 CYCLE:    57 TIME:   0.004 TIME LEFT:  2.00D  GRAD.:     4.132 HEAT: -32.02740
 CYCLE:    58 TIME:   0.008 TIME LEFT:  2.00D  GRAD.:     6.331 HEAT: -32.08962
 CYCLE:    59 TIME:   0.004 TIME LEFT:  2.00D  GRAD.:    14.652 HEAT: -32.17292
 CYCLE:    60 TIME:   0.004 TIME LEFT:  2.00D  GRAD.:     6.548 HEAT: -32.24972
 CYCLE:    61 TIME:   0.004 TIME LEFT:  2.00D  GRAD.:     4.625 HEAT: -32.31409
 CYCLE:    62 TIME:   0.004 TIME LEFT:  2.00D  GRAD.:     4.966 HEAT: -32.40748
 CYCLE:    63 TIME:   0.004 TIME LEFT:  2.00D  GRAD.:     4.646 HEAT: -32.47684
 CYCLE:    64 TIME:   0.004 TIME LEFT:  2.00D  GRAD.:     5.582 HEAT: -32.52390
 CYCLE:    65 TIME:   0.004 TIME LEFT:  2.00D  GRAD.:     6.213 HEAT: -32.57925
 CYCLE:    66 TIME:   0.008 TIME LEFT:  2.00D  GRAD.:     9.300 HEAT: -32.61477
 CYCLE:    67 TIME:   0.004 TIME LEFT:  2.00D  GRAD.:     3.849 HEAT: -32.65748
 CYCLE:    68 TIME:   0.004 TIME LEFT:  2.00D  GRAD.:     2.585 HEAT: -32.68404
 CYCLE:    69 TIME:   0.008 TIME LEFT:  2.00D  GRAD.:     3.202 HEAT: -32.70742
 CYCLE:    70 TIME:   0.004 TIME LEFT:  2.00D  GRAD.:     1.994 HEAT: -32.71760
 CYCLE:    71 TIME:   0.004 TIME LEFT:  2.00D  GRAD.:     1.794 HEAT: -32.72464
 CYCLE:    72 TIME:   0.004 TIME LEFT:  2.00D  GRAD.:     1.691 HEAT: -32.73072
 CYCLE:    73 TIME:   0.004 TIME LEFT:  2.00D  GRAD.:     1.648 HEAT: -32.73527
 CYCLE:    74 TIME:   0.004 TIME LEFT:  2.00D  GRAD.:     1.729 HEAT: -32.74018
 CYCLE:    75 TIME:   0.004 TIME LEFT:  2.00D  GRAD.:     1.643 HEAT: -32.74512
 CYCLE:    76 TIME:   0.004 TIME LEFT:  2.00D  GRAD.:     1.621 HEAT: -32.74976
 CYCLE:    77 TIME:   0.004 TIME LEFT:  2.00D  GRAD.:     1.581 HEAT: -32.75453
 CYCLE:    78 TIME:   0.008 TIME LEFT:  2.00D  GRAD.:     1.595 HEAT: -32.76104
 CYCLE:    79 TIME:   0.004 TIME LEFT:  2.00D  GRAD.:     1.896 HEAT: -32.76856
 CYCLE:    80 TIME:   0.004 TIME LEFT:  2.00D  GRAD.:     1.892 HEAT: -32.77656
 CYCLE:    81 TIME:   0.004 TIME LEFT:  2.00D  GRAD.:     2.545 HEAT: -32.78332
 CYCLE:    82 TIME:   0.004 TIME LEFT:  2.00D  GRAD.:     2.141 HEAT: -32.79125
 CYCLE:    83 TIME:   0.004 TIME LEFT:  2.00D  GRAD.:     2.409 HEAT: -32.79879
 CYCLE:    84 TIME:   0.004 TIME LEFT:  2.00D  GRAD.:     1.901 HEAT: -32.80813
 CYCLE:    85 TIME:   0.004 TIME LEFT:  2.00D  GRAD.:     1.400 HEAT: -32.81218
 CYCLE:    86 TIME:   0.008 TIME LEFT:  2.00D  GRAD.:     1.305 HEAT: -32.81505
 CYCLE:    87 TIME:   0.004 TIME LEFT:  2.00D  GRAD.:     1.051 HEAT: -32.81856
 CYCLE:    88 TIME:   0.004 TIME LEFT:  2.00D  GRAD.:     1.269 HEAT: -32.82175
 CYCLE:    89 TIME:   0.004 TIME LEFT:  2.00D  GRAD.:     1.215 HEAT: -32.82338
 CYCLE:    90 TIME:   0.004 TIME LEFT:  2.00D  GRAD.:     0.979 HEAT: -32.82511
 CYCLE:    91 TIME:   0.004 TIME LEFT:  2.00D  GRAD.:     0.850 HEAT: -32.82652
 CYCLE:    92 TIME:   0.004 TIME LEFT:  2.00D  GRAD.:     0.937 HEAT: -32.82872
 CYCLE:    93 TIME:   0.008 TIME LEFT:  2.00D  GRAD.:     0.991 HEAT: -32.83045
 CYCLE:    94 TIME:   0.004 TIME LEFT:  2.00D  GRAD.:     1.068 HEAT: -32.83338
 CYCLE:    95 TIME:   0.004 TIME LEFT:  2.00D  GRAD.:     0.892 HEAT: -32.83486
 CYCLE:    96 TIME:   0.004 TIME LEFT:  2.00D  GRAD.:     1.879 HEAT: -32.83786
 CYCLE:    97 TIME:   0.004 TIME LEFT:  2.00D  GRAD.:     1.040 HEAT: -32.83974
 CYCLE:    98 TIME:   0.004 TIME LEFT:  2.00D  GRAD.:     0.774 HEAT: -32.84186
 CYCLE:    99 TIME:   0.004 TIME LEFT:  2.00D  GRAD.:     1.149 HEAT: -32.84734
 CYCLE:   100 TIME:   0.004 TIME LEFT:  2.00D  GRAD.:     1.854 HEAT: -32.85234
 CYCLE:   101 TIME:   0.004 TIME LEFT:  2.00D  GRAD.:     2.115 HEAT: -32.86073
 CYCLE:   102 TIME:   0.008 TIME LEFT:  2.00D  GRAD.:     3.101 HEAT: -32.87057
 CYCLE:   103 TIME:   0.008 TIME LEFT:  2.00D  GRAD.:     2.071 HEAT: -32.87750
 CYCLE:   104 TIME:   0.004 TIME LEFT:  2.00D  GRAD.:     1.671 HEAT: -32.88293
 CYCLE:   105 TIME:   0.004 TIME LEFT:  2.00D  GRAD.:     1.366 HEAT: -32.89520
 CYCLE:   106 TIME:   0.004 TIME LEFT:  2.00D  GRAD.:     2.300 HEAT: -32.90588
 CYCLE:   107 TIME:   0.004 TIME LEFT:  2.00D  GRAD.:     1.957 HEAT: -32.90995
 CYCLE:   108 TIME:   0.004 TIME LEFT:  2.00D  GRAD.:     1.452 HEAT: -32.91543
 CYCLE:   109 TIME:   0.004 TIME LEFT:  2.00D  GRAD.:     1.515 HEAT: -32.91963
 CYCLE:   110 TIME:   0.004 TIME LEFT:  2.00D  GRAD.:     1.498 HEAT: -32.92321
 CYCLE:   111 TIME:   0.008 TIME LEFT:  2.00D  GRAD.:     1.174 HEAT: -32.92514
 CYCLE:   112 TIME:   0.004 TIME LEFT:  2.00D  GRAD.:     1.264 HEAT: -32.92693
 CYCLE:   113 TIME:   0.004 TIME LEFT:  2.00D  GRAD.:     1.137 HEAT: -32.92855
 CYCLE:   114 TIME:   0.004 TIME LEFT:  2.00D  GRAD.:     0.931 HEAT: -32.93072
 CYCLE:   115 TIME:   0.004 TIME LEFT:  2.00D  GRAD.:     0.970 HEAT: -32.93218
 CYCLE:   116 TIME:   0.004 TIME LEFT:  2.00D  GRAD.:     0.838 HEAT: -32.93302
 CYCLE:   117 TIME:   0.004 TIME LEFT:  2.00D  GRAD.:     0.854 HEAT: -32.93458
 CYCLE:   118 TIME:   0.004 TIME LEFT:  2.00D  GRAD.:     1.136 HEAT: -32.93580
 CYCLE:   119 TIME:   0.004 TIME LEFT:  2.00D  GRAD.:     0.999 HEAT: -32.93718
 CYCLE:   120 TIME:   0.004 TIME LEFT:  2.00D  GRAD.:     0.920 HEAT: -32.93887
 CYCLE:   121 TIME:   0.008 TIME LEFT:  2.00D  GRAD.:     0.889 HEAT: -32.94037
 CYCLE:   122 TIME:   0.004 TIME LEFT:  2.00D  GRAD.:     0.930 HEAT: -32.94196
 CYCLE:   123 TIME:   0.004 TIME LEFT:  2.00D  GRAD.:     0.811 HEAT: -32.94284
 CYCLE:   124 TIME:   0.004 TIME LEFT:  2.00D  GRAD.:     0.978 HEAT: -32.94415
 CYCLE:   125 TIME:   0.004 TIME LEFT:  2.00D  GRAD.:     0.956 HEAT: -32.94510
 CYCLE:   126 TIME:   0.004 TIME LEFT:  2.00D  GRAD.:     1.010 HEAT: -32.94637
 CYCLE:   127 TIME:   0.004 TIME LEFT:  2.00D  GRAD.:     0.977 HEAT: -32.94837
 CYCLE:   128 TIME:   0.008 TIME LEFT:  2.00D  GRAD.:     0.996 HEAT: -32.94934
 CYCLE:   129 TIME:   0.004 TIME LEFT:  2.00D  GRAD.:     1.130 HEAT: -32.95122
 CYCLE:   130 TIME:   0.004 TIME LEFT:  2.00D  GRAD.:     1.037 HEAT: -32.95255
 CYCLE:   131 TIME:   0.004 TIME LEFT:  2.00D  GRAD.:     0.636 HEAT: -32.95420
 CYCLE:   132 TIME:   0.004 TIME LEFT:  2.00D  GRAD.:     1.033 HEAT: -32.95529
 CYCLE:   133 TIME:   0.004 TIME LEFT:  2.00D  GRAD.:     0.752 HEAT: -32.95597
 CYCLE:   134 TIME:   0.004 TIME LEFT:  2.00D  GRAD.:     0.645 HEAT: -32.95673
 CYCLE:   135 TIME:   0.004 TIME LEFT:  2.00D  GRAD.:     0.651 HEAT: -32.95743
 CYCLE:   136 TIME:   0.008 TIME LEFT:  2.00D  GRAD.:     0.642 HEAT: -32.95819
 CYCLE:   137 TIME:   0.004 TIME LEFT:  2.00D  GRAD.:     0.622 HEAT: -32.95956
 CYCLE:   138 TIME:   0.004 TIME LEFT:  2.00D  GRAD.:     0.409 HEAT: -32.96016
 CYCLE:   139 TIME:   0.004 TIME LEFT:  2.00D  GRAD.:     0.388 HEAT: -32.96057
 CYCLE:   140 TIME:   0.004 TIME LEFT:  2.00D  GRAD.:     0.392 HEAT: -32.96072
 CYCLE:   141 TIME:   0.004 TIME LEFT:  2.00D  GRAD.:     0.184 HEAT: -32.96079
 CYCLE:   142 TIME:   0.004 TIME LEFT:  2.00D  GRAD.:     0.134 HEAT: -32.96088
 CYCLE:   143 TIME:   0.004 TIME LEFT:  2.00D  GRAD.:     0.106 HEAT: -32.96098
 CYCLE:   144 TIME:   0.004 TIME LEFT:  2.00D  GRAD.:     0.075 HEAT: -32.96099
 CYCLE:   145 TIME:   0.004 TIME LEFT:  2.00D  GRAD.:     0.040 HEAT: -32.96101

     GRADIENT =  0.04002  IS LESS THAN CUTOFF =  0.05000



 -------------------------------------------------------------------------------
 pm3  precise nosym THREADS=1
 InChI=1S/C7H12O2/c8-9-7-5-3-1-2-4-6-7/h5,8H,1-4,6H2



     GEOMETRY OPTIMISED USING EIGENVECTOR FOLLOWING (EF).     
     SCF FIELD WAS ACHIEVED                                   


                              PM3 CALCULATION
                                                       MOPAC2016 (Version: 18.184L)
                                                       Sat Jun 15 10:23:04 2019
                                                       No. of days remaining =  18




          FINAL HEAT OF FORMATION =        -32.96101 KCAL/MOL =    -137.90885 KJ/MOL


          TOTAL ENERGY            =      -1599.75424 EV
          ELECTRONIC ENERGY       =      -7838.65479 EV  POINT GROUP:     C1  
          CORE-CORE REPULSION     =       6238.90055 EV
          COSMO AREA              =        164.17 SQUARE ANGSTROMS
          COSMO VOLUME            =        166.94 CUBIC ANGSTROMS

          GRADIENT NORM           =          0.04002 = 0.00873 PER ATOM
          IONIZATION POTENTIAL    =          9.550018 EV
          HOMO LUMO ENERGIES (EV) =         -9.550  0.122
          NO. OF FILLED LEVELS    =         26
          MOLECULAR WEIGHT        =        128.1706

          MOLECULAR DIMENSIONS (Angstroms)

            Atom       Atom       Distance
            H    21    H    15     6.64360
            H    18    H    10     5.13903
            H    17    H    14     3.52851


          SCF CALCULATIONS        =        157
 
          WALL-CLOCK TIME         =          0.680 SECONDS
          COMPUTATION TIME        =          0.626 SECONDS




   ATOM   CHEMICAL          X               Y               Z
  NUMBER   SYMBOL      (ANGSTROMS)     (ANGSTROMS)     (ANGSTROMS)
 
     1       O          2.71362885  *  -0.00849327  *   0.11281817  *
     2       O          2.85015349  *   0.10074973  *   1.64586793  *
     3       C         -1.68786176  *  -0.71956312  *  -0.37860677  *
     4       C         -0.42268321  *  -1.55118931  *  -0.23917570  *
     5       C         -1.63597201  *   0.60049464  *   0.37377200  *
     6       C          0.77494566  *  -0.94868282  *  -0.96196501  *
     7       C         -0.66230116  *   1.60132143  *  -0.23546764  *
     8       C          1.38624510  *   0.18413361  *  -0.18975789  *
     9       C          0.75037276  *   1.32567540  *   0.13494572  *
    10       H         -0.61422155  *  -2.56218863  *  -0.65071375  *
    11       H         -0.18182554  *  -1.70297667  *   0.83156836  *
    12       H         -2.54619672  *  -1.31119195  *  -0.00198206  *
    13       H         -1.90203387  *  -0.53450536  *  -1.45117044  *
    14       H         -1.37871821  *   0.42300821  *   1.43677889  *
    15       H         -2.65014598  *   1.04700617  *   0.37990308  *
    16       H          1.52682663  *  -1.74159202  *  -1.15060025  *
    17       H          0.47465635  *  -0.57449153  *  -1.96253461  *
    18       H         -0.93211881  *   2.62311735  *   0.09577069  *
    19       H         -0.75860810  *   1.60944637  *  -1.34137232  *
    20       H          1.26855648  *   2.09929831  *   0.71552437  *
    21       H          3.76908113  *  -0.10713480  *   1.64436952  *

                             CARTESIAN COORDINATES

   1    O        2.713628847    -0.008493270     0.112818167
   2    O        2.850153490     0.100749732     1.645867927
   3    C       -1.687861756    -0.719563121    -0.378606772
   4    C       -0.422683206    -1.551189308    -0.239175696
   5    C       -1.635972012     0.600494638     0.373771996
   6    C        0.774945663    -0.948682825    -0.961965014
   7    C       -0.662301156     1.601321431    -0.235467638
   8    C        1.386245101     0.184133611    -0.189757892
   9    C        0.750372759     1.325675397     0.134945718
  10    H       -0.614221554    -2.562188626    -0.650713752
  11    H       -0.181825539    -1.702976675     0.831568365
  12    H       -2.546196718    -1.311191951    -0.001982063
  13    H       -1.902033866    -0.534505356    -1.451170440
  14    H       -1.378718211     0.423008205     1.436778886
  15    H       -2.650145979     1.047006169     0.379903084
  16    H        1.526826635    -1.741592019    -1.150600252
  17    H        0.474656350    -0.574491527    -1.962534613
  18    H       -0.932118811     2.623117353     0.095770692
  19    H       -0.758608099     1.609446375    -1.341372320
  20    H        1.268556476     2.099298308     0.715524373
  21    H        3.769081132    -0.107134804     1.644369515


           Empirical Formula: C7 H12 O2  =    21 atoms



      MOLECULAR POINT GROUP   :   C1  


                  EIGENVALUES  
 -40.87469 -35.71594 -33.66241 -32.36325 -29.92449 -24.20547 -23.07424 -20.31723
 -18.67083 -17.65199 -17.18556 -16.51510 -15.79126 -15.09816 -14.94860 -14.53176
 -14.36325 -13.63186 -13.33486 -12.86296 -12.19801 -11.89759 -11.82734 -11.71584
 -11.38432  -9.55002   0.12196   1.75154   3.05328   3.37338   3.59895   3.68826
   3.71290   3.73727   3.85929   3.87781   4.21030   4.26612   4.39428   4.47441
   4.58446   4.61522   4.74553   5.05762   5.06323   5.09367   5.66806   6.01650


              NET ATOMIC CHARGES AND DIPOLE CONTRIBUTIONS

  ATOM NO.   TYPE          CHARGE      No. of ELECS.   s-Pop       p-Pop       
    1          O          -0.107118        6.1071     1.89573     4.21138
    2          O          -0.209752        6.2098     1.86746     4.34229
    3          C          -0.098816        4.0988     1.16245     2.93636
    4          C          -0.094673        4.0947     1.16051     2.93416
    5          C          -0.094517        4.0945     1.16041     2.93411
    6          C          -0.058031        4.0580     1.14886     2.90917
    7          C          -0.057607        4.0576     1.14674     2.91087
    8          C           0.001418        3.9986     1.18946     2.80913
    9          C          -0.138822        4.1388     1.19777     2.94105
   10          H           0.047670        0.9523     0.95233
   11          H           0.061976        0.9380     0.93802
   12          H           0.047322        0.9527     0.95268
   13          H           0.050850        0.9492     0.94915
   14          H           0.059108        0.9409     0.94089
   15          H           0.047089        0.9529     0.95291
   16          H           0.063026        0.9370     0.93697
   17          H           0.061054        0.9389     0.93895
   18          H           0.050655        0.9493     0.94934
   19          H           0.058858        0.9411     0.94114
   20          H           0.115037        0.8850     0.88496
   21          H           0.195272        0.8047     0.80473
 DIPOLE           X         Y         Z       TOTAL
 POINT-CHG.    -0.888    -0.092    -0.460     1.004
 HYBRID         0.455    -0.087     0.116     0.478
 SUM           -0.433    -0.180    -0.344     0.581


          ATOMIC ORBITAL ELECTRON POPULATIONS

     Atom    s        px        py        pz   
    1  O   1.89573   1.24041   1.93751   1.03346
    2  O   1.86746   1.34977   1.95918   1.03335
    3  C   1.16245   0.97151   0.96303   1.00183
    4  C   1.16051   0.94498   0.97733   1.01185
    5  C   1.16041   0.98368   0.95386   0.99657
    6  C   1.14886   0.97547   0.95843   0.97528
    7  C   1.14674   0.92517   0.98305   1.00264
    8  C   1.18946   0.86166   0.94917   0.99830
    9  C   1.19777   0.97427   0.96136   1.00543
   10  H   0.95233
   11  H   0.93802
   12  H   0.95268
   13  H   0.94915
   14  H   0.94089
   15  H   0.95291
   16  H   0.93697
   17  H   0.93895
   18  H   0.94934
   19  H   0.94114
   20  H   0.88496
   21  H   0.80473
 *******************************************************************************
 ** Site#: 14399        For non-commercial use only    Version 18.184L 64BITS **
 *******************************************************************************
 ** Cite this program as: MOPAC2016, Version: 18.184L, James J. P. Stewart,   **
 ** Stewart Computational Chemistry, web: HTTP://OpenMOPAC.net. Days left:  18**
 *******************************************************************************
 **                                                                           **
 **                                MOPAC2016                                  **
 **                                                                           **
 *******************************************************************************

                              PM3 CALCULATION RESULTS

 *******************************************************************************
 *  CALCULATION DONE:                                Sat Jun 15 10:23:04 2019  *
 *  PM3        - The PM3 Hamiltonian to be used
 *  OLDGEO     - PREVIOUS GEOMETRY TO BE USED
 *  PRECISE    - CRITERIA TO BE INCREASED BY 100 TIMES
 *  NOSYM      - POINT-GROUP SYMMETRY SET TO C1
 *  THREADS=1  - MULTI-THREADING NOT USED
 *  T=         - A TIME OF 172800.0 SECONDS REQUESTED
 *  DUMP=N     - RESTART FILE WRITTEN EVERY  7200.000 SECONDS
 *  THERMO     - THERMODYNAMIC QUANTITIES TO BE CALCULATED
 *******************************************************************************
oldgeo thermo nosym precise THREADS=1  pm3
 InChI=1S/C7H12O2/c8-9-7-5-3-1-2-4-6-7/h5,8H,1-4,6H2

   ATOM   CHEMICAL          X               Y               Z
  NUMBER   SYMBOL      (ANGSTROMS)     (ANGSTROMS)     (ANGSTROMS)
 
     1       O          2.71362885  *  -0.00849327  *   0.11281817  *
     2       O          2.85015349  *   0.10074973  *   1.64586793  *
     3       C         -1.68786176  *  -0.71956312  *  -0.37860677  *
     4       C         -0.42268321  *  -1.55118931  *  -0.23917570  *
     5       C         -1.63597201  *   0.60049464  *   0.37377200  *
     6       C          0.77494566  *  -0.94868282  *  -0.96196501  *
     7       C         -0.66230116  *   1.60132143  *  -0.23546764  *
     8       C          1.38624510  *   0.18413361  *  -0.18975789  *
     9       C          0.75037276  *   1.32567540  *   0.13494572  *
    10       H         -0.61422155  *  -2.56218863  *  -0.65071375  *
    11       H         -0.18182554  *  -1.70297667  *   0.83156836  *
    12       H         -2.54619672  *  -1.31119195  *  -0.00198206  *
    13       H         -1.90203387  *  -0.53450536  *  -1.45117044  *
    14       H         -1.37871821  *   0.42300821  *   1.43677889  *
    15       H         -2.65014598  *   1.04700617  *   0.37990308  *
    16       H          1.52682663  *  -1.74159202  *  -1.15060025  *
    17       H          0.47465635  *  -0.57449153  *  -1.96253461  *
    18       H         -0.93211881  *   2.62311735  *   0.09577069  *
    19       H         -0.75860810  *   1.60944637  *  -1.34137232  *
    20       H          1.26855648  *   2.09929831  *   0.71552437  *
    21       H          3.76908113  *  -0.10713480  *   1.64436952  *
 


          CARTESIAN COORDINATES 

    NO.       ATOM           X           Y           Z

     1         O          2.7136     -0.0085      0.1128
     2         O          2.8502      0.1007      1.6459
     3         C         -1.6879     -0.7196     -0.3786
     4         C         -0.4227     -1.5512     -0.2392
     5         C         -1.6360      0.6005      0.3738
     6         C          0.7749     -0.9487     -0.9620
     7         C         -0.6623      1.6013     -0.2355
     8         C          1.3862      0.1841     -0.1898
     9         C          0.7504      1.3257      0.1349
    10         H         -0.6142     -2.5622     -0.6507
    11         H         -0.1818     -1.7030      0.8316
    12         H         -2.5462     -1.3112     -0.0020
    13         H         -1.9020     -0.5345     -1.4512
    14         H         -1.3787      0.4230      1.4368
    15         H         -2.6501      1.0470      0.3799
    16         H          1.5268     -1.7416     -1.1506
    17         H          0.4747     -0.5745     -1.9625
    18         H         -0.9321      2.6231      0.0958
    19         H         -0.7586      1.6094     -1.3414
    20         H          1.2686      2.0993      0.7155
    21         H          3.7691     -0.1071      1.6444

  H: (PM3): J. J. P. STEWART, J. COMP. CHEM. 10, 209 (1989).
  C: (PM3): J. J. P. STEWART, J. COMP. CHEM. 10, 209 (1989).
  O: (PM3): J. J. P. STEWART, J. COMP. CHEM. 10, 209 (1989).

           Empirical Formula: C7 H12 O2  =    21 atoms



      MOLECULAR POINT GROUP   :   C1  


      RHF CALCULATION, NO. OF DOUBLY OCCUPIED LEVELS = 26



          HEAT OF FORMATION =     -32.961003 KCALS/MOLE


          CARTESIAN COORDINATE DERIVATIVES

   NUMBER  ATOM         X            Y            Z

     1       O      0.003414     0.009864    -0.003742
     2       O     -0.011938    -0.005631     0.007969
     3       C     -0.002370     0.001294    -0.005422
     4       C     -0.002002    -0.002624    -0.000536
     5       C     -0.002105    -0.000448     0.004457
     6       C      0.005761     0.003531     0.000005
     7       C     -0.007851    -0.003090     0.006517
     8       C      0.003317    -0.009053    -0.010675
     9       C     -0.000543    -0.007235     0.010358
    10       H      0.000349    -0.006547     0.000609
    11       H      0.005140     0.007408     0.004366
    12       H      0.002071    -0.007816     0.004222
    13       H      0.005994     0.000785    -0.009103
    14       H      0.002196     0.004301    -0.001888
    15       H      0.001858     0.002083    -0.002637
    16       H     -0.003342     0.002846     0.003763
    17       H     -0.011612    -0.000655     0.003540
    18       H     -0.003936     0.006137    -0.000706
    19       H      0.002083     0.001664    -0.005479
    20       H      0.006589    -0.001787    -0.000094
    21       H      0.006928     0.004972    -0.005522
 


          GRADIENT NORM =   0.04206

          MOLECULAR WEIGHT =  128.17



          ROTATIONAL CONSTANTS IN CM(-1)

          A =    0.08876945   B =    0.03905319   C =    0.03239984



           PRINCIPAL MOMENTS OF INERTIA IN UNITS OF 10**(-40)*GRAM-CM**2

          A =      315.3424   B =      716.7858   C =      863.9789


          ORIENTATION OF MOLECULE IN FORCE CALCULATION

    NO.       ATOM         X         Y         Z

     1          O       0.2342   -2.1425    0.3974
     2          O       1.7772   -2.1425    0.3974
     3          C      -0.6939    2.2460    0.3974
     4          C      -0.5023    1.1367    1.4194
     5          C       0.1517    2.0746   -0.8544
     6          C      -1.0718   -0.2016    0.9673
     7          C      -0.2966    0.9093   -1.7273
     8          C      -0.1703   -0.8940   -0.0130
     9          C       0.1769   -0.4042   -1.2182
    10          H      -0.9997    1.4336    2.3642
    11          H       0.5721    1.0271    1.6667
    12          H      -0.4375    3.2148    0.8710
    13          H      -1.7654    2.3243    0.1212
    14          H       1.2181    1.9519   -0.5797
    15          H       0.0997    3.0078   -1.4498
    16          H      -1.2488   -0.8435    1.8540
    17          H      -2.0660   -0.0592    0.4955
    18          H       0.0810    1.0572   -2.7579
    19          H      -1.4033    0.8944   -1.8128
    20          H       0.8544   -0.9710   -1.8692
    21          H       1.8423   -3.0165    0.7430


    FIRST DERIVATIVES WILL BE USED IN THE CALCULATION OF SECOND DERIVATIVES

    FOR POINT-GROUP C1   THERE ARE   1 UNIQUE SYMMETRY FUNCTIONS.

 STEP:   1 TIME =     0.02 SECS, INTEGRAL =      0.02 TIME LEFT: 172799.98
 STEP:   2 TIME =     0.02 SECS, INTEGRAL =      0.04 TIME LEFT: 172799.96
 STEP:   3 TIME =     0.02 SECS, INTEGRAL =      0.06 TIME LEFT: 172799.94
 STEP:   4 TIME =     0.02 SECS, INTEGRAL =      0.08 TIME LEFT: 172799.92
 STEP:   5 TIME =     0.02 SECS, INTEGRAL =      0.09 TIME LEFT: 172799.91
 STEP:   6 TIME =     0.02 SECS, INTEGRAL =      0.11 TIME LEFT: 172799.89
 STEP:   7 TIME =     0.02 SECS, INTEGRAL =      0.13 TIME LEFT: 172799.87
 STEP:   8 TIME =     0.02 SECS, INTEGRAL =      0.14 TIME LEFT: 172799.86
 STEP:   9 TIME =     0.02 SECS, INTEGRAL =      0.16 TIME LEFT: 172799.84
 STEP:  10 TIME =     0.02 SECS, INTEGRAL =      0.18 TIME LEFT: 172799.82
 STEP:  11 TIME =     0.02 SECS, INTEGRAL =      0.20 TIME LEFT: 172799.80
 STEP:  12 TIME =     0.02 SECS, INTEGRAL =      0.22 TIME LEFT: 172799.78
 STEP:  13 TIME =     0.02 SECS, INTEGRAL =      0.24 TIME LEFT: 172799.76
 STEP:  14 TIME =     0.02 SECS, INTEGRAL =      0.25 TIME LEFT: 172799.75
 STEP:  15 TIME =     0.02 SECS, INTEGRAL =      0.27 TIME LEFT: 172799.73
 STEP:  16 TIME =     0.02 SECS, INTEGRAL =      0.29 TIME LEFT: 172799.71
 STEP:  17 TIME =     0.02 SECS, INTEGRAL =      0.30 TIME LEFT: 172799.70
 STEP:  18 TIME =     0.02 SECS, INTEGRAL =      0.32 TIME LEFT: 172799.68
 STEP:  19 TIME =     0.02 SECS, INTEGRAL =      0.34 TIME LEFT: 172799.66
 STEP:  20 TIME =     0.02 SECS, INTEGRAL =      0.36 TIME LEFT: 172799.64
 STEP:  21 TIME =     0.02 SECS, INTEGRAL =      0.38 TIME LEFT: 172799.62
 STEP:  22 TIME =     0.02 SECS, INTEGRAL =      0.40 TIME LEFT: 172799.60
 STEP:  23 TIME =     0.02 SECS, INTEGRAL =      0.42 TIME LEFT: 172799.58
 STEP:  24 TIME =     0.02 SECS, INTEGRAL =      0.43 TIME LEFT: 172799.57
 STEP:  25 TIME =     0.02 SECS, INTEGRAL =      0.45 TIME LEFT: 172799.55
 STEP:  26 TIME =     0.02 SECS, INTEGRAL =      0.47 TIME LEFT: 172799.53
 STEP:  27 TIME =     0.02 SECS, INTEGRAL =      0.49 TIME LEFT: 172799.51
 STEP:  28 TIME =     0.02 SECS, INTEGRAL =      0.51 TIME LEFT: 172799.49
 STEP:  29 TIME =     0.02 SECS, INTEGRAL =      0.53 TIME LEFT: 172799.47
 STEP:  30 TIME =     0.02 SECS, INTEGRAL =      0.54 TIME LEFT: 172799.46
 STEP:  31 TIME =     0.02 SECS, INTEGRAL =      0.56 TIME LEFT: 172799.44
 STEP:  32 TIME =     0.02 SECS, INTEGRAL =      0.58 TIME LEFT: 172799.42
 STEP:  33 TIME =     0.02 SECS, INTEGRAL =      0.59 TIME LEFT: 172799.41
 STEP:  34 TIME =     0.02 SECS, INTEGRAL =      0.61 TIME LEFT: 172799.39
 STEP:  35 TIME =     0.02 SECS, INTEGRAL =      0.63 TIME LEFT: 172799.37
 STEP:  36 TIME =     0.02 SECS, INTEGRAL =      0.64 TIME LEFT: 172799.36
 STEP:  37 TIME =     0.02 SECS, INTEGRAL =      0.66 TIME LEFT: 172799.34
 STEP:  38 TIME =     0.02 SECS, INTEGRAL =      0.68 TIME LEFT: 172799.32
 STEP:  39 TIME =     0.02 SECS, INTEGRAL =      0.70 TIME LEFT: 172799.30
 STEP:  40 TIME =     0.02 SECS, INTEGRAL =      0.71 TIME LEFT: 172799.29
 STEP:  41 TIME =     0.02 SECS, INTEGRAL =      0.73 TIME LEFT: 172799.27
 STEP:  42 TIME =     0.02 SECS, INTEGRAL =      0.75 TIME LEFT: 172799.25
 STEP:  43 TIME =     0.02 SECS, INTEGRAL =      0.77 TIME LEFT: 172799.23
 STEP:  44 TIME =     0.02 SECS, INTEGRAL =      0.79 TIME LEFT: 172799.21
 STEP:  45 TIME =     0.02 SECS, INTEGRAL =      0.81 TIME LEFT: 172799.19
 STEP:  46 TIME =     0.02 SECS, INTEGRAL =      0.83 TIME LEFT: 172799.17
 STEP:  47 TIME =     0.02 SECS, INTEGRAL =      0.85 TIME LEFT: 172799.15
 STEP:  48 TIME =     0.02 SECS, INTEGRAL =      0.86 TIME LEFT: 172799.14
 STEP:  49 TIME =     0.02 SECS, INTEGRAL =      0.88 TIME LEFT: 172799.12
 STEP:  50 TIME =     0.02 SECS, INTEGRAL =      0.90 TIME LEFT: 172799.10
 STEP:  51 TIME =     0.02 SECS, INTEGRAL =      0.92 TIME LEFT: 172799.08
 STEP:  52 TIME =     0.02 SECS, INTEGRAL =      0.94 TIME LEFT: 172799.06
 STEP:  53 TIME =     0.02 SECS, INTEGRAL =      0.96 TIME LEFT: 172799.04
 STEP:  54 TIME =     0.02 SECS, INTEGRAL =      0.97 TIME LEFT: 172799.03
 STEP:  55 TIME =     0.02 SECS, INTEGRAL =      0.99 TIME LEFT: 172799.01
 STEP:  56 TIME =     0.02 SECS, INTEGRAL =      1.01 TIME LEFT: 172798.99
 STEP:  57 TIME =     0.02 SECS, INTEGRAL =      1.03 TIME LEFT: 172798.97
 STEP:  58 TIME =     0.02 SECS, INTEGRAL =      1.05 TIME LEFT: 172798.95
 STEP:  59 TIME =     0.02 SECS, INTEGRAL =      1.07 TIME LEFT: 172798.93
 STEP:  60 TIME =     0.02 SECS, INTEGRAL =      1.09 TIME LEFT: 172798.91
 STEP:  61 TIME =     0.02 SECS, INTEGRAL =      1.10 TIME LEFT: 172798.90
 STEP:  62 TIME =     0.02 SECS, INTEGRAL =      1.12 TIME LEFT: 172798.88
 STEP:  63 TIME =     0.02 SECS, INTEGRAL =      1.14 TIME LEFT: 172798.86

(To convert to Hartree/Bohr^2, multiply by (10^(-21) x N x a0^2)/(4.184 x 627.51) =  0.0642)


           FORCE MATRIX IN MILLIDYNES/ANGSTROM


                  O  1       O  2       C  3       C  4       C  5       C  6
 ------------------------------------------------------------------------------
     O    1   8.550517
     O    2   2.570600  10.022371
     C    3   0.002603   0.003021  14.287126
     C    4   0.035058   0.009282   4.169974  14.247582
     C    5   0.019582   0.007868   4.173883   0.607889  14.242379
     C    6   0.876600   0.087851   0.618672   4.065400   0.031139  14.421187
     C    7   0.161573   0.029383   0.616680   0.033193   4.049550   0.079720
     C    8   5.502655   1.293120   0.026865   0.660178   0.047112   4.404704
     C    9   1.342399   0.144875   0.026099   0.038972   0.662110   0.668821
     H   10   0.004473   0.001197   0.430331   4.458997   0.050486   0.429927
     H   11   0.005263   0.002379   0.445483   4.473898   0.023240   0.443111
     H   12   0.001274   0.001159   4.453808   0.428665   0.429189   0.050787
     H   13   0.000787   0.001021   4.413419   0.445660   0.445691   0.027038
     H   14   0.001528   0.001595   0.445772   0.023444   4.467290   0.003042
     H   15   0.002238   0.002531   0.430591   0.050501   4.461453   0.002060
     H   16   0.095796   0.004054   0.047527   0.430939   0.002263   4.459462
     H   17   0.031843   0.007845   0.035322   0.453528   0.005463   4.396766
     H   18   0.012365   0.002040   0.048226   0.002266   0.432666   0.002208
     H   19   0.017746   0.003124   0.035168   0.005739   0.454075   0.020035
     H   20   0.115365   0.038694   0.001101   0.013040   0.024907   0.101089
     H   21   0.954975   8.694099   0.000617   0.000970   0.000871   0.005662


                  C  7       C  8       C  9       H 10       H 11       H 12
 ------------------------------------------------------------------------------
     C    7  14.592937
     C    8   0.767324  17.874357
     C    9   4.992634   9.705382  17.840512
     H   10   0.002999   0.046735   0.003867   5.054339
     H   11   0.003147   0.031746   0.004924   0.564559   5.085276
     H   12   0.050791   0.002974   0.003169   0.039592   0.026057   5.055705
     H   13   0.027300   0.003231   0.001959   0.026634   0.045420   0.569891
     H   14   0.443577   0.005161   0.031245   0.002465   0.022990   0.026038
     H   15   0.433533   0.002339   0.046548   0.008483   0.002599   0.039497
     H   16   0.002641   0.473405   0.048019   0.036897   0.018230   0.007703
     H   17   0.019085   0.419829   0.025967   0.017477   0.043888   0.002790
     H   18   4.485756   0.047803   0.436209   0.000329   0.000293   0.007907
     H   19   4.372929   0.035973   0.421346   0.000554   0.000821   0.002820
     H   20   0.428972   0.486570   4.810775   0.002146   0.000935   0.000430
     H   21   0.002590   0.150046   0.017096   0.000362   0.000711   0.000395


                  H 13       H 14       H 15       H 16       H 17       H 18
 ------------------------------------------------------------------------------
     H   13   5.038565
     H   14   0.045277   5.080441
     H   15   0.026591   0.565740   5.057203
     H   16   0.002449   0.000250   0.000364   5.056071
     H   17   0.029439   0.000825   0.000423   0.560023   5.001591
     H   18   0.002448   0.018163   0.036833   0.000380   0.000655   5.058556
     H   19   0.029393   0.043732   0.017252   0.000737   0.014863   0.565965
     H   20   0.000369   0.003064   0.003571   0.006320   0.008784   0.033782
     H   21   0.000285   0.000235   0.000244   0.001498   0.000905   0.000639


                  H 19       H 20       H 21
 ------------------------------------------
     H   19   4.983783
     H   20   0.025087   5.176395
     H   21   0.000395   0.003267   8.976825


          HEAT OF FORMATION =     -32.961003 KCALS/MOLE

          ZERO POINT ENERGY     112.786 KCAL/MOL


           NORMAL COORDINATE ANALYSIS (Total motion = 1 Angstrom)


   Root No.       1         2         3         4         5         6         7         8

                 1 A       2 A       3 A       4 A       5 A       6 A       7 A       8 A   

                  41.5     100.2     165.0     170.6     214.9     296.5     345.8     367.5
  
           1   -0.0082    0.0127    0.0033   -0.0033   -0.0133   -0.0104   -0.0010    0.0032
           2   -0.0205    0.0158    0.0046   -0.0024   -0.0004   -0.0367   -0.0068   -0.0351
           3   -0.0655    0.0295    0.0154   -0.0070    0.0164   -0.0339    0.0060   -0.0063
           4   -0.0042    0.0131    0.0017   -0.0031   -0.0140   -0.0079   -0.0008    0.0101
           5    0.0581    0.0483   -0.0245   -0.0015    0.0337    0.0280    0.0031    0.0064
           6    0.1008   -0.0249    0.0049   -0.0372   -0.0139   -0.0187   -0.0009   -0.0038
           7    0.0293    0.0376    0.0163   -0.0114   -0.0063    0.0201   -0.0284   -0.0145
           8   -0.0095   -0.0032    0.0093   -0.0065   -0.0196    0.0187    0.0034    0.0456
           9    0.0157    0.0098    0.0161   -0.0054    0.0047   -0.0125   -0.0176    0.0183
          10    0.0381   -0.0179    0.0106   -0.0022    0.0393   -0.0209    0.0234    0.0012
          11   -0.0226   -0.0179   -0.0147    0.0050   -0.0220    0.0101    0.0011    0.0269
          12   -0.0002    0.0046   -0.0085    0.0051   -0.0068   -0.0118   -0.0293   -0.0065
          13    0.0009    0.0318   -0.0244    0.0106   -0.0157    0.0063    0.0249   -0.0188
          14   -0.0047   -0.0286    0.0152   -0.0046    0.0153    0.0121   -0.0023    0.0097
          15   -0.0042    0.0089   -0.0125    0.0094   -0.0068   -0.0199    0.0202    0.0216
          16    0.0136   -0.0371   -0.0153    0.0097   -0.0156   -0.0052   -0.0035    0.0116
          17   -0.0113   -0.0009    0.0033   -0.0033   -0.0026   -0.0107    0.0038    0.0268
          18   -0.0027   -0.0222   -0.0319    0.0158    0.0043    0.0184   -0.0134   -0.0304
          19   -0.0289   -0.0121   -0.0214    0.0146    0.0365   -0.0022   -0.0200    0.0214
          20    0.0089   -0.0086   -0.0023    0.0045   -0.0025   -0.0152    0.0063   -0.0130
          21   -0.0073    0.0028    0.0088   -0.0045   -0.0088    0.0259    0.0295    0.0256
          22   -0.0140   -0.0196    0.0092   -0.0048   -0.0239   -0.0112   -0.0042    0.0042
          23   -0.0103   -0.0061   -0.0018    0.0003   -0.0082   -0.0190   -0.0119   -0.0297
          24   -0.0281   -0.0027   -0.0061   -0.0003    0.0034    0.0189   -0.0035    0.0019
          25   -0.0298   -0.0207    0.0243   -0.0115    0.0083    0.0327    0.0082   -0.0208
          26    0.0004   -0.0154    0.0103   -0.0041   -0.0033    0.0074    0.0059   -0.0433
          27   -0.0288   -0.0069    0.0034   -0.0038    0.0145    0.0426    0.0069   -0.0103
          28    0.0613   -0.0358    0.0268   -0.0061    0.1041   -0.0476    0.0824    0.0032
          29   -0.0269   -0.0135   -0.0255    0.0082   -0.0197    0.0250   -0.0067   -0.0018
          30    0.0134   -0.0063    0.0033    0.0020    0.0260   -0.0299    0.0031    0.0035
          31    0.0420   -0.0271    0.0118   -0.0014    0.0525   -0.0279    0.0386    0.0041
          32   -0.0376   -0.0465   -0.0367    0.0172   -0.0444    0.0121   -0.0027    0.0360
          33   -0.0237    0.0322   -0.0236    0.0072   -0.0733    0.0193   -0.0936   -0.0158
          34    0.0502    0.0795    0.0557   -0.0369   -0.0294    0.0542   -0.0930    0.0090
          35   -0.0175   -0.0183   -0.0067    0.0025   -0.0148    0.0058    0.0195    0.0404
          36    0.0207    0.0182    0.0279   -0.0102    0.0070   -0.0035   -0.0179    0.0168
          37    0.0244    0.0419    0.0109   -0.0091   -0.0121    0.0223   -0.0250   -0.0157
          38    0.0054    0.0466    0.0433   -0.0294   -0.0497    0.0564   -0.0517    0.0651
          39    0.0392    0.0073    0.0469   -0.0210    0.0183   -0.0095   -0.0471    0.0315
          40    0.0055    0.0270   -0.0122    0.0047   -0.0064    0.0133    0.0087   -0.0184
          41   -0.0182   -0.0706    0.0434   -0.0152    0.0684    0.0352   -0.0535    0.0372
          42   -0.0281    0.0091   -0.0476    0.0278   -0.0198   -0.0383    0.0618    0.0325
          43   -0.0026    0.0676   -0.0680    0.0297   -0.0698   -0.0210    0.0958   -0.0322
          44    0.0020   -0.0231    0.0097   -0.0008    0.0128   -0.0024   -0.0014   -0.0083
          45    0.0067    0.0146   -0.0177    0.0137   -0.0068   -0.0405    0.0177   -0.0064
          46    0.0262   -0.0769   -0.0615    0.0334   -0.0302    0.0243   -0.0144   -0.0454
          47   -0.0199   -0.0062    0.0005   -0.0029   -0.0007    0.0056    0.0157    0.0401
          48   -0.0066   -0.0342   -0.0435    0.0211    0.0024    0.0358   -0.0076   -0.0335
          49    0.0050   -0.0200    0.0039   -0.0008   -0.0130   -0.0152   -0.0011    0.0357
          50    0.0049    0.0254    0.0312   -0.0162    0.0253   -0.0347    0.0128    0.0498
          51    0.0204   -0.0500   -0.0642    0.0342    0.0081    0.0333   -0.0158   -0.0771
          52   -0.0494   -0.0280   -0.0561    0.0374    0.0901   -0.0468   -0.0810    0.0626
          53    0.0159   -0.0090   -0.0001    0.0058   -0.0097   -0.0389    0.0089   -0.0007
          54   -0.0138   -0.0029   -0.0035    0.0040    0.0093    0.0065    0.0085    0.0418
          55   -0.0308   -0.0138   -0.0238    0.0163    0.0411   -0.0059   -0.0255    0.0243
          56    0.0199    0.0151   -0.0278    0.0172   -0.0058   -0.0375    0.0062   -0.0069
          57    0.0162    0.0230    0.0421   -0.0271   -0.0650    0.0701    0.0901   -0.0160
          58   -0.0454   -0.0157    0.0554   -0.0301    0.0216    0.0742    0.0310   -0.0868
          59    0.0003   -0.0127    0.0377   -0.0198   -0.0090    0.0328    0.0338   -0.0767
          60   -0.0450   -0.0035    0.0130   -0.0104    0.0325    0.0630    0.0075   -0.0498
          61    0.0019    0.0447   -0.0133    0.0047    0.0157    0.0308    0.0075    0.0349
          62    0.0595    0.0554    0.0160    0.1982    0.0295    0.0364    0.0030    0.0075
          63    0.1025   -0.0130    0.1106    0.4667   -0.0305   -0.0060   -0.0029   -0.0069


   Root No.       9        10        11        12        13        14        15        16

                 9 A      10 A      11 A      12 A      13 A      14 A      15 A      16 A   

                 376.6     442.2     521.9     596.4     607.0     782.8     818.9     865.4
  
           1   -0.0242   -0.0103    0.0014   -0.0083    0.0067    0.1211   -0.0111    0.0110
           2    0.0109   -0.0008    0.0104    0.0386    0.0197    0.0062    0.0258    0.0177
           3   -0.0075    0.0523   -0.0010   -0.0181   -0.0209   -0.0161   -0.0099   -0.0060
           4   -0.0382   -0.0352    0.0087    0.0302   -0.0317   -0.0908    0.0041   -0.0069
           5    0.0290    0.0170   -0.0056   -0.0108    0.0078   -0.0099    0.0007   -0.0019
           6   -0.0116   -0.0003    0.0018    0.0030   -0.0031    0.0042   -0.0004    0.0008
           7   -0.0122    0.0048   -0.0072    0.0012   -0.0048    0.0082    0.0143   -0.0178
           8   -0.0101    0.0105    0.0324   -0.0035    0.0046    0.0151   -0.0114   -0.0055
           9    0.0173    0.0014    0.0132    0.0011   -0.0026    0.0047   -0.0061   -0.0134
          10    0.0104   -0.0124   -0.0025   -0.0047   -0.0115    0.0019    0.0168    0.0202
          11    0.0149   -0.0111    0.0021    0.0033   -0.0224    0.0172   -0.0091   -0.0150
          12    0.0369   -0.0217   -0.0227    0.0056   -0.0319    0.0126   -0.0383   -0.0064
          13   -0.0193    0.0051   -0.0166    0.0116    0.0025    0.0099   -0.0072   -0.0113
          14   -0.0455    0.0279   -0.0226    0.0092   -0.0036   -0.0045   -0.0188    0.0169
          15    0.0155    0.0009    0.0152    0.0038    0.0027    0.0074    0.0199   -0.0119
          16    0.0293    0.0403   -0.0063   -0.0225   -0.0174   -0.0205    0.0189    0.0158
          17    0.0255   -0.0345   -0.0092    0.0078   -0.0204    0.0033    0.0037   -0.0106
          18   -0.0135   -0.0045    0.0109    0.0117    0.0091   -0.0003   -0.0221    0.0133
          19   -0.0059    0.0038    0.0023    0.0221    0.0088   -0.0011   -0.0175    0.0146
          20   -0.0362    0.0141   -0.0073   -0.0234   -0.0132   -0.0140   -0.0104   -0.0020
          21   -0.0045    0.0160   -0.0152    0.0358    0.0169    0.0139    0.0403    0.0067
          22    0.0228    0.0102   -0.0182   -0.0361    0.0628   -0.0232   -0.0008   -0.0203
          23    0.0201   -0.0189   -0.0011    0.0125    0.0522   -0.0056    0.0078   -0.0023
          24   -0.0152   -0.0343   -0.0121   -0.0227    0.0437   -0.0163    0.0069   -0.0018
          25    0.0584    0.0064    0.0114    0.0133   -0.0016   -0.0204   -0.0172   -0.0024
          26   -0.0127   -0.0109    0.0018   -0.0367   -0.0120   -0.0171    0.0042   -0.0036
          27   -0.0176   -0.0322   -0.0024   -0.0276    0.0034   -0.0088    0.0159    0.0068
          28   -0.0142   -0.0544    0.0500    0.0134    0.0720    0.0167   -0.0908   -0.0662
          29   -0.0026   -0.0290   -0.0086    0.0155   -0.0171    0.0245   -0.0177   -0.0181
          30    0.0295   -0.0372    0.0076    0.0114    0.0082    0.0177   -0.0905   -0.0492
          31    0.0072   -0.0176    0.0109   -0.0030    0.0069    0.0022   -0.0053    0.0056
          32    0.0357    0.0166   -0.0093   -0.0136   -0.0557    0.0029    0.0184    0.0438
          33    0.0566    0.0141   -0.0774   -0.0090   -0.1140    0.0016    0.0638    0.0747
          34   -0.0151    0.0168    0.0746   -0.0319    0.0450   -0.0571   -0.0121    0.0631
          35    0.0071   -0.0060    0.0082    0.0054   -0.0219    0.0451   -0.0076   -0.0378
          36   -0.0169    0.0296    0.0210   -0.0001    0.0261   -0.0233   -0.0003    0.0122
          37   -0.0162    0.0070   -0.0074    0.0026   -0.0014    0.0106    0.0133   -0.0265
          38   -0.0271    0.0314    0.1049   -0.0299    0.0602   -0.0465   -0.0389    0.0669
          39    0.0274    0.0000    0.0453   -0.0163    0.0066   -0.0284   -0.0172    0.0493
          40   -0.0235    0.0099   -0.0284    0.0255    0.0021    0.0232    0.0056   -0.0380
          41   -0.0625    0.0538   -0.0713    0.0961    0.0073    0.0544    0.0167   -0.0340
          42    0.0270   -0.0097    0.0480   -0.0210    0.0101   -0.0255   -0.0143    0.0775
          43    0.0021   -0.0233    0.0473   -0.0758    0.0006   -0.0561   -0.0603    0.0861
          44   -0.0454    0.0236   -0.0213   -0.0141   -0.0133   -0.0270   -0.0358    0.0169
          45    0.0146   -0.0042    0.0131   -0.0271   -0.0121   -0.0245   -0.0038   -0.0174
          46    0.0059    0.1338    0.0694    0.0419   -0.0232    0.0097    0.0488   -0.0691
          47    0.0050   -0.0310    0.0001   -0.0021   -0.0200   -0.0065    0.0267   -0.0264
          48   -0.0326    0.0203    0.0342    0.0190    0.0081   -0.0028    0.0016   -0.0163
          49    0.0372    0.0021   -0.0373   -0.0544   -0.0041   -0.0371    0.0099    0.0443
          50    0.0444   -0.0957   -0.0428   -0.0042   -0.0675    0.0192   -0.0230    0.0754
          51   -0.0269    0.0607    0.0709    0.0776   -0.0320    0.0416   -0.0112   -0.0264
          52   -0.0438   -0.0333    0.0444   -0.0629   -0.0090    0.0415    0.1178   -0.0232
          53   -0.0034    0.0301    0.0086   -0.0065   -0.0147   -0.0216   -0.0148   -0.0245
          54   -0.0130    0.0050    0.0021    0.0087    0.0108    0.0279    0.0878   -0.0089
          55   -0.0080    0.0002    0.0073    0.0132    0.0064    0.0023   -0.0058    0.0107
          56   -0.0846    0.0110   -0.0150   -0.0458   -0.0231    0.0247    0.0177   -0.0183
          57    0.0294    0.0535   -0.0559    0.1235    0.0376   -0.0233   -0.0890    0.0496
          58    0.0779   -0.0171    0.0610    0.0000   -0.1398    0.1212    0.0341   -0.0129
          59   -0.0042   -0.0050    0.0226   -0.0598   -0.1032    0.0677    0.0426   -0.0273
          60   -0.0033   -0.0600    0.0307   -0.0211   -0.0609    0.0636    0.0365    0.0164
          61   -0.0133    0.0056   -0.0094   -0.0367   -0.0218   -0.0180   -0.0319   -0.0247
          62    0.0299    0.0149   -0.0066   -0.0145    0.0084   -0.0117   -0.0012   -0.0041
          63   -0.0142   -0.0124    0.0027    0.0048   -0.0007    0.0060    0.0014    0.0016


   Root No.      17        18        19        20        21        22        23        24

                17 A      18 A      19 A      20 A      21 A      22 A      23 A      24 A   

                 879.1     889.0     927.1     953.1     958.6     994.1    1031.6    1067.9
  
           1    0.0006   -0.0181   -0.0003   -0.0052   -0.0021    0.0059   -0.0024    0.0021
           2   -0.0022    0.0147    0.0011   -0.0123   -0.0060    0.0046   -0.0162    0.0041
           3    0.0019   -0.0041    0.0034   -0.0009    0.0021   -0.0028    0.0043   -0.0011
           4   -0.0007    0.0058    0.0006    0.0012    0.0003   -0.0024    0.0024   -0.0011
           5   -0.0000    0.0027   -0.0001    0.0016    0.0005   -0.0008    0.0001   -0.0001
           6    0.0002   -0.0008    0.0006   -0.0008   -0.0001    0.0002   -0.0001    0.0001
           7   -0.0192   -0.0055    0.0086    0.0016    0.0133    0.0040   -0.0155   -0.0056
           8   -0.0333    0.0280   -0.0008   -0.0265    0.0145   -0.0119    0.0104   -0.0044
           9   -0.0171    0.0059   -0.0254   -0.0101    0.0012    0.0078   -0.0026    0.0136
          10   -0.0151   -0.0086   -0.0042    0.0002    0.0174   -0.0160    0.0149   -0.0015
          11    0.0087   -0.0051    0.0077    0.0012    0.0048   -0.0008   -0.0145    0.0052
          12   -0.0011    0.0158    0.0187   -0.0012   -0.0303   -0.0123   -0.0036   -0.0102
          13    0.0107    0.0175   -0.0115   -0.0118   -0.0077    0.0073    0.0145    0.0101
          14   -0.0270    0.0105   -0.0013    0.0309   -0.0156    0.0174   -0.0040    0.0027
          15    0.0131   -0.0086   -0.0063   -0.0052    0.0286    0.0053    0.0024    0.0025
          16    0.0163    0.0182   -0.0080   -0.0172   -0.0130    0.0151   -0.0191   -0.0011
          17    0.0104   -0.0295   -0.0193    0.0213   -0.0207    0.0119    0.0056    0.0021
          18    0.0052    0.0150    0.0239    0.0046    0.0353    0.0112    0.0060    0.0160
          19    0.0101   -0.0071   -0.0176   -0.0066    0.0058   -0.0168   -0.0152   -0.0184
          20    0.0112   -0.0130    0.0078    0.0034    0.0088   -0.0074   -0.0031   -0.0088
          21    0.0060   -0.0011    0.0389    0.0114   -0.0222   -0.0071   -0.0041   -0.0069
          22   -0.0011    0.0110   -0.0009    0.0272    0.0062   -0.0129    0.0159   -0.0038
          23   -0.0039    0.0023   -0.0084    0.0095    0.0012   -0.0035    0.0133   -0.0092
          24   -0.0034    0.0034   -0.0209    0.0107    0.0049   -0.0004    0.0031   -0.0127
          25   -0.0122   -0.0215    0.0252   -0.0094    0.0020    0.0121    0.0121    0.0284
          26    0.0081   -0.0190    0.0068   -0.0395   -0.0074   -0.0102   -0.0026    0.0004
          27   -0.0030   -0.0128   -0.0112   -0.0295   -0.0182    0.0024   -0.0089   -0.0030
          28    0.0430    0.0329    0.0494    0.0084   -0.0519    0.0019   -0.0494   -0.0012
          29    0.0180   -0.0451    0.0737    0.0798    0.0779   -0.0283   -0.0696    0.0803
          30    0.0256    0.0481    0.0243   -0.0197   -0.0892    0.0060   -0.0192   -0.0318
          31    0.0078    0.0071    0.0031   -0.0100   -0.0021    0.0014    0.0108   -0.0103
          32    0.0483    0.0196   -0.0103   -0.0558    0.0109    0.0522    0.0596   -0.0351
          33   -0.0745   -0.0406   -0.0208    0.0212    0.0478   -0.0590    0.0391    0.0105
          34    0.1232   -0.0484    0.0363    0.0502   -0.0368   -0.0287   -0.0166   -0.0171
          35   -0.0715    0.0335    0.0120   -0.0527    0.0366   -0.0619   -0.0148   -0.0216
          36   -0.0100    0.0158   -0.0669    0.0193   -0.0138    0.1285    0.0504    0.0570
          37   -0.0120    0.0047    0.0136   -0.0074    0.0118    0.0337   -0.0017   -0.0179
          38    0.1101    0.0116    0.0160    0.0054   -0.0311    0.0272    0.0584   -0.0151
          39    0.0045   -0.0368   -0.0382    0.0369   -0.0160   -0.0969   -0.0423    0.0563
          40    0.0295    0.0203   -0.0109   -0.0316    0.0037    0.0227    0.0207    0.0057
          41    0.0796    0.0284   -0.0403   -0.0334    0.0345   -0.0430    0.0464    0.0381
          42   -0.0176   -0.0164   -0.0184    0.0507    0.0010   -0.0818   -0.0051    0.0307
          43   -0.1043    0.0115    0.0224    0.0735   -0.0816    0.0059   -0.0222   -0.0044
          44   -0.0280   -0.0144   -0.0125    0.0616   -0.0044    0.0753   -0.0312   -0.0042
          45    0.0170   -0.0476   -0.0296    0.0365    0.0507    0.0967   -0.0382   -0.0049
          46   -0.0206   -0.0757   -0.0787    0.0218   -0.1212   -0.0229    0.0030   -0.0438
          47    0.0144   -0.0602   -0.0540    0.0483    0.0147    0.0310   -0.0638    0.0753
          48   -0.0013   -0.0268   -0.0168    0.0321    0.0373    0.0161   -0.0374    0.0586
          49    0.0340    0.0644    0.0170   -0.0343    0.0271    0.0309   -0.0651    0.0248
          50    0.0351    0.0000    0.0365   -0.0087    0.0192    0.0496    0.1524   -0.0299
          51   -0.0266   -0.0758   -0.0134    0.0345   -0.0413   -0.0135    0.1442   -0.0475
          52   -0.0203    0.0236    0.1015    0.0260   -0.0569    0.0132    0.0167    0.0141
          53    0.0216   -0.0561    0.0613    0.0298    0.1209    0.0223   -0.0185   -0.1536
          54   -0.0036    0.0033    0.0882    0.0277   -0.0291    0.0085    0.0041   -0.0163
          55    0.0048   -0.0050   -0.0054   -0.0031    0.0013   -0.0105   -0.0131   -0.0191
          56    0.0633    0.0454   -0.0236    0.0260   -0.0332   -0.0866    0.0684    0.1655
          57    0.0447   -0.0280   -0.0834   -0.0186    0.0262   -0.0539   -0.0377   -0.0322
          58    0.0390    0.1310   -0.0531    0.1413    0.0376   -0.0104   -0.0030   -0.0371
          59    0.0510    0.0644    0.0140    0.0621    0.0100   -0.0439    0.0056   -0.0199
          60    0.0134    0.0719   -0.0988    0.0371    0.0033    0.0078   -0.0325   -0.0560
          61    0.0028   -0.0184    0.0001    0.0202    0.0102   -0.0089    0.0289   -0.0069
          62    0.0002    0.0019   -0.0006    0.0039    0.0014   -0.0018    0.0026   -0.0009
          63    0.0001   -0.0003   -0.0007   -0.0008   -0.0007    0.0003   -0.0010   -0.0001


   Root No.      25        26        27        28        29        30        31        32

                25 A      26 A      27 A      28 A      29 A      30 A      31 A      32 A   

                1094.2    1109.9    1132.2    1136.1    1158.7    1162.2    1166.6    1235.2
  
           1   -0.0013   -0.0021   -0.0005    0.0039    0.0003    0.0001    0.0004    0.0000
           2    0.0030    0.0004   -0.0009    0.0007   -0.0019    0.0003   -0.0039   -0.0143
           3   -0.0020    0.0008    0.0002   -0.0024    0.0005    0.0000    0.0015    0.0056
           4    0.0005    0.0012    0.0001   -0.0007    0.0003   -0.0003    0.0007    0.0008
           5    0.0004    0.0002    0.0000   -0.0004   -0.0002    0.0000   -0.0004   -0.0016
           6   -0.0002   -0.0002    0.0000   -0.0002    0.0001    0.0000    0.0000    0.0007
           7   -0.0010    0.0068   -0.0087   -0.0023    0.0500    0.0031   -0.0057   -0.0025
           8   -0.0035   -0.0009   -0.0096    0.0057   -0.0185   -0.0008   -0.0065   -0.0063
           9    0.0016   -0.0131   -0.0015   -0.0151    0.0068    0.0011    0.0154    0.0080
          10    0.0098    0.0037    0.0217   -0.0008   -0.0247   -0.0226   -0.0101   -0.0004
          11    0.0165    0.0087    0.0131   -0.0135    0.0092   -0.0073    0.0109   -0.0104
          12   -0.0008    0.0059    0.0127    0.0078   -0.0125   -0.0147   -0.0116   -0.0004
          13   -0.0018   -0.0004    0.0264    0.0029   -0.0316    0.0207    0.0156   -0.0040
          14    0.0013    0.0119    0.0130    0.0032    0.0023    0.0095   -0.0020    0.0060
          15   -0.0014    0.0246    0.0057    0.0025    0.0005    0.0066   -0.0098    0.0148
          16   -0.0144    0.0063   -0.0244    0.0109    0.0016    0.0121    0.0080   -0.0030
          17   -0.0185   -0.0114   -0.0105    0.0082   -0.0009    0.0070   -0.0024   -0.0026
          18   -0.0091   -0.0145   -0.0076    0.0002    0.0029    0.0113   -0.0036    0.0037
          19   -0.0013   -0.0133   -0.0209   -0.0235    0.0024   -0.0119   -0.0060   -0.0017
          20    0.0061   -0.0121   -0.0103    0.0080    0.0015   -0.0081    0.0035    0.0204
          21    0.0043   -0.0129   -0.0097   -0.0078   -0.0010   -0.0044    0.0010    0.0100
          22    0.0000   -0.0014    0.0001   -0.0145   -0.0012    0.0025   -0.0058    0.0058
          23    0.0026    0.0031   -0.0007    0.0030    0.0028   -0.0017    0.0072    0.0174
          24    0.0047   -0.0020    0.0001    0.0075    0.0006   -0.0013    0.0007   -0.0194
          25    0.0097   -0.0035    0.0012    0.0223    0.0036   -0.0012    0.0004   -0.0052
          26   -0.0154    0.0033    0.0026   -0.0189   -0.0012    0.0019   -0.0000    0.0179
          27    0.0024    0.0088   -0.0027    0.0053   -0.0008   -0.0020    0.0031   -0.0222
          28   -0.0107    0.0365   -0.0025   -0.0045    0.0066   -0.0192    0.0100   -0.0045
          29   -0.0211    0.1316   -0.0301   -0.0854   -0.0572   -0.0701    0.1130    0.0167
          30   -0.0006   -0.0173    0.0152    0.0277    0.0232    0.0058   -0.0326   -0.0112
          31    0.0245   -0.0028    0.0337   -0.0089    0.0154   -0.0201   -0.0066    0.0055
          32    0.1411   -0.0529    0.1516   -0.0755    0.1649   -0.0398    0.0113    0.0325
          33   -0.0140    0.0084    0.0255    0.0174   -0.1140   -0.0471   -0.0302   -0.0083
          34    0.0310    0.0216    0.0428    0.0218   -0.0099    0.0367   -0.0238    0.0254
          35    0.0306   -0.0001   -0.0297    0.0239   -0.0056    0.0560   -0.0344    0.0198
          36   -0.0825   -0.0173    0.0151   -0.0671    0.0102   -0.1334    0.0820   -0.0622
          37   -0.0200    0.0212   -0.0125    0.0012    0.0553   -0.0404   -0.0412    0.0109
          38   -0.0194    0.0325    0.0265    0.0214   -0.1023   -0.0697   -0.0553    0.0093
          39    0.0695   -0.0597    0.0372   -0.0228   -0.0346    0.1499    0.1385   -0.0388
          40    0.0163   -0.0120    0.0201   -0.0012   -0.0736    0.0225    0.0245    0.0072
          41   -0.0671    0.0734    0.1054    0.0527    0.0355    0.0581   -0.0047   -0.0385
          42   -0.1002    0.0951    0.0756    0.0388    0.1812    0.0275   -0.0427   -0.0483
          43   -0.0163   -0.0259    0.0205   -0.0055    0.0294    0.0011    0.0273    0.0056
          44    0.0822    0.0448   -0.0172   -0.0056   -0.0348    0.0390   -0.0547   -0.0475
          45    0.1254    0.0781   -0.0426   -0.0155   -0.0604    0.0534   -0.0924   -0.0689
          46   -0.0017    0.0367   -0.0062    0.0177   -0.0164   -0.0217    0.0120   -0.0273
          47   -0.0566   -0.1207    0.0425    0.0309   -0.0169    0.0159   -0.0852    0.0714
          48   -0.0334   -0.0876    0.0345    0.0184   -0.0127    0.0111   -0.0635    0.0512
          49   -0.0236   -0.0046   -0.0216    0.0221   -0.0013    0.0103    0.0074   -0.0003
          50   -0.0338    0.0176   -0.1312   -0.0250    0.0457    0.0999    0.0276    0.0135
          51    0.0048    0.0187   -0.0480   -0.0312    0.0188    0.0393    0.0048    0.0015
          52    0.0060   -0.0107    0.0102   -0.0091   -0.0169    0.0122    0.0087    0.0249
          53   -0.0284   -0.0773    0.0357    0.1427    0.0006   -0.0342    0.0977   -0.1240
          54    0.0032   -0.0194    0.0073    0.0162   -0.0078    0.0009    0.0190    0.0017
          55   -0.0028   -0.0126   -0.0138   -0.0237   -0.0024   -0.0066   -0.0041    0.0004
          56    0.1006   -0.0340   -0.1180    0.1061    0.0761   -0.0942   -0.0076   -0.0680
          57    0.0138   -0.0224   -0.0692   -0.0364    0.0212   -0.0413   -0.0148    0.0092
          58    0.0053   -0.0100   -0.0103    0.0040    0.0008   -0.0023    0.0045    0.0221
          59   -0.0526   -0.0561    0.0070   -0.1387   -0.0155    0.0268   -0.0663   -0.1397
          60    0.0292    0.0538   -0.0183    0.0899    0.0085   -0.0252    0.0659    0.1416
          61   -0.0067   -0.0019    0.0018   -0.0055    0.0040    0.0004    0.0070    0.0488
          62   -0.0002    0.0000    0.0002   -0.0010    0.0000    0.0001    0.0001    0.0026
          63   -0.0001   -0.0001   -0.0001    0.0002   -0.0003   -0.0000   -0.0003   -0.0016


   Root No.      33        34        35        36        37        38        39        40

                33 A      34 A      35 A      36 A      37 A      38 A      39 A      40 A   

                1253.4    1291.6    1327.4    1365.6    1381.5    1394.1    1401.8    1406.1
  
           1   -0.0036   -0.0028   -0.0010   -0.0014    0.0020   -0.0012    0.0002    0.0009
           2    0.0223    0.0039    0.0126    0.0015    0.0054   -0.0016    0.0001   -0.0010
           3   -0.0076   -0.0002   -0.0042    0.0003   -0.0022    0.0005    0.0003    0.0001
           4   -0.0016   -0.0003   -0.0005   -0.0002    0.0011   -0.0004    0.0009    0.0007
           5    0.0036    0.0010    0.0036    0.0004    0.0052   -0.0024    0.0020    0.0011
           6   -0.0014   -0.0002   -0.0014   -0.0000   -0.0021    0.0010   -0.0008   -0.0005
           7   -0.0048    0.0072    0.0001   -0.0120   -0.0011   -0.0057    0.0061   -0.0067
           8   -0.0027    0.0125   -0.0072   -0.0177   -0.0025   -0.0097   -0.0103   -0.0155
           9    0.0160   -0.0238   -0.0120    0.0372    0.0163    0.0195   -0.0073    0.0314
          10   -0.0067   -0.0008    0.0044    0.0099    0.0037    0.0075    0.0072   -0.0098
          11   -0.0178    0.0168    0.0393    0.0324   -0.0106    0.0332    0.0114    0.0114
          12    0.0112    0.0070   -0.0055   -0.0067    0.0036   -0.0038    0.0111   -0.0374
          13    0.0016    0.0030   -0.0043   -0.0035    0.0085   -0.0005    0.0059    0.0127
          14    0.0077   -0.0200    0.0138   -0.0042   -0.0246   -0.0147    0.0154    0.0042
          15    0.0016   -0.0213    0.0290   -0.0152   -0.0319   -0.0199    0.0111   -0.0150
          16    0.0021   -0.0026   -0.0015    0.0031   -0.0028   -0.0172   -0.0153   -0.0006
          17   -0.0243   -0.0203   -0.0072   -0.0026    0.0233   -0.0351   -0.0077   -0.0015
          18   -0.0271   -0.0081   -0.0007    0.0020    0.0102   -0.0040    0.0041    0.0043
          19   -0.0006   -0.0008    0.0004   -0.0018   -0.0054    0.0073   -0.0103   -0.0097
          20   -0.0024   -0.0004    0.0208   -0.0205    0.0510    0.0157   -0.0035    0.0102
          21   -0.0095    0.0085   -0.0060   -0.0031    0.0093    0.0201   -0.0197   -0.0095
          22    0.0203    0.0170    0.0139    0.0090    0.0104   -0.0075    0.0033   -0.0033
          23   -0.0331   -0.0098   -0.0276   -0.0064   -0.0243    0.0147   -0.0056    0.0004
          24    0.0075   -0.0124    0.0054   -0.0093    0.0052    0.0051    0.0021    0.0053
          25   -0.0021   -0.0082    0.0033   -0.0060    0.0065    0.0019    0.0016    0.0041
          26   -0.0076    0.0158   -0.0127    0.0143   -0.0174   -0.0072   -0.0002   -0.0071
          27    0.0158   -0.0039    0.0052   -0.0007   -0.0008   -0.0024   -0.0003    0.0001
          28    0.0333    0.0334   -0.0055   -0.0745   -0.0595   -0.0258   -0.0762    0.1547
          29    0.1274   -0.0396   -0.0890   -0.0345    0.0205   -0.0321   -0.0216   -0.0192
          30   -0.0119    0.0465    0.0300   -0.0363   -0.0450   -0.0026   -0.0300    0.0754
          31    0.0064   -0.0107   -0.0131    0.0037    0.0159   -0.0029    0.0171   -0.0450
          32    0.0630   -0.0238   -0.0749   -0.0774    0.0041   -0.0554   -0.0302    0.0215
          33   -0.0100    0.0398    0.0204   -0.0503   -0.0619   -0.0068   -0.0781    0.1831
          34    0.0007   -0.0457    0.0645    0.0352   -0.0616    0.0054   -0.0497    0.0051
          35    0.0348   -0.0360   -0.0505    0.0083    0.0321   -0.0033    0.0092    0.0224
          36   -0.0606    0.1063    0.0311   -0.0446   -0.0118   -0.0003   -0.0057   -0.0518
          37    0.0092   -0.0184   -0.0020    0.0216    0.0050    0.0086   -0.0036    0.0146
          38    0.0289   -0.0142   -0.0555    0.0139    0.0621    0.0081    0.0570    0.0233
          39   -0.0325    0.0645   -0.0026   -0.0793   -0.0034   -0.0304    0.0296   -0.0445
          40    0.0081   -0.0158    0.0047    0.0133   -0.0150   -0.0006   -0.0102   -0.0154
          41    0.0064    0.0164   -0.0513    0.0818    0.0210    0.0437   -0.0667   -0.0433
          42   -0.0220    0.0634   -0.0413   -0.0188    0.0736    0.0169    0.0169    0.0504
          43    0.0276   -0.0439   -0.0189    0.1019   -0.0407    0.0308   -0.0598   -0.0579
          44   -0.0118    0.0422   -0.0582    0.0275    0.0076    0.0152   -0.0234   -0.0072
          45   -0.0342    0.0834   -0.0791    0.0133    0.0260    0.0203   -0.0343   -0.0178
          46    0.0112   -0.0427   -0.0488   -0.0803   -0.0142    0.1427    0.0944    0.0171
          47    0.1168    0.0658   -0.0249   -0.0129   -0.0450    0.0188   -0.0048   -0.0271
          48    0.0744    0.0470   -0.0186   -0.0162   -0.0377    0.0518    0.0195   -0.0129
          49   -0.0254   -0.0231   -0.0289   -0.0303   -0.0158    0.0643    0.0355    0.0137
          50    0.1089    0.0398   -0.0045   -0.0323   -0.0520    0.1312    0.0560    0.0210
          51    0.0737    0.0511    0.0527    0.0527    0.0112   -0.0970   -0.0660   -0.0162
          52   -0.0231    0.0476   -0.0550    0.0600   -0.0052   -0.0934    0.1061    0.0784
          53    0.0579    0.0103   -0.0431    0.0443   -0.0547   -0.0164    0.0026   -0.0013
          54   -0.0108    0.0318   -0.0396    0.0339   -0.0076   -0.0302    0.0334    0.0274
          55   -0.0013   -0.0011    0.0015   -0.0037   -0.0012    0.0093   -0.0115   -0.0093
          56    0.0183   -0.0117   -0.0182    0.0217   -0.0686   -0.0134   -0.0073   -0.0217
          57   -0.0125    0.0435   -0.0508    0.0674   -0.0352   -0.1123    0.1169    0.0725
          58   -0.0113   -0.0006    0.0029   -0.0070    0.0155    0.0054   -0.0022    0.0030
          59   -0.0045   -0.0646   -0.0137   -0.0147   -0.0281    0.0016    0.0037    0.0061
          60    0.0040    0.0742    0.0044    0.0241    0.0160   -0.0062   -0.0084   -0.0133
          61   -0.0700   -0.0073   -0.0728   -0.0004   -0.1098    0.0501   -0.0410   -0.0254
          62   -0.0024    0.0004   -0.0031    0.0004   -0.0056    0.0026   -0.0020   -0.0015
          63    0.0010   -0.0005    0.0012   -0.0003    0.0021   -0.0008    0.0010    0.0007


   Root No.      41        42        43        44        45        46        47        48

                41 A      42 A      43 A      44 A      45 A      46 A      47 A      48 A   

                1406.7    1414.6    1429.7    1445.7    1852.8    2939.4    2943.4    2945.3
  
           1    0.0016   -0.0010   -0.0025   -0.0158    0.0047    0.0000    0.0002   -0.0000
           2   -0.0008    0.0016    0.0092    0.0525    0.0200   -0.0001   -0.0003    0.0001
           3    0.0005   -0.0006   -0.0054   -0.0175   -0.0071   -0.0001   -0.0001    0.0000
           4    0.0018   -0.0012   -0.0052   -0.0187   -0.0084    0.0000    0.0000    0.0000
           5    0.0040   -0.0020   -0.0093   -0.0171   -0.0022    0.0000   -0.0000    0.0000
           6   -0.0016    0.0008    0.0034    0.0068    0.0003   -0.0000   -0.0000    0.0000
           7    0.0077    0.0241    0.0011   -0.0009   -0.0003   -0.0037   -0.0046   -0.0270
           8    0.0050   -0.0337    0.0027    0.0018    0.0001   -0.0019   -0.0026   -0.0164
           9   -0.0154   -0.0073   -0.0048    0.0016    0.0000   -0.0019   -0.0022   -0.0146
          10   -0.0040   -0.0032    0.0005   -0.0007   -0.0017    0.0019    0.0050    0.0069
          11   -0.0074    0.0145    0.0061   -0.0101   -0.0012   -0.0004   -0.0011   -0.0017
          12   -0.0047   -0.0083    0.0090   -0.0066    0.0021   -0.0005   -0.0013   -0.0026
          13   -0.0245   -0.0096   -0.0040    0.0009   -0.0003    0.0034   -0.0006    0.0059
          14   -0.0182    0.0057   -0.0118    0.0002    0.0007   -0.0022    0.0003   -0.0047
          15    0.0163    0.0132    0.0017   -0.0003   -0.0030    0.0020   -0.0003    0.0040
          16   -0.0118    0.0073    0.0233   -0.0282    0.0182   -0.0075   -0.0182    0.0036
          17    0.0074   -0.0027   -0.0228    0.0354   -0.0054    0.0056    0.0148   -0.0033
          18    0.0096   -0.0032   -0.0263    0.0312   -0.0294   -0.0103   -0.0264    0.0060
          19   -0.0038    0.0061   -0.0146    0.0001    0.0067   -0.0321    0.0127    0.0023
          20    0.0153   -0.0070    0.0437    0.0005   -0.0326   -0.0030    0.0012    0.0004
          21   -0.0088    0.0051   -0.0165   -0.0039    0.0214    0.0160   -0.0068   -0.0015
          22    0.0057   -0.0015   -0.0263    0.0399   -0.0708   -0.0002   -0.0001    0.0000
          23   -0.0104    0.0028    0.0181   -0.0741   -0.0977    0.0002    0.0002    0.0000
          24    0.0016   -0.0016    0.0254   -0.0155    0.2335    0.0002    0.0001    0.0000
          25    0.0022   -0.0018    0.0140   -0.0063    0.0410    0.0009   -0.0004   -0.0000
          26   -0.0036    0.0022   -0.0352    0.0055    0.1271   -0.0005    0.0002    0.0001
          27   -0.0019    0.0010    0.0082    0.0108   -0.2121   -0.0012    0.0004    0.0001
          28    0.0438    0.0293   -0.0139    0.0063    0.0069   -0.0038   -0.0119   -0.0222
          29   -0.0100   -0.0323    0.0182   -0.0137    0.0119    0.0029    0.0087    0.0125
          30    0.0262    0.0258   -0.0055    0.0010    0.0018    0.0082    0.0251    0.0436
          31   -0.0096   -0.0118    0.0044   -0.0021   -0.0008   -0.0194   -0.0503   -0.0620
          32    0.0258   -0.0141   -0.0226    0.0281   -0.0041    0.0025    0.0068    0.0038
          33    0.0498    0.0284   -0.0302    0.0220   -0.0015   -0.0043   -0.0114   -0.0137
          34   -0.0158   -0.2090   -0.0013    0.0066    0.0005    0.0050    0.0077    0.0526
          35   -0.0083    0.0617   -0.0092    0.0026   -0.0001    0.0218    0.0324    0.2179
          36    0.0239   -0.0344    0.0198   -0.0061    0.0004    0.0103    0.0158    0.1051
          37   -0.0040   -0.0008   -0.0010    0.0001   -0.0003    0.0405    0.0468    0.2734
          38   -0.0128    0.2179   -0.0068   -0.0094    0.0003   -0.0037   -0.0041   -0.0226
          39    0.0219    0.0901    0.0019   -0.0031    0.0001    0.0100    0.0120    0.0694
          40    0.0388    0.0057    0.0077   -0.0003   -0.0005   -0.0443    0.0078   -0.0700
          41    0.1517    0.0112    0.0449   -0.0023   -0.0046    0.0066   -0.0017    0.0069
          42   -0.0998   -0.0327   -0.0076    0.0015   -0.0022   -0.0103    0.0012   -0.0200
          43    0.1684    0.0450    0.0227   -0.0041    0.0048   -0.0003   -0.0000   -0.0015
          44    0.0046   -0.0110   -0.0149   -0.0008    0.0087    0.0200   -0.0031    0.0465
          45    0.0092   -0.0216   -0.0115   -0.0012    0.0108   -0.0114    0.0013   -0.0305
          46    0.0711   -0.0530   -0.0677    0.0887    0.0436   -0.0168   -0.0443    0.0106
          47   -0.0226    0.0013    0.0423   -0.0793   -0.0414   -0.0510   -0.1383    0.0341
          48   -0.0014   -0.0079    0.0089   -0.0337   -0.0441    0.0705    0.1913   -0.0474
          49    0.0257   -0.0188   -0.0236    0.0185   -0.0113    0.1090    0.2647   -0.0533
          50    0.0272   -0.0269   -0.0103    0.0016   -0.0023   -0.0145   -0.0355    0.0074
          51   -0.0521    0.0369    0.0628   -0.0602    0.0260    0.0508    0.1243   -0.0250
          52    0.0513   -0.0554    0.0892   -0.0019    0.0144    0.0705   -0.0310   -0.0079
          53   -0.0357    0.0016   -0.0526    0.0164   -0.0478    0.0291   -0.0125   -0.0032
          54    0.0095   -0.0210    0.0155   -0.0025    0.0191   -0.2116    0.0911    0.0226
          55   -0.0048    0.0067   -0.0131   -0.0003    0.0038    0.3173   -0.1218   -0.0203
          56   -0.0166    0.0109   -0.0500    0.0012    0.0172    0.0053   -0.0022   -0.0002
          57    0.0649   -0.0560    0.0861    0.0050   -0.0229    0.0261   -0.0097   -0.0016
          58    0.0039   -0.0019    0.0091   -0.0106    0.0718   -0.0122    0.0031    0.0011
          59   -0.0073    0.0024    0.0414   -0.0451   -0.1156    0.0074   -0.0020   -0.0006
          60    0.0020    0.0011   -0.0646    0.0497   -0.0319    0.0123   -0.0035   -0.0011
          61   -0.0832    0.0437    0.1816    0.3882    0.0107   -0.0000   -0.0000    0.0000
          62   -0.0044    0.0024    0.0093    0.0242    0.0003   -0.0000   -0.0001    0.0000
          63    0.0017   -0.0010   -0.0034   -0.0093    0.0018    0.0000    0.0000   -0.0000


   Root No.      49        50        51        52        53        54        55        56

                49 A      50 A      51 A      52 A      53 A      54 A      55 A      56 A   

                2955.6    2956.9    3020.4    3023.1    3026.0    3034.5    3035.0    3047.3
  
           1   -0.0000   -0.0000    0.0001    0.0000    0.0000   -0.0000    0.0000   -0.0002
           2    0.0000    0.0000   -0.0000   -0.0000   -0.0000    0.0000   -0.0000   -0.0003
           3    0.0000    0.0000   -0.0001   -0.0000   -0.0000   -0.0000   -0.0000    0.0005
           4    0.0000    0.0000   -0.0000   -0.0000   -0.0000   -0.0000   -0.0000    0.0001
           5    0.0000    0.0000   -0.0000    0.0000   -0.0000    0.0000   -0.0000   -0.0000
           6    0.0000    0.0000   -0.0000    0.0000   -0.0000   -0.0000   -0.0000    0.0001
           7   -0.0008    0.0077    0.0022   -0.0015   -0.0131    0.0013    0.0034    0.0000
           8   -0.0006    0.0068   -0.0035    0.0020    0.0177   -0.0034   -0.0079   -0.0004
           9   -0.0006    0.0050   -0.0008    0.0005    0.0036   -0.0005   -0.0025   -0.0002
          10    0.0217    0.0216    0.0035    0.0013   -0.0042    0.0061   -0.0098   -0.0001
          11   -0.0060   -0.0058    0.0002    0.0001   -0.0001    0.0013   -0.0029   -0.0001
          12   -0.0108   -0.0111    0.0021    0.0003   -0.0049    0.0097   -0.0187   -0.0005
          13   -0.0173    0.0128    0.0030   -0.0044   -0.0057   -0.0177   -0.0067   -0.0010
          14    0.0178   -0.0134    0.0010   -0.0014   -0.0026   -0.0132   -0.0059   -0.0016
          15   -0.0142    0.0109    0.0001   -0.0002    0.0011    0.0050    0.0024    0.0007
          16    0.0008    0.0004    0.0165    0.0110    0.0024   -0.0008    0.0009    0.0007
          17   -0.0018   -0.0014    0.0090    0.0055    0.0012   -0.0007    0.0012    0.0007
          18    0.0028    0.0021   -0.0087   -0.0052   -0.0014    0.0011   -0.0020   -0.0011
          19   -0.0025    0.0014    0.0038   -0.0081    0.0019   -0.0000   -0.0002   -0.0008
          20   -0.0004    0.0002   -0.0014    0.0026   -0.0008   -0.0008   -0.0003   -0.0011
          21    0.0025   -0.0016    0.0112   -0.0201    0.0049    0.0034    0.0013    0.0067
          22   -0.0000    0.0000    0.0002    0.0002    0.0000   -0.0000   -0.0000    0.0011
[...]
 FREQ.      1365.64         C  3 -- C  4         +15.1% ( 48.9%)     81.5%
 T-DIPOLE    0.0482         C  3 -- H 13         +11.6% ( 42.8%)      0.0%
 TRAVEL      0.0973         C  3 -- C  5          +9.5% ( 38.9%)     71.6%
 RED. MASS   0.6528         C  3 -- H 12          +9.5% ( 38.8%)      0.0%
 EFF. MASS   5.2184

 VIBRATION   37   37A         ATOM PAIR      ENERGY CONTRIBUTION    RADIAL
 FREQ.      1381.52         C  5 -- C  7         +15.8% ( 55.6%)     78.7%
 T-DIPOLE    0.1980         C  7 -- C  9         +11.3% ( 47.0%)     75.0%
 TRAVEL      0.0828         C  7 -- H 19         +10.5% ( 45.3%)      0.1%
 RED. MASS   1.0765         C  7 -- H 18          +9.5% ( 43.1%)      0.2%
 EFF. MASS   7.1264

 VIBRATION   38   38A         ATOM PAIR      ENERGY CONTRIBUTION    RADIAL
 FREQ.      1394.10         C  6 -- H 17         +15.5% ( 48.7%)      2.2%
 T-DIPOLE    0.1289         C  6 -- H 16         +12.0% ( 42.8%)      5.7%
 TRAVEL      0.0971         C  4 -- C  6         +11.8% ( 42.5%)     91.1%
 RED. MASS   0.4713         C  7 -- H 19          +6.7% ( 32.1%)      2.5%
 EFF. MASS   5.1254

 VIBRATION   39   39A         ATOM PAIR      ENERGY CONTRIBUTION    RADIAL
 FREQ.      1401.82         C  7 -- H 19         +12.5% ( 37.6%)      4.2%
 T-DIPOLE    0.0563         C  7 -- H 18         +10.9% ( 35.0%)      6.4%
 TRAVEL      0.1243         C  6 -- H 16          +8.0% ( 30.0%)      4.6%
 RED. MASS   0.1845         C  6 -- H 17          +7.6% ( 29.4%)      5.6%
 EFF. MASS   3.1111

 VIBRATION   40   40A         ATOM PAIR      ENERGY CONTRIBUTION    RADIAL
 FREQ.      1406.14         C  4 -- H 11         +20.5% ( 52.6%)      3.8%
 T-DIPOLE    0.0964         C  4 -- H 10         +17.0% ( 47.9%)      6.8%
 TRAVEL      0.1067         C  3 -- C  4         +14.6% ( 44.4%)     80.3%
 RED. MASS   0.5092         C  3 -- C  5          +8.0% ( 32.9%)     75.0%
 EFF. MASS   4.2082

 VIBRATION   41   41A         ATOM PAIR      ENERGY CONTRIBUTION    RADIAL
 FREQ.      1406.74         C  5 -- H 14         +23.5% ( 52.4%)      3.7%
 T-DIPOLE    0.0573         C  5 -- H 15         +19.3% ( 47.4%)      6.9%
 TRAVEL      0.1210         C  3 -- C  5          +9.3% ( 33.0%)     66.3%
 RED. MASS   0.3328         C  5 -- C  7          +8.1% ( 30.8%)     13.8%
 EFF. MASS   3.2721

 VIBRATION   42   42A         ATOM PAIR      ENERGY CONTRIBUTION    RADIAL
 FREQ.      1414.62         C  3 -- H 13         +31.6% ( 58.4%)      4.4%
 T-DIPOLE    0.0614         C  3 -- H 12         +27.3% ( 54.3%)      6.0%
 TRAVEL      0.1280         C  3 -- C  5         +10.2% ( 33.2%)     51.7%
 RED. MASS   0.4583         C  3 -- C  4         +10.1% ( 33.0%)     50.2%
 EFF. MASS   2.9079

 VIBRATION   43   43A         ATOM PAIR      ENERGY CONTRIBUTION    RADIAL
 FREQ.      1429.69         C  7 -- C  9         +14.7% ( 51.6%)     99.6%
 T-DIPOLE    0.2802         C  6 -- C  8         +12.5% ( 47.6%)     99.8%
 TRAVEL      0.0827         O  2 -- H 21         +10.6% ( 43.9%)      2.9%
 RED. MASS   0.8586         C  7 -- H 18          +8.7% ( 39.7%)      3.3%
 EFF. MASS   6.8956

 VIBRATION   44   44A         ATOM PAIR      ENERGY CONTRIBUTION    RADIAL
 FREQ.      1445.67         O  2 -- H 21         +27.4% ( 63.7%)      2.0%
 T-DIPOLE    0.4072         O  1 -- C  8         +20.8% ( 55.5%)     92.0%
 TRAVEL      0.0825         C  6 -- C  8         +18.7% ( 52.6%)     79.1%
 RED. MASS   1.3019         C  8 -- C  9         +11.1% ( 40.6%)      0.5%
 EFF. MASS   6.8478

 VIBRATION   45   45A         ATOM PAIR      ENERGY CONTRIBUTION    RADIAL
 FREQ.      1852.76         C  8 -- C  9         +43.4% ( 97.2%)     99.2%
 T-DIPOLE    0.4003         C  6 -- C  8         +14.7% ( 56.6%)     38.9%
 TRAVEL      0.0553         O  1 -- C  8         +14.4% ( 56.0%)     32.2%
 RED. MASS   5.5048         C  7 -- C  9         +13.7% ( 54.7%)     54.4%
 EFF. MASS  11.8811         C  9 -- H 20         +12.6% ( 52.4%)      3.7%

 VIBRATION   46   46A         ATOM PAIR      ENERGY CONTRIBUTION    RADIAL
 FREQ.      2939.41         C  7 -- H 19         +53.8% ( 76.1%)     97.9%
 T-DIPOLE    0.0483         C  7 -- H 18         +28.5% ( 55.4%)     94.1%
 TRAVEL      0.1219         C  6 -- H 17          +7.8% ( 29.0%)     97.9%
 RED. MASS   0.4095         C  6 -- H 16          +4.4% ( 21.8%)     94.5%
 EFF. MASS   1.5428

 VIBRATION   47   47A         ATOM PAIR      ENERGY CONTRIBUTION    RADIAL
 FREQ.      2943.45         C  6 -- H 17         +47.4% ( 71.5%)     97.4%
 T-DIPOLE    0.0871         C  6 -- H 16         +32.6% ( 59.3%)     95.3%
 TRAVEL      0.1216         C  7 -- H 19          +8.1% ( 29.6%)     97.4%
 RED. MASS   0.3712         C  7 -- H 18          +5.3% ( 24.0%)     95.0%
 EFF. MASS   1.5480

 VIBRATION   48   48A         ATOM PAIR      ENERGY CONTRIBUTION    RADIAL
 FREQ.      2945.33         C  3 -- H 13         +47.1% ( 71.3%)     97.1%
 T-DIPOLE    0.0354         C  3 -- H 12         +36.8% ( 63.1%)     95.7%
 TRAVEL      0.1217         C  5 -- H 14          +3.2% ( 18.5%)     97.4%
 RED. MASS   0.3916         C  4 -- H 11          +2.4% ( 16.1%)     97.2%
 EFF. MASS   1.5446

 VIBRATION   49   49A         ATOM PAIR      ENERGY CONTRIBUTION    RADIAL
 FREQ.      2955.61         C  5 -- H 15         +29.9% ( 56.7%)     97.0%
 T-DIPOLE    0.0203         C  5 -- H 14         +24.5% ( 51.4%)     95.9%
 TRAVEL      0.1217         C  4 -- H 10         +23.4% ( 50.2%)     97.1%
 RED. MASS   0.2572         C  4 -- H 11         +18.2% ( 44.3%)     95.7%
 EFF. MASS   1.5398

 VIBRATION   50   50A         ATOM PAIR      ENERGY CONTRIBUTION    RADIAL
 FREQ.      2956.87         C  4 -- H 10         +28.2% ( 55.1%)     97.2%
 T-DIPOLE    0.0459         C  4 -- H 11         +21.5% ( 48.1%)     95.6%
 TRAVEL      0.1212         C  5 -- H 15         +20.3% ( 46.8%)     97.1%
 RED. MASS   0.2174         C  5 -- H 14         +16.3% ( 41.9%)     95.8%
 EFF. MASS   1.5524

 VIBRATION   51   51A         ATOM PAIR      ENERGY CONTRIBUTION    RADIAL
 FREQ.      3020.43         C  6 -- H 16         +41.9% ( 63.8%)     98.6%
 T-DIPOLE    0.1100         C  6 -- H 17         +27.7% ( 51.9%)     96.1%
 TRAVEL      0.1321         C  7 -- H 18         +15.1% ( 38.3%)     99.1%
 RED. MASS   0.2778         C  7 -- H 19          +7.4% ( 26.9%)     94.4%
 EFF. MASS   1.2803

 VIBRATION   52   52A         ATOM PAIR      ENERGY CONTRIBUTION    RADIAL
 FREQ.      3023.13         C  7 -- H 18         +43.3% ( 64.9%)     98.9%
 T-DIPOLE    0.0714         C  7 -- H 19         +25.0% ( 49.3%)     95.4%
 TRAVEL      0.1319         C  6 -- H 16         +14.8% ( 37.9%)     98.3%
 RED. MASS   0.2806         C  6 -- H 17         +11.3% ( 33.1%)     96.7%
 EFF. MASS   1.2822

 VIBRATION   53   53A         ATOM PAIR      ENERGY CONTRIBUTION    RADIAL
 FREQ.      3025.98         C  3 -- H 12         +41.6% ( 63.5%)     98.0%
 T-DIPOLE    0.0134         C  3 -- H 13         +38.7% ( 61.3%)     97.4%
 TRAVEL      0.1323         C  4 -- H 11          +4.4% ( 20.7%)     99.0%
 RED. MASS   0.3255         C  5 -- H 14          +4.1% ( 20.0%)     98.8%
 EFF. MASS   1.2726

 VIBRATION   54   54A         ATOM PAIR      ENERGY CONTRIBUTION    RADIAL
 FREQ.      3034.45         C  5 -- H 14         +39.8% ( 62.1%)     98.0%
 T-DIPOLE    0.0383         C  5 -- H 15         +35.5% ( 58.7%)     97.3%
 TRAVEL      0.1322         C  4 -- H 11         +11.2% ( 33.0%)     98.5%
 RED. MASS   0.3019         C  4 -- H 10          +8.1% ( 28.1%)     96.6%
 EFF. MASS   1.2711

 VIBRATION   55   55A         ATOM PAIR      ENERGY CONTRIBUTION    RADIAL
 FREQ.      3034.96         C  4 -- H 11         +37.5% ( 60.3%)     97.9%
 T-DIPOLE    0.0645         C  4 -- H 10         +33.9% ( 57.3%)     97.4%
 TRAVEL      0.1320         C  3 -- H 12          +8.8% ( 29.2%)     99.1%
 RED. MASS   0.2711         C  5 -- H 15          +7.2% ( 26.4%)     98.0%
 EFF. MASS   1.2749

 VIBRATION   56   56A         ATOM PAIR      ENERGY CONTRIBUTION    RADIAL
 FREQ.      3047.30         C  9 -- H 20         +95.6% ( 99.1%)    100.0%
 T-DIPOLE    0.3800         C  8 -- C  9          +1.4% ( 12.1%)     36.1%
 TRAVEL      0.1211         C  7 -- C  9          +1.3% ( 11.7%)     22.6%
 RED. MASS   0.8979         C  7 -- H 18          +1.3% ( 11.7%)     99.7%
 EFF. MASS   1.5078

 VIBRATION   57   57A         ATOM PAIR      ENERGY CONTRIBUTION    RADIAL
 FREQ.      3987.99         O  2 -- H 21         +99.6% (100.0%)     99.9%
 T-DIPOLE    0.4015         O  1 -- O  2          +0.4% (  6.0%)      0.0%
 TRAVEL      0.1106
 RED. MASS   0.9479
 EFF. MASS   1.3829

      SYMMETRY NUMBER FOR POINT-GROUP C1  =  1


          SYSTEM IS A GROUND STATE



 InChI=1S/C7H12O2/c8-9-7-5-3-1-2-4-6-7/h5,8H,1-4,6H2


          MOLECULE IS NOT LINEAR

          THERE ARE 57 GENUINE VIBRATIONS IN THIS SYSTEM
          THIS THERMODYNAMICS CALCULATION IS LIMITED TO
          MOLECULES WHICH HAVE NO INTERNAL ROTATIONS




                    CALCULATED THERMODYNAMIC PROPERTIES
                                          *
   TEMP. (K)   PARTITION FUNCTION   H.O.F.    ENTHALPY  HEAT CAPACITY ENTROPY
                                   KCAL/MOL   CAL/MOLE    CAL/K/MOL  CAL/K/MOL


 298.00  VIB.     0.2792D+03                  4042.3932    29.0602    24.7570
         ROT.     0.4985D+06                   888.2813     2.9808    29.0517
         INT.     0.1392D+09                  4930.6745    32.0410    53.8087
         TRA.     0.1403D+28                  1480.4688     4.9680    40.4556
         TOT.                      -32.961    6411.1434    37.0090    94.2643

 200.00  VIB.     0.3115D+02                  1737.5773    18.2606    15.5212
         ROT.     0.2741D+06                   596.1620     2.9808    27.8631
         INT.     0.8537D+07                  2333.7392    21.2414    43.3843
         TRA.     0.7713D+27                   993.6033     4.9680    38.4745
         TOT.                      -36.045    3327.3425    26.2095    81.8587

 210.00  VIB.     0.3878D+02                  1925.2358    19.2748    16.4366
         ROT.     0.2949D+06                   625.9700     2.9808    28.0085
         INT.     0.1144D+08                  2551.2058    22.2557    44.4451
         TRA.     0.8299D+27                  1043.2834     4.9680    38.7168
         TOT.                      -35.778    3594.4892    27.2237    83.1620

 220.00  VIB.     0.4833D+02                  2123.1506    20.3120    17.3571
         ROT.     0.3162D+06                   655.7781     2.9808    28.1472
         INT.     0.1528D+08                  2778.9287    23.2928    45.5043
         TRA.     0.8899D+27                  1092.9636     4.9680    38.9480
         TOT.                      -35.500    3871.8923    28.2608    84.4523

 230.00  VIB.     0.6030D+02                  2331.5515    21.3720    18.2833
         ROT.     0.3380D+06                   685.5862     2.9808    28.2797
         INT.     0.2038D+08                  3017.1378    24.3528    46.5630
         TRA.     0.9512D+27                  1142.6437     4.9680    39.1688
         TOT.                      -35.212    4159.7815    29.3208    85.7318

 240.00  VIB.     0.7531D+02                  2550.6641    22.4541    19.2157
         ROT.     0.3603D+06                   715.3943     2.9808    28.4065
         INT.     0.2713D+08                  3266.0584    25.4349    47.6222
         TRA.     0.1014D+28                  1192.3239     4.9680    39.3802
         TOT.                      -34.914    4458.3823    30.4029    87.0025

 250.00  VIB.     0.9416D+02                  2780.7017    23.5567    20.1546
         ROT.     0.3831D+06                   745.2024     2.9808    28.5282
         INT.     0.3607D+08                  3525.9041    26.5375    48.6828
         TRA.     0.1078D+28                  1242.0041     4.9680    39.5830
         TOT.                      -34.604    4767.9082    31.5055    88.2659

 260.00  VIB.     0.1178D+03                  3021.8598    24.6778    21.1003
         ROT.     0.4063D+06                   775.0105     2.9808    28.6451
         INT.     0.4788D+08                  3796.8704    27.6586    49.7454
         TRA.     0.1143D+28                  1291.6842     4.9680    39.7779
         TOT.                      -34.284    5088.5546    32.6266    89.5233

 270.00  VIB.     0.1477D+03                  3274.3110    25.8149    22.0529
         ROT.     0.4299D+06                   804.8186     2.9808    28.7576
         INT.     0.6348D+08                  4079.1297    28.7957    50.8106
         TRA.     0.1210D+28                  1341.3644     4.9680    39.9654
         TOT.                      -33.952    5420.4941    33.7637    90.7759

 280.00  VIB.     0.1852D+03                  3538.2019    26.9653    23.0125
         ROT.     0.4540D+06                   834.6267     2.9808    28.8660
         INT.     0.8409D+08                  4372.8286    29.9461    51.8785
         TRA.     0.1278D+28                  1391.0445     4.9680    40.1461
         TOT.                      -33.608    5763.8732    34.9141    92.0246

 290.00  VIB.     0.2325D+03                  3813.6510    28.1260    23.9790
         ROT.     0.4786D+06                   864.4348     2.9808    28.9706
         INT.     0.1113D+09                  4678.0858    31.1069    52.9496
         TRA.     0.1347D+28                  1440.7247     4.9680    40.3204
         TOT.                      -33.253    6118.8105    36.0749    93.2700

 300.00  VIB.     0.2923D+03                  4100.7477    29.2943    24.9522
         ROT.     0.5035D+06                   894.2429     2.9808    29.0717
         INT.     0.1472D+09                  4994.9906    32.2751    54.0239
         TRA.     0.1417D+28                  1490.4049     4.9680    40.4888
         TOT.                      -32.887    6485.3955    37.2431    94.5127

 310.00  VIB.     0.3678D+03                  4399.5522    30.4671    25.9318
         ROT.     0.5289D+06                   924.0510     2.9808    29.1694
         INT.     0.1946D+09                  5323.6032    33.4479    55.1013
         TRA.     0.1488D+28                  1540.0850     4.9680    40.6517
         TOT.                      -32.508    6863.6882    38.4160    95.7530

 320.00  VIB.     0.4634D+03                  4710.0961    31.6417    26.9177
         ROT.     0.5547D+06                   953.8591     2.9808    29.2641
         INT.     0.2571D+09                  5663.9552    34.6225    56.1817
         TRA.     0.1561D+28                  1589.7652     4.9680    40.8094
         TOT.                      -32.118    7253.7204    39.5906    96.9912

 330.00  VIB.     0.5844D+03                  5032.3837    32.8154    27.9093
         ROT.     0.5809D+06                   983.6672     2.9808    29.3558
         INT.     0.3395D+09                  6016.0509    35.7962    57.2651
         TRA.     0.1635D+28                  1639.4454     4.9680    40.9623
         TOT.                      -31.717    7655.4962    40.7642    98.2274

 340.00  VIB.     0.7378D+03                  5366.3931    33.9857    28.9063
         ROT.     0.6075D+06                  1013.4753     2.9808    29.4448
         INT.     0.4482D+09                  6379.8684    36.9665    58.3511
         TRA.     0.1710D+28                  1689.1255     4.9680    41.1106
         TOT.                      -31.303    8068.9939    41.9345    99.4618

 350.00  VIB.     0.9324D+03                  5712.0786    35.1503    29.9083
         ROT.     0.6345D+06                  1043.2834     2.9808    29.5312
         INT.     0.5917D+09                  6755.3621    38.1311    59.4395
         TRA.     0.1786D+28                  1738.8057     4.9680    41.2546
         TOT.                      -30.878    8494.1677    43.0991   100.6941

 360.00  VIB.     0.1180D+04                  6069.3726    36.3071    30.9148
         ROT.     0.6619D+06                  1073.0915     2.9808    29.6151
         INT.     0.7808D+09                  7142.4641    39.2879    60.5299
         TRA.     0.1863D+28                  1788.4859     4.9680    41.3946
         TOT.                      -30.441    8930.9500    44.2559   101.9245

 370.00  VIB.     0.1494D+04                  6438.1875    37.4542    31.9252
         ROT.     0.6897D+06                  1102.8996     2.9808    29.6968
         INT.     0.1030D+10                  7541.0871    40.4350    61.6220
         TRA.     0.1941D+28                  1838.1660     4.9680    41.5307
         TOT.                      -29.993    9379.2531    45.4030   103.1528

 380.00  VIB.     0.1894D+04                  6818.4181    38.5899    32.9392
         ROT.     0.7178D+06                  1132.7077     2.9808    29.7763
         INT.     0.1359D+10                  7951.1258    41.5707    62.7155
         TRA.     0.2020D+28                  1887.8462     4.9680    41.6632
         TOT.                      -29.533    9838.9720    46.5388   104.3787

 390.00  VIB.     0.2403D+04                  7209.9437    39.7129    33.9561
         ROT.     0.7464D+06                  1162.5158     2.9808    29.8537
         INT.     0.1793D+10                  8372.4595    42.6938    63.8098
         TRA.     0.2100D+28                  1937.5263     4.9680    41.7923
         TOT.                      -29.062   10309.9858    47.6618   105.6021

 400.00  VIB.     0.3051D+04                  7612.6303    40.8219    34.9756
         ROT.     0.7753D+06                  1192.3239     2.9808    29.9292
         INT.     0.2366D+10                  8804.9542    43.8028    64.9048
         TRA.     0.2182D+28                  1987.2065     4.9680    41.9180
         TOT.                      -28.580   10792.1607    48.7708   106.8228

   *: NOTE: HEATS OF FORMATION ARE RELATIVE TO THE
            ELEMENTS IN THEIR STANDARD STATE AT 298K
              (=  Standard Enthalpy of Formation).

            Hvib:  Zero-point energy is not included.
                   frequencies of less than zero cm-1 are not included.
            Hrot = (3/2)RT
            Htra = (3/2)RT + pV = (5/2)RT

            Heat capacity is Cp, not Cv

          For more information, see: HTTP://OpenMOPAC.net/Manual/thermochemistry.html


           FORCE CONSTANT IN CARTESIAN COORDINATES (Millidynes/A)

    ATOM   CHEMICAL       X               Y               Z
   NUMBER   SYMBOL  FORCE CONSTANT  FORCE CONSTANT  FORCE CONSTANT

      1       O        3.972883        6.652519        1.457309
      2       O        2.992620        8.273169        1.321554
      3       C        8.194152        8.380994        8.165821
      4       C        8.288694        8.029780        8.352035
      5       C        8.212290        8.319824        8.129046
      6       C        8.129095        8.302142        8.522870
      7       C        8.053371        8.594894        8.581473
      8       C        5.900262        9.186639       12.322196
      9       C        5.378969        9.135865       12.433047
     10       H        1.622194        1.045493        3.708362
     11       H        4.761091        0.778955        0.881912
     12       H        0.965165        3.895861        1.527040
     13       H        4.643526        0.734444        1.019033
     14       H        4.622698        0.785161        1.007985
     15       H        0.702137        3.702862        1.975238
     16       H        0.777804        2.152443        3.483877
     17       H        3.996048        0.796910        1.504520
     18       H        1.245843        0.801325        4.316621
     19       H        4.871532        0.682004        0.719440
     20       H        2.145846        1.841478        2.254508
     21       H        1.178614        7.628600        1.203791

 **********************
 *                    *
 * JOB ENDED NORMALLY *
 *                    *
 **********************



 TOTAL JOB TIME:             2.54 SECONDS

 == MOPAC DONE ==
