 *******************************************************************************
 ** Site#: 14399        For non-commercial use only    Version 18.184L 64BITS **
 *******************************************************************************
 ** Cite this program as: MOPAC2016, Version: 18.184L, James J. P. Stewart,   **
 ** Stewart Computational Chemistry, web: HTTP://OpenMOPAC.net. Days left:  18**
 *******************************************************************************
 **                                                                           **
 **                                MOPAC2016                                  **
 **                                                                           **
 *******************************************************************************

                              PM3 CALCULATION RESULTS

 *******************************************************************************
 *  CALCULATION DONE:                                Sat Jun 15 10:09:41 2019  *
 *  PM3        - The PM3 Hamiltonian to be used
 *  PRECISE    - CRITERIA TO BE INCREASED BY 100 TIMES
 *  NOSYM      - POINT-GROUP SYMMETRY SET TO C1
 *  THREADS=1  - MULTI-THREADING NOT USED
 *  T=         - A TIME OF 172800.0 SECONDS REQUESTED
 *  DUMP=N     - RESTART FILE WRITTEN EVERY  7200.000 SECONDS
 *******************************************************************************
pm3  precise nosym THREADS=1
 InChI=1S/C10H10/c1-2-6-10(7-3-1)8-4-5-9-10/h2-9H,1H2

   ATOM   CHEMICAL          X               Y               Z
  NUMBER   SYMBOL      (ANGSTROMS)     (ANGSTROMS)     (ANGSTROMS)
 
     1       C         -0.42260000  *  -0.02620000  *   0.01130000  *
     2       C          2.54390000  *  -0.17890000  *  -0.07950000  *
     3       C          0.35060000  *  -0.12900000  *  -1.28250000  *
     4       C          0.42350000  *  -0.21720000  *   1.24810000  *
     5       C         -1.56960000  *  -0.99040000  *   0.01070000  *
     6       C         -1.15070000  *   1.28110000  *   0.07780000  *
     7       C          1.68910000  *  -0.17730000  *  -1.31990000  *
     8       C          1.76180000  *  -0.26530000  *   1.20510000  *
     9       C         -2.72200000  *  -0.34220000  *   0.06640000  *
    10       C         -2.45900000  *   1.08400000  *   0.10860000  *
    11       H          3.16280000  *   0.74240000  *  -0.06520000  *
    12       H          3.22480000  *  -1.05430000  *  -0.12960000  *
    13       H         -1.48090000  *  -2.06870000  *  -0.02940000  *
    14       H         -0.19590000  *  -0.11960000  *  -2.22220000  *
    15       H         -0.06820000  *  -0.27420000  *   2.21610000  *
    16       H         -0.68310000  *   2.25740000  *   0.09830000  *
    17       H          2.18550000  *  -0.21250000  *  -2.28490000  *
    18       H          2.31280000  *  -0.36660000  *   2.13520000  *
    19       H         -3.69800000  *  -0.80860000  *   0.07830000  *
    20       H         -3.20470000  *   1.86620000  *   0.15730000  *
 


          CARTESIAN COORDINATES 

    NO.       ATOM           X           Y           Z

     1         C         -0.4226     -0.0262      0.0113
     2         C          2.5439     -0.1789     -0.0795
     3         C          0.3506     -0.1290     -1.2825
     4         C          0.4235     -0.2172      1.2481
     5         C         -1.5696     -0.9904      0.0107
     6         C         -1.1507      1.2811      0.0778
     7         C          1.6891     -0.1773     -1.3199
     8         C          1.7618     -0.2653      1.2051
     9         C         -2.7220     -0.3422      0.0664
    10         C         -2.4590      1.0840      0.1086
    11         H          3.1628      0.7424     -0.0652
    12         H          3.2248     -1.0543     -0.1296
    13         H         -1.4809     -2.0687     -0.0294
    14         H         -0.1959     -0.1196     -2.2222
    15         H         -0.0682     -0.2742      2.2161
    16         H         -0.6831      2.2574      0.0983
    17         H          2.1855     -0.2125     -2.2849
    18         H          2.3128     -0.3666      2.1352
    19         H         -3.6980     -0.8086      0.0783
    20         H         -3.2047      1.8662      0.1573

  H: (PM3): J. J. P. STEWART, J. COMP. CHEM. 10, 209 (1989).
  C: (PM3): J. J. P. STEWART, J. COMP. CHEM. 10, 209 (1989).

           Empirical Formula: C10 H10  =    20 atoms



      MOLECULAR POINT GROUP   :   C1  


      RHF CALCULATION, NO. OF DOUBLY OCCUPIED LEVELS = 25


          Geometry optimization using EF

          DIAGONAL MATRIX USED AS START HESSIAN

 CYCLE:     1 TIME:   0.004 TIME LEFT:  2.00D  GRAD.:   114.014 HEAT:  71.65735
 CYCLE:     2 TIME:   0.012 TIME LEFT:  2.00D  GRAD.:    59.575 HEAT:  69.46411
 CYCLE:     3 TIME:   0.004 TIME LEFT:  2.00D  GRAD.:    41.136 HEAT:  68.49272
 CYCLE:     4 TIME:   0.008 TIME LEFT:  2.00D  GRAD.:    27.204 HEAT:  67.98570
 CYCLE:     5 TIME:   0.004 TIME LEFT:  2.00D  GRAD.:    34.122 HEAT:  67.78553
 CYCLE:     6 TIME:   0.008 TIME LEFT:  2.00D  GRAD.:    22.005 HEAT:  67.49633
 CYCLE:     7 TIME:   0.008 TIME LEFT:  2.00D  GRAD.:    18.674 HEAT:  67.34216
 CYCLE:     8 TIME:   0.004 TIME LEFT:  2.00D  GRAD.:    20.640 HEAT:  67.23661
 CYCLE:     9 TIME:   0.004 TIME LEFT:  2.00D  GRAD.:    25.514 HEAT:  67.16144
 CYCLE:    10 TIME:   0.008 TIME LEFT:  2.00D  GRAD.:    14.356 HEAT:  67.06422
 CYCLE:    11 TIME:   0.004 TIME LEFT:  2.00D  GRAD.:     8.742 HEAT:  67.00762
 CYCLE:    12 TIME:   0.008 TIME LEFT:  2.00D  GRAD.:     9.238 HEAT:  66.99309
 CYCLE:    13 TIME:   0.004 TIME LEFT:  2.00D  GRAD.:     9.230 HEAT:  66.98584
 CYCLE:    14 TIME:   0.008 TIME LEFT:  2.00D  GRAD.:     4.333 HEAT:  66.97404
 CYCLE:    15 TIME:   0.004 TIME LEFT:  2.00D  GRAD.:     6.511 HEAT:  66.97862
 CYCLE:    16 TIME:   0.008 TIME LEFT:  2.00D  GRAD.:     3.627 HEAT:  66.97078
 CYCLE:    17 TIME:   0.004 TIME LEFT:  2.00D  GRAD.:     4.526 HEAT:  66.97248
 CYCLE:    18 TIME:   0.004 TIME LEFT:  2.00D  GRAD.:     1.493 HEAT:  66.96675
 CYCLE:    19 TIME:   0.004 TIME LEFT:  2.00D  GRAD.:     3.958 HEAT:  66.96841
 CYCLE:    20 TIME:   0.004 TIME LEFT:  2.00D  GRAD.:     1.268 HEAT:  66.96466
 CYCLE:    21 TIME:   0.004 TIME LEFT:  2.00D  GRAD.:     2.896 HEAT:  66.96467
 CYCLE:    22 TIME:   0.004 TIME LEFT:  2.00D  GRAD.:     1.694 HEAT:  66.96178
 CYCLE:    23 TIME:   0.008 TIME LEFT:  2.00D  GRAD.:     2.835 HEAT:  66.96076
 CYCLE:    24 TIME:   0.004 TIME LEFT:  2.00D  GRAD.:     1.161 HEAT:  66.95716
 CYCLE:    25 TIME:   0.004 TIME LEFT:  2.00D  GRAD.:     1.275 HEAT:  66.95538
 CYCLE:    26 TIME:   0.004 TIME LEFT:  2.00D  GRAD.:     1.465 HEAT:  66.95457
 CYCLE:    27 TIME:   0.004 TIME LEFT:  2.00D  GRAD.:     1.044 HEAT:  66.95354
 CYCLE:    28 TIME:   0.004 TIME LEFT:  2.00D  GRAD.:     1.857 HEAT:  66.95320
 CYCLE:    29 TIME:   0.004 TIME LEFT:  2.00D  GRAD.:     1.232 HEAT:  66.95205
 CYCLE:    30 TIME:   0.004 TIME LEFT:  2.00D  GRAD.:     0.961 HEAT:  66.95104
 CYCLE:    31 TIME:   0.004 TIME LEFT:  2.00D  GRAD.:     0.913 HEAT:  66.94989
 CYCLE:    32 TIME:   0.004 TIME LEFT:  2.00D  GRAD.:     1.174 HEAT:  66.94857
 CYCLE:    33 TIME:   0.004 TIME LEFT:  2.00D  GRAD.:     0.861 HEAT:  66.94782
 CYCLE:    34 TIME:   0.004 TIME LEFT:  2.00D  GRAD.:     0.748 HEAT:  66.94721
 CYCLE:    35 TIME:   0.004 TIME LEFT:  2.00D  GRAD.:     0.775 HEAT:  66.94663
 CYCLE:    36 TIME:   0.008 TIME LEFT:  2.00D  GRAD.:     0.891 HEAT:  66.94598
 CYCLE:    37 TIME:   0.004 TIME LEFT:  2.00D  GRAD.:     0.675 HEAT:  66.94527
 CYCLE:    38 TIME:   0.004 TIME LEFT:  2.00D  GRAD.:     0.639 HEAT:  66.94445
 CYCLE:    39 TIME:   0.004 TIME LEFT:  2.00D  GRAD.:     0.575 HEAT:  66.94405
 CYCLE:    40 TIME:   0.004 TIME LEFT:  2.00D  GRAD.:     0.741 HEAT:  66.94310
 CYCLE:    41 TIME:   0.004 TIME LEFT:  2.00D  GRAD.:     1.151 HEAT:  66.94142
 CYCLE:    42 TIME:   0.004 TIME LEFT:  2.00D  GRAD.:     1.494 HEAT:  66.93886
 CYCLE:    43 TIME:   0.004 TIME LEFT:  2.00D  GRAD.:     2.456 HEAT:  66.93244
 CYCLE:    44 TIME:   0.008 TIME LEFT:  2.00D  GRAD.:     2.352 HEAT:  66.92516
 CYCLE:    45 TIME:   0.004 TIME LEFT:  2.00D  GRAD.:     1.885 HEAT:  66.91016
 CYCLE:    46 TIME:   0.004 TIME LEFT:  2.00D  GRAD.:     1.563 HEAT:  66.90373
 CYCLE:    47 TIME:   0.004 TIME LEFT:  2.00D  GRAD.:     1.870 HEAT:  66.90086
 CYCLE:    48 TIME:   0.004 TIME LEFT:  2.00D  GRAD.:     1.752 HEAT:  66.89690
 CYCLE:    49 TIME:   0.004 TIME LEFT:  2.00D  GRAD.:     1.354 HEAT:  66.89310
 CYCLE:    50 TIME:   0.004 TIME LEFT:  2.00D  GRAD.:     0.961 HEAT:  66.89002
 CYCLE:    51 TIME:   0.008 TIME LEFT:  2.00D  GRAD.:     0.671 HEAT:  66.88925
 CYCLE:    52 TIME:   0.004 TIME LEFT:  2.00D  GRAD.:     0.750 HEAT:  66.88811
 CYCLE:    53 TIME:   0.004 TIME LEFT:  2.00D  GRAD.:     0.636 HEAT:  66.88717
 CYCLE:    54 TIME:   0.004 TIME LEFT:  2.00D  GRAD.:     0.362 HEAT:  66.88664
 CYCLE:    55 TIME:   0.004 TIME LEFT:  2.00D  GRAD.:     0.256 HEAT:  66.88642
 CYCLE:    56 TIME:   0.004 TIME LEFT:  2.00D  GRAD.:     0.240 HEAT:  66.88631
 CYCLE:    57 TIME:   0.004 TIME LEFT:  2.00D  GRAD.:     0.147 HEAT:  66.88624
 CYCLE:    58 TIME:   0.004 TIME LEFT:  2.00D  GRAD.:     0.108 HEAT:  66.88620
 CYCLE:    59 TIME:   0.004 TIME LEFT:  2.00D  GRAD.:     0.073 HEAT:  66.88618
 CYCLE:    60 TIME:   0.008 TIME LEFT:  2.00D  GRAD.:     0.067 HEAT:  66.88617
 CYCLE:    61 TIME:   0.004 TIME LEFT:  2.00D  GRAD.:     0.139 HEAT:  66.88621
 CYCLE:    62 TIME:   0.004 TIME LEFT:  2.00D  GRAD.:     0.040 HEAT:  66.88617

     GRADIENT =  0.04030  IS LESS THAN CUTOFF =  0.05000



 -------------------------------------------------------------------------------
 pm3  precise nosym THREADS=1
 InChI=1S/C10H10/c1-2-6-10(7-3-1)8-4-5-9-10/h2-9H,1H2



     GEOMETRY OPTIMISED USING EIGENVECTOR FOLLOWING (EF).     
     SCF FIELD WAS ACHIEVED                                   


                              PM3 CALCULATION
                                                       MOPAC2016 (Version: 18.184L)
                                                       Sat Jun 15 10:09:42 2019
                                                       No. of days remaining =  18




          FINAL HEAT OF FORMATION =         66.88617 KCAL/MOL =     279.85172 KJ/MOL


          TOTAL ENERGY            =      -1336.83048 EV
          ELECTRONIC ENERGY       =      -7110.57989 EV  POINT GROUP:     C1  
          CORE-CORE REPULSION     =       5773.74940 EV
          COSMO AREA              =        170.55 SQUARE ANGSTROMS
          COSMO VOLUME            =        173.25 CUBIC ANGSTROMS

          GRADIENT NORM           =          0.04030 = 0.00901 PER ATOM
          IONIZATION POTENTIAL    =          9.216340 EV
          HOMO LUMO ENERGIES (EV) =         -9.216  0.293
          NO. OF FILLED LEVELS    =         25
          MOLECULAR WEIGHT        =        130.1890

          MOLECULAR DIMENSIONS (Angstroms)

            Atom       Atom       Distance
            H    19    H    11     7.12584
            H    14    H    18     4.44181
            H    16    H    12     4.19821


          SCF CALCULATIONS        =         72
 
          WALL-CLOCK TIME         =          0.305 SECONDS
          COMPUTATION TIME        =          0.282 SECONDS




   ATOM   CHEMICAL          X               Y               Z
  NUMBER   SYMBOL      (ANGSTROMS)     (ANGSTROMS)     (ANGSTROMS)
 
     1       C         -0.40579690  *   0.04262086  *   0.01293662  *
     2       C          2.53100908  *  -0.32635517  *  -0.08415122  *
     3       C          0.37006146  *  -0.01515615  *  -1.26449768  *
     4       C          0.44178092  *  -0.10244451  *   1.23675516  *
     5       C         -1.50590160  *  -1.01155817  *   0.00820212  *
     6       C         -1.21043083  *   1.33467289  *   0.08097383  *
     7       C          1.69189930  *  -0.18127580  *  -1.30105784  *
     8       C          1.76315223  *  -0.26845576  *   1.18591223  *
     9       C         -2.71115088  *  -0.40864996  *   0.06429987  *
    10       C         -2.52784396  *   1.04676563  *   0.10932770  *
    11       H          3.30474942  *   0.46862062  *  -0.07845033  *
    12       H          3.08082354  *  -1.28862628  *  -0.13363934  *
    13       H         -1.28503281  *  -2.07549053  *  -0.03507374  *
    14       H         -0.21804166  *   0.08841851  *  -2.18326095  *
    15       H         -0.09256729  *  -0.06418389  *   2.19264534  *
    16       H         -0.73264812  *   2.31138424  *   0.10066420  *
    17       H          2.22434365  *  -0.21814743  *  -2.25829521  *
    18       H          2.34931556  *  -0.37145510  *   2.10620779  *
    19       H         -3.68960249  *  -0.88513742  *   0.07645730  *
    20       H         -3.35785967  *   1.74907312  *   0.15766678  *

                             CARTESIAN COORDINATES

   1    C       -0.405796901     0.042620864     0.012936618
   2    C        2.531009084    -0.326355172    -0.084151216
   3    C        0.370061456    -0.015156153    -1.264497682
   4    C        0.441780920    -0.102444510     1.236755162
   5    C       -1.505901599    -1.011558167     0.008202123
   6    C       -1.210430829     1.334672887     0.080973835
   7    C        1.691899300    -0.181275803    -1.301057842
   8    C        1.763152234    -0.268455762     1.185912232
   9    C       -2.711150875    -0.408649957     0.064299868
  10    C       -2.527843959     1.046765627     0.109327704
  11    H        3.304749423     0.468620620    -0.078450332
  12    H        3.080823543    -1.288626278    -0.133639344
  13    H       -1.285032806    -2.075490528    -0.035073743
  14    H       -0.218041663     0.088418508    -2.183260952
  15    H       -0.092567293    -0.064183889     2.192645335
  16    H       -0.732648124     2.311384238     0.100664204
  17    H        2.224343647    -0.218147433    -2.258295210
  18    H        2.349315562    -0.371455101     2.106207790
  19    H       -3.689602491    -0.885137416     0.076457297
  20    H       -3.357859669     1.749073122     0.157666780


           Empirical Formula: C10 H10  =    20 atoms



      MOLECULAR POINT GROUP   :   C1  


                  EIGENVALUES  
 -41.46004 -36.24154 -29.96711 -28.81468 -27.32908 -23.34464 -20.82106 -19.56184
 -18.68446 -18.18767 -17.17408 -16.20085 -15.29042 -14.82328 -14.63037 -13.98619
 -13.51651 -13.19462 -13.18341 -12.37927 -12.09774 -11.10859 -10.53048  -9.47656
  -9.21634   0.29263   0.93358   1.07011   2.05070   3.19987   3.36199   3.37202
   3.49061   3.49943   3.82943   3.83975   3.94236   4.01529   4.35052   4.42463
   4.44136   4.50319   4.67529   5.27095   5.32687   5.58680   5.75523   6.02716
   6.13083   6.13721


              NET ATOMIC CHARGES AND DIPOLE CONTRIBUTIONS

  ATOM NO.   TYPE          CHARGE      No. of ELECS.   s-Pop       p-Pop       
    1          C           0.064925        3.9351     1.15087     2.78420
    2          C          -0.023696        4.0237     1.13151     2.89219
    3          C          -0.119187        4.1192     1.18941     2.92977
    4          C          -0.119200        4.1192     1.18942     2.92978
    5          C          -0.141192        4.1412     1.21074     2.93045
    6          C          -0.141222        4.1412     1.21073     2.93049
    7          C          -0.143542        4.1435     1.19336     2.95018
    8          C          -0.143550        4.1436     1.19336     2.95019
    9          C          -0.119646        4.1196     1.19293     2.92672
   10          C          -0.119629        4.1196     1.19292     2.92671
   11          H           0.062404        0.9376     0.93760
   12          H           0.062415        0.9376     0.93758
   13          H           0.120456        0.8795     0.87954
   14          H           0.106829        0.8932     0.89317
   15          H           0.106836        0.8932     0.89316
   16          H           0.120464        0.8795     0.87954
   17          H           0.099110        0.9009     0.90089
   18          H           0.099107        0.9009     0.90089
   19          H           0.114166        0.8858     0.88583
   20          H           0.114151        0.8858     0.88585
 DIPOLE           X         Y         Z       TOTAL
 POINT-CHG.     0.492    -0.062    -0.016     0.496
 HYBRID        -0.010     0.001     0.001     0.011
 SUM            0.481    -0.061    -0.016     0.485


          ATOMIC ORBITAL ELECTRON POPULATIONS

     Atom    s        px        py        pz   
    1  C   1.15087   0.93479   0.92325   0.92617
    2  C   1.13151   0.96536   1.00671   0.92012
    3  C   1.18941   0.95061   1.01159   0.96757
    4  C   1.18942   0.94764   1.01113   0.97101
    5  C   1.21074   0.94628   0.97907   1.00510
    6  C   1.21073   0.95331   0.97211   1.00507
    7  C   1.19336   0.95881   1.01094   0.98042
    8  C   1.19336   0.96031   1.01118   0.97870
    9  C   1.19293   0.97219   0.94555   1.00898
   10  C   1.19292   0.96391   0.95376   1.00904
   11  H   0.93760
   12  H   0.93758
   13  H   0.87954
   14  H   0.89317
   15  H   0.89316
   16  H   0.87954
   17  H   0.90089
   18  H   0.90089
   19  H   0.88583
   20  H   0.88585
 *******************************************************************************
 ** Site#: 14399        For non-commercial use only    Version 18.184L 64BITS **
 *******************************************************************************
 ** Cite this program as: MOPAC2016, Version: 18.184L, James J. P. Stewart,   **
 ** Stewart Computational Chemistry, web: HTTP://OpenMOPAC.net. Days left:  18**
 *******************************************************************************
 **                                                                           **
 **                                MOPAC2016                                  **
 **                                                                           **
 *******************************************************************************

                              PM3 CALCULATION RESULTS

 *******************************************************************************
 *  CALCULATION DONE:                                Sat Jun 15 10:09:42 2019  *
 *  PM3        - The PM3 Hamiltonian to be used
 *  OLDGEO     - PREVIOUS GEOMETRY TO BE USED
 *  PRECISE    - CRITERIA TO BE INCREASED BY 100 TIMES
 *  NOSYM      - POINT-GROUP SYMMETRY SET TO C1
 *  THREADS=1  - MULTI-THREADING NOT USED
 *  T=         - A TIME OF 172800.0 SECONDS REQUESTED
 *  DUMP=N     - RESTART FILE WRITTEN EVERY  7200.000 SECONDS
 *  THERMO     - THERMODYNAMIC QUANTITIES TO BE CALCULATED
 *******************************************************************************
oldgeo thermo nosym precise THREADS=1  pm3
 InChI=1S/C10H10/c1-2-6-10(7-3-1)8-4-5-9-10/h2-9H,1H2

   ATOM   CHEMICAL          X               Y               Z
  NUMBER   SYMBOL      (ANGSTROMS)     (ANGSTROMS)     (ANGSTROMS)
 
     1       C         -0.40579690  *   0.04262086  *   0.01293662  *
     2       C          2.53100908  *  -0.32635517  *  -0.08415122  *
     3       C          0.37006146  *  -0.01515615  *  -1.26449768  *
     4       C          0.44178092  *  -0.10244451  *   1.23675516  *
     5       C         -1.50590160  *  -1.01155817  *   0.00820212  *
     6       C         -1.21043083  *   1.33467289  *   0.08097383  *
     7       C          1.69189930  *  -0.18127580  *  -1.30105784  *
     8       C          1.76315223  *  -0.26845576  *   1.18591223  *
     9       C         -2.71115088  *  -0.40864996  *   0.06429987  *
    10       C         -2.52784396  *   1.04676563  *   0.10932770  *
    11       H          3.30474942  *   0.46862062  *  -0.07845033  *
    12       H          3.08082354  *  -1.28862628  *  -0.13363934  *
    13       H         -1.28503281  *  -2.07549053  *  -0.03507374  *
    14       H         -0.21804166  *   0.08841851  *  -2.18326095  *
    15       H         -0.09256729  *  -0.06418389  *   2.19264534  *
    16       H         -0.73264812  *   2.31138424  *   0.10066420  *
    17       H          2.22434365  *  -0.21814743  *  -2.25829521  *
    18       H          2.34931556  *  -0.37145510  *   2.10620779  *
    19       H         -3.68960249  *  -0.88513742  *   0.07645730  *
    20       H         -3.35785967  *   1.74907312  *   0.15766678  *
 


          CARTESIAN COORDINATES 

    NO.       ATOM           X           Y           Z

     1         C         -0.4058      0.0426      0.0129
     2         C          2.5310     -0.3264     -0.0842
     3         C          0.3701     -0.0152     -1.2645
     4         C          0.4418     -0.1024      1.2368
     5         C         -1.5059     -1.0116      0.0082
     6         C         -1.2104      1.3347      0.0810
     7         C          1.6919     -0.1813     -1.3011
     8         C          1.7632     -0.2685      1.1859
     9         C         -2.7112     -0.4086      0.0643
    10         C         -2.5278      1.0468      0.1093
    11         H          3.3047      0.4686     -0.0785
    12         H          3.0808     -1.2886     -0.1336
    13         H         -1.2850     -2.0755     -0.0351
    14         H         -0.2180      0.0884     -2.1833
    15         H         -0.0926     -0.0642      2.1926
    16         H         -0.7326      2.3114      0.1007
    17         H          2.2243     -0.2181     -2.2583
    18         H          2.3493     -0.3715      2.1062
    19         H         -3.6896     -0.8851      0.0765
    20         H         -3.3579      1.7491      0.1577

  H: (PM3): J. J. P. STEWART, J. COMP. CHEM. 10, 209 (1989).
  C: (PM3): J. J. P. STEWART, J. COMP. CHEM. 10, 209 (1989).

           Empirical Formula: C10 H10  =    20 atoms



      MOLECULAR POINT GROUP   :   C1  


      RHF CALCULATION, NO. OF DOUBLY OCCUPIED LEVELS = 25



          HEAT OF FORMATION =      66.886167 KCALS/MOLE


          CARTESIAN COORDINATE DERIVATIVES

   NUMBER  ATOM         X            Y            Z

     1       C     -0.000629     0.002022     0.003669
     2       C      0.003621     0.001888     0.006077
     3       C      0.001028    -0.002006     0.005813
     4       C     -0.007442    -0.002344    -0.005542
     5       C      0.001260    -0.003723    -0.000416
     6       C      0.012381     0.000842     0.003283
     7       C      0.009141     0.001069     0.011055
     8       C     -0.000231     0.001627    -0.004421
     9       C     -0.008969    -0.004066     0.002967
    10       C      0.007439    -0.003814    -0.006867
    11       H     -0.005357     0.002566    -0.008960
    12       H     -0.009349    -0.002083     0.005048
    13       H     -0.002943    -0.004389     0.003990
    14       H      0.001462    -0.000193    -0.001879
    15       H     -0.000501     0.002927     0.002586
    16       H     -0.001781     0.008916     0.004118
    17       H      0.007312     0.001337     0.003919
    18       H     -0.000881     0.002056    -0.008696
    19       H     -0.011202    -0.006294    -0.007190
    20       H      0.005643     0.003662    -0.008553
 


          GRADIENT NORM =   0.04145


          TIME FOR SCF CALCULATION =    0.00

          TIME FOR DERIVATIVES     =    0.00

          MOLECULAR WEIGHT =  130.19



          ROTATIONAL CONSTANTS IN CM(-1)

          A =    0.10826423   B =    0.03452590   C =    0.03236449



           PRINCIPAL MOMENTS OF INERTIA IN UNITS OF 10**(-40)*GRAM-CM**2

          A =      258.5598   B =      810.7761   C =      864.9224


          ORIENTATION OF MOLECULE IN FORCE CALCULATION

    NO.       ATOM         X         Y         Z

     1          C      -0.2762    0.0002    0.0003
     2          C       2.6853    0.0002    0.0003
     3          C       0.5423    1.2521    0.0003
     4          C       0.5423   -1.2517    0.0014
     5          C      -1.2356   -0.0008   -1.1834
     6          C      -1.2373    0.0008    1.1825
     7          C       1.8750    1.2450    0.0004
     8          C       1.8750   -1.2446    0.0012
     9          C      -2.5078   -0.0011   -0.7352
    10          C      -2.5088    0.0000    0.7324
    11          H       3.3534    0.0004    0.8859
    12          H       3.3521   -0.0001   -0.8864
    13          H      -0.8826   -0.0015   -2.2120
    14          H      -0.0237    2.1904    0.0002
    15          H      -0.0237   -2.1900    0.0022
    16          H      -0.8858    0.0020    2.2116
    17          H       2.4390    2.1847    0.0007
    18          H       2.4390   -2.1843    0.0016
    19          H      -3.4191   -0.0021   -1.3302
    20          H      -3.4210    0.0003    1.3261


    FIRST DERIVATIVES WILL BE USED IN THE CALCULATION OF SECOND DERIVATIVES

          ESTIMATED TIME TO COMPLETE CALCULATION =        0.94 SECONDS

    FOR POINT-GROUP C1   THERE ARE   1 UNIQUE SYMMETRY FUNCTIONS.

 STEP:   1 TIME =     0.02 SECS, INTEGRAL =      0.02 TIME LEFT: 172799.98
 STEP:   2 TIME =     0.02 SECS, INTEGRAL =      0.04 TIME LEFT: 172799.96
 STEP:   3 TIME =     0.02 SECS, INTEGRAL =      0.05 TIME LEFT: 172799.94
 STEP:   4 TIME =     0.02 SECS, INTEGRAL =      0.07 TIME LEFT: 172799.92
 STEP:   5 TIME =     0.02 SECS, INTEGRAL =      0.09 TIME LEFT: 172799.90
 STEP:   6 TIME =     0.02 SECS, INTEGRAL =      0.11 TIME LEFT: 172799.89
 STEP:   7 TIME =     0.02 SECS, INTEGRAL =      0.13 TIME LEFT: 172799.87
 STEP:   8 TIME =     0.02 SECS, INTEGRAL =      0.15 TIME LEFT: 172799.85
 STEP:   9 TIME =     0.02 SECS, INTEGRAL =      0.17 TIME LEFT: 172799.83
 STEP:  10 TIME =     0.02 SECS, INTEGRAL =      0.18 TIME LEFT: 172799.81
 STEP:  11 TIME =     0.02 SECS, INTEGRAL =      0.20 TIME LEFT: 172799.80
 STEP:  12 TIME =     0.02 SECS, INTEGRAL =      0.22 TIME LEFT: 172799.78
 STEP:  13 TIME =     0.02 SECS, INTEGRAL =      0.24 TIME LEFT: 172799.76
 STEP:  14 TIME =     0.02 SECS, INTEGRAL =      0.26 TIME LEFT: 172799.74
 STEP:  15 TIME =     0.02 SECS, INTEGRAL =      0.28 TIME LEFT: 172799.72
 STEP:  16 TIME =     0.02 SECS, INTEGRAL =      0.29 TIME LEFT: 172799.70
 STEP:  17 TIME =     0.02 SECS, INTEGRAL =      0.31 TIME LEFT: 172799.68
 STEP:  18 TIME =     0.02 SECS, INTEGRAL =      0.33 TIME LEFT: 172799.67
 STEP:  19 TIME =     0.02 SECS, INTEGRAL =      0.35 TIME LEFT: 172799.65
 STEP:  20 TIME =     0.02 SECS, INTEGRAL =      0.37 TIME LEFT: 172799.63
 STEP:  21 TIME =     0.02 SECS, INTEGRAL =      0.39 TIME LEFT: 172799.61
 STEP:  22 TIME =     0.02 SECS, INTEGRAL =      0.40 TIME LEFT: 172799.59
 STEP:  23 TIME =     0.02 SECS, INTEGRAL =      0.42 TIME LEFT: 172799.57
 STEP:  24 TIME =     0.02 SECS, INTEGRAL =      0.44 TIME LEFT: 172799.55
 STEP:  25 TIME =     0.02 SECS, INTEGRAL =      0.46 TIME LEFT: 172799.54
 STEP:  26 TIME =     0.02 SECS, INTEGRAL =      0.48 TIME LEFT: 172799.52
 STEP:  27 TIME =     0.02 SECS, INTEGRAL =      0.50 TIME LEFT: 172799.50
 STEP:  28 TIME =     0.02 SECS, INTEGRAL =      0.52 TIME LEFT: 172799.48
 STEP:  29 TIME =     0.02 SECS, INTEGRAL =      0.54 TIME LEFT: 172799.46
 STEP:  30 TIME =     0.02 SECS, INTEGRAL =      0.55 TIME LEFT: 172799.44
 STEP:  31 TIME =     0.02 SECS, INTEGRAL =      0.57 TIME LEFT: 172799.42
 STEP:  32 TIME =     0.02 SECS, INTEGRAL =      0.59 TIME LEFT: 172799.40
 STEP:  33 TIME =     0.02 SECS, INTEGRAL =      0.61 TIME LEFT: 172799.39
 STEP:  34 TIME =     0.02 SECS, INTEGRAL =      0.63 TIME LEFT: 172799.37
 STEP:  35 TIME =     0.02 SECS, INTEGRAL =      0.65 TIME LEFT: 172799.35
 STEP:  36 TIME =     0.02 SECS, INTEGRAL =      0.67 TIME LEFT: 172799.33
 STEP:  37 TIME =     0.02 SECS, INTEGRAL =      0.68 TIME LEFT: 172799.31
 STEP:  38 TIME =     0.02 SECS, INTEGRAL =      0.70 TIME LEFT: 172799.29
 STEP:  39 TIME =     0.02 SECS, INTEGRAL =      0.72 TIME LEFT: 172799.27
 STEP:  40 TIME =     0.02 SECS, INTEGRAL =      0.74 TIME LEFT: 172799.25
 STEP:  41 TIME =     0.02 SECS, INTEGRAL =      0.76 TIME LEFT: 172799.24
 STEP:  42 TIME =     0.02 SECS, INTEGRAL =      0.78 TIME LEFT: 172799.22
 STEP:  43 TIME =     0.02 SECS, INTEGRAL =      0.80 TIME LEFT: 172799.20
 STEP:  44 TIME =     0.02 SECS, INTEGRAL =      0.82 TIME LEFT: 172799.18
 STEP:  45 TIME =     0.02 SECS, INTEGRAL =      0.84 TIME LEFT: 172799.16
 STEP:  46 TIME =     0.02 SECS, INTEGRAL =      0.85 TIME LEFT: 172799.14
 STEP:  47 TIME =     0.02 SECS, INTEGRAL =      0.87 TIME LEFT: 172799.12
 STEP:  48 TIME =     0.02 SECS, INTEGRAL =      0.89 TIME LEFT: 172799.11
 STEP:  49 TIME =     0.02 SECS, INTEGRAL =      0.91 TIME LEFT: 172799.09
 STEP:  50 TIME =     0.02 SECS, INTEGRAL =      0.93 TIME LEFT: 172799.07
 STEP:  51 TIME =     0.02 SECS, INTEGRAL =      0.95 TIME LEFT: 172799.05
 STEP:  52 TIME =     0.02 SECS, INTEGRAL =      0.96 TIME LEFT: 172799.03
 STEP:  53 TIME =     0.02 SECS, INTEGRAL =      0.98 TIME LEFT: 172799.01
 STEP:  54 TIME =     0.02 SECS, INTEGRAL =      1.00 TIME LEFT: 172798.99
 STEP:  55 TIME =     0.02 SECS, INTEGRAL =      1.02 TIME LEFT: 172798.98
 STEP:  56 TIME =     0.02 SECS, INTEGRAL =      1.04 TIME LEFT: 172798.96
 STEP:  57 TIME =     0.02 SECS, INTEGRAL =      1.06 TIME LEFT: 172798.94
 STEP:  58 TIME =     0.02 SECS, INTEGRAL =      1.08 TIME LEFT: 172798.92
 STEP:  59 TIME =     0.02 SECS, INTEGRAL =      1.10 TIME LEFT: 172798.90
 STEP:  60 TIME =     0.02 SECS, INTEGRAL =      1.11 TIME LEFT: 172798.88

(To convert to Hartree/Bohr^2, multiply by (10^(-21) x N x a0^2)/(4.184 x 627.51) =  0.0642)


           FORCE MATRIX IN MILLIDYNES/ANGSTROM


                  C  1       C  2       C  3       C  4       C  5       C  6
 ------------------------------------------------------------------------------
     C    1  15.662507
     C    2   0.194985  15.148265
     C    3   4.648578   0.844146  18.321442
     C    4   4.648149   0.843700   0.693467  18.322329
     C    5   3.747662   0.015273   0.650643   0.651392  17.835168
     C    6   3.748747   0.015270   0.651050   0.650926   1.055521  17.834806
     C    7   0.828661   5.041826  10.736060   0.052271   0.036863   0.036947
     C    8   0.828678   5.042026   0.052355  10.736407   0.036843   0.036957
     C    9   1.146321   0.004114   0.062973   0.063117   9.880065   1.536102
     C   10   1.146107   0.003722   0.063198   0.063214   1.536673   9.880051
     H   11   0.014690   4.391874   0.037298   0.037205   0.004092   0.002077
     H   12   0.014730   4.391697   0.037304   0.037290   0.002131   0.004046
     H   13   0.404480   0.001256   0.011379   0.011344   5.092611   0.042136
     H   14   0.432400   0.123603   4.830865   0.043021   0.015698   0.015822
     H   15   0.432379   0.123753   0.042986   4.830887   0.015749   0.015695
     H   16   0.404711   0.001303   0.011326   0.011303   0.042074   5.092303
     H   17   0.120904   0.424036   0.440950   0.003402   0.016368   0.016388
     H   18   0.120913   0.424083   0.003392   0.440886   0.016445   0.016402
     H   19   0.112619   0.000728   0.016583   0.016610   0.445472   0.048996
     H   20   0.112720   0.000767   0.016590   0.016604   0.048942   0.445470


                  C  7       C  8       C  9       C 10       H 11       H 12
 ------------------------------------------------------------------------------
     C    7  18.289530
     C    8   0.737392  18.289409
     C    9   0.009967   0.010091  18.332708
     C   10   0.010023   0.010122   5.122651  18.332901
     H   11   0.419765   0.419810   0.000653   0.000359   4.976208
     H   12   0.419754   0.419774   0.000360   0.000600   0.563481   4.975910
     H   13   0.002608   0.002648   0.441239   0.102613   0.000739   0.000792
     H   14   0.441596   0.003107   0.003848   0.003863   0.016118   0.016119
     H   15   0.003111   0.441574   0.003875   0.003870   0.016124   0.016124
     H   16   0.002627   0.002644   0.102620   0.441255   0.000801   0.000749
     H   17   4.818552   0.045326   0.003356   0.003339   0.028068   0.028008
     H   18   0.045323   4.818678   0.003363   0.003343   0.028104   0.028033
     H   19   0.002266   0.002265   5.063233   0.420182   0.000305   0.000129
     H   20   0.002264   0.002271   0.420215   5.063913   0.000117   0.000303


                  H 13       H 14       H 15       H 16       H 17       H 18
 ------------------------------------------------------------------------------
     H   13   5.485746
     H   14   0.003680   5.201479
     H   15   0.003678   0.006192   5.201493
     H   16   0.009878   0.003676   0.003681   5.485463
     H   17   0.000905   0.069958   0.000831   0.000894   5.193495
     H   18   0.000891   0.000826   0.070030   0.000886   0.006444   5.193644
     H   19   0.043001   0.000870   0.000876   0.005418   0.001044   0.001044
     H   20   0.005428   0.000861   0.000860   0.043023   0.001042   0.001049


                  H 19       H 20
 ------------------------------
     H   19   5.452877
     H   20   0.009785   5.453561


          HEAT OF FORMATION =      66.886167 KCALS/MOLE

          ZERO POINT ENERGY     104.966 KCAL/MOL


           NORMAL COORDINATE ANALYSIS (Total motion = 1 Angstrom)


   Root No.       1         2         3         4         5         6         7         8

                 1 A       2 A       3 A       4 A       5 A       6 A       7 A       8 A   

                  50.7     143.3     209.3     251.4     371.3     405.8     484.9     497.2
  
           1    0.0000    0.0000    0.0000    0.0000   -0.0194    0.0000    0.0000    0.0000
           2   -0.0001   -0.0441    0.0000    0.0000    0.0000   -0.0000   -0.0365   -0.0001
           3   -0.0300    0.0001   -0.0002   -0.0394   -0.0000    0.0000    0.0002   -0.0329
           4    0.0001    0.0000   -0.0000   -0.0001    0.0697   -0.0001    0.0000   -0.0000
           5    0.0001    0.0226   -0.0000   -0.0000    0.0000   -0.0000    0.0072    0.0000
           6    0.0687   -0.0002   -0.0001   -0.0248   -0.0001    0.0000   -0.0000    0.0012
           7   -0.0001   -0.0256    0.0000    0.0000    0.0337   -0.0000   -0.0208   -0.0001
           8   -0.0001   -0.0256    0.0000    0.0000   -0.0278    0.0000   -0.0352   -0.0001
           9   -0.0444    0.0001   -0.0168   -0.0050    0.0001    0.0550   -0.0002    0.0422
          10    0.0001    0.0256   -0.0000   -0.0000    0.0337   -0.0000    0.0208    0.0000
          11   -0.0001   -0.0256    0.0000    0.0000    0.0278   -0.0001   -0.0352   -0.0001
          12   -0.0444    0.0002    0.0167   -0.0053   -0.0000   -0.0550   -0.0001    0.0421
          13   -0.0278    0.0001   -0.0001   -0.0227   -0.0477    0.0000    0.0001   -0.0220
          14   -0.0001   -0.0285    0.0453   -0.0002    0.0000    0.0046    0.0586    0.0001
          15   -0.0069    0.0000   -0.0001   -0.0198    0.0103    0.0000    0.0001   -0.0263
          16    0.0277   -0.0000    0.0001    0.0228   -0.0477    0.0000   -0.0001    0.0220
          17   -0.0001   -0.0285   -0.0452    0.0002   -0.0000   -0.0045    0.0586    0.0002
          18   -0.0069   -0.0000   -0.0001   -0.0198   -0.0104    0.0000    0.0001   -0.0262
          19   -0.0001   -0.0260    0.0000    0.0000    0.0384   -0.0000   -0.0245   -0.0001
          20    0.0000    0.0052   -0.0000    0.0000   -0.0221    0.0000   -0.0112   -0.0000
          21    0.0042   -0.0000   -0.0497    0.0478   -0.0000   -0.0378    0.0001   -0.0166
          22    0.0001    0.0260   -0.0000   -0.0000    0.0384    0.0000    0.0246    0.0000
          23    0.0000    0.0052    0.0000    0.0000    0.0221   -0.0000   -0.0112   -0.0000
          24    0.0042    0.0001    0.0503    0.0474    0.0001    0.0377    0.0001   -0.0166
          25   -0.0173    0.0000   -0.0001   -0.0143   -0.0530    0.0001    0.0001   -0.0153
          26    0.0002    0.0549    0.0398   -0.0003   -0.0000   -0.0296   -0.0119    0.0000
          27    0.0230   -0.0001    0.0000    0.0069    0.0014    0.0000    0.0000   -0.0005
          28    0.0172   -0.0001    0.0001    0.0143   -0.0530    0.0000   -0.0000    0.0154
          29    0.0002    0.0548   -0.0399    0.0002    0.0000    0.0296   -0.0119   -0.0001
          30    0.0231   -0.0001    0.0001    0.0069   -0.0014   -0.0000    0.0000   -0.0004
          31   -0.0705    0.0003    0.0006    0.1010    0.0714   -0.0002    0.0004   -0.0833
          32    0.0002    0.0369    0.0412   -0.0002    0.0001    0.0467    0.0248    0.0001
          33    0.1221   -0.0005   -0.0006   -0.1023   -0.0012    0.0001   -0.0003    0.0665
          34    0.0707   -0.0003   -0.0006   -0.1012    0.0714    0.0001   -0.0004    0.0833
          35    0.0002    0.0368   -0.0413    0.0001   -0.0001   -0.0467    0.0248    0.0001
          36    0.1219   -0.0005   -0.0006   -0.1021    0.0010    0.0002   -0.0003    0.0664
          37   -0.0522    0.0001   -0.0002   -0.0465   -0.0597    0.0001    0.0001   -0.0478
          38   -0.0002   -0.0655    0.0942   -0.0005    0.0000   -0.0002    0.1974    0.0005
          39   -0.0153    0.0000   -0.0002   -0.0279    0.0062    0.0000    0.0000   -0.0349
          40   -0.0001   -0.0469    0.0000    0.0000    0.0594   -0.0001   -0.0399   -0.0002
          41   -0.0001   -0.0382    0.0000    0.0000   -0.0119    0.0000   -0.0461   -0.0002
          42   -0.0929    0.0003   -0.0261    0.0106    0.0004    0.1394   -0.0008    0.1587
          43    0.0002    0.0469   -0.0001   -0.0001    0.0594   -0.0000    0.0399    0.0001
          44   -0.0002   -0.0382    0.0001    0.0001    0.0120   -0.0001   -0.0461   -0.0000
          45   -0.0929    0.0004    0.0262    0.0101    0.0001   -0.1393   -0.0006    0.1587
          46    0.0522   -0.0001    0.0003    0.0466   -0.0597    0.0000   -0.0003    0.0479
          47   -0.0002   -0.0656   -0.0941    0.0005    0.0000    0.0005    0.1976    0.0008
          48   -0.0152    0.0000   -0.0001   -0.0278   -0.0063    0.0000   -0.0000   -0.0348
          49   -0.0002   -0.0475    0.0001    0.0000    0.0205   -0.0000   -0.0488   -0.0002
          50    0.0001    0.0180   -0.0000   -0.0000   -0.0107    0.0000    0.0029    0.0000
          51   -0.0021   -0.0000   -0.1007    0.1234    0.0000   -0.0951    0.0002   -0.0112
          52    0.0002    0.0475   -0.0000   -0.0000    0.0205    0.0000    0.0488    0.0001
          53    0.0000    0.0180    0.0000    0.0000    0.0107    0.0000    0.0029    0.0000
          54   -0.0021    0.0002    0.1021    0.1226    0.0003    0.0948    0.0001   -0.0111
          55   -0.0313   -0.0000   -0.0002   -0.0271   -0.0504    0.0001    0.0001   -0.0312
          56    0.0004    0.1068    0.0849   -0.0006   -0.0001   -0.0917   -0.0076    0.0002
          57    0.0445   -0.0002    0.0001    0.0264   -0.0034    0.0000   -0.0001    0.0234
          58    0.0312   -0.0001    0.0002    0.0271   -0.0504    0.0000   -0.0001    0.0312
          59    0.0004    0.1067   -0.0851    0.0004    0.0001    0.0917   -0.0078   -0.0002
          60    0.0445   -0.0001    0.0002    0.0264    0.0034   -0.0001   -0.0001    0.0234


   Root No.       9        10        11        12        13        14        15        16

                 9 A      10 A      11 A      12 A      13 A      14 A      15 A      16 A   

                 524.4     591.4     677.5     735.5     775.8     778.5     819.7     821.1
  
           1    0.0000    0.0000   -0.0423    0.0000    0.0000    0.0000   -0.0000   -0.0000
           2   -0.0000   -0.0440   -0.0000   -0.0000    0.0016    0.0000    0.0000    0.0000
           3   -0.0000    0.0000   -0.0000   -0.0034    0.0000   -0.0000    0.0471   -0.0008
           4    0.0000   -0.0000    0.0540   -0.0001    0.0000    0.0000   -0.0000   -0.0000
           5   -0.0000    0.0448    0.0000    0.0000   -0.0042    0.0000    0.0000   -0.0000
           6   -0.0000    0.0000   -0.0001   -0.0253   -0.0000   -0.0001   -0.0163    0.0003
           7    0.0000    0.0699   -0.0281    0.0000    0.0015    0.0000   -0.0000    0.0000
           8   -0.0000   -0.0705   -0.0476    0.0000    0.0153    0.0000    0.0000    0.0000
           9   -0.0219    0.0000   -0.0001   -0.0242   -0.0000   -0.0233   -0.0040    0.0119
          10    0.0000   -0.0699   -0.0281    0.0000   -0.0015    0.0000   -0.0000    0.0000
          11    0.0000   -0.0705    0.0476   -0.0001    0.0154   -0.0000   -0.0001    0.0000
          12    0.0220   -0.0000   -0.0001   -0.0244   -0.0000    0.0232   -0.0049   -0.0117
          13   -0.0000    0.0000    0.0163    0.0142    0.0000    0.0001   -0.0392    0.0006
          14    0.0423   -0.0015   -0.0000    0.0000   -0.0274   -0.0094   -0.0012   -0.0307
          15   -0.0000    0.0000   -0.0348    0.0094    0.0000    0.0000    0.0371   -0.0006
          16    0.0000    0.0000    0.0162   -0.0142    0.0000   -0.0001    0.0392   -0.0007
          17   -0.0423   -0.0015    0.0000    0.0000   -0.0275    0.0094    0.0013    0.0306
          18   -0.0000    0.0000    0.0349    0.0093    0.0000    0.0000    0.0371   -0.0006
          19    0.0000    0.0712   -0.0291    0.0000    0.0044    0.0000   -0.0000    0.0000
          20    0.0000    0.0726   -0.0622    0.0001    0.0024   -0.0000    0.0000    0.0000
          21    0.0093   -0.0000    0.0000   -0.0065   -0.0000   -0.0190   -0.0004    0.0094
          22   -0.0000   -0.0712   -0.0292    0.0000   -0.0044    0.0000    0.0000    0.0000
          23   -0.0000    0.0726    0.0622   -0.0001    0.0024    0.0000    0.0000   -0.0000
          24   -0.0093    0.0000   -0.0000   -0.0067    0.0000    0.0190   -0.0011   -0.0094
          25   -0.0000    0.0000    0.0324    0.0153   -0.0000    0.0001   -0.0679    0.0011
          26   -0.0419   -0.0039   -0.0000    0.0000   -0.0207   -0.0076   -0.0009   -0.0215
          27    0.0000    0.0000   -0.0047    0.0096   -0.0000    0.0001   -0.0579    0.0010
          28   -0.0000    0.0000    0.0324   -0.0154    0.0000   -0.0001    0.0680   -0.0011
          29    0.0419   -0.0039    0.0000   -0.0000   -0.0208    0.0076    0.0008    0.0215
          30   -0.0000    0.0000    0.0048    0.0096    0.0000    0.0000   -0.0579    0.0009
          31   -0.0001    0.0001    0.0587   -0.0981   -0.0000   -0.0003   -0.0482    0.0009
          32   -0.0158   -0.0079   -0.0000   -0.0001   -0.0109    0.0367   -0.0006   -0.0167
          33    0.0001   -0.0001   -0.0031    0.0520    0.0000    0.0001    0.0216   -0.0004
          34    0.0001   -0.0001    0.0592    0.0981    0.0000    0.0003    0.0482   -0.0009
          35    0.0158   -0.0078   -0.0000    0.0002   -0.0109   -0.0368    0.0006    0.0167
          36    0.0001   -0.0001    0.0033    0.0519    0.0000    0.0002    0.0215   -0.0004
          37   -0.0001    0.0000    0.0433    0.0178    0.0001    0.0000    0.0469   -0.0008
          38    0.1245    0.0285    0.0000   -0.0002    0.1490    0.0816    0.0069    0.1791
          39   -0.0001   -0.0000   -0.0258    0.0103   -0.0001   -0.0000    0.0678   -0.0013
          40    0.0000    0.0286   -0.0035   -0.0000    0.0101    0.0000    0.0000    0.0000
          41   -0.0000   -0.0945   -0.0323    0.0000    0.0202    0.0000    0.0001    0.0000
          42   -0.0735   -0.0002    0.0001    0.0789    0.0001    0.1428   -0.0133   -0.0397
          43    0.0000   -0.0286   -0.0035    0.0000   -0.0102   -0.0000    0.0000    0.0000
          44    0.0000   -0.0945    0.0322   -0.0000    0.0202   -0.0001   -0.0001    0.0001
          45    0.0740   -0.0002    0.0000    0.0798   -0.0001   -0.1420   -0.0106    0.0399
          46    0.0001   -0.0000    0.0431   -0.0179   -0.0001   -0.0000   -0.0470    0.0009
          47   -0.1244    0.0285   -0.0001    0.0002    0.1494   -0.0816   -0.0072   -0.1788
          48    0.0000   -0.0000    0.0260    0.0102   -0.0001    0.0001    0.0677   -0.0009
          49    0.0000    0.0318   -0.0841    0.0001    0.0196   -0.0000    0.0000    0.0000
          50   -0.0000    0.0951   -0.0301    0.0000   -0.0063   -0.0000   -0.0000    0.0000
          51    0.0166   -0.0001    0.0005    0.1790    0.0002    0.1510    0.0771   -0.0788
          52   -0.0000   -0.0318   -0.0841    0.0001   -0.0196    0.0000    0.0000    0.0000
          53   -0.0000    0.0951    0.0301    0.0001   -0.0063   -0.0000    0.0001    0.0000
          54   -0.0165   -0.0000    0.0005    0.1803   -0.0000   -0.1500    0.0829    0.0760
          55    0.0000   -0.0000    0.0184    0.0278   -0.0002    0.0001   -0.0868    0.0013
          56   -0.1539    0.0139   -0.0001   -0.0001    0.2251    0.0295    0.0044    0.1135
          57    0.0001   -0.0000    0.0177   -0.0088   -0.0002   -0.0000   -0.0313    0.0005
          58    0.0000    0.0000    0.0183   -0.0278    0.0000   -0.0001    0.0869   -0.0015
          59    0.1539    0.0139   -0.0000   -0.0000    0.2253   -0.0295   -0.0045   -0.1130
          60   -0.0000   -0.0000   -0.0177   -0.0088   -0.0001   -0.0000   -0.0311    0.0005


   Root No.      17        18        19        20        21        22        23        24

                17 A      18 A      19 A      20 A      21 A      22 A      23 A      24 A   

                 886.0     899.1     946.7     959.4     974.4     996.7    1002.0    1012.1
  
           1   -0.0261    0.0001   -0.0012    0.0000   -0.0000    0.0000    0.0107   -0.0000
           2   -0.0000    0.0000    0.0000   -0.0063    0.0000    0.0000   -0.0000   -0.0000
           3   -0.0000    0.0005    0.0000    0.0000   -0.0000   -0.0000    0.0000    0.0079
           4   -0.0342    0.0002    0.0257    0.0000    0.0000    0.0000    0.0585   -0.0002
           5    0.0000    0.0000   -0.0000   -0.0044   -0.0000    0.0000   -0.0000    0.0000
           6    0.0002    0.0554    0.0000    0.0000   -0.0001    0.0000    0.0001    0.0381
           7    0.0193   -0.0001   -0.0090   -0.0009   -0.0000   -0.0000   -0.0146    0.0000
           8   -0.0330    0.0001    0.0585    0.0095    0.0000    0.0000    0.0114   -0.0000
           9   -0.0001   -0.0313   -0.0000    0.0000    0.0288   -0.0137    0.0001    0.0272
          10    0.0193   -0.0001   -0.0090    0.0009   -0.0000   -0.0000   -0.0146    0.0001
          11    0.0330   -0.0001   -0.0585    0.0096   -0.0001   -0.0000   -0.0114    0.0001
          12   -0.0001   -0.0313    0.0000   -0.0000   -0.0290    0.0138    0.0001    0.0271
          13   -0.0146   -0.0001   -0.0099    0.0000    0.0000   -0.0000   -0.0016   -0.0005
          14   -0.0000    0.0000   -0.0000   -0.0408    0.0056    0.0323   -0.0000   -0.0000
          15   -0.0662    0.0124   -0.0343    0.0000    0.0000   -0.0001   -0.0023   -0.0099
          16   -0.0147    0.0002   -0.0100    0.0000   -0.0000    0.0000   -0.0016    0.0006
          17   -0.0000    0.0000    0.0000   -0.0409   -0.0056   -0.0323    0.0000    0.0000
          18    0.0663    0.0120    0.0343   -0.0000    0.0001    0.0000    0.0022   -0.0099
          19    0.0203   -0.0001   -0.0019    0.0031   -0.0000   -0.0000   -0.0044    0.0000
          20    0.0373   -0.0001   -0.0158    0.0045    0.0000    0.0000    0.0384   -0.0001
          21   -0.0001   -0.0157    0.0000   -0.0000   -0.0218    0.0062   -0.0001   -0.0454
          22    0.0202   -0.0001   -0.0019   -0.0031    0.0000   -0.0000   -0.0044    0.0000
          23   -0.0373    0.0001    0.0158    0.0045    0.0000   -0.0000   -0.0384    0.0001
          24   -0.0000   -0.0158   -0.0000    0.0000    0.0220   -0.0063   -0.0001   -0.0453
          25    0.0141   -0.0043    0.0056   -0.0000    0.0000    0.0000    0.0009    0.0011
          26    0.0000   -0.0000    0.0000    0.0313   -0.0140   -0.0457    0.0000    0.0000
          27   -0.0026   -0.0049    0.0027   -0.0000    0.0000    0.0000    0.0034    0.0013
          28    0.0142    0.0042    0.0056   -0.0000    0.0000   -0.0000    0.0009   -0.0011
          29   -0.0000   -0.0000   -0.0000    0.0315    0.0140    0.0457   -0.0000   -0.0000
          30    0.0025   -0.0049   -0.0026   -0.0000   -0.0000   -0.0000   -0.0034    0.0013
          31   -0.0428    0.1383    0.0367    0.0000   -0.0001    0.0002    0.0824    0.0852
          32    0.0000   -0.0001   -0.0000   -0.0212    0.0769   -0.0345   -0.0001    0.0004
          33    0.0049   -0.0526   -0.0058   -0.0000    0.0000   -0.0000   -0.0171   -0.0281
          34   -0.0438   -0.1381    0.0366   -0.0000    0.0002   -0.0000    0.0819   -0.0859
          35   -0.0000    0.0001    0.0001   -0.0213   -0.0772    0.0347   -0.0001   -0.0006
          36   -0.0052   -0.0524    0.0057   -0.0000    0.0001   -0.0000    0.0168   -0.0281
          37   -0.0485    0.0202   -0.0651    0.0001    0.0000   -0.0002   -0.0318   -0.0114
          38   -0.0000   -0.0000    0.0001    0.1907   -0.0210   -0.1070    0.0000   -0.0000
          39   -0.0786    0.0194   -0.0535   -0.0001    0.0000   -0.0000   -0.0125   -0.0136
          40    0.0075   -0.0000    0.0422   -0.0025   -0.0000   -0.0001   -0.1151    0.0003
          41   -0.0406    0.0001    0.0899    0.0086    0.0000   -0.0000   -0.0458    0.0001
          42    0.0010    0.2026    0.0001   -0.0001   -0.1422    0.0539   -0.0004   -0.0974
          43    0.0074    0.0000    0.0422    0.0024    0.0001   -0.0001   -0.1149    0.0004
          44    0.0406    0.0000   -0.0899    0.0087    0.0000   -0.0000    0.0457   -0.0002
          45    0.0009    0.2024    0.0001    0.0001    0.1429   -0.0542   -0.0003   -0.0967
          46   -0.0489   -0.0197   -0.0652   -0.0001   -0.0001   -0.0000   -0.0317    0.0114
          47    0.0002    0.0000    0.0001    0.1909    0.0207    0.1068   -0.0002   -0.0001
          48    0.0787    0.0188    0.0534   -0.0002    0.0000   -0.0001    0.0123   -0.0136
          49    0.0183   -0.0001    0.0569    0.0213   -0.0000   -0.0001   -0.1034    0.0003
          50    0.0389   -0.0001   -0.0495   -0.0061   -0.0000    0.0001    0.0977   -0.0003
          51    0.0001   -0.0140   -0.0002    0.0002    0.1320   -0.0368    0.0006    0.1645
          52    0.0183   -0.0001    0.0569   -0.0214    0.0001   -0.0001   -0.1035    0.0003
          53   -0.0389    0.0001    0.0495   -0.0061    0.0000   -0.0001   -0.0977    0.0004
          54   -0.0002   -0.0136    0.0001   -0.0001   -0.1326    0.0372    0.0005    0.1635
          55   -0.0392    0.0022   -0.0356    0.0001   -0.0000   -0.0002   -0.0076   -0.0119
          56   -0.0002    0.0000   -0.0002   -0.1640    0.0569    0.1695   -0.0001   -0.0000
          57    0.0772   -0.0147    0.0643    0.0001   -0.0000    0.0001    0.0161    0.0209
          58   -0.0391   -0.0019   -0.0355    0.0000   -0.0001   -0.0001   -0.0075    0.0119
          59    0.0002    0.0000    0.0001   -0.1643   -0.0566   -0.1693    0.0002    0.0001
          60   -0.0775   -0.0141   -0.0643    0.0001   -0.0001   -0.0002   -0.0160    0.0210


   Root No.      25        26        27        28        29        30        31        32

                25 A      26 A      27 A      28 A      29 A      30 A      31 A      32 A   

                1042.1    1063.1    1065.4    1076.1    1090.8    1141.5    1151.6    1188.4
  
           1    0.0000   -0.0409   -0.0000   -0.0001    0.0089    0.0000   -0.0084   -0.0000
           2    0.0175    0.0000    0.0000    0.0000    0.0000    0.0202    0.0000    0.0000
           3    0.0000   -0.0001   -0.0000    0.0159    0.0000   -0.0000    0.0001    0.0670
           4    0.0000    0.0139    0.0000    0.0000   -0.0032    0.0000   -0.0042    0.0000
           5    0.0279   -0.0000    0.0000   -0.0000    0.0000   -0.0016    0.0000    0.0000
           6   -0.0000   -0.0000   -0.0000   -0.0024    0.0000    0.0000   -0.0000   -0.0033
           7    0.0159   -0.0020    0.0000   -0.0000    0.0009   -0.0001    0.0039   -0.0000
           8   -0.0133    0.0150   -0.0000    0.0000   -0.0036   -0.0088   -0.0012   -0.0000
           9    0.0000    0.0000   -0.0130   -0.0054    0.0000    0.0000   -0.0000   -0.0136
          10   -0.0159   -0.0020   -0.0000   -0.0000    0.0009    0.0001    0.0039   -0.0000
          11   -0.0133   -0.0150   -0.0000   -0.0000    0.0036   -0.0088    0.0012    0.0000
          12   -0.0000    0.0000    0.0129   -0.0055   -0.0000    0.0000   -0.0000   -0.0136
          13    0.0000   -0.0040    0.0000    0.0082    0.0027   -0.0000    0.0037    0.0159
          14   -0.0079    0.0000    0.0023    0.0000    0.0000   -0.0039   -0.0000   -0.0000
          15   -0.0000   -0.0184   -0.0000   -0.0277    0.0176    0.0000    0.0084   -0.0099
          16    0.0000   -0.0040   -0.0000   -0.0081    0.0027    0.0000    0.0037   -0.0159
          17   -0.0079    0.0000   -0.0024   -0.0000    0.0000   -0.0040   -0.0000    0.0000
          18   -0.0000    0.0184    0.0000   -0.0276   -0.0177    0.0000   -0.0085   -0.0099
          19    0.0005    0.0062    0.0000    0.0000   -0.0012   -0.0052   -0.0043    0.0000
          20   -0.0274    0.0194    0.0000    0.0000   -0.0042   -0.0008    0.0062    0.0000
          21   -0.0001   -0.0000    0.0392    0.0032    0.0000   -0.0000    0.0000    0.0047
          22   -0.0005    0.0062   -0.0000    0.0000   -0.0012    0.0052   -0.0043    0.0000
          23   -0.0274   -0.0194   -0.0001   -0.0000    0.0042   -0.0008   -0.0062    0.0000
          24    0.0000    0.0000   -0.0390    0.0033   -0.0000   -0.0000    0.0000    0.0047
          25   -0.0000   -0.0122   -0.0000    0.0027    0.0002   -0.0000    0.0046    0.0104
          26    0.0025   -0.0000   -0.0015   -0.0000    0.0000    0.0009    0.0000   -0.0000
          27    0.0000   -0.0280   -0.0000    0.0032    0.0169   -0.0000    0.0068   -0.0185
          28   -0.0000   -0.0122   -0.0000   -0.0028    0.0003   -0.0000    0.0046   -0.0104
          29    0.0025    0.0000    0.0015    0.0000   -0.0001    0.0009   -0.0000   -0.0000
          30   -0.0000    0.0280    0.0000    0.0034   -0.0169    0.0000   -0.0068   -0.0185
          31    0.0001    0.0234   -0.0000   -0.0049   -0.0057    0.0000   -0.0144   -0.0068
          32    0.2090   -0.0002    0.3422   -0.0002    0.0000   -0.1295   -0.0002   -0.0001
          33   -0.0001   -0.0064   -0.0001    0.0014    0.0017    0.0000    0.0046    0.0019
          34    0.0000    0.0234    0.0001    0.0050   -0.0057    0.0000   -0.0144    0.0068
          35    0.2093    0.0002   -0.3420    0.0001    0.0000   -0.1291   -0.0002   -0.0000
          36   -0.0001    0.0063    0.0001    0.0014   -0.0017    0.0000   -0.0046    0.0018
          37    0.0000    0.2273    0.0003    0.1947    0.1126    0.0000   -0.0318   -0.2097
          38    0.0211    0.0000   -0.0059   -0.0001    0.0001    0.0089    0.0000   -0.0001
          39   -0.0000    0.0584    0.0001    0.0348    0.0565    0.0000   -0.0029   -0.0858
          40    0.1338    0.0372    0.0002   -0.0000   -0.0127    0.0977    0.1866   -0.0001
          41    0.0557    0.0396    0.0001    0.0000   -0.0120    0.0506    0.1082   -0.0000
          42   -0.0001   -0.0001    0.0242    0.0140    0.0000    0.0000    0.0000    0.0314
          43   -0.1340    0.0372   -0.0002    0.0001   -0.0128   -0.0982    0.1863   -0.0003
          44    0.0557   -0.0396    0.0000   -0.0000    0.0120    0.0509   -0.1080    0.0002
          45    0.0001   -0.0001   -0.0241    0.0140    0.0000   -0.0000    0.0001    0.0314
          46   -0.0001    0.2278    0.0001   -0.1945    0.1120   -0.0000   -0.0315    0.2100
          47    0.0211    0.0001    0.0060   -0.0000   -0.0000    0.0090    0.0000   -0.0000
          48   -0.0000   -0.0582   -0.0000    0.0345   -0.0562    0.0000    0.0027   -0.0855
          49   -0.0384    0.0124   -0.0002    0.0000   -0.0056   -0.1917   -0.1592    0.0002
          50   -0.0023    0.0176    0.0001    0.0000   -0.0020    0.1082    0.0988   -0.0001
          51    0.0002    0.0001   -0.0682   -0.0056    0.0000   -0.0000   -0.0000    0.0025
          52    0.0383    0.0125    0.0001    0.0000   -0.0056    0.1921   -0.1587    0.0002
          53   -0.0024   -0.0175    0.0001   -0.0000    0.0020    0.1085   -0.0986    0.0001
          54   -0.0001    0.0000    0.0679   -0.0056    0.0000   -0.0000    0.0000    0.0025
          55   -0.0000    0.0031   -0.0001   -0.1202   -0.1543    0.0000   -0.0001   -0.0777
          56   -0.0051    0.0000    0.0037    0.0001   -0.0000    0.0013    0.0000    0.0000
          57    0.0000   -0.0530    0.0001    0.1914    0.2530   -0.0000    0.0152    0.1152
          58    0.0000    0.0028    0.0001    0.1203   -0.1537   -0.0000    0.0000    0.0775
          59   -0.0050    0.0000   -0.0038    0.0000    0.0000    0.0013    0.0000    0.0000
          60    0.0001    0.0525    0.0002    0.1924   -0.2527    0.0000   -0.0151    0.1152


   Root No.      33        34        35        36        37        38        39        40

                33 A      34 A      35 A      36 A      37 A      38 A      39 A      40 A   

                1212.7    1263.6    1279.5    1356.6    1364.2    1396.2    1420.5    1461.0
  
           1   -0.0000    0.0526   -0.0002    0.0525    0.0001   -0.0231    0.0735   -0.0001
           2    0.0347    0.0000   -0.0000   -0.0002    0.1045   -0.0000    0.0000   -0.0721
           3   -0.0000    0.0002    0.1101   -0.0000    0.0000    0.0000    0.0000    0.0000
           4    0.0000   -0.0132    0.0000   -0.0460   -0.0002   -0.0312    0.0286   -0.0000
           5   -0.0208   -0.0000   -0.0000   -0.0002    0.0657   -0.0000    0.0001    0.1314
           6    0.0000   -0.0000   -0.0032    0.0000   -0.0000    0.0000   -0.0000   -0.0000
           7    0.0162    0.0180   -0.0001   -0.0007   -0.0001    0.0142   -0.0168    0.0317
           8    0.0068    0.0148   -0.0001   -0.0140   -0.0438    0.0154   -0.0212    0.0472
           9   -0.0000   -0.0000   -0.0124    0.0000   -0.0000    0.0000    0.0000   -0.0000
          10   -0.0162    0.0180   -0.0001   -0.0007    0.0001    0.0142   -0.0168   -0.0317
          11    0.0068   -0.0148    0.0001    0.0143   -0.0438   -0.0154    0.0212    0.0472
          12    0.0000   -0.0000   -0.0124   -0.0000    0.0000    0.0000   -0.0000   -0.0000
          13    0.0000   -0.0090   -0.0437   -0.0007   -0.0000   -0.0187   -0.0226    0.0000
          14   -0.0063   -0.0000   -0.0000    0.0000   -0.0108    0.0000   -0.0000    0.0048
          15    0.0000   -0.0231   -0.0669   -0.0092   -0.0000   -0.0078   -0.0212    0.0000
          16   -0.0000   -0.0089    0.0438   -0.0007    0.0000   -0.0187   -0.0226    0.0000
          17   -0.0063    0.0000   -0.0000    0.0000   -0.0108   -0.0000    0.0000    0.0048
          18    0.0000    0.0229   -0.0669    0.0093   -0.0000    0.0077    0.0212   -0.0000
          19    0.0134    0.0064   -0.0000   -0.0121   -0.0206    0.0147   -0.0222    0.0238
          20   -0.0133   -0.0318    0.0001   -0.0012   -0.0134   -0.0158    0.0158   -0.0660
          21    0.0000    0.0000    0.0041   -0.0000    0.0000   -0.0000   -0.0000    0.0000
          22   -0.0134    0.0064   -0.0001   -0.0122    0.0206    0.0147   -0.0222   -0.0237
          23   -0.0133    0.0318   -0.0001    0.0012   -0.0134    0.0158   -0.0159   -0.0659
          24    0.0000   -0.0000    0.0041   -0.0000    0.0000   -0.0000    0.0000    0.0000
          25    0.0000   -0.0148   -0.0045   -0.0106   -0.0000    0.0086   -0.0061    0.0000
          26    0.0011   -0.0000    0.0000   -0.0000    0.0018    0.0000    0.0000   -0.0009
          27   -0.0000   -0.0216    0.0334   -0.0243   -0.0001    0.0619    0.0367   -0.0000
          28    0.0000   -0.0148    0.0045   -0.0106   -0.0000    0.0087   -0.0061    0.0000
          29    0.0011    0.0000    0.0000    0.0000    0.0018   -0.0000   -0.0000   -0.0009
          30   -0.0000    0.0217    0.0334    0.0242    0.0001   -0.0619   -0.0367    0.0000
          31    0.0000   -0.0770   -0.0057    0.2288    0.0007    0.0654   -0.0409    0.0000
          32    0.0804    0.0000    0.0001    0.0002   -0.1069    0.0000   -0.0001   -0.1247
          33   -0.0000    0.0408    0.0011   -0.1788   -0.0005   -0.0630    0.0452   -0.0000
          34    0.0000   -0.0770    0.0065    0.2290    0.0007    0.0655   -0.0410    0.0001
          35    0.0804    0.0000    0.0000    0.0003   -0.1068    0.0001   -0.0001   -0.1247
          36   -0.0000   -0.0406    0.0015    0.1784    0.0006    0.0629   -0.0452    0.0001
          37   -0.0001    0.0427    0.0695    0.0035   -0.0000    0.0631    0.0761   -0.0000
          38    0.0134   -0.0000   -0.0001   -0.0001    0.0202    0.0000    0.0000   -0.0089
          39   -0.0000   -0.0079   -0.0278   -0.0096   -0.0001    0.0221    0.0119    0.0000
          40   -0.1703   -0.0600    0.0002    0.0454   -0.0389   -0.0484    0.0716   -0.0679
          41   -0.1034   -0.0324    0.0001    0.0114   -0.0683   -0.0217    0.0303   -0.0142
          42    0.0000    0.0001    0.0297   -0.0000    0.0000    0.0000    0.0000   -0.0000
          43    0.1703   -0.0599    0.0003    0.0452    0.0390   -0.0484    0.0717    0.0678
          44   -0.1034    0.0323   -0.0001   -0.0111   -0.0683    0.0217   -0.0303   -0.0142
          45    0.0000    0.0001    0.0297   -0.0000    0.0001    0.0000    0.0000   -0.0000
          46    0.0001    0.0425   -0.0696    0.0036    0.0000    0.0631    0.0761   -0.0001
          47    0.0134    0.0000   -0.0001   -0.0000    0.0202    0.0000    0.0000   -0.0089
          48   -0.0000    0.0079   -0.0280    0.0097   -0.0000   -0.0220   -0.0118    0.0000
          49   -0.1157   -0.1270    0.0004    0.0003    0.0860   -0.0531    0.0536   -0.0514
          50    0.0624    0.0449   -0.0001   -0.0108   -0.0799    0.0238   -0.0296   -0.0227
          51   -0.0000    0.0000    0.0099   -0.0000   -0.0000   -0.0000    0.0000   -0.0000
          52    0.1157   -0.1269    0.0006    0.0008   -0.0860   -0.0531    0.0536    0.0513
          53    0.0624   -0.0448    0.0003    0.0112   -0.0799   -0.0238    0.0296   -0.0228
          54   -0.0000    0.0000    0.0099   -0.0000    0.0001    0.0000   -0.0000    0.0000
          55   -0.0001   -0.0209    0.1174   -0.0304   -0.0001    0.0730    0.0382   -0.0000
          56    0.0038   -0.0000    0.0000   -0.0001    0.0109    0.0000    0.0000   -0.0065
          57    0.0001   -0.0176   -0.1526    0.0008   -0.0000   -0.0294   -0.0313    0.0000
          58    0.0001   -0.0213   -0.1171   -0.0303   -0.0001    0.0730    0.0382    0.0000
          59    0.0038    0.0000   -0.0001   -0.0000    0.0109    0.0000    0.0000   -0.0064
          60    0.0001    0.0171   -0.1528   -0.0007   -0.0001    0.0295    0.0314   -0.0000


   Root No.      41        42        43        44        45        46        47        48

                41 A      42 A      43 A      44 A      45 A      46 A      47 A      48 A   

                1740.2    1792.7    1876.5    1894.5    2932.5    3010.2    3044.9    3046.4
  
           1   -0.0172   -0.0000    0.0000   -0.0308    0.0000    0.0001    0.0000   -0.0002
           2   -0.0000    0.0000    0.0292    0.0000    0.0000   -0.0000    0.0004    0.0000
           3   -0.0000   -0.0007   -0.0000   -0.0000    0.0001    0.0000   -0.0000   -0.0000
           4    0.0010    0.0000   -0.0000    0.0284   -0.0000    0.0382   -0.0000    0.0026
           5    0.0000    0.0000    0.0310    0.0000   -0.0000   -0.0000   -0.0002   -0.0000
           6   -0.0000    0.0002   -0.0000   -0.0000   -0.0610   -0.0000    0.0000    0.0000
           7    0.0026    0.0000   -0.1398    0.1340   -0.0000   -0.0001   -0.0090    0.0085
           8   -0.0014    0.0000   -0.0224    0.0184   -0.0000    0.0001    0.0152   -0.0146
           9   -0.0000    0.0031   -0.0000    0.0000   -0.0003    0.0000   -0.0000    0.0000
          10    0.0026    0.0000    0.1396    0.1343   -0.0000   -0.0001    0.0087    0.0088
          11    0.0014   -0.0000   -0.0224   -0.0184    0.0000   -0.0001    0.0148    0.0150
          12   -0.0000    0.0031   -0.0000   -0.0000   -0.0003    0.0000   -0.0000   -0.0000
          13    0.1333   -0.1274    0.0000   -0.0048    0.0000   -0.0000    0.0000   -0.0000
          14    0.0000   -0.0000    0.0020    0.0000    0.0000    0.0000    0.0001    0.0000
          15   -0.0419    0.0294   -0.0000    0.0001   -0.0000    0.0000    0.0000    0.0000
          16    0.1332    0.1274    0.0000   -0.0048   -0.0000   -0.0000    0.0000   -0.0000
          17    0.0001    0.0001    0.0020   -0.0000   -0.0000   -0.0000    0.0001    0.0000
          18    0.0421    0.0296   -0.0000   -0.0001   -0.0000   -0.0000   -0.0000   -0.0000
          19   -0.0036   -0.0000    0.1401   -0.1339    0.0000   -0.0022   -0.0110    0.0098
          20    0.0014    0.0000   -0.0248    0.0203    0.0000   -0.0044   -0.0179    0.0164
          21   -0.0000   -0.0002    0.0000   -0.0000   -0.0000   -0.0000   -0.0000    0.0000
          22   -0.0036   -0.0000   -0.1399   -0.1341    0.0000   -0.0022    0.0107    0.0100
          23   -0.0014   -0.0000   -0.0248   -0.0203   -0.0000    0.0044   -0.0175   -0.0168
          24   -0.0000   -0.0002    0.0000    0.0000   -0.0000   -0.0000    0.0000    0.0000
          25   -0.1179    0.1303   -0.0000    0.0039   -0.0000    0.0000   -0.0000    0.0000
          26   -0.0000    0.0000    0.0001    0.0000   -0.0000    0.0000    0.0000   -0.0000
          27    0.0588   -0.0499    0.0000   -0.0000    0.0000    0.0000   -0.0000    0.0000
          28   -0.1178   -0.1302   -0.0000    0.0039    0.0000    0.0000    0.0000    0.0000
          29   -0.0001   -0.0001    0.0001    0.0000   -0.0000    0.0000    0.0000    0.0000
          30   -0.0590   -0.0501   -0.0000    0.0000    0.0000   -0.0000   -0.0000   -0.0000
          31    0.0004    0.0004   -0.0000    0.0153    0.2861   -0.2290    0.0002   -0.0164
          32    0.0000    0.0000    0.0266    0.0000    0.0001   -0.0001   -0.0024   -0.0000
          33    0.0002   -0.0000    0.0000    0.0035    0.3682   -0.3521    0.0003   -0.0245
          34    0.0005   -0.0004   -0.0000    0.0152   -0.2858   -0.2282    0.0002   -0.0164
          35    0.0000   -0.0000    0.0265    0.0000    0.0001    0.0001   -0.0024   -0.0000
          36   -0.0001   -0.0000   -0.0000   -0.0036    0.3690    0.3521   -0.0003    0.0245
          37    0.0010    0.0003    0.0000   -0.0006    0.0000    0.0001    0.0000    0.0000
          38   -0.0001    0.0001    0.0002    0.0000   -0.0000    0.0000    0.0000    0.0000
          39   -0.1137    0.0981   -0.0000    0.0025    0.0000   -0.0002   -0.0000   -0.0001
          40    0.0004   -0.0000   -0.0221    0.0085    0.0000   -0.0014    0.1079   -0.1021
          41   -0.0031   -0.0000    0.0766   -0.0843   -0.0000    0.0014   -0.1840    0.1737
          42    0.0000   -0.0009    0.0000   -0.0000   -0.0008   -0.0000    0.0000   -0.0000
          43    0.0004   -0.0000    0.0221    0.0085   -0.0000   -0.0014   -0.1052   -0.1049
          44    0.0031    0.0000    0.0765    0.0845   -0.0000   -0.0014   -0.1795   -0.1785
          45    0.0000   -0.0009   -0.0001   -0.0001   -0.0008    0.0000    0.0002    0.0002
          46    0.0008   -0.0005    0.0000   -0.0006   -0.0000    0.0001    0.0000    0.0000
          47    0.0001    0.0001    0.0002   -0.0000    0.0000    0.0000    0.0000    0.0000
          48    0.1137    0.0981    0.0000   -0.0025    0.0000    0.0002    0.0000    0.0001
          49    0.0022   -0.0000    0.0187   -0.0048   -0.0000    0.0299    0.1270   -0.1136
          50   -0.0025   -0.0000    0.0750   -0.0827   -0.0000    0.0444    0.2170   -0.1943
          51   -0.0000   -0.0008    0.0000   -0.0000   -0.0017    0.0000    0.0000   -0.0000
          52    0.0022   -0.0000   -0.0187   -0.0049   -0.0000    0.0300   -0.1237   -0.1165
          53    0.0025   -0.0000    0.0749    0.0828    0.0000   -0.0445    0.2115    0.1992
          54    0.0000   -0.0008   -0.0000   -0.0000   -0.0017    0.0000   -0.0001   -0.0001
          55   -0.0788    0.0474   -0.0000    0.0047    0.0000   -0.0001    0.0000   -0.0002
          56   -0.0001    0.0001    0.0005    0.0000    0.0000    0.0000   -0.0001   -0.0000
          57   -0.0474    0.1165   -0.0000    0.0015    0.0000   -0.0000    0.0000   -0.0001
          58   -0.0789   -0.0476   -0.0000    0.0047   -0.0000   -0.0001   -0.0000   -0.0002
          59   -0.0000    0.0000    0.0005   -0.0000   -0.0000    0.0000   -0.0001   -0.0000
          60    0.0473    0.1164   -0.0000   -0.0015    0.0000    0.0000    0.0000    0.0001


   Root No.      49        50        51        52        53        54

                49 A      50 A      51 A      52 A      53 A      54 A   

                3064.4    3067.0    3130.6    3133.6    3147.9    3156.5
  
           1    0.0000   -0.0004    0.0000    0.0006   -0.0000    0.0008
           2   -0.0003   -0.0000    0.0000    0.0000   -0.0000    0.0000
           3   -0.0000    0.0000    0.0003   -0.0000   -0.0002    0.0000
           4   -0.0000    0.0030   -0.0000   -0.0000    0.0000    0.0000
           5    0.0000   -0.0000   -0.0000    0.0000   -0.0000    0.0000
           6   -0.0000    0.0000    0.0000    0.0000    0.0000   -0.0000
           7    0.0140   -0.0130   -0.0000   -0.0000    0.0000   -0.0000
           8   -0.0177    0.0166    0.0000   -0.0000   -0.0000   -0.0000
           9    0.0000   -0.0000    0.0001   -0.0000   -0.0001   -0.0000
          10   -0.0138   -0.0132   -0.0000   -0.0000    0.0000   -0.0000
          11   -0.0174   -0.0168   -0.0000    0.0000    0.0000    0.0000
          12    0.0000    0.0000    0.0001   -0.0000   -0.0001   -0.0000
          13   -0.0000    0.0001   -0.0032   -0.0045    0.0116    0.0106
          14   -0.0001   -0.0000    0.0000    0.0000   -0.0000   -0.0000
          15   -0.0000    0.0001    0.0115    0.0148   -0.0260   -0.0232
          16   -0.0000    0.0001    0.0030   -0.0047   -0.0116    0.0105
          17   -0.0001   -0.0000    0.0000   -0.0000   -0.0000    0.0000
          18    0.0000   -0.0001    0.0111   -0.0155   -0.0259    0.0231
          19   -0.0122    0.0117    0.0000    0.0000   -0.0000    0.0000
          20   -0.0150    0.0146    0.0000    0.0000   -0.0000    0.0000
          21   -0.0000    0.0000    0.0000    0.0000   -0.0000    0.0000
          22    0.0121    0.0119    0.0000    0.0000   -0.0000    0.0000
          23   -0.0148   -0.0148   -0.0000   -0.0000    0.0000   -0.0000
          24    0.0000    0.0000    0.0000   -0.0000   -0.0000   -0.0000
          25   -0.0000    0.0001   -0.0239   -0.0190   -0.0130   -0.0170
          26   -0.0000   -0.0000   -0.0000   -0.0000   -0.0000   -0.0000
          27   -0.0000    0.0000   -0.0148   -0.0123   -0.0053   -0.0089
          28   -0.0000    0.0001    0.0230   -0.0199    0.0132   -0.0172
          29   -0.0000   -0.0000   -0.0000    0.0000   -0.0000    0.0000
          30    0.0000   -0.0000   -0.0141    0.0128   -0.0054    0.0090
          31    0.0001   -0.0154    0.0000   -0.0000   -0.0000   -0.0001
          32   -0.0018   -0.0000   -0.0000   -0.0000   -0.0000   -0.0000
          33    0.0001   -0.0229   -0.0000    0.0000   -0.0000   -0.0002
          34    0.0001   -0.0153   -0.0000    0.0000    0.0000   -0.0001
          35   -0.0018   -0.0000   -0.0000    0.0000   -0.0000    0.0000
          36   -0.0001    0.0229   -0.0000   -0.0000   -0.0000    0.0002
          37   -0.0000    0.0000    0.0466    0.0606   -0.1017   -0.0855
          38   -0.0001   -0.0000   -0.0001   -0.0001    0.0002    0.0001
          39    0.0000   -0.0001   -0.1403   -0.1801    0.2989    0.2502
          40   -0.1280    0.1175    0.0000    0.0001   -0.0000    0.0001
          41    0.2130   -0.1950   -0.0000   -0.0001    0.0000   -0.0001
          42   -0.0000    0.0000   -0.0000    0.0000   -0.0001    0.0000
          43    0.1265    0.1187    0.0000    0.0001   -0.0000    0.0001
          44    0.2104    0.1970    0.0000    0.0001   -0.0000    0.0001
          45   -0.0002   -0.0002   -0.0000   -0.0000   -0.0001   -0.0000
          46   -0.0000    0.0000   -0.0443    0.0628    0.1008   -0.0848
          47   -0.0001   -0.0000   -0.0001    0.0002    0.0003   -0.0003
          48   -0.0000    0.0001   -0.1341    0.1876    0.2977   -0.2494
          49    0.1081   -0.1030   -0.0000   -0.0001    0.0000   -0.0002
          50    0.1801   -0.1715   -0.0000   -0.0002    0.0000   -0.0004
          51    0.0000   -0.0000   -0.0000   -0.0000    0.0001    0.0000
          52   -0.1071   -0.1042   -0.0000   -0.0001    0.0000   -0.0002
          53    0.1785    0.1736    0.0000    0.0002   -0.0000    0.0004
          54   -0.0001   -0.0001   -0.0001   -0.0000    0.0001   -0.0000
          55    0.0000   -0.0003    0.2697    0.2174    0.1186    0.1583
          56    0.0001    0.0000    0.0003    0.0002    0.0001    0.0002
          57    0.0000   -0.0002    0.1760    0.1441    0.0762    0.1038
          58    0.0000   -0.0003   -0.2596    0.2268   -0.1206    0.1599
          59    0.0001   -0.0000    0.0001   -0.0001    0.0000   -0.0000
          60   -0.0000    0.0002    0.1687   -0.1498    0.0773   -0.1044


           MASS-WEIGHTED COORDINATE ANALYSIS (NORMAL COORDINATES)


   Root No.       1         2         3         4         5         6         7         8

                 1 A       2 A       3 A       4 A       5 A       6 A       7 A       8 A   

                  50.7     143.3     209.3     251.4     371.3     405.8     484.9     497.2
  
           1    0.0000    0.0001    0.0000    0.0002   -0.1206    0.0001    0.0000    0.0002
           2   -0.0011   -0.3286    0.0003    0.0003    0.0000   -0.0001   -0.2517   -0.0011
           3   -0.2196    0.0005   -0.0015   -0.3132   -0.0002    0.0002    0.0011   -0.2685
           4    0.0004    0.0000   -0.0001   -0.0005    0.4327   -0.0005    0.0000   -0.0002
           5    0.0007    0.1685   -0.0003   -0.0002    0.0000   -0.0000    0.0493    0.0002
           6    0.5031   -0.0018   -0.0011   -0.1971   -0.0004    0.0002   -0.0001    0.0096
           7   -0.0005   -0.1904    0.0001    0.0001    0.2094   -0.0004   -0.1432   -0.0006
           8   -0.0007   -0.1907    0.0002    0.0004   -0.1723    0.0002   -0.2429   -0.0009
           9   -0.3251    0.0009   -0.1267   -0.0395    0.0009    0.4190   -0.0016    0.3442
          10    0.0007    0.1904   -0.0003   -0.0003    0.2093   -0.0001    0.1432    0.0001
          11   -0.0007   -0.1907    0.0003    0.0002    0.1723   -0.0005   -0.2428   -0.0008
          12   -0.3250    0.0015    0.1259   -0.0419   -0.0001   -0.4188   -0.0009    0.3439
          13   -0.2031    0.0005   -0.0009   -0.1803   -0.2960    0.0004    0.0005   -0.1793
          14   -0.0007   -0.2120    0.3408   -0.0018    0.0001    0.0351    0.4042    0.0011
          15   -0.0507    0.0000   -0.0009   -0.1574    0.0639    0.0001    0.0006   -0.2144
          16    0.2028   -0.0003    0.0010    0.1809   -0.2958    0.0002   -0.0007    0.1800
          17   -0.0008   -0.2125   -0.3404    0.0017   -0.0001   -0.0345    0.4043    0.0018
          18   -0.0505   -0.0000   -0.0005   -0.1571   -0.0645    0.0001    0.0006   -0.2140
          19   -0.0005   -0.1936    0.0002    0.0001    0.2382   -0.0004   -0.1693   -0.0007
          20    0.0002    0.0385   -0.0001    0.0001   -0.1373    0.0001   -0.0773   -0.0002
          21    0.0306   -0.0003   -0.3742    0.3799   -0.0000   -0.2881    0.0007   -0.1355
          22    0.0008    0.1937   -0.0002   -0.0003    0.2381    0.0000    0.1694    0.0001
          23    0.0001    0.0385    0.0000    0.0000    0.1374   -0.0002   -0.0773   -0.0001
          24    0.0306    0.0007    0.3783    0.3766    0.0006    0.2873    0.0006   -0.1354
          25   -0.1264    0.0001   -0.0006   -0.1136   -0.3292    0.0004    0.0005   -0.1249
          26    0.0014    0.4086    0.2995   -0.0021   -0.0002   -0.2253   -0.0820    0.0001
          27    0.1686   -0.0007    0.0000    0.0550    0.0086    0.0001    0.0001   -0.0039
          28    0.1258   -0.0004    0.0007    0.1139   -0.3291    0.0001   -0.0003    0.1254
          29    0.0013    0.4082   -0.3002    0.0014    0.0000    0.2251   -0.0824   -0.0010
          30    0.1688   -0.0006    0.0005    0.0552   -0.0090   -0.0002    0.0001   -0.0036
          31   -0.1495    0.0007    0.0012    0.2325    0.1284   -0.0005    0.0008   -0.1970
          32    0.0004    0.0796    0.0897   -0.0006    0.0001    0.1029    0.0495    0.0002
          33    0.2587   -0.0011   -0.0013   -0.2355   -0.0021    0.0003   -0.0007    0.1574
          34    0.1498   -0.0007   -0.0013   -0.2331    0.1283    0.0002   -0.0008    0.1971
          35    0.0003    0.0793   -0.0901    0.0003   -0.0001   -0.1029    0.0495    0.0001
          36    0.2585   -0.0011   -0.0012   -0.2351    0.0018    0.0003   -0.0007    0.1571
          37   -0.1107    0.0002   -0.0005   -0.1071   -0.1074    0.0002    0.0003   -0.1131
          38   -0.0005   -0.1413    0.2052   -0.0011    0.0000   -0.0005    0.3946    0.0012
          39   -0.0325    0.0001   -0.0004   -0.0642    0.0111    0.0001    0.0001   -0.0825
          40   -0.0003   -0.1011    0.0001    0.0000    0.1068   -0.0002   -0.0798   -0.0004
          41   -0.0003   -0.0825    0.0001    0.0001   -0.0215    0.0000   -0.0921   -0.0004
          42   -0.1969    0.0006   -0.0570    0.0244    0.0007    0.3074   -0.0016    0.3754
          43    0.0003    0.1011   -0.0002   -0.0002    0.1067   -0.0001    0.0798    0.0002
          44   -0.0003   -0.0825    0.0001    0.0002    0.0215   -0.0003   -0.0921   -0.0001
          45   -0.1969    0.0009    0.0572    0.0232    0.0001   -0.3074   -0.0011    0.3755
          46    0.1106   -0.0001    0.0006    0.1073   -0.1073    0.0000   -0.0005    0.1134
          47   -0.0005   -0.1415   -0.2050    0.0011    0.0000    0.0011    0.3948    0.0019
          48   -0.0323    0.0001   -0.0001   -0.0640   -0.0113    0.0000   -0.0000   -0.0823
          49   -0.0004   -0.1024    0.0001    0.0001    0.0369   -0.0000   -0.0975   -0.0004
          50    0.0002    0.0388   -0.0001   -0.0001   -0.0192    0.0000    0.0059    0.0001
          51   -0.0044   -0.0000   -0.2195    0.2841    0.0001   -0.2097    0.0003   -0.0266
          52    0.0003    0.1024   -0.0001   -0.0001    0.0369    0.0001    0.0975    0.0002
          53    0.0001    0.0388    0.0000    0.0001    0.0192    0.0000    0.0058    0.0001
          54   -0.0045    0.0005    0.2226    0.2823    0.0006    0.2090    0.0001   -0.0261
          55   -0.0663   -0.0000   -0.0003   -0.0623   -0.0906    0.0002    0.0003   -0.0737
          56    0.0008    0.2303    0.1850   -0.0013   -0.0001   -0.2022   -0.0152    0.0005
          57    0.0943   -0.0003    0.0001    0.0607   -0.0061    0.0001   -0.0002    0.0552
          58    0.0660   -0.0002    0.0003    0.0623   -0.0906    0.0000   -0.0002    0.0737
          59    0.0008    0.2302   -0.1854    0.0010    0.0001    0.2023   -0.0155   -0.0006
          60    0.0944   -0.0003    0.0004    0.0608    0.0060   -0.0001   -0.0002    0.0554


   Root No.       9        10        11        12        13        14        15        16

                 9 A      10 A      11 A      12 A      13 A      14 A      15 A      16 A   

                 524.4     591.4     677.5     735.5     775.8     778.5     819.7     821.1
  
           1    0.0001    0.0001   -0.2528    0.0004    0.0000    0.0000   -0.0000   -0.0001
           2   -0.0000   -0.2011   -0.0000   -0.0001    0.0127    0.0000    0.0001    0.0000
           3   -0.0003    0.0002   -0.0001   -0.0310    0.0002   -0.0004    0.2791   -0.0071
           4    0.0000   -0.0001    0.3225   -0.0006    0.0001    0.0000   -0.0000   -0.0002
           5   -0.0000    0.2048    0.0000    0.0000   -0.0337    0.0000    0.0000   -0.0000
           6   -0.0001    0.0000   -0.0005   -0.2316   -0.0001   -0.0008   -0.0966    0.0027
           7    0.0001    0.3193   -0.1681    0.0003    0.0119    0.0000   -0.0000    0.0001
           8   -0.0000   -0.3222   -0.2845    0.0004    0.1239    0.0001    0.0002    0.0001
[...]
 T-DIPOLE    0.0869         C  3 -- H 14         +18.6% ( 52.0%)      0.1%
 TRAVEL      0.1462         C  8 -- H 18          +9.9% ( 37.9%)      0.2%
 RED. MASS   0.2769         C  7 -- H 17          +9.9% ( 37.9%)      0.2%
 EFF. MASS   2.6009

 VIBRATION   34   34A         ATOM PAIR      ENERGY CONTRIBUTION    RADIAL
 FREQ.      1263.60         C  1 -- C  5         +10.3% ( 49.4%)     74.6%
 T-DIPOLE    0.0899         C  1 -- C  6         +10.3% ( 49.3%)     74.1%
 TRAVEL      0.0815         C  1 -- C  3          +7.9% ( 43.1%)      3.0%
 RED. MASS   0.7470         C  1 -- C  4          +7.9% ( 43.1%)      3.0%
 EFF. MASS   8.0305

 VIBRATION   35   35A         ATOM PAIR      ENERGY CONTRIBUTION    RADIAL
 FREQ.      1279.53         C  1 -- C  6         +18.3% ( 69.2%)     81.9%
 T-DIPOLE    0.0774         C  1 -- C  5         +18.3% ( 69.2%)     81.9%
 TRAVEL      0.0738         C  1 -- C  4          +8.5% ( 47.2%)      0.0%
 RED. MASS   2.3014         C  1 -- C  3          +8.5% ( 47.2%)      0.0%
 EFF. MASS   9.6789

 VIBRATION   36   36A         ATOM PAIR      ENERGY CONTRIBUTION    RADIAL
 FREQ.      1356.57         C  2 -- H 11         +19.6% ( 53.8%)      4.5%
 T-DIPOLE    0.0213         C  2 -- H 12         +19.6% ( 53.8%)      4.5%
 TRAVEL      0.1049         C  1 -- C  4          +7.9% ( 34.0%)     56.0%
 RED. MASS   0.5433         C  1 -- C  3          +7.8% ( 34.0%)     54.7%
 EFF. MASS   4.5171

 VIBRATION   37   37A         ATOM PAIR      ENERGY CONTRIBUTION    RADIAL
 FREQ.      1364.15         C  1 -- C  3         +18.0% ( 66.5%)     70.2%
 T-DIPOLE    0.1857         C  1 -- C  4         +18.0% ( 66.5%)     70.1%
 TRAVEL      0.0717         C  1 -- C  6         +12.3% ( 55.1%)      0.0%
 RED. MASS   2.6257         C  1 -- C  5         +12.3% ( 55.1%)      0.0%
 EFF. MASS   9.6268

 VIBRATION   38   38A         ATOM PAIR      ENERGY CONTRIBUTION    RADIAL
 FREQ.      1396.16         C  9 -- C 10         +21.3% ( 72.6%)    100.0%
 T-DIPOLE    0.3377         C  6 -- C  9          +8.3% ( 45.3%)     98.6%
 TRAVEL      0.0722         C  5 -- C 10          +8.3% ( 45.3%)     98.6%
 RED. MASS   1.5217         C  5 -- C  9          +7.9% ( 44.4%)      0.1%
 EFF. MASS   9.2684

 VIBRATION   39   39A         ATOM PAIR      ENERGY CONTRIBUTION    RADIAL
 FREQ.      1420.46         C  1 -- C  6         +11.8% ( 54.7%)     61.3%
 T-DIPOLE    0.0432         C  1 -- C  5         +11.8% ( 54.7%)     61.2%
 TRAVEL      0.0710         C  1 -- C  4         +11.7% ( 54.4%)     52.4%
 RED. MASS   1.4779         C  1 -- C  3         +11.7% ( 54.4%)     52.4%
 EFF. MASS   9.4126

 VIBRATION   40   40A         ATOM PAIR      ENERGY CONTRIBUTION    RADIAL
 FREQ.      1461.01         C  2 -- C  7         +17.8% ( 66.8%)     80.5%
 T-DIPOLE    0.1134         C  2 -- C  8         +17.8% ( 66.8%)     80.5%
 TRAVEL      0.0649         C  2 -- H 11         +11.9% ( 54.7%)      0.0%
 RED. MASS   2.5899         C  2 -- H 12         +11.9% ( 54.7%)      0.0%
 EFF. MASS  10.9606

 VIBRATION   41   41A         ATOM PAIR      ENERGY CONTRIBUTION    RADIAL
 FREQ.      1740.24         C  6 -- C 10         +18.2% ( 72.5%)     99.8%
 T-DIPOLE    0.0939         C  5 -- C  9         +18.2% ( 72.5%)     99.8%
 TRAVEL      0.0568         C  5 -- C 10         +10.7% ( 55.5%)     24.6%
 RED. MASS   2.7162         C  6 -- C  9         +10.7% ( 55.5%)     24.6%
 EFF. MASS  12.0234

 VIBRATION   42   42A         ATOM PAIR      ENERGY CONTRIBUTION    RADIAL
 FREQ.      1792.65         C  5 -- C  9         +17.9% ( 70.3%)     99.8%
 T-DIPOLE    0.3295         C  6 -- C 10         +17.9% ( 70.3%)     99.8%
 TRAVEL      0.0564         C  9 -- C 10         +12.1% ( 57.8%)      0.0%
 RED. MASS   2.6914         C  5 -- C 10         +10.9% ( 54.7%)     66.0%
 EFF. MASS  11.8192         C  6 -- C  9         +10.9% ( 54.7%)     66.0%

 VIBRATION   43   43A         ATOM PAIR      ENERGY CONTRIBUTION    RADIAL
 FREQ.      1876.51         C  3 -- C  7         +22.2% ( 69.8%)    100.0%
 T-DIPOLE    0.0114         C  4 -- C  8         +22.1% ( 69.7%)    100.0%
 TRAVEL      0.0549         C  2 -- C  7          +7.3% ( 40.0%)     66.8%
 RED. MASS   2.7275         C  2 -- C  8          +7.2% ( 39.9%)     66.8%
 EFF. MASS  11.9137

 VIBRATION   44   44A         ATOM PAIR      ENERGY CONTRIBUTION    RADIAL
 FREQ.      1894.45         C  4 -- C  8         +22.1% ( 69.1%)    100.0%
 T-DIPOLE    0.1656         C  3 -- C  7         +22.0% ( 69.0%)    100.0%
 TRAVEL      0.0548         C  1 -- C  4          +7.3% ( 39.6%)     40.5%
 RED. MASS   2.6875         C  1 -- C  3          +7.3% ( 39.6%)     40.5%
 EFF. MASS  11.8588

 VIBRATION   45   45A         ATOM PAIR      ENERGY CONTRIBUTION    RADIAL
 FREQ.      2932.53         C  2 -- H 12         +49.0% ( 72.6%)     96.6%
 T-DIPOLE    0.0485         C  2 -- H 11         +48.9% ( 72.5%)     96.5%
 TRAVEL      0.1224         C  2 -- C  8          +1.1% ( 10.8%)      0.0%
 RED. MASS   0.5176         C  2 -- C  7          +1.1% ( 10.8%)      0.0%
 EFF. MASS   1.5350

 VIBRATION   46   46A         ATOM PAIR      ENERGY CONTRIBUTION    RADIAL
 FREQ.      3010.18         C  2 -- H 11         +48.5% ( 68.7%)     97.7%
 T-DIPOLE    0.1034         C  2 -- H 12         +48.4% ( 68.6%)     97.7%
 TRAVEL      0.1321         C  8 -- H 18          +0.9% (  9.3%)     99.9%
 RED. MASS   0.4682         C  7 -- H 17          +0.9% (  9.3%)     99.9%
 EFF. MASS   1.2839

 VIBRATION   47   47A         ATOM PAIR      ENERGY CONTRIBUTION    RADIAL
 FREQ.      3044.86         C  7 -- H 17         +29.1% ( 54.8%)    100.0%
 T-DIPOLE    0.0113         C  8 -- H 18         +27.7% ( 53.4%)    100.0%
 TRAVEL      0.1237         C  3 -- H 14         +21.0% ( 46.5%)    100.0%
 RED. MASS   0.2388         C  4 -- H 15         +19.9% ( 45.3%)    100.0%
 EFF. MASS   1.4465

 VIBRATION   48   48A         ATOM PAIR      ENERGY CONTRIBUTION    RADIAL
 FREQ.      3046.36         C  8 -- H 18         +27.5% ( 53.2%)    100.0%
 T-DIPOLE    0.4094         C  7 -- H 17         +26.2% ( 51.9%)    100.0%
 TRAVEL      0.1229         C  4 -- H 15         +22.1% ( 47.7%)    100.0%
 RED. MASS   0.2313         C  3 -- H 14         +21.0% ( 46.5%)    100.0%
 EFF. MASS   1.4653

 VIBRATION   49   49A         ATOM PAIR      ENERGY CONTRIBUTION    RADIAL
 FREQ.      3064.38         C  3 -- H 14         +28.4% ( 54.1%)     99.9%
 T-DIPOLE    0.4359         C  4 -- H 15         +27.7% ( 53.4%)     99.9%
 TRAVEL      0.1182         C  7 -- H 17         +20.3% ( 45.8%)     99.9%
 RED. MASS   0.2392         C  8 -- H 18         +19.9% ( 45.3%)     99.9%
 EFF. MASS   1.5739

 VIBRATION   50   50A         ATOM PAIR      ENERGY CONTRIBUTION    RADIAL
 FREQ.      3067.02         C  4 -- H 15         +27.2% ( 52.9%)     99.9%
 T-DIPOLE    0.0255         C  3 -- H 14         +26.7% ( 52.4%)     99.9%
 TRAVEL      0.1170         C  8 -- H 18         +21.1% ( 46.6%)     99.9%
 RED. MASS   0.2334         C  7 -- H 17         +20.6% ( 46.0%)     99.9%
 EFF. MASS   1.6052

 VIBRATION   51   51A         ATOM PAIR      ENERGY CONTRIBUTION    RADIAL
 FREQ.      3130.60         C  9 -- H 19         +41.1% ( 65.7%)    100.0%
 T-DIPOLE    0.0435         C 10 -- H 20         +38.0% ( 63.2%)    100.0%
 TRAVEL      0.1200         C  5 -- H 13          +8.6% ( 30.1%)    100.0%
 RED. MASS   0.3334         C  6 -- H 16          +7.9% ( 28.7%)    100.0%
 EFF. MASS   1.4952

 VIBRATION   52   52A         ATOM PAIR      ENERGY CONTRIBUTION    RADIAL
 FREQ.      3133.62         C 10 -- H 20         +32.7% ( 58.5%)    100.0%
 T-DIPOLE    0.5237         C  9 -- H 19         +30.1% ( 56.1%)    100.0%
 TRAVEL      0.1208         C  6 -- H 16         +17.2% ( 42.5%)    100.0%
 RED. MASS   0.2555         C  5 -- H 13         +15.9% ( 40.8%)    100.0%
 EFF. MASS   1.4757

 VIBRATION   53   53A         ATOM PAIR      ENERGY CONTRIBUTION    RADIAL
 FREQ.      3147.86         C  5 -- H 13         +39.3% ( 64.4%)    100.0%
 T-DIPOLE    0.5939         C  6 -- H 16         +39.0% ( 64.2%)    100.0%
 TRAVEL      0.1162         C 10 -- H 20          +8.2% ( 29.4%)     99.7%
 RED. MASS   0.3333         C  9 -- H 19          +7.9% ( 28.9%)     99.7%
 EFF. MASS   1.5859

 VIBRATION   54   54A         ATOM PAIR      ENERGY CONTRIBUTION    RADIAL
 FREQ.      3156.53         C  5 -- H 13         +30.8% ( 57.2%)     99.9%
 T-DIPOLE    0.2007         C  6 -- H 16         +30.6% ( 56.9%)     99.9%
 TRAVEL      0.1123         C 10 -- H 20         +16.2% ( 41.4%)     99.9%
 RED. MASS   0.2572         C  9 -- H 19         +15.9% ( 41.0%)     99.9%
 EFF. MASS   1.6928

      SYMMETRY NUMBER FOR POINT-GROUP C1  =  1


          SYSTEM IS A GROUND STATE



 InChI=1S/C10H10/c1-2-6-10(7-3-1)8-4-5-9-10/h2-9H,1H2


          MOLECULE IS NOT LINEAR

          THERE ARE 54 GENUINE VIBRATIONS IN THIS SYSTEM
          THIS THERMODYNAMICS CALCULATION IS LIMITED TO
          MOLECULES WHICH HAVE NO INTERNAL ROTATIONS




                    CALCULATED THERMODYNAMIC PROPERTIES
                                          *
   TEMP. (K)   PARTITION FUNCTION   H.O.F.    ENTHALPY  HEAT CAPACITY ENTROPY
                                   KCAL/MOL   CAL/MOLE    CAL/K/MOL  CAL/K/MOL


 298.00  VIB.     0.5392D+02                  3237.5622    26.2853    18.7883
         ROT.     0.4804D+06                   888.2813     2.9808    28.9780
         INT.     0.2590D+08                  4125.8435    29.2662    47.7663
         TRA.     0.1436D+28                  1480.4688     4.9680    40.5022
         TOT.                       66.886    5606.3124    34.2342    88.2685

 200.00  VIB.     0.1016D+02                  1247.1118    14.6149    10.8437
         ROT.     0.2641D+06                   596.1620     2.9808    27.7893
         INT.     0.2684D+07                  1843.2737    17.5957    38.6330
         TRA.     0.7896D+27                   993.6033     4.9680    38.5210
         TOT.                       64.117    2836.8770    22.5637    77.1540

 210.00  VIB.     0.1191D+02                  1398.6886    15.7062    11.5830
         ROT.     0.2842D+06                   625.9700     2.9808    27.9348
         INT.     0.3384D+07                  2024.6587    18.6871    39.5177
         TRA.     0.8496D+27                  1043.2834     4.9680    38.7634
         TOT.                       64.348    3067.9421    23.6551    78.2812

 220.00  VIB.     0.1399D+02                  1561.3460    16.8304    12.3395
         ROT.     0.3047D+06                   655.7781     2.9808    28.0734
         INT.     0.4262D+07                  2217.1241    19.8112    40.4129
         TRA.     0.9110D+27                  1092.9636     4.9680    38.9945
         TOT.                       64.590    3310.0877    24.7792    79.4074

 230.00  VIB.     0.1647D+02                  1735.3937    17.9837    13.1129
         ROT.     0.3257D+06                   685.5862     2.9808    28.2059
         INT.     0.5366D+07                  2420.9800    20.9645    41.3189
         TRA.     0.9738D+27                  1142.6437     4.9680    39.2154
         TOT.                       64.843    3563.6237    25.9325    80.5342

 240.00  VIB.     0.1946D+02                  1921.1041    19.1622    13.9031
         ROT.     0.3472D+06                   715.3943     2.9808    28.3328
         INT.     0.6755D+07                  2636.4985    22.1431    42.2359
         TRA.     0.1038D+28                  1192.3239     4.9680    39.4268
         TOT.                       65.109    3828.8224    27.1111    81.6627

 250.00  VIB.     0.2305D+02                  2118.7090    20.3619    14.7096
         ROT.     0.3691D+06                   745.2024     2.9808    28.4545
         INT.     0.8506D+07                  2863.9115    23.3427    43.1641
         TRA.     0.1103D+28                  1242.0041     4.9680    39.6296
         TOT.                       65.386    4105.9155    28.3107    82.7937

 260.00  VIB.     0.2737D+02                  2328.3988    21.5785    15.5319
         ROT.     0.3915D+06                   775.0105     2.9808    28.5714
         INT.     0.1071D+08                  3103.4093    24.5593    44.1033
         TRA.     0.1170D+28                  1291.6842     4.9680    39.8245
         TOT.                       65.675    4395.0935    29.5273    83.9277

 270.00  VIB.     0.3259D+02                  2550.3221    22.8079    16.3693
         ROT.     0.4143D+06                   804.8186     2.9808    28.6839
         INT.     0.1350D+08                  3355.1407    25.7888    45.0532
         TRA.     0.1239D+28                  1341.3644     4.9680    40.0120
         TOT.                       65.976    4696.5051    30.7568    85.0651

 280.00  VIB.     0.3892D+02                  2784.5871    24.0462    17.2211
         ROT.     0.4375D+06                   834.6267     2.9808    28.7923
         INT.     0.1703D+08                  3619.2139    27.0270    46.0134
         TRA.     0.1308D+28                  1391.0445     4.9680    40.1926
         TOT.                       66.290    5010.2584    31.9950    86.2060

 290.00  VIB.     0.4660D+02                  3031.2629    25.2895    18.0866
         ROT.     0.4611D+06                   864.4348     2.9808    28.8969
         INT.     0.2149D+08                  3895.6978    28.2703    46.9835
         TRA.     0.1379D+28                  1440.7247     4.9680    40.3670
         TOT.                       66.616    5336.4225    33.2383    87.3505

 300.00  VIB.     0.5594D+02                  3290.3818    26.5343    18.9650
         ROT.     0.4852D+06                   894.2429     2.9808    28.9979
         INT.     0.2714D+08                  4184.6247    29.5151    47.9629
         TRA.     0.1451D+28                  1490.4049     4.9680    40.5354
         TOT.                       66.955    5675.0296    34.4831    88.4983

 310.00  VIB.     0.6732D+02                  3561.9419    27.7772    19.8553
         ROT.     0.5097D+06                   924.0510     2.9808    29.0957
         INT.     0.3431D+08                  4485.9929    30.7580    48.9510
         TRA.     0.1524D+28                  1540.0850     4.9680    40.6983
         TOT.                       67.306    6026.0780    35.7260    89.6493

 320.00  VIB.     0.8123D+02                  3845.9100    29.0154    20.7567
         ROT.     0.5345D+06                   953.8591     2.9808    29.1903
         INT.     0.4342D+08                  4799.7692    31.9962    49.9471
         TRA.     0.1598D+28                  1589.7652     4.9680    40.8560
         TOT.                       67.669    6389.5344    36.9642    90.8031

 330.00  VIB.     0.9825D+02                  4142.2247    30.2461    21.6685
         ROT.     0.5598D+06                   983.6672     2.9808    29.2820
         INT.     0.5499D+08                  5125.8919    33.2269    50.9505
         TRA.     0.1674D+28                  1639.4454     4.9680    41.0089
         TOT.                       68.045    6765.3373    38.1949    91.9594

 340.00  VIB.     0.1191D+03                  4450.7991    31.4670    22.5896
         ROT.     0.5854D+06                  1013.4753     2.9808    29.3710
         INT.     0.6973D+08                  5464.2744    34.4478    51.9606
         TRA.     0.1750D+28                  1689.1255     4.9680    41.1572
         TOT.                       68.433    7153.3999    39.4158    93.1178

 350.00  VIB.     0.1447D+03                  4771.5239    32.6759    23.5192
         ROT.     0.6114D+06                  1043.2834     2.9808    29.4574
         INT.     0.8850D+08                  5814.8073    35.6567    52.9766
         TRA.     0.1828D+28                  1738.8057     4.9680    41.3012
         TOT.                       68.833    7553.6130    40.6247    94.2778

 360.00  VIB.     0.1763D+03                  5104.2706    33.8710    24.4565
         ROT.     0.6378D+06                  1073.0915     2.9808    29.5414
         INT.     0.1124D+09                  6177.3621    36.8518    53.9979
         TRA.     0.1907D+28                  1788.4859     4.9680    41.4412
         TOT.                       69.246    7965.8479    41.8199    95.4390

 370.00  VIB.     0.2151D+03                  5448.8936    35.0509    25.4006
         ROT.     0.6646D+06                  1102.8996     2.9808    29.6231
         INT.     0.1430D+09                  6551.7932    38.0317    55.0237
         TRA.     0.1987D+28                  1838.1660     4.9680    41.5773
         TOT.                       69.670    8389.9592    42.9997    96.6010

 380.00  VIB.     0.2631D+03                  5805.2333    36.2142    26.3509
         ROT.     0.6917D+06                  1132.7077     2.9808    29.7026
         INT.     0.1820D+09                  6937.9410    39.1950    56.0534
         TRA.     0.2068D+28                  1887.8462     4.9680    41.7098
         TOT.                       70.106    8825.7871    44.1630    97.7632

 390.00  VIB.     0.3224D+03                  6173.1180    37.3598    27.3064
         ROT.     0.7192D+06                  1162.5158     2.9808    29.7800
         INT.     0.2319D+09                  7335.6338    40.3406    57.0864
         TRA.     0.2150D+28                  1937.5263     4.9680    41.8388
         TOT.                       70.553    9273.1601    45.3086    98.9252

 400.00  VIB.     0.3959D+03                  6552.3666    38.4868    28.2665
         ROT.     0.7470D+06                  1192.3239     2.9808    29.8555
         INT.     0.2957D+09                  7744.6905    41.4676    58.1220
         TRA.     0.2233D+28                  1987.2065     4.9680    41.9646
         TOT.                       71.012    9731.8970    46.4356   100.0866

   *: NOTE: HEATS OF FORMATION ARE RELATIVE TO THE
            ELEMENTS IN THEIR STANDARD STATE AT 298K
              (=  Standard Enthalpy of Formation).

            Hvib:  Zero-point energy is not included.
                   frequencies of less than zero cm-1 are not included.
            Hrot = (3/2)RT
            Htra = (3/2)RT + pV = (5/2)RT

            Heat capacity is Cp, not Cv

          For more information, see: HTTP://OpenMOPAC.net/Manual/thermochemistry.html


           FORCE CONSTANT IN CARTESIAN COORDINATES (Millidynes/A)

    ATOM   CHEMICAL       X               Y               Z
   NUMBER   SYMBOL  FORCE CONSTANT  FORCE CONSTANT  FORCE CONSTANT

      1       C       10.444884        9.230365        7.142749
      2       C        9.034492        9.438367        7.665840
      3       C       15.538832        9.385801        2.453340
      4       C       15.539494        9.385687        2.456189
      5       C       12.814347        2.483660       11.333970
      6       C       12.805190        2.483875       11.342844
      7       C       15.391819        9.587012        2.378071
      8       C       15.392219        9.587434        2.372830
      9       C       15.138640        2.205335       10.093983
     10       C       15.140072        2.205390       10.092573
     11       H        2.064938        0.669480        3.449768
     12       H        2.058815        0.669294        3.455572
     13       H        1.180349        0.335771        4.942116
     14       H        1.902913        3.989691        0.346979
     15       H        1.902972        3.989631        0.346983
     16       H        1.176063        0.335672        4.946153
     17       H        1.897503        3.994624        0.353415
     18       H        1.897414        3.994800        0.353012
     19       H        3.984663        0.352102        2.112086
     20       H        3.991476        0.352004        2.105901

 **********************
 *                    *
 * JOB ENDED NORMALLY *
 *                    *
 **********************



 TOTAL JOB TIME:             1.75 SECONDS

 == MOPAC DONE ==
