 *******************************************************************************
 ** Site#: 14399        For non-commercial use only    Version 18.184L 64BITS **
 *******************************************************************************
 ** Cite this program as: MOPAC2016, Version: 18.184L, James J. P. Stewart,   **
 ** Stewart Computational Chemistry, web: HTTP://OpenMOPAC.net. Days left:  18**
 *******************************************************************************
 **                                                                           **
 **                                MOPAC2016                                  **
 **                                                                           **
 *******************************************************************************

                              PM3 CALCULATION RESULTS

 *******************************************************************************
 *  CALCULATION DONE:                                Sat Jun 15 10:30:20 2019  *
 *  PM3        - The PM3 Hamiltonian to be used
 *  PRECISE    - CRITERIA TO BE INCREASED BY 100 TIMES
 *  NOSYM      - POINT-GROUP SYMMETRY SET TO C1
 *  THREADS=1  - MULTI-THREADING NOT USED
 *  T=         - A TIME OF 172800.0 SECONDS REQUESTED
 *  DUMP=N     - RESTART FILE WRITTEN EVERY  7200.000 SECONDS
 *******************************************************************************
pm3  precise nosym THREADS=1
 InChI=1S/C7H12O4/c8-10-11-9-7-5-3-1-2-4-6-7/h1-2,7-8H,3-6H2

   ATOM   CHEMICAL          X               Y               Z
  NUMBER   SYMBOL      (ANGSTROMS)     (ANGSTROMS)     (ANGSTROMS)
 
     1       O          0.93200000  *  -0.50750000  *  -1.95130000  *
     2       O          2.14020000  *   0.00940000  *  -2.09880000  *
     3       O          2.92670000  *  -1.02840000  *  -2.30840000  *
     4       O          3.66200000  *  -1.12090000  *  -1.21870000  *
     5       C          0.49060000  *  -0.16310000  *  -0.65620000  *
     6       C         -0.52390000  *  -1.22990000  *  -0.20580000  *
     7       C         -0.12330000  *   1.25240000  *  -0.69300000  *
     8       C         -0.92890000  *  -1.09870000  *   1.26980000  *
     9       C         -0.45920000  *   1.80140000  *   0.70120000  *
    10       C         -1.97580000  *  -0.03730000  *   1.47330000  *
    11       C         -1.76530000  *   1.26230000  *   1.21860000  *
    12       H          1.34380000  *  -0.17940000  *   0.06490000  *
    13       H         -0.05010000  *  -2.22770000  *  -0.33770000  *
    14       H         -1.42480000  *  -1.20940000  *  -0.85890000  *
    15       H          0.61830000  *   1.94110000  *  -1.15340000  *
    16       H         -1.02560000  *   1.26650000  *  -1.34400000  *
    17       H         -1.35520000  *  -2.06940000  *   1.60350000  *
    18       H         -0.04350000  *  -0.89280000  *   1.90940000  *
    19       H         -0.54870000  *   2.90700000  *   0.63020000  *
    20       H          0.35870000  *   1.58450000  *   1.42190000  *
    21       H         -2.94830000  *  -0.34040000  *   1.85050000  *
    22       H         -2.57510000  *   1.96340000  *   1.39920000  *
    23       H          3.27520000  *  -1.88310000  *  -0.71640000  *
 


          CARTESIAN COORDINATES 

    NO.       ATOM           X           Y           Z

     1         O          0.9320     -0.5075     -1.9513
     2         O          2.1402      0.0094     -2.0988
     3         O          2.9267     -1.0284     -2.3084
     4         O          3.6620     -1.1209     -1.2187
     5         C          0.4906     -0.1631     -0.6562
     6         C         -0.5239     -1.2299     -0.2058
     7         C         -0.1233      1.2524     -0.6930
     8         C         -0.9289     -1.0987      1.2698
     9         C         -0.4592      1.8014      0.7012
    10         C         -1.9758     -0.0373      1.4733
    11         C         -1.7653      1.2623      1.2186
    12         H          1.3438     -0.1794      0.0649
    13         H         -0.0501     -2.2277     -0.3377
    14         H         -1.4248     -1.2094     -0.8589
    15         H          0.6183      1.9411     -1.1534
    16         H         -1.0256      1.2665     -1.3440
    17         H         -1.3552     -2.0694      1.6035
    18         H         -0.0435     -0.8928      1.9094
    19         H         -0.5487      2.9070      0.6302
    20         H          0.3587      1.5845      1.4219
    21         H         -2.9483     -0.3404      1.8505
    22         H         -2.5751      1.9634      1.3992
    23         H          3.2752     -1.8831     -0.7164

  H: (PM3): J. J. P. STEWART, J. COMP. CHEM. 10, 209 (1989).
  C: (PM3): J. J. P. STEWART, J. COMP. CHEM. 10, 209 (1989).
  O: (PM3): J. J. P. STEWART, J. COMP. CHEM. 10, 209 (1989).

           Empirical Formula: C7 H12 O4  =    23 atoms



      MOLECULAR POINT GROUP   :   C1  


      RHF CALCULATION, NO. OF DOUBLY OCCUPIED LEVELS = 32


          Geometry optimization using EF

          DIAGONAL MATRIX USED AS START HESSIAN

 CYCLE:     1 TIME:   0.004 TIME LEFT:  2.00D  GRAD.:   211.042 HEAT:  13.89370
 CYCLE:     2 TIME:   0.008 TIME LEFT:  2.00D  GRAD.:   133.089 HEAT:  3.038939
 CYCLE:     3 TIME:   0.008 TIME LEFT:  2.00D  GRAD.:   108.352 HEAT: 0.9458711
 CYCLE:     4 TIME:   0.008 TIME LEFT:  2.00D  GRAD.:   129.155 HEAT:-0.2119229
 CYCLE:     5 TIME:   0.012 TIME LEFT:  2.00D  GRAD.:    43.840 HEAT: -2.284632
 CYCLE:     6 TIME:   0.008 TIME LEFT:  2.00D  GRAD.:    22.901 HEAT: -2.831580
 CYCLE:     7 TIME:   0.012 TIME LEFT:  2.00D  GRAD.:    23.843 HEAT: -2.941036
 CYCLE:     8 TIME:   0.004 TIME LEFT:  2.00D  GRAD.:    20.543 HEAT: -3.118835
 CYCLE:     9 TIME:   0.004 TIME LEFT:  2.00D  GRAD.:    19.965 HEAT: -3.195230
 CYCLE:    10 TIME:   0.012 TIME LEFT:  2.00D  GRAD.:    15.043 HEAT: -3.295661
 CYCLE:    11 TIME:   0.008 TIME LEFT:  2.00D  GRAD.:    11.303 HEAT: -3.342009
 CYCLE:    12 TIME:   0.008 TIME LEFT:  2.00D  GRAD.:     9.463 HEAT: -3.385689
 CYCLE:    13 TIME:   0.004 TIME LEFT:  2.00D  GRAD.:     6.816 HEAT: -3.437709
 CYCLE:    14 TIME:   0.008 TIME LEFT:  2.00D  GRAD.:    12.213 HEAT: -3.461122
 CYCLE:    15 TIME:   0.004 TIME LEFT:  2.00D  GRAD.:     6.428 HEAT: -3.514403
 CYCLE:    16 TIME:   0.012 TIME LEFT:  2.00D  GRAD.:     7.025 HEAT: -3.527678
 CYCLE:    17 TIME:   0.004 TIME LEFT:  2.00D  GRAD.:     7.758 HEAT: -3.540098
 CYCLE:    18 TIME:   0.004 TIME LEFT:  2.00D  GRAD.:     4.542 HEAT: -3.563799
 CYCLE:    19 TIME:   0.004 TIME LEFT:  2.00D  GRAD.:     3.828 HEAT: -3.588114
 CYCLE:    20 TIME:   0.008 TIME LEFT:  2.00D  GRAD.:     5.127 HEAT: -3.615242
 CYCLE:    21 TIME:   0.004 TIME LEFT:  2.00D  GRAD.:     4.456 HEAT: -3.654749
 CYCLE:    22 TIME:   0.004 TIME LEFT:  2.00D  GRAD.:     5.748 HEAT: -3.713595
 CYCLE:    23 TIME:   0.008 TIME LEFT:  2.00D  GRAD.:    16.230 HEAT: -3.741358
 CYCLE:    24 TIME:   0.004 TIME LEFT:  2.00D  GRAD.:     4.629 HEAT: -3.821387
 CYCLE:    25 TIME:   0.008 TIME LEFT:  2.00D  GRAD.:     5.669 HEAT: -3.859063
 CYCLE:    26 TIME:   0.004 TIME LEFT:  2.00D  GRAD.:    13.692 HEAT: -3.878847
 CYCLE:    27 TIME:   0.008 TIME LEFT:  2.00D  GRAD.:     7.824 HEAT: -3.927182
 CYCLE:    28 TIME:   0.004 TIME LEFT:  2.00D  GRAD.:     4.866 HEAT: -3.957271
 CYCLE:    29 TIME:   0.004 TIME LEFT:  2.00D  GRAD.:     5.697 HEAT: -3.988969
 CYCLE:    30 TIME:   0.008 TIME LEFT:  2.00D  GRAD.:     8.607 HEAT: -4.018564
 CYCLE:    31 TIME:   0.004 TIME LEFT:  2.00D  GRAD.:     5.372 HEAT: -4.063618
 CYCLE:    32 TIME:   0.004 TIME LEFT:  2.00D  GRAD.:     4.577 HEAT: -4.091596
 CYCLE:    33 TIME:   0.008 TIME LEFT:  2.00D  GRAD.:     6.577 HEAT: -4.122516
 CYCLE:    34 TIME:   0.004 TIME LEFT:  2.00D  GRAD.:     7.510 HEAT: -4.151694
 CYCLE:    35 TIME:   0.004 TIME LEFT:  2.00D  GRAD.:     4.373 HEAT: -4.178906
 CYCLE:    36 TIME:   0.008 TIME LEFT:  2.00D  GRAD.:     5.625 HEAT: -4.221031
 CYCLE:    37 TIME:   0.004 TIME LEFT:  2.00D  GRAD.:     7.113 HEAT: -4.261361
 CYCLE:    38 TIME:   0.004 TIME LEFT:  2.00D  GRAD.:     8.312 HEAT: -4.280242
 CYCLE:    39 TIME:   0.008 TIME LEFT:  2.00D  GRAD.:     7.775 HEAT: -4.306170
 CYCLE:    40 TIME:   0.004 TIME LEFT:  2.00D  GRAD.:     4.640 HEAT: -4.334788
 CYCLE:    41 TIME:   0.008 TIME LEFT:  2.00D  GRAD.:     3.251 HEAT: -4.366693
 CYCLE:    42 TIME:   0.004 TIME LEFT:  2.00D  GRAD.:     4.536 HEAT: -4.413459
 CYCLE:    43 TIME:   0.008 TIME LEFT:  2.00D  GRAD.:     3.291 HEAT: -4.434691
 CYCLE:    44 TIME:   0.004 TIME LEFT:  2.00D  GRAD.:     3.459 HEAT: -4.457206
 CYCLE:    45 TIME:   0.004 TIME LEFT:  2.00D  GRAD.:     3.380 HEAT: -4.480827
 CYCLE:    46 TIME:   0.008 TIME LEFT:  2.00D  GRAD.:     4.714 HEAT: -4.488603
 CYCLE:    47 TIME:   0.004 TIME LEFT:  2.00D  GRAD.:     4.811 HEAT: -4.496231
 CYCLE:    48 TIME:   0.004 TIME LEFT:  2.00D  GRAD.:     2.257 HEAT: -4.506525
 CYCLE:    49 TIME:   0.008 TIME LEFT:  2.00D  GRAD.:     1.707 HEAT: -4.511780
 CYCLE:    50 TIME:   0.004 TIME LEFT:  2.00D  GRAD.:     1.495 HEAT: -4.520608
 CYCLE:    51 TIME:   0.008 TIME LEFT:  2.00D  GRAD.:     1.627 HEAT: -4.526668
 CYCLE:    52 TIME:   0.004 TIME LEFT:  2.00D  GRAD.:     2.113 HEAT: -4.536230
 CYCLE:    53 TIME:   0.004 TIME LEFT:  2.00D  GRAD.:     2.233 HEAT: -4.543942
 CYCLE:    54 TIME:   0.008 TIME LEFT:  2.00D  GRAD.:     2.138 HEAT: -4.553718
 CYCLE:    55 TIME:   0.004 TIME LEFT:  2.00D  GRAD.:     2.164 HEAT: -4.559518
 CYCLE:    56 TIME:   0.008 TIME LEFT:  2.00D  GRAD.:     2.802 HEAT: -4.582040
 CYCLE:    57 TIME:   0.004 TIME LEFT:  2.00D  GRAD.:     4.025 HEAT: -4.591817
 CYCLE:    58 TIME:   0.004 TIME LEFT:  2.00D  GRAD.:     2.259 HEAT: -4.608248
 CYCLE:    59 TIME:   0.008 TIME LEFT:  2.00D  GRAD.:     3.591 HEAT: -4.614624
 CYCLE:    60 TIME:   0.004 TIME LEFT:  2.00D  GRAD.:     1.807 HEAT: -4.622620
 CYCLE:    61 TIME:   0.004 TIME LEFT:  2.00D  GRAD.:     1.516 HEAT: -4.631398
 CYCLE:    62 TIME:   0.008 TIME LEFT:  2.00D  GRAD.:     1.598 HEAT: -4.640343
 CYCLE:    63 TIME:   0.004 TIME LEFT:  2.00D  GRAD.:     1.577 HEAT: -4.646278
 CYCLE:    64 TIME:   0.008 TIME LEFT:  2.00D  GRAD.:     2.827 HEAT: -4.654834
 CYCLE:    65 TIME:   0.004 TIME LEFT:  2.00D  GRAD.:     2.021 HEAT: -4.664170
 CYCLE:    66 TIME:   0.004 TIME LEFT:  2.00D  GRAD.:     3.024 HEAT: -4.676181
 CYCLE:    67 TIME:   0.008 TIME LEFT:  2.00D  GRAD.:     2.666 HEAT: -4.692048
 CYCLE:    68 TIME:   0.004 TIME LEFT:  2.00D  GRAD.:     2.706 HEAT: -4.704122
 CYCLE:    69 TIME:   0.008 TIME LEFT:  2.00D  GRAD.:     2.298 HEAT: -4.720510
 CYCLE:    70 TIME:   0.004 TIME LEFT:  2.00D  GRAD.:     3.944 HEAT: -4.728189
 CYCLE:    71 TIME:   0.008 TIME LEFT:  2.00D  GRAD.:     1.996 HEAT: -4.742492
 CYCLE:    72 TIME:   0.004 TIME LEFT:  2.00D  GRAD.:     1.960 HEAT: -4.748010
 CYCLE:    73 TIME:   0.004 TIME LEFT:  2.00D  GRAD.:     1.726 HEAT: -4.753699
 CYCLE:    74 TIME:   0.008 TIME LEFT:  2.00D  GRAD.:     1.378 HEAT: -4.759070
 CYCLE:    75 TIME:   0.004 TIME LEFT:  2.00D  GRAD.:     1.483 HEAT: -4.763403
 CYCLE:    76 TIME:   0.004 TIME LEFT:  2.00D  GRAD.:     1.331 HEAT: -4.766122
 CYCLE:    77 TIME:   0.008 TIME LEFT:  2.00D  GRAD.:     0.906 HEAT: -4.767786
 CYCLE:    78 TIME:   0.004 TIME LEFT:  2.00D  GRAD.:     0.686 HEAT: -4.768660
 CYCLE:    79 TIME:   0.008 TIME LEFT:  2.00D  GRAD.:     0.561 HEAT: -4.769566
 CYCLE:    80 TIME:   0.004 TIME LEFT:  2.00D  GRAD.:     0.540 HEAT: -4.770457
 CYCLE:    81 TIME:   0.004 TIME LEFT:  2.00D  GRAD.:     0.619 HEAT: -4.771490
 CYCLE:    82 TIME:   0.008 TIME LEFT:  2.00D  GRAD.:     0.680 HEAT: -4.772509
 CYCLE:    83 TIME:   0.004 TIME LEFT:  2.00D  GRAD.:     0.848 HEAT: -4.774181
 CYCLE:    84 TIME:   0.008 TIME LEFT:  2.00D  GRAD.:     0.856 HEAT: -4.775611
 CYCLE:    85 TIME:   0.004 TIME LEFT:  2.00D  GRAD.:     1.528 HEAT: -4.779477
 CYCLE:    86 TIME:   0.008 TIME LEFT:  2.00D  GRAD.:     1.163 HEAT: -4.781167
 CYCLE:    87 TIME:   0.004 TIME LEFT:  2.00D  GRAD.:     1.035 HEAT: -4.786380
 CYCLE:    88 TIME:   0.004 TIME LEFT:  2.00D  GRAD.:     1.249 HEAT: -4.791800
 CYCLE:    89 TIME:   0.008 TIME LEFT:  2.00D  GRAD.:     2.105 HEAT: -4.796878
 CYCLE:    90 TIME:   0.004 TIME LEFT:  2.00D  GRAD.:     1.593 HEAT: -4.801808
 CYCLE:    91 TIME:   0.004 TIME LEFT:  2.00D  GRAD.:     1.934 HEAT: -4.805921
 CYCLE:    92 TIME:   0.008 TIME LEFT:  2.00D  GRAD.:     1.156 HEAT: -4.809967
 CYCLE:    93 TIME:   0.004 TIME LEFT:  2.00D  GRAD.:     1.682 HEAT: -4.812855
 CYCLE:    94 TIME:   0.008 TIME LEFT:  2.00D  GRAD.:     1.516 HEAT: -4.816258
 CYCLE:    95 TIME:   0.004 TIME LEFT:  2.00D  GRAD.:     1.635 HEAT: -4.817895
 CYCLE:    96 TIME:   0.008 TIME LEFT:  2.00D  GRAD.:     1.201 HEAT: -4.821157
 CYCLE:    97 TIME:   0.004 TIME LEFT:  2.00D  GRAD.:     2.129 HEAT: -4.822586
 CYCLE:    98 TIME:   0.004 TIME LEFT:  2.00D  GRAD.:     1.097 HEAT: -4.825731
 CYCLE:    99 TIME:   0.008 TIME LEFT:  2.00D  GRAD.:     0.897 HEAT: -4.828250
 CYCLE:   100 TIME:   0.004 TIME LEFT:  2.00D  GRAD.:     2.683 HEAT: -4.830277
 CYCLE:   101 TIME:   0.008 TIME LEFT:  2.00D  GRAD.:     1.717 HEAT: -4.832051
 CYCLE:   102 TIME:   0.004 TIME LEFT:  2.00D  GRAD.:     0.528 HEAT: -4.833802
 CYCLE:   103 TIME:   0.004 TIME LEFT:  2.00D  GRAD.:     0.855 HEAT: -4.834603
 CYCLE:   104 TIME:   0.008 TIME LEFT:  2.00D  GRAD.:     0.740 HEAT: -4.835290
 CYCLE:   105 TIME:   0.004 TIME LEFT:  2.00D  GRAD.:     0.440 HEAT: -4.835998
 CYCLE:   106 TIME:   0.008 TIME LEFT:  2.00D  GRAD.:     0.481 HEAT: -4.836298
 CYCLE:   107 TIME:   0.004 TIME LEFT:  2.00D  GRAD.:     0.313 HEAT: -4.836551
 CYCLE:   108 TIME:   0.008 TIME LEFT:  2.00D  GRAD.:     0.348 HEAT: -4.836940
 CYCLE:   109 TIME:   0.004 TIME LEFT:  2.00D  GRAD.:     0.406 HEAT: -4.837150
 CYCLE:   110 TIME:   0.004 TIME LEFT:  2.00D  GRAD.:     0.295 HEAT: -4.837402
 CYCLE:   111 TIME:   0.008 TIME LEFT:  2.00D  GRAD.:     0.374 HEAT: -4.837563
 CYCLE:   112 TIME:   0.004 TIME LEFT:  2.00D  GRAD.:     0.257 HEAT: -4.837698
 CYCLE:   113 TIME:   0.004 TIME LEFT:  2.00D  GRAD.:     0.457 HEAT: -4.837780
 CYCLE:   114 TIME:   0.008 TIME LEFT:  2.00D  GRAD.:     0.487 HEAT: -4.837914
 CYCLE:   115 TIME:   0.004 TIME LEFT:  2.00D  GRAD.:     0.588 HEAT: -4.838136
 CYCLE:   116 TIME:   0.008 TIME LEFT:  2.00D  GRAD.:     0.470 HEAT: -4.838422
 CYCLE:   117 TIME:   0.004 TIME LEFT:  2.00D  GRAD.:     0.607 HEAT: -4.838751
 CYCLE:   118 TIME:   0.008 TIME LEFT:  2.00D  GRAD.:     0.551 HEAT: -4.839052
 CYCLE:   119 TIME:   0.004 TIME LEFT:  2.00D  GRAD.:     0.909 HEAT: -4.839600
 CYCLE:   120 TIME:   0.004 TIME LEFT:  2.00D  GRAD.:     0.651 HEAT: -4.839920
 CYCLE:   121 TIME:   0.008 TIME LEFT:  2.00D  GRAD.:     0.583 HEAT: -4.840502
 CYCLE:   122 TIME:   0.004 TIME LEFT:  2.00D  GRAD.:     0.392 HEAT: -4.840817
 CYCLE:   123 TIME:   0.008 TIME LEFT:  2.00D  GRAD.:     0.235 HEAT: -4.841160
 CYCLE:   124 TIME:   0.004 TIME LEFT:  2.00D  GRAD.:     0.221 HEAT: -4.841320
 CYCLE:   125 TIME:   0.008 TIME LEFT:  2.00D  GRAD.:     0.183 HEAT: -4.841462
 CYCLE:   126 TIME:   0.004 TIME LEFT:  2.00D  GRAD.:     0.183 HEAT: -4.841557
 CYCLE:   127 TIME:   0.004 TIME LEFT:  2.00D  GRAD.:     0.292 HEAT: -4.841824
 CYCLE:   128 TIME:   0.008 TIME LEFT:  2.00D  GRAD.:     0.415 HEAT: -4.842063
 CYCLE:   129 TIME:   0.004 TIME LEFT:  2.00D  GRAD.:     0.941 HEAT: -4.842593
 CYCLE:   130 TIME:   0.008 TIME LEFT:  2.00D  GRAD.:     0.710 HEAT: -4.843389
 CYCLE:   131 TIME:   0.004 TIME LEFT:  2.00D  GRAD.:     0.475 HEAT: -4.843987
 CYCLE:   132 TIME:   0.008 TIME LEFT:  2.00D  GRAD.:     0.788 HEAT: -4.845110
 CYCLE:   133 TIME:   0.004 TIME LEFT:  2.00D  GRAD.:     0.526 HEAT: -4.845520
 CYCLE:   134 TIME:   0.008 TIME LEFT:  2.00D  GRAD.:     0.324 HEAT: -4.845898
 CYCLE:   135 TIME:   0.004 TIME LEFT:  2.00D  GRAD.:     0.259 HEAT: -4.846036
 CYCLE:   136 TIME:   0.004 TIME LEFT:  2.00D  GRAD.:     0.206 HEAT: -4.846074
 CYCLE:   137 TIME:   0.008 TIME LEFT:  2.00D  GRAD.:     0.563 HEAT: -4.845073
 CYCLE:   138 TIME:   0.004 TIME LEFT:  2.00D  GRAD.:     0.142 HEAT: -4.846113
 CYCLE:   139 TIME:   0.008 TIME LEFT:  2.00D  GRAD.:     0.121 HEAT: -4.846121
 CYCLE:   140 TIME:   0.004 TIME LEFT:  2.00D  GRAD.:     0.100 HEAT: -4.846126
 CYCLE:   141 TIME:   0.004 TIME LEFT:  2.00D  GRAD.:     0.073 HEAT: -4.846125
 CYCLE:   142 TIME:   0.008 TIME LEFT:  2.00D  GRAD.:     0.065 HEAT: -4.846132
 CYCLE:   143 TIME:   0.004 TIME LEFT:  2.00D  GRAD.:     0.058 HEAT: -4.846134
 CYCLE:   144 TIME:   0.004 TIME LEFT:  2.00D  GRAD.:     0.087 HEAT: -4.846110
 CYCLE:   145 TIME:   0.008 TIME LEFT:  2.00D  GRAD.:     0.048 HEAT: -4.846144

     GRADIENT =  0.04807  IS LESS THAN CUTOFF =  0.05000



 -------------------------------------------------------------------------------
 pm3  precise nosym THREADS=1
 InChI=1S/C7H12O4/c8-10-11-9-7-5-3-1-2-4-6-7/h1-2,7-8H,3-6H2



     GEOMETRY OPTIMISED USING EIGENVECTOR FOLLOWING (EF).     
     SCF FIELD WAS ACHIEVED                                   


                              PM3 CALCULATION
                                                       MOPAC2016 (Version: 18.184L)
                                                       Sat Jun 15 10:30:21 2019
                                                       No. of days remaining =  18




          FINAL HEAT OF FORMATION =         -4.84614 KCAL/MOL =     -20.27627 KJ/MOL


          TOTAL ENERGY            =      -2182.38493 EV
          ELECTRONIC ENERGY       =     -10936.88360 EV  POINT GROUP:     C1  
          CORE-CORE REPULSION     =       8754.49867 EV
          COSMO AREA              =        189.01 SQUARE ANGSTROMS
          COSMO VOLUME            =        193.21 CUBIC ANGSTROMS

          GRADIENT NORM           =          0.04807 = 0.01002 PER ATOM
          IONIZATION POTENTIAL    =          9.973892 EV
          HOMO LUMO ENERGIES (EV) =         -9.974  0.181
          NO. OF FILLED LEVELS    =         32
          MOLECULAR WEIGHT        =        160.1694

          MOLECULAR DIMENSIONS (Angstroms)

            Atom       Atom       Distance
            H    23    H    22     8.61501
            H    17    H    15     5.22139
            H    20    H    14     3.29886


          SCF CALCULATIONS        =        153
 
          WALL-CLOCK TIME         =          0.832 SECONDS
          COMPUTATION TIME        =          0.781 SECONDS




   ATOM   CHEMICAL          X               Y               Z
  NUMBER   SYMBOL      (ANGSTROMS)     (ANGSTROMS)     (ANGSTROMS)
 
     1       O          1.11594580  *  -0.54847794  *  -1.60769900  *
     2       O          2.55801054  *   0.06255472  *  -1.68133368  *
     3       O          3.05043072  *  -0.71320170  *  -2.59769611  *
     4       O          3.75129192  *  -1.72938775  *  -1.73873810  *
     5       C          0.50236075  *  -0.09290240  *  -0.42104248  *
     6       C         -0.47046734  *  -1.21191343  *  -0.00562188  *
     7       C         -0.20964803  *   1.24708904  *  -0.67347111  *
     8       C         -1.01645440  *  -1.00354110  *   1.40040448  *
     9       C         -0.71006884  *   1.88804489  *   0.61291543  *
    10       C         -2.11292943  *   0.00057967  *   1.45026323  *
    11       C         -1.97711460  *   1.28122444  *   1.10218693  *
    12       H          1.27497653  *   0.03949868  *   0.37882643  *
    13       H          0.05201779  *  -2.18916087  *  -0.04741589  *
    14       H         -1.30536914  *  -1.28393044  *  -0.73051969  *
    15       H          0.49226804  *   1.94292820  *  -1.17517860  *
    16       H         -1.04950834  *   1.10767124  *  -1.38244681  *
    17       H         -1.38813745  *  -1.97194491  *   1.78893671  *
    18       H         -0.20417240  *  -0.69661435  *   2.09204924  *
    19       H         -0.86409216  *   2.97137746  *   0.44152726  *
    20       H          0.06209128  *   1.81842715  *   1.40758569  *
    21       H         -3.08359539  *  -0.36365710  *   1.80665713  *
    22       H         -2.83775356  *   1.95631365  *   1.17596545  *
    23       H          3.67559175  *  -2.46037302  *  -2.32940961  *

                             CARTESIAN COORDINATES

   1    O        1.115945799    -0.548477938    -1.607698999
   2    O        2.558010538     0.062554724    -1.681333681
   3    O        3.050430724    -0.713201696    -2.597696108
   4    O        3.751291921    -1.729387747    -1.738738096
   5    C        0.502360746    -0.092902404    -0.421042480
   6    C       -0.470467338    -1.211913431    -0.005621875
   7    C       -0.209648035     1.247089043    -0.673471108
   8    C       -1.016454401    -1.003541098     1.400404479
   9    C       -0.710068840     1.888044885     0.612915428
  10    C       -2.112929429     0.000579671     1.450263233
  11    C       -1.977114595     1.281224439     1.102186928
  12    H        1.274976533     0.039498678     0.378826426
  13    H        0.052017792    -2.189160867    -0.047415894
  14    H       -1.305369136    -1.283930445    -0.730519692
  15    H        0.492268039     1.942928200    -1.175178602
  16    H       -1.049508344     1.107671236    -1.382446810
  17    H       -1.388137451    -1.971944914     1.788936708
  18    H       -0.204172395    -0.696614353     2.092049237
  19    H       -0.864092157     2.971377456     0.441527258
  20    H        0.062091284     1.818427153     1.407585687
  21    H       -3.083595393    -0.363657098     1.806657133
  22    H       -2.837753557     1.956313648     1.175965449
  23    H        3.675591755    -2.460373019    -2.329409608


           Empirical Formula: C7 H12 O4  =    23 atoms



      MOLECULAR POINT GROUP   :   C1  


                  EIGENVALUES  
 -41.00793 -35.77783 -34.89232 -34.27783 -32.48772 -30.69235 -29.67126 -23.64100
 -23.59944 -20.70405 -19.32157 -18.77053 -18.40944 -17.83011 -17.46016 -16.31345
 -16.09659 -15.55318 -15.44991 -14.69707 -14.50786 -13.74233 -13.44896 -13.21072
 -13.02635 -12.38424 -12.32598 -12.19672 -11.61998 -11.47207 -11.19059  -9.97389
   0.18146   0.94621   0.96206   3.12415   3.30544   3.35536   3.47464   3.54789
   3.63295   3.66481   3.79923   3.88911   4.04503   4.17532   4.28307   4.34595
   4.43076   4.52982   4.58074   4.88815   4.91001   5.15302   5.57939   5.82009


              NET ATOMIC CHARGES AND DIPOLE CONTRIBUTIONS

  ATOM NO.   TYPE          CHARGE      No. of ELECS.   s-Pop       p-Pop       
    1          O          -0.179882        6.1799     1.91384     4.26604
    2          O           0.012218        5.9878     1.94246     4.04532
    3          O           0.033796        5.9662     1.93352     4.03269
    4          O          -0.223273        6.2233     1.86598     4.35730
    5          C           0.056765        3.9432     1.18118     2.76206
    6          C          -0.103545        4.1035     1.16500     2.93855
    7          C          -0.125813        4.1258     1.16980     2.95601
    8          C          -0.057071        4.0571     1.14651     2.91056
    9          C          -0.057218        4.0572     1.14616     2.91106
   10          C          -0.148493        4.1485     1.19593     2.95256
   11          C          -0.143701        4.1437     1.19600     2.94770
   12          H           0.073143        0.9269     0.92686
   13          H           0.061746        0.9383     0.93825
   14          H           0.065325        0.9347     0.93467
   15          H           0.060514        0.9395     0.93949
   16          H           0.066275        0.9337     0.93372
   17          H           0.051584        0.9484     0.94842
   18          H           0.059115        0.9409     0.94088
   19          H           0.051506        0.9485     0.94849
   20          H           0.058049        0.9420     0.94195
   21          H           0.097135        0.9029     0.90287
   22          H           0.096865        0.9031     0.90313
   23          H           0.194959        0.8050     0.80504
 DIPOLE           X         Y         Z       TOTAL
 POINT-CHG.    -0.551    -0.217     0.537     0.799
 HYBRID        -0.158    -0.363    -0.159     0.426
 SUM           -0.709    -0.580     0.378     0.991


          ATOMIC ORBITAL ELECTRON POPULATIONS

     Atom    s        px        py        pz   
    1  O   1.91384   1.16372   1.67433   1.42799
    2  O   1.94246   1.13882   1.38451   1.52199
    3  O   1.93352   1.63171   1.32051   1.08046
    4  O   1.86598   1.76943   1.24936   1.33851
    5  C   1.18118   0.93743   0.93733   0.88730
    6  C   1.16500   0.99115   0.97657   0.97082
    7  C   1.16980   1.01338   0.96758   0.97505
    8  C   1.14651   0.97480   0.97873   0.95702
    9  C   1.14616   0.96041   0.98522   0.96543
   10  C   1.19593   0.98660   0.95565   1.01030
   11  C   1.19600   0.98134   0.96387   1.00249
   12  H   0.92686
   13  H   0.93825
   14  H   0.93467
   15  H   0.93949
   16  H   0.93372
   17  H   0.94842
   18  H   0.94088
   19  H   0.94849
   20  H   0.94195
   21  H   0.90287
   22  H   0.90313
   23  H   0.80504
 *******************************************************************************
 ** Site#: 14399        For non-commercial use only    Version 18.184L 64BITS **
 *******************************************************************************
 ** Cite this program as: MOPAC2016, Version: 18.184L, James J. P. Stewart,   **
 ** Stewart Computational Chemistry, web: HTTP://OpenMOPAC.net. Days left:  18**
 *******************************************************************************
 **                                                                           **
 **                                MOPAC2016                                  **
 **                                                                           **
 *******************************************************************************

                              PM3 CALCULATION RESULTS

 *******************************************************************************
 *  CALCULATION DONE:                                Sat Jun 15 10:30:21 2019  *
 *  PM3        - The PM3 Hamiltonian to be used
 *  OLDGEO     - PREVIOUS GEOMETRY TO BE USED
 *  PRECISE    - CRITERIA TO BE INCREASED BY 100 TIMES
 *  NOSYM      - POINT-GROUP SYMMETRY SET TO C1
 *  THREADS=1  - MULTI-THREADING NOT USED
 *  T=         - A TIME OF 172800.0 SECONDS REQUESTED
 *  DUMP=N     - RESTART FILE WRITTEN EVERY  7200.000 SECONDS
 *  THERMO     - THERMODYNAMIC QUANTITIES TO BE CALCULATED
 *******************************************************************************
oldgeo thermo nosym precise THREADS=1  pm3
 InChI=1S/C7H12O4/c8-10-11-9-7-5-3-1-2-4-6-7/h1-2,7-8H,3-6H2

   ATOM   CHEMICAL          X               Y               Z
  NUMBER   SYMBOL      (ANGSTROMS)     (ANGSTROMS)     (ANGSTROMS)
 
     1       O          1.11594580  *  -0.54847794  *  -1.60769900  *
     2       O          2.55801054  *   0.06255472  *  -1.68133368  *
     3       O          3.05043072  *  -0.71320170  *  -2.59769611  *
     4       O          3.75129192  *  -1.72938775  *  -1.73873810  *
     5       C          0.50236075  *  -0.09290240  *  -0.42104248  *
     6       C         -0.47046734  *  -1.21191343  *  -0.00562188  *
     7       C         -0.20964803  *   1.24708904  *  -0.67347111  *
     8       C         -1.01645440  *  -1.00354110  *   1.40040448  *
     9       C         -0.71006884  *   1.88804489  *   0.61291543  *
    10       C         -2.11292943  *   0.00057967  *   1.45026323  *
    11       C         -1.97711460  *   1.28122444  *   1.10218693  *
    12       H          1.27497653  *   0.03949868  *   0.37882643  *
    13       H          0.05201779  *  -2.18916087  *  -0.04741589  *
    14       H         -1.30536914  *  -1.28393044  *  -0.73051969  *
    15       H          0.49226804  *   1.94292820  *  -1.17517860  *
    16       H         -1.04950834  *   1.10767124  *  -1.38244681  *
    17       H         -1.38813745  *  -1.97194491  *   1.78893671  *
    18       H         -0.20417240  *  -0.69661435  *   2.09204924  *
    19       H         -0.86409216  *   2.97137746  *   0.44152726  *
    20       H          0.06209128  *   1.81842715  *   1.40758569  *
    21       H         -3.08359539  *  -0.36365710  *   1.80665713  *
    22       H         -2.83775356  *   1.95631365  *   1.17596545  *
    23       H          3.67559175  *  -2.46037302  *  -2.32940961  *
 


          CARTESIAN COORDINATES 

    NO.       ATOM           X           Y           Z

     1         O          1.1159     -0.5485     -1.6077
     2         O          2.5580      0.0626     -1.6813
     3         O          3.0504     -0.7132     -2.5977
     4         O          3.7513     -1.7294     -1.7387
     5         C          0.5024     -0.0929     -0.4210
     6         C         -0.4705     -1.2119     -0.0056
     7         C         -0.2096      1.2471     -0.6735
     8         C         -1.0165     -1.0035      1.4004
     9         C         -0.7101      1.8880      0.6129
    10         C         -2.1129      0.0006      1.4503
    11         C         -1.9771      1.2812      1.1022
    12         H          1.2750      0.0395      0.3788
    13         H          0.0520     -2.1892     -0.0474
    14         H         -1.3054     -1.2839     -0.7305
    15         H          0.4923      1.9429     -1.1752
    16         H         -1.0495      1.1077     -1.3824
    17         H         -1.3881     -1.9719      1.7889
    18         H         -0.2042     -0.6966      2.0920
    19         H         -0.8641      2.9714      0.4415
    20         H          0.0621      1.8184      1.4076
    21         H         -3.0836     -0.3637      1.8067
    22         H         -2.8378      1.9563      1.1760
    23         H          3.6756     -2.4604     -2.3294

  H: (PM3): J. J. P. STEWART, J. COMP. CHEM. 10, 209 (1989).
  C: (PM3): J. J. P. STEWART, J. COMP. CHEM. 10, 209 (1989).
  O: (PM3): J. J. P. STEWART, J. COMP. CHEM. 10, 209 (1989).

           Empirical Formula: C7 H12 O4  =    23 atoms



      MOLECULAR POINT GROUP   :   C1  


      RHF CALCULATION, NO. OF DOUBLY OCCUPIED LEVELS = 32



          HEAT OF FORMATION =      -4.846144 KCALS/MOLE


          CARTESIAN COORDINATE DERIVATIVES

   NUMBER  ATOM         X            Y            Z

     1       O     -0.003568    -0.002448     0.004905
     2       O      0.000530     0.012883     0.007796
     3       O      0.000038    -0.005009     0.002004
     4       O      0.013706     0.010950     0.025239
     5       C      0.002600     0.000538    -0.000896
     6       C      0.000869    -0.002855    -0.001175
     7       C      0.010797     0.001334    -0.006562
     8       C     -0.005808    -0.001355     0.002208
     9       C      0.002837     0.002954    -0.006289
    10       C     -0.002710    -0.004850     0.002499
    11       C     -0.000499     0.000490    -0.003700
    12       H     -0.000054    -0.003210     0.002869
    13       H     -0.007083    -0.001367    -0.003778
    14       H      0.000995     0.000867    -0.002266
    15       H      0.004515     0.000902     0.001613
    16       H      0.001881     0.001625    -0.004654
    17       H     -0.002322     0.002403     0.000424
    18       H     -0.001514    -0.000731    -0.000935
    19       H      0.003004    -0.001781     0.001239
    20       H     -0.006927    -0.000409    -0.001008
    21       H     -0.007679    -0.005927     0.001780
    22       H     -0.001899     0.001645     0.001940
    23       H     -0.001709    -0.006646    -0.023252
 


          GRADIENT NORM =   0.04988


          TIME FOR SCF CALCULATION =    0.00

          TIME FOR DERIVATIVES     =    0.00

          MOLECULAR WEIGHT =  160.17



          ROTATIONAL CONSTANTS IN CM(-1)

          A =    0.08688059   B =    0.01747483   C =    0.01545788



           PRINCIPAL MOMENTS OF INERTIA IN UNITS OF 10**(-40)*GRAM-CM**2

          A =      322.1982   B =     1601.8910   C =     1810.9064


          ORIENTATION OF MOLECULE IN FORCE CALCULATION

    NO.       ATOM         X         Y         Z

     1          O       0.3968    1.2106    0.3583
     2          O       1.9647    1.2106    0.3583
     3          O       2.1583    2.4938    0.3583
     4          O       2.3665    2.7322   -1.1118
     5          C      -0.0457   -0.0810    0.0002
     6          C      -1.3961    0.1293   -0.7093
     7          C      -0.1665   -0.9658    1.2527
     8          C      -1.8831   -1.1368   -1.4009
     9          C      -0.4374   -2.4231    0.9080
    10          C      -2.5026   -2.1068   -0.4583
    11          C      -1.8622   -2.6769    0.5637
    12          H       0.6789   -0.5451   -0.7165
    13          H      -1.2944    0.9351   -1.4644
    14          H      -2.1580    0.4851    0.0122
    15          H       0.7738   -0.9007    1.8359
    16          H      -0.9600   -0.5778    1.9215
    17          H      -2.6206   -0.8602   -2.1796
    18          H      -1.0489   -1.6305   -1.9419
    19          H      -0.1488   -3.0583    1.7682
    20          H       0.2083   -2.7497    0.0660
    21          H      -3.5540   -2.3549   -0.6448
    22          H      -2.3942   -3.3878    1.2069
    23          H       2.0398    3.6162   -1.1388


    FIRST DERIVATIVES WILL BE USED IN THE CALCULATION OF SECOND DERIVATIVES

          ESTIMATED TIME TO COMPLETE CALCULATION =        2.16 SECONDS

    FOR POINT-GROUP C1   THERE ARE   1 UNIQUE SYMMETRY FUNCTIONS.

 STEP:   1 TIME =     0.02 SECS, INTEGRAL =      0.02 TIME LEFT: 172799.97
 STEP:   2 TIME =     0.02 SECS, INTEGRAL =      0.05 TIME LEFT: 172799.95
 STEP:   3 TIME =     0.03 SECS, INTEGRAL =      0.07 TIME LEFT: 172799.92
 STEP:   4 TIME =     0.02 SECS, INTEGRAL =      0.10 TIME LEFT: 172799.89
 STEP:   5 TIME =     0.02 SECS, INTEGRAL =      0.12 TIME LEFT: 172799.87
 STEP:   6 TIME =     0.02 SECS, INTEGRAL =      0.14 TIME LEFT: 172799.85
 STEP:   7 TIME =     0.03 SECS, INTEGRAL =      0.17 TIME LEFT: 172799.82
 STEP:   8 TIME =     0.02 SECS, INTEGRAL =      0.20 TIME LEFT: 172799.80
 STEP:   9 TIME =     0.02 SECS, INTEGRAL =      0.22 TIME LEFT: 172799.77
 STEP:  10 TIME =     0.02 SECS, INTEGRAL =      0.24 TIME LEFT: 172799.75
 STEP:  11 TIME =     0.02 SECS, INTEGRAL =      0.27 TIME LEFT: 172799.73
 STEP:  12 TIME =     0.02 SECS, INTEGRAL =      0.29 TIME LEFT: 172799.70
 STEP:  13 TIME =     0.02 SECS, INTEGRAL =      0.31 TIME LEFT: 172799.68
 STEP:  14 TIME =     0.02 SECS, INTEGRAL =      0.34 TIME LEFT: 172799.66
 STEP:  15 TIME =     0.03 SECS, INTEGRAL =      0.36 TIME LEFT: 172799.63
 STEP:  16 TIME =     0.02 SECS, INTEGRAL =      0.38 TIME LEFT: 172799.61
 STEP:  17 TIME =     0.02 SECS, INTEGRAL =      0.41 TIME LEFT: 172799.59
 STEP:  18 TIME =     0.02 SECS, INTEGRAL =      0.43 TIME LEFT: 172799.57
 STEP:  19 TIME =     0.03 SECS, INTEGRAL =      0.45 TIME LEFT: 172799.54
 STEP:  20 TIME =     0.02 SECS, INTEGRAL =      0.48 TIME LEFT: 172799.52
 STEP:  21 TIME =     0.02 SECS, INTEGRAL =      0.50 TIME LEFT: 172799.49
 STEP:  22 TIME =     0.02 SECS, INTEGRAL =      0.52 TIME LEFT: 172799.47
 STEP:  23 TIME =     0.02 SECS, INTEGRAL =      0.55 TIME LEFT: 172799.45
 STEP:  24 TIME =     0.02 SECS, INTEGRAL =      0.57 TIME LEFT: 172799.42
 STEP:  25 TIME =     0.02 SECS, INTEGRAL =      0.59 TIME LEFT: 172799.40
 STEP:  26 TIME =     0.02 SECS, INTEGRAL =      0.61 TIME LEFT: 172799.38
 STEP:  27 TIME =     0.02 SECS, INTEGRAL =      0.64 TIME LEFT: 172799.36
 STEP:  28 TIME =     0.02 SECS, INTEGRAL =      0.66 TIME LEFT: 172799.33
 STEP:  29 TIME =     0.02 SECS, INTEGRAL =      0.68 TIME LEFT: 172799.31
 STEP:  30 TIME =     0.02 SECS, INTEGRAL =      0.71 TIME LEFT: 172799.29
 STEP:  31 TIME =     0.02 SECS, INTEGRAL =      0.73 TIME LEFT: 172799.26
 STEP:  32 TIME =     0.02 SECS, INTEGRAL =      0.75 TIME LEFT: 172799.24
 STEP:  33 TIME =     0.02 SECS, INTEGRAL =      0.78 TIME LEFT: 172799.21
 STEP:  34 TIME =     0.02 SECS, INTEGRAL =      0.80 TIME LEFT: 172799.19
 STEP:  35 TIME =     0.02 SECS, INTEGRAL =      0.82 TIME LEFT: 172799.17
 STEP:  36 TIME =     0.02 SECS, INTEGRAL =      0.85 TIME LEFT: 172799.14
 STEP:  37 TIME =     0.02 SECS, INTEGRAL =      0.87 TIME LEFT: 172799.12
 STEP:  38 TIME =     0.02 SECS, INTEGRAL =      0.89 TIME LEFT: 172799.10
 STEP:  39 TIME =     0.02 SECS, INTEGRAL =      0.92 TIME LEFT: 172799.07
 STEP:  40 TIME =     0.02 SECS, INTEGRAL =      0.94 TIME LEFT: 172799.05
 STEP:  41 TIME =     0.02 SECS, INTEGRAL =      0.96 TIME LEFT: 172799.03
 STEP:  42 TIME =     0.02 SECS, INTEGRAL =      0.99 TIME LEFT: 172799.00
 STEP:  43 TIME =     0.02 SECS, INTEGRAL =      1.01 TIME LEFT: 172798.98
 STEP:  44 TIME =     0.02 SECS, INTEGRAL =      1.04 TIME LEFT: 172798.96
 STEP:  45 TIME =     0.02 SECS, INTEGRAL =      1.06 TIME LEFT: 172798.93
 STEP:  46 TIME =     0.02 SECS, INTEGRAL =      1.08 TIME LEFT: 172798.91
 STEP:  47 TIME =     0.02 SECS, INTEGRAL =      1.11 TIME LEFT: 172798.89
 STEP:  48 TIME =     0.02 SECS, INTEGRAL =      1.13 TIME LEFT: 172798.86
 STEP:  49 TIME =     0.02 SECS, INTEGRAL =      1.15 TIME LEFT: 172798.84
 STEP:  50 TIME =     0.02 SECS, INTEGRAL =      1.18 TIME LEFT: 172798.82
 STEP:  51 TIME =     0.02 SECS, INTEGRAL =      1.20 TIME LEFT: 172798.79
 STEP:  52 TIME =     0.02 SECS, INTEGRAL =      1.22 TIME LEFT: 172798.77
 STEP:  53 TIME =     0.02 SECS, INTEGRAL =      1.25 TIME LEFT: 172798.75
 STEP:  54 TIME =     0.02 SECS, INTEGRAL =      1.27 TIME LEFT: 172798.72
 STEP:  55 TIME =     0.02 SECS, INTEGRAL =      1.29 TIME LEFT: 172798.70
 STEP:  56 TIME =     0.03 SECS, INTEGRAL =      1.32 TIME LEFT: 172798.67
 STEP:  57 TIME =     0.02 SECS, INTEGRAL =      1.34 TIME LEFT: 172798.65
 STEP:  58 TIME =     0.02 SECS, INTEGRAL =      1.37 TIME LEFT: 172798.62
 STEP:  59 TIME =     0.02 SECS, INTEGRAL =      1.39 TIME LEFT: 172798.60
 STEP:  60 TIME =     0.02 SECS, INTEGRAL =      1.41 TIME LEFT: 172798.58
 STEP:  61 TIME =     0.02 SECS, INTEGRAL =      1.44 TIME LEFT: 172798.55
 STEP:  62 TIME =     0.02 SECS, INTEGRAL =      1.46 TIME LEFT: 172798.53
 STEP:  63 TIME =     0.02 SECS, INTEGRAL =      1.48 TIME LEFT: 172798.51
 STEP:  64 TIME =     0.02 SECS, INTEGRAL =      1.51 TIME LEFT: 172798.48
 STEP:  65 TIME =     0.02 SECS, INTEGRAL =      1.53 TIME LEFT: 172798.46
 STEP:  66 TIME =     0.02 SECS, INTEGRAL =      1.55 TIME LEFT: 172798.44
 STEP:  67 TIME =     0.02 SECS, INTEGRAL =      1.58 TIME LEFT: 172798.41
 STEP:  68 TIME =     0.02 SECS, INTEGRAL =      1.60 TIME LEFT: 172798.39
 STEP:  69 TIME =     0.02 SECS, INTEGRAL =      1.62 TIME LEFT: 172798.37

(To convert to Hartree/Bohr^2, multiply by (10^(-21) x N x a0^2)/(4.184 x 627.51) =  0.0642)


           FORCE MATRIX IN MILLIDYNES/ANGSTROM


                  O  1       O  2       O  3       O  4       C  5       C  6
 ------------------------------------------------------------------------------
     O    1   7.600003
     O    2   3.021892   6.801935
     O    3   1.217482   4.795821   6.456810
     O    4   0.111659   1.400422   2.405561   9.778854
     C    5   4.933898   0.875630   0.292464   0.017886  14.129131
     C    6   0.902786   0.083167   0.060724   0.005705   3.549524  14.051184
     C    7   0.875408   0.051094   0.011878   0.004446   3.584001   0.551823
     C    8   0.061456   0.011745   0.012564   0.003269   0.604944   4.068360
     C    9   0.072105   0.010716   0.005880   0.002246   0.583292   0.036299
     C   10   0.004501   0.003558   0.002779   0.001795   0.027185   0.663593
     C   11   0.006699   0.002729   0.001428   0.001717   0.032083   0.039090
     H   12   0.435152   0.100052   0.013880   0.003363   4.092054   0.422158
     H   13   0.097249   0.004475   0.004138   0.002078   0.456012   4.455749
     H   14   0.047448   0.005179   0.003857   0.001078   0.458176   4.475867
     H   15   0.063871   0.014275   0.005040   0.001973   0.448374   0.046996
     H   16   0.031947   0.004200   0.002348   0.000897   0.460142   0.023329
     H   17   0.010062   0.002279   0.003101   0.001126   0.048153   0.430327
     H   18   0.003753   0.001289   0.001016   0.000715   0.041336   0.452236
     H   19   0.011904   0.003141   0.002113   0.000874   0.042734   0.001852
     H   20   0.005154   0.001283   0.001094   0.000698   0.044369   0.005375
     H   21   0.001119   0.001147   0.000762   0.000674   0.002436   0.026309
     H   22   0.001636   0.000867   0.000702   0.000623   0.002728   0.015365
     H   23   0.019098   0.290134   0.826238   8.653563   0.007617   0.002183


                  C  7       C  8       C  9       C 10       C 11       H 12
 ------------------------------------------------------------------------------
     C    7  14.150708
     C    8   0.037171  14.595411
     C    9   4.100516   0.113334  14.613387
     C   10   0.039474   4.969605   0.790692  18.072413
     C   11   0.665755   0.790941   4.969488  10.661646  18.073906
     H   12   0.423646   0.034420   0.033474   0.002722   0.002497   4.509377
     H   13   0.046712   0.432645   0.003049   0.046548   0.003196   0.020717
     H   14   0.022970   0.444674   0.003291   0.030175   0.005410   0.041020
     H   15   4.468028   0.003426   0.432648   0.003153   0.046369   0.021083
     H   16   4.479334   0.003430   0.443891   0.005253   0.030469   0.042171
     H   17   0.001594   4.482789   0.002843   0.436453   0.051120   0.002179
     H   18   0.005211   4.374862   0.022956   0.424366   0.026985   0.029621
     H   19   0.433142   0.002859   4.485656   0.051199   0.437003   0.001820
     H   20   0.452112   0.022932   4.370190   0.027248   0.424138   0.029678
     H   21   0.015581   0.432929   0.124678   4.812996   0.440965   0.000455
     H   22   0.026428   0.124468   0.433142   0.440536   4.813222   0.000499
     H   23   0.001855   0.000826   0.000788   0.001410   0.000882   0.000872


                  H 13       H 14       H 15       H 16       H 17       H 18
 ------------------------------------------------------------------------------
     H   13   5.066537
     H   14   0.559902   5.095398
     H   15   0.008170   0.002627   5.076866
     H   16   0.002584   0.024738   0.568741   5.100970
     H   17   0.036705   0.018648   0.000292   0.000304   5.055016
     H   18   0.017172   0.043596   0.000587   0.000817   0.568832   4.985600
     H   19   0.000248   0.000288   0.036907   0.018356   0.000417   0.000727
     H   20   0.000585   0.000788   0.017179   0.043531   0.000732   0.013752
     H   21   0.003708   0.002975   0.002379   0.000788   0.032889   0.024367
     H   22   0.002401   0.000881   0.003685   0.002917   0.006224   0.012615
     H   23   0.000961   0.000321   0.000436   0.000235   0.000301   0.000225


                  H 19       H 20       H 21       H 22       H 23
 ------------------------------------------------------------------
     H   19   5.058291
     H   20   0.569312   4.981260
     H   21   0.006295   0.012625   5.166653
     H   22   0.032872   0.024388   0.074876   5.166556
     H   23   0.000298   0.000304   0.000305   0.000169   8.944194


          HEAT OF FORMATION =      -4.846144 KCALS/MOLE

          ZERO POINT ENERGY     115.818 KCAL/MOL


           NORMAL COORDINATE ANALYSIS (Total motion = 1 Angstrom)


   Root No.       1         2         3         4         5         6         7         8

                 1 A       2 A       3 A       4 A       5 A       6 A       7 A       8 A   

                  17.4      29.2      79.7     135.4     151.7     185.5     197.9     257.9
  
           1    0.0104   -0.0213    0.0064   -0.0078    0.0059   -0.0194   -0.0195    0.0074
           2   -0.0108    0.0169   -0.0111   -0.0084   -0.0137    0.0105    0.0154    0.0167
           3   -0.0483   -0.0426    0.0005    0.0271    0.0077    0.0397    0.0051   -0.0186
           4    0.0111   -0.0215    0.0039   -0.0077    0.0051   -0.0131   -0.0157    0.0401
           5   -0.0203    0.0057    0.0185    0.0204    0.0200    0.0017   -0.0033    0.0469
           6   -0.0566    0.0283    0.0279   -0.0293   -0.0220   -0.0156   -0.0066    0.0539
           7    0.0158   -0.0132   -0.0270   -0.0185   -0.0314    0.0242    0.0218    0.0827
           8   -0.0211    0.0046    0.0241    0.0212    0.0293   -0.0055   -0.0107    0.0296
           9    0.0337    0.0152    0.0027   -0.0141   -0.0221   -0.0054    0.0012    0.0041
          10    0.0074    0.0645   -0.0091    0.0279    0.0802    0.0227    0.0006   -0.0117
          11    0.0850   -0.0248   -0.0037    0.0176    0.0319    0.0094   -0.0006    0.0218
          12    0.0504    0.0214    0.0011   -0.0143   -0.0001   -0.0028   -0.0002   -0.0255
          13    0.0015   -0.0141    0.0255    0.0008    0.0025   -0.0119   -0.0101    0.0116
          14   -0.0142    0.0101   -0.0142   -0.0089   -0.0158    0.0147    0.0131    0.0077
          15   -0.0243   -0.0272   -0.0150    0.0162    0.0157    0.0124    0.0024   -0.0064
          16    0.0013   -0.0307    0.0287    0.0024   -0.0048    0.0053   -0.0242   -0.0098
          17   -0.0187   -0.0021   -0.0108   -0.0094   -0.0065   -0.0009   -0.0119   -0.0246
          18   -0.0252    0.0006   -0.0213    0.0125    0.0308   -0.0247    0.0235    0.0150
          19   -0.0010    0.0182    0.0295   -0.0011   -0.0018   -0.0271    0.0342   -0.0211
          20    0.0096    0.0097   -0.0232   -0.0212   -0.0198   -0.0024   -0.0043   -0.0017
          21   -0.0077   -0.0245   -0.0208    0.0083    0.0130   -0.0006   -0.0052   -0.0141
          22   -0.0099   -0.0334    0.0055    0.0077   -0.0044    0.0087    0.0340   -0.0223
          23   -0.0287   -0.0068   -0.0140   -0.0059    0.0084   -0.0210   -0.0178   -0.0263
          24    0.0010    0.0111    0.0012    0.0022    0.0041    0.0066   -0.0108    0.0177
          25   -0.0126    0.0265   -0.0096   -0.0142   -0.0212    0.0135   -0.0084   -0.0347
          26    0.0051    0.0070   -0.0160   -0.0172   -0.0168   -0.0034    0.0036   -0.0037
          27    0.0206   -0.0191   -0.0208   -0.0015    0.0112   -0.0346   -0.0048   -0.0124
          28   -0.0147   -0.0046   -0.0249   -0.0079   -0.0066   -0.0084    0.0017   -0.0328
          29   -0.0057   -0.0129    0.0261   -0.0029   -0.0092    0.0040   -0.0029   -0.0470
          30    0.0215    0.0238    0.0228   -0.0049   -0.0160    0.0227   -0.0168   -0.0089
          31   -0.0157    0.0220   -0.0266   -0.0163   -0.0165    0.0043   -0.0163   -0.0307
          32    0.0091   -0.0072    0.0211   -0.0069   -0.0131   -0.0094    0.0237   -0.0405
          33    0.0304    0.0103    0.0212   -0.0019   -0.0121    0.0075    0.0095   -0.0070
          34   -0.0030   -0.0230    0.0332    0.0051   -0.0040    0.0073   -0.0143    0.0154
          35   -0.0317    0.0180   -0.0015   -0.0016   -0.0186    0.0259    0.0326    0.0130
          36   -0.0175   -0.0410   -0.0148    0.0159    0.0118    0.0233   -0.0156   -0.0032
          37    0.0052   -0.0543    0.0430    0.0028   -0.0174    0.0320   -0.0675   -0.0415
          38   -0.0343   -0.0015   -0.0263   -0.0036    0.0124   -0.0285    0.0198   -0.0233
          39   -0.0413   -0.0019   -0.0360    0.0188    0.0492   -0.0504    0.0522    0.0126
          40    0.0057   -0.0190    0.0337   -0.0010   -0.0004   -0.0087   -0.0336    0.0017
          41    0.0010   -0.0091    0.0148   -0.0166   -0.0280    0.0311   -0.0721   -0.0362
          42   -0.0302    0.0165   -0.0285    0.0125    0.0463   -0.0557    0.0433    0.0332
          43    0.0013    0.0284    0.0426    0.0022    0.0024   -0.0462    0.0662   -0.0309
          44    0.0137    0.0189   -0.0465   -0.0335   -0.0336    0.0119   -0.0301   -0.0171
          45   -0.0118   -0.0419   -0.0393    0.0043    0.0076    0.0281   -0.0535    0.0026
          46    0.0038    0.0270    0.0510    0.0048    0.0067   -0.0560    0.0762   -0.0271
          47    0.0277    0.0022   -0.0097   -0.0213   -0.0130   -0.0298    0.0018    0.0073
          48   -0.0125   -0.0097   -0.0031    0.0153    0.0190   -0.0190    0.0407   -0.0262
          49   -0.0098   -0.0523    0.0187    0.0190   -0.0031    0.0216    0.0718   -0.0196
          50   -0.0385   -0.0136   -0.0148   -0.0024    0.0250   -0.0409   -0.0363   -0.0128
          51   -0.0026    0.0266   -0.0115   -0.0072    0.0088   -0.0125   -0.0523    0.0197
          52   -0.0149   -0.0401   -0.0012    0.0131   -0.0044    0.0157    0.0693   -0.0248
          53   -0.0455    0.0011   -0.0459   -0.0081    0.0182   -0.0386   -0.0108   -0.0266
          54    0.0086   -0.0064    0.0201    0.0126   -0.0047    0.0330    0.0371    0.0140
          55   -0.0142    0.0509    0.0024   -0.0176   -0.0416    0.0584   -0.0102   -0.0230
          56    0.0192    0.0096   -0.0275   -0.0250   -0.0168   -0.0245   -0.0034    0.0021
          57    0.0314   -0.0254   -0.0334   -0.0062    0.0183   -0.0659   -0.0093   -0.0119
          58   -0.0180    0.0125   -0.0415   -0.0175   -0.0118   -0.0058   -0.0251   -0.0387
          59   -0.0153    0.0140   -0.0242   -0.0159   -0.0269    0.0404   -0.0077   -0.0025
          60    0.0244   -0.0326   -0.0421   -0.0046    0.0224   -0.0666   -0.0135   -0.0163
          61   -0.0171   -0.0061   -0.0380   -0.0090   -0.0013   -0.0192    0.0020   -0.0219
          62   -0.0012   -0.0230    0.0668    0.0067   -0.0183    0.0343    0.0070   -0.0713
          63    0.0295    0.0454    0.0441   -0.0107   -0.0343    0.0458   -0.0290   -0.0369
          64   -0.0189    0.0422   -0.0367   -0.0231   -0.0225    0.0147   -0.0310   -0.0106
          65    0.0255   -0.0126    0.0538   -0.0020   -0.0236    0.0006    0.0563   -0.0657
          66    0.0460    0.0211    0.0485   -0.0021   -0.0283    0.0262    0.0331   -0.0186
          67   -0.0200    0.0909   -0.0334    0.4591   -0.2226   -0.0572   -0.0297    0.0061
          68    0.0767   -0.0160   -0.0134    0.1791   -0.0824   -0.0204   -0.0117    0.0289
          69    0.1099   -0.0084   -0.0246    0.0701   -0.0926   -0.0121    0.0033    0.0032


   Root No.       9        10        11        12        13        14        15        16

                 9 A      10 A      11 A      12 A      13 A      14 A      15 A      16 A   

                 288.8     344.2     364.6     396.4     433.6     473.8     479.2     581.1
  
           1   -0.0267   -0.0036    0.0410    0.0072   -0.0030   -0.0070   -0.0031    0.0229
           2    0.0029   -0.0044    0.0029   -0.0365   -0.0196    0.0035   -0.0012    0.0635
           3    0.0331    0.0025    0.0601    0.0337    0.0096   -0.0042    0.0194   -0.0055
           4   -0.0226   -0.0017    0.0319    0.0338    0.0149   -0.0306   -0.0255    0.0113
           5    0.0076    0.0008   -0.0096   -0.0140    0.0312   -0.0047   -0.0090   -0.0162
           6   -0.0012    0.0006   -0.0284    0.0579   -0.0311    0.0023    0.0050    0.0013
           7    0.0264    0.0031   -0.0337   -0.0147    0.0254    0.0043   -0.0012   -0.0180
           8   -0.0019   -0.0009    0.0094   -0.0238    0.0364   -0.0063   -0.0106   -0.0100
           9   -0.0001   -0.0001    0.0045   -0.0142    0.0137   -0.0035   -0.0046   -0.0054
          10    0.0053    0.0007   -0.0027    0.0157   -0.0091    0.0013    0.0030   -0.0003
          11    0.0041    0.0012   -0.0257    0.0476   -0.0321    0.0052    0.0075    0.0023
          12   -0.0038   -0.0011    0.0233   -0.0400    0.0256   -0.0030   -0.0050    0.0007
          13    0.0011    0.0075    0.0068   -0.0292   -0.0060    0.0251    0.0391    0.0022
          14    0.0001   -0.0137    0.0351   -0.0040   -0.0140   -0.0051   -0.0076    0.0447
          15   -0.0105    0.0226   -0.0272   -0.0216   -0.0152   -0.0198   -0.0232    0.0263
          16    0.0120    0.0135   -0.0092   -0.0409   -0.0220    0.0197    0.0174    0.0082
          17    0.0023   -0.0319    0.0030    0.0052   -0.0116    0.0160   -0.0345   -0.0240
          18   -0.0288    0.0010   -0.0080   -0.0128    0.0026    0.0154    0.0223    0.0008
          19    0.0304    0.0107    0.0062   -0.0134   -0.0214   -0.0196   -0.0037   -0.0069
          20   -0.0082    0.0084    0.0305    0.0010   -0.0095   -0.0087    0.0227   -0.0177
          21   -0.0137    0.0362   -0.0372   -0.0181   -0.0111   -0.0267   -0.0140   -0.0096
          22   -0.0280   -0.0323   -0.0103   -0.0071   -0.0085    0.0132   -0.0036   -0.0107
          23    0.0090   -0.0038   -0.0193   -0.0053   -0.0018    0.0215   -0.0093   -0.0116
          24   -0.0093   -0.0234    0.0138   -0.0281   -0.0286    0.0170   -0.0043   -0.0254
          25   -0.0049    0.0089   -0.0175    0.0177    0.0162   -0.0055    0.0038    0.0032
          26   -0.0097    0.0255    0.0344   -0.0040   -0.0198   -0.0153    0.0215   -0.0376
          27    0.0345   -0.0201   -0.0083    0.0099    0.0105   -0.0053    0.0016    0.0049
          28    0.0058   -0.0031   -0.0085    0.0196    0.0132    0.0337   -0.0245    0.0053
          29   -0.0056   -0.0208   -0.0490    0.0030    0.0144   -0.0196    0.0178    0.0012
          30   -0.0036   -0.0225   -0.0121   -0.0003    0.0031   -0.0070    0.0074    0.0003
          31    0.0040   -0.0002   -0.0154    0.0117    0.0101   -0.0174    0.0108   -0.0029
          32   -0.0029    0.0377   -0.0053    0.0285    0.0204    0.0055    0.0021   -0.0053
          33   -0.0017    0.0083    0.0161    0.0194    0.0090    0.0390   -0.0236    0.0015
          34    0.0123    0.0158    0.0012   -0.0425   -0.0101    0.0300    0.0518    0.0163
          35    0.0219   -0.0223    0.0577    0.0054   -0.0108    0.0034    0.0086    0.0572
          36   -0.0133    0.0361   -0.0467   -0.0395   -0.0189   -0.0195   -0.0192    0.0328
          37    0.0442    0.0297   -0.0316   -0.0610   -0.0581   -0.0014   -0.0477   -0.0129
          38   -0.0197   -0.0297   -0.0084    0.0268    0.0254    0.0259    0.0084   -0.0114
          39   -0.0490    0.0048   -0.0216    0.0095    0.0389    0.0225    0.0609    0.0122
          40    0.0151    0.0122   -0.0017   -0.0469   -0.0205    0.0387    0.0384   -0.0088
          41    0.0421   -0.0252    0.0037   -0.0311   -0.0637    0.0099   -0.0945   -0.0568
          42   -0.0454   -0.0030   -0.0013   -0.0015    0.0314    0.0399    0.0776    0.0004
          43    0.0584    0.0101    0.0172   -0.0187   -0.0494   -0.0556   -0.0374   -0.0217
          44   -0.0208    0.0017    0.0137    0.0328    0.0288    0.0093    0.0369   -0.0166
          45   -0.0555    0.0374   -0.0509   -0.0123    0.0285    0.0272    0.0383    0.0121
          46    0.0666    0.0108    0.0253   -0.0263   -0.0611   -0.0625   -0.0394   -0.0291
          47    0.0124    0.0025    0.0523   -0.0071   -0.0212   -0.0070    0.0419   -0.0499
          48    0.0173    0.0387   -0.0264   -0.0270   -0.0491   -0.0760   -0.0646   -0.0165
          49   -0.0649   -0.0728   -0.0132   -0.0179   -0.0249   -0.0199    0.0087   -0.0569
          50    0.0255    0.0429   -0.0231   -0.0308   -0.0047    0.0406    0.0160    0.0245
          51    0.0305    0.0305    0.0151   -0.0267   -0.0141    0.0544   -0.0063    0.0294
          52   -0.0574   -0.0699   -0.0067    0.0036   -0.0130   -0.0000   -0.0167   -0.0506
          53    0.0105    0.0066   -0.0116    0.0150    0.0113    0.0529   -0.0349   -0.0036
          54   -0.0549   -0.0885    0.0116   -0.0291   -0.0453   -0.0315    0.0003   -0.0887
          55   -0.0517    0.0442    0.0058    0.0142   -0.0005    0.0328   -0.0263   -0.0325
          56    0.0235   -0.0244    0.0525    0.0095   -0.0061   -0.0138    0.0459   -0.0119
          57    0.0758   -0.0695   -0.0026    0.0210    0.0263   -0.0179    0.0302    0.0369
          58    0.0155   -0.0201   -0.0354    0.0184    0.0271   -0.0439    0.0359    0.0195
          59   -0.0634    0.0743    0.0219   -0.0180   -0.0358   -0.0161    0.0022   -0.0746
          60    0.0719   -0.0626   -0.0179    0.0167    0.0268   -0.0343    0.0345    0.0350
          61    0.0125    0.0079    0.0144    0.0140   -0.0014    0.0512   -0.0375   -0.0178
          62   -0.0335   -0.0638   -0.1093    0.0066    0.0435   -0.0565    0.0485    0.0566
          63   -0.0084   -0.0284   -0.0600    0.0241    0.0450   -0.0589    0.0423    0.0539
          64   -0.0016   -0.0008    0.0064   -0.0121   -0.0190   -0.0428    0.0303   -0.0398
          65   -0.0184    0.0742   -0.0142    0.0804    0.0710    0.0510   -0.0252    0.0543
          66   -0.0222    0.0481    0.0238    0.0574    0.0413    0.0673   -0.0372    0.0375
          67   -0.0141   -0.0008    0.0093    0.0037    0.0025   -0.0044   -0.0030    0.0013
          68   -0.0029    0.0007   -0.0223    0.0448   -0.0297    0.0036    0.0059    0.0034
          69    0.0005    0.0009   -0.0187    0.0298   -0.0366    0.0083    0.0115    0.0100


   Root No.      17        18        19        20        21        22        23        24

                17 A      18 A      19 A      20 A      21 A      22 A      23 A      24 A   

                 642.8     659.3     758.8     768.7     841.3     877.4     920.3     925.7
  
           1    0.0053   -0.0527    0.0806   -0.0247   -0.0119    0.0031    0.0033    0.0013
           2    0.0038    0.0068   -0.0052   -0.0102    0.0075   -0.0008    0.0073   -0.0088
           3   -0.0030   -0.0045    0.0052   -0.0020    0.0025    0.0012    0.0029   -0.0002
           4   -0.0060    0.0523   -0.0723    0.0170    0.0088   -0.0015    0.0012   -0.0028
           5   -0.0032    0.0465   -0.0018    0.0026    0.0013   -0.0008   -0.0014   -0.0007
           6    0.0024   -0.0457   -0.0022    0.0007   -0.0009    0.0004    0.0002    0.0006
           7    0.0023   -0.0409    0.0135   -0.0018   -0.0040    0.0007   -0.0001    0.0016
           8    0.0029   -0.0538    0.0202   -0.0046   -0.0074    0.0016    0.0015    0.0029
           9   -0.0078    0.1521    0.0467   -0.0114   -0.0050    0.0009    0.0008    0.0010
          10   -0.0008    0.0148    0.0044   -0.0011   -0.0003    0.0001    0.0001    0.0001
          11    0.0008   -0.0119    0.0029   -0.0008   -0.0006    0.0002    0.0002    0.0002
          12    0.0054   -0.1096   -0.0387    0.0097    0.0040   -0.0008   -0.0008   -0.0008
          13    0.0016    0.0129   -0.0033   -0.0037    0.0265   -0.0004   -0.0094   -0.0127
          14   -0.0002    0.0090   -0.0078   -0.0035    0.0044   -0.0025    0.0037    0.0104
          15    0.0056    0.0029   -0.0031    0.0012   -0.0163    0.0029   -0.0225   -0.0119
          16   -0.0031    0.0168   -0.0161    0.0078   -0.0066   -0.0248    0.0035    0.0042
          17    0.0091   -0.0053    0.0174    0.0006    0.0230   -0.0172   -0.0220    0.0179
          18    0.0085    0.0111   -0.0028    0.0152   -0.0177    0.0254    0.0177   -0.0245
          19    0.0039    0.0022   -0.0036   -0.0062    0.0233    0.0366   -0.0281    0.0198
          20   -0.0116   -0.0024    0.0064    0.0133    0.0001    0.0042    0.0018   -0.0001
          21   -0.0059   -0.0111    0.0127   -0.0071    0.0274   -0.0039   -0.0074    0.0201
          22   -0.0109    0.0031   -0.0063    0.0133   -0.0207    0.0054    0.0055    0.0396
          23   -0.0031    0.0063   -0.0088   -0.0001    0.0084   -0.0048   -0.0033   -0.0173
          24    0.0256    0.0188   -0.0093    0.0179   -0.0103   -0.0033    0.0167    0.0263
          25    0.0266    0.0073   -0.0033   -0.0056    0.0006   -0.0036    0.0055    0.0094
          26   -0.0144   -0.0031    0.0009    0.0149   -0.0137    0.0039   -0.0231   -0.0069
          27   -0.0015   -0.0022   -0.0012   -0.0131    0.0256    0.0037    0.0419    0.0035
          28   -0.0365   -0.0103    0.0015    0.0057   -0.0072    0.0107   -0.0046   -0.0244
          29   -0.0202   -0.0030   -0.0225   -0.0228   -0.0172    0.0053    0.0082   -0.0036
          30   -0.0197   -0.0058   -0.0105   -0.0148   -0.0107   -0.0076   -0.0117   -0.0024
          31    0.0133    0.0018    0.0033    0.0038   -0.0049   -0.0129    0.0123   -0.0094
          32    0.0396    0.0142   -0.0218   -0.0218   -0.0204   -0.0005    0.0154    0.0058
          33   -0.0175   -0.0045   -0.0107   -0.0168   -0.0058    0.0033   -0.0171   -0.0095
          34   -0.0037    0.0426   -0.0505    0.0010    0.0414   -0.0376   -0.0154   -0.0407
          35   -0.0003    0.0457   -0.0659    0.0005    0.0312    0.0265    0.0265    0.0045
          36    0.0002    0.0098   -0.0142    0.0022   -0.0156   -0.0536   -0.0439   -0.0355
          37    0.0348    0.0166    0.0016    0.0361   -0.0502    0.0756    0.0195   -0.0831
          38   -0.0330   -0.0154    0.0076   -0.0297    0.0480   -0.0970   -0.0745    0.0531
          39   -0.0325   -0.0013   -0.0099   -0.0157    0.0045   -0.0497   -0.0380    0.0019
          40    0.0045    0.0270   -0.0174    0.0114    0.0258   -0.0557    0.0151   -0.0213
          41    0.0725    0.0119    0.0342    0.0468   -0.0010    0.0927    0.0379   -0.0703
          42   -0.0173    0.0144   -0.0153   -0.0045    0.0283   -0.0661   -0.0003   -0.0046
          43   -0.0289   -0.0238    0.0217    0.0173   -0.0158   -0.0360    0.0250   -0.0082
          44    0.0255    0.0156   -0.0198   -0.0101    0.0232    0.0594    0.0024    0.0589
          45    0.0411    0.0271   -0.0232   -0.0398    0.0850    0.1027   -0.0930    0.0566
          46   -0.0453   -0.0321    0.0325    0.0263   -0.0150   -0.0547    0.0370   -0.0234
          47   -0.0430   -0.0138    0.0227    0.0299    0.0266    0.0055    0.0510   -0.0335
          48   -0.0435   -0.0428    0.0433    0.0209   -0.0331   -0.1080    0.0373   -0.0107
          49    0.0495    0.0138   -0.0101   -0.0186    0.0216   -0.0140    0.0135   -0.0584
          50   -0.0120    0.0283   -0.0330    0.0339   -0.0453    0.0027    0.0524    0.0579
          51   -0.0328    0.0167   -0.0141    0.0595   -0.0680    0.0157    0.0285    0.1435
          52    0.0271    0.0013    0.0115    0.0023    0.0291    0.0105   -0.0141   -0.0564
          53   -0.0206   -0.0013    0.0206    0.0427    0.0170    0.0400   -0.0222   -0.0272
          54    0.0964    0.0225   -0.0083   -0.0354    0.0561   -0.0367    0.0029   -0.1047
          55   -0.0492   -0.0230   -0.0078   -0.0402    0.0468    0.0120    0.0991   -0.0239
          56    0.0064    0.0136   -0.0024    0.0488   -0.0802   -0.0006   -0.1112   -0.0455
          57    0.0412    0.0210   -0.0020    0.0242   -0.0406   -0.0064   -0.0566   -0.0140
          58    0.0676    0.0205    0.0223    0.0443   -0.0227   -0.0463   -0.0263    0.0252
          59   -0.0679   -0.0326    0.0218    0.0028    0.0641   -0.0117    0.1060    0.0093
          60    0.0535    0.0209    0.0103    0.0317   -0.0242   -0.0226   -0.0375    0.0102
          61   -0.0203   -0.0001   -0.0461   -0.0518   -0.0325   -0.0085   -0.0059   -0.0231
          62   -0.0749   -0.0284    0.0990    0.1397    0.0432    0.0720    0.0141    0.0248
          63   -0.0353   -0.0278    0.0948    0.0936    0.0479    0.0103   -0.0136   -0.0529
          64    0.0111    0.0033   -0.0356   -0.0424   -0.0422   -0.0138   -0.0362   -0.0041
          65    0.0870    0.0215    0.0945    0.1300    0.0442   -0.0522    0.0289   -0.0039
          66    0.0339    0.0048    0.0863    0.1126    0.0359   -0.0552   -0.0440   -0.0162
          67    0.0015   -0.0276   -0.0070    0.0016   -0.0005    0.0002    0.0003    0.0002
          68    0.0022   -0.0372   -0.0037    0.0007   -0.0003    0.0001    0.0002    0.0002
          69    0.0032   -0.0528   -0.0237    0.0050    0.0057   -0.0011   -0.0012   -0.0023


   Root No.      25        26        27        28        29        30        31        32

                25 A      26 A      27 A      28 A      29 A      30 A      31 A      32 A   

                 966.1     975.1    1034.6    1057.0    1069.7    1091.2    1098.3    1104.8
  
           1   -0.0008   -0.0016    0.0018    0.0006    0.0016    0.0104    0.0152   -0.0032
           2   -0.0026    0.0006    0.0006    0.0037   -0.0030    0.0085   -0.0133    0.0005
           3   -0.0005   -0.0016    0.0038    0.0011   -0.0021    0.0057   -0.0040    0.0006
           4    0.0004    0.0003    0.0001    0.0005   -0.0022   -0.0031   -0.0103    0.0016
           5   -0.0007    0.0014   -0.0018    0.0032    0.0082    0.0478    0.0362   -0.0099
           6    0.0005   -0.0004    0.0003   -0.0003   -0.0005   -0.0004   -0.0005   -0.0000
           7    0.0010   -0.0005    0.0001   -0.0010   -0.0010   -0.0056   -0.0025    0.0007
           8    0.0025   -0.0019    0.0014   -0.0039   -0.0079   -0.0419   -0.0303    0.0080
           9    0.0008   -0.0007    0.0006   -0.0012   -0.0024   -0.0130   -0.0093    0.0025
          10    0.0000   -0.0001    0.0001   -0.0000   -0.0001   -0.0007   -0.0005    0.0001
          11    0.0002   -0.0002    0.0002   -0.0003   -0.0007   -0.0039   -0.0029    0.0008
          12   -0.0005    0.0006   -0.0006    0.0010    0.0021    0.0114    0.0081   -0.0022
          13   -0.0227    0.0043   -0.0011    0.0112    0.0135    0.0011    0.0148    0.0046
          14   -0.0043    0.0004   -0.0003   -0.0026   -0.0042   -0.0061    0.0124   -0.0072
          15    0.0119    0.0024   -0.0047   -0.0119    0.0200   -0.0057    0.0042    0.0163
          16    0.0224    0.0060   -0.0041   -0.0079   -0.0118    0.0038   -0.0178   -0.0084
          17    0.0036    0.0167   -0.0143   -0.0010    0.0112    0.0167   -0.0059   -0.0051
          18    0.0047   -0.0035   -0.0083    0.0095   -0.0006    0.0163   -0.0092   -0.0130
          19    0.0088   -0.0145    0.0021   -0.0117   -0.0008   -0.0018   -0.0055    0.0009
          20    0.0139   -0.0128    0.0161    0.0018   -0.0015    0.0239   -0.0127    0.0195
          21   -0.0166   -0.0060    0.0064    0.0080   -0.0171    0.0046    0.0037   -0.0115
          22    0.0001    0.0032   -0.0084    0.0108    0.0142    0.0008   -0.0038   -0.0079
          23    0.0122   -0.0079    0.0034    0.0007   -0.0118   -0.0178    0.0099    0.0107
          24   -0.0187    0.0015    0.0144   -0.0252   -0.0031   -0.0102    0.0074    0.0194
          25    0.0199   -0.0008    0.0126    0.0246   -0.0014    0.0021    0.0097    0.0138
          26   -0.0054    0.0029   -0.0078   -0.0114    0.0006   -0.0190    0.0079   -0.0198
          27    0.0143    0.0075   -0.0072   -0.0070    0.0190   -0.0127    0.0029   -0.0097
          28   -0.0248   -0.0028    0.0081   -0.0308   -0.0259    0.0048    0.0046    0.0073
          29   -0.0148   -0.0423    0.0088   -0.0025    0.0093    0.0001   -0.0012   -0.0079
          30   -0.0056   -0.0256   -0.0077    0.0105    0.0076    0.0016   -0.0085   -0.0079
          31   -0.0157    0.0031   -0.0133   -0.0276    0.0127   -0.0014   -0.0059   -0.0079
          32   -0.0176    0.0480   -0.0032   -0.0073   -0.0013    0.0036   -0.0018    0.0079
          33    0.0103    0.0193   -0.0018    0.0234   -0.0209    0.0005    0.0072    0.0092
          34   -0.0402    0.0268    0.0436    0.0275    0.0526   -0.0643    0.0387    0.0439
          35   -0.0329   -0.0117   -0.0551    0.0265   -0.0252   -0.1075    0.0492   -0.0462
          36    0.0097    0.0332    0.0752   -0.0140    0.0733   -0.0096    0.0083    0.0805
          37    0.0721   -0.0237   -0.0720    0.0312    0.0032    0.0486   -0.0667    0.0207
          38    0.0552    0.0264   -0.0515   -0.0218    0.0194    0.0304   -0.0415    0.0343
          39    0.0643    0.0034   -0.0542   -0.0095    0.0112    0.0366   -0.0530    0.0341
          40   -0.0120    0.0367    0.0639    0.0091   -0.0401    0.0134   -0.0458   -0.1009
          41   -0.0337    0.0119    0.0095    0.0521    0.0001    0.0434   -0.0164   -0.0823
          42   -0.0119    0.0314    0.0523   -0.0015   -0.0258    0.0128   -0.0338   -0.0717
          43    0.0163    0.0019    0.0209    0.0145   -0.0019    0.0121   -0.0091    0.0010
          44    0.1159   -0.0288    0.1051   -0.0023   -0.0388    0.0645   -0.0915   -0.0303
          45   -0.0377   -0.0305   -0.0305   -0.0315   -0.0098   -0.0225    0.0195   -0.0051
          46   -0.0114    0.0003    0.0003    0.0252    0.0065    0.0174    0.0029    0.0356
          47   -0.0387   -0.0373   -0.0679    0.0245    0.0406    0.0553   -0.0236    0.1707
          48   -0.0088    0.0253    0.0524    0.0357   -0.0325    0.0085    0.0192   -0.0589
          49    0.0683   -0.0162   -0.0282    0.0010   -0.0603   -0.0265    0.0430   -0.0081
          50    0.1019   -0.0250   -0.0589   -0.0041   -0.0798   -0.0553    0.1010   -0.0012
          51   -0.0514    0.0148    0.0105   -0.0205    0.0429    0.0036   -0.0071    0.0158
          52   -0.0173    0.0286    0.0296    0.0680    0.0381   -0.0308   -0.0368   -0.0058
          53   -0.0423    0.0591    0.0546    0.1550    0.0975   -0.0609   -0.0630   -0.0126
          54    0.0044   -0.0198    0.0244   -0.0789   -0.0644   -0.0190    0.0249    0.0465
          55    0.1259    0.0152    0.0356   -0.0060    0.1077   -0.0582    0.0800   -0.0079
          56    0.0554    0.0019    0.0346   -0.0212    0.0481   -0.0610    0.0809   -0.0388
          57    0.0235    0.0023    0.0158   -0.0012    0.0177   -0.0248    0.0353   -0.0168
          58   -0.0385   -0.0526   -0.0180    0.1723   -0.0894   -0.0010    0.0215    0.0609
          59   -0.0312   -0.0292   -0.0616    0.0758   -0.0258   -0.0483    0.0089   -0.0016
          60   -0.0205   -0.0204   -0.0087    0.0721   -0.0393   -0.0037    0.0114    0.0173
          61   -0.0352   -0.0752    0.0064   -0.0186   -0.0071    0.0073   -0.0041   -0.0055
          62    0.0264    0.1246    0.0493    0.0050   -0.0538   -0.0310    0.0703    0.0575
          63   -0.0063    0.1604   -0.0573   -0.0774   -0.0209    0.0281   -0.0547   -0.0260
          64    0.0035    0.1050   -0.0664    0.0505    0.0143   -0.0364   -0.0017   -0.0517
          65   -0.0174   -0.1501    0.0041   -0.0649    0.0437   -0.0065   -0.0092   -0.0185
          66    0.0274   -0.1156   -0.0393    0.0274    0.0289   -0.0390    0.0015   -0.0568
          67    0.0004   -0.0004    0.0004   -0.0006   -0.0013   -0.0070   -0.0055    0.0015
          68    0.0002   -0.0002    0.0003   -0.0004   -0.0008   -0.0047   -0.0036    0.0010
          69   -0.0023    0.0014   -0.0009    0.0037    0.0071    0.0377    0.0281   -0.0072


   Root No.      33        34        35        36        37        38        39        40

                33 A      34 A      35 A      36 A      37 A      38 A      39 A      40 A   

                1116.3    1122.0    1147.9    1149.8    1168.3    1183.8    1236.2    1243.3
  
           1   -0.0026    0.0137    0.0013   -0.0014    0.0068    0.0024   -0.0028   -0.0128
           2    0.0070   -0.0036   -0.0407   -0.0014   -0.0178   -0.0064    0.0007   -0.0260
           3    0.0055   -0.0009   -0.0133    0.0005   -0.0057   -0.0030    0.0001   -0.0045
           4    0.0031   -0.0058   -0.0098    0.0001   -0.0060   -0.0022    0.0006   -0.0023
           5   -0.0045    0.0208   -0.0024   -0.0036    0.0099    0.0010   -0.0015   -0.0054
           6    0.0002    0.0002   -0.0001   -0.0001    0.0006   -0.0001   -0.0001    0.0004
           7   -0.0004   -0.0010    0.0030    0.0001    0.0015    0.0005   -0.0002    0.0013
           8    0.0030   -0.0162    0.0042    0.0024   -0.0046   -0.0003    0.0007    0.0048
           9    0.0009   -0.0048    0.0010    0.0008   -0.0015   -0.0001    0.0002    0.0011
          10    0.0001   -0.0002    0.0001    0.0000   -0.0001   -0.0000    0.0000    0.0000
          11    0.0003   -0.0016    0.0004    0.0003   -0.0005   -0.0000    0.0001    0.0007
          12   -0.0008    0.0042   -0.0008   -0.0007    0.0015    0.0001   -0.0002   -0.0007
          13    0.0046   -0.0153    0.0098    0.0046   -0.0423   -0.0042    0.0162    0.0297
          14    0.0012    0.0012    0.0272    0.0002    0.0154    0.0008   -0.0045    0.0458
          15   -0.0194    0.0009    0.0153    0.0093    0.0355    0.0076    0.0158    0.0152
          16   -0.0124    0.0085   -0.0010   -0.0198    0.0253    0.0002    0.0060    0.0195
          17   -0.0098   -0.0274    0.0104    0.0129   -0.0081    0.0014    0.0030    0.0063
          18   -0.0054   -0.0170    0.0115    0.0065   -0.0113    0.0047    0.0045    0.0143
          19   -0.0044    0.0080   -0.0070    0.0118    0.0148   -0.0033   -0.0019   -0.0024
          20    0.0166   -0.0029    0.0265   -0.0037    0.0027    0.0049   -0.0048    0.0262
          21    0.0223   -0.0114    0.0072   -0.0249   -0.0165   -0.0018    0.0018   -0.0162
          22    0.0108   -0.0026    0.0024    0.0075   -0.0029   -0.0079    0.0070   -0.0096
          23    0.0117    0.0236   -0.0082   -0.0080   -0.0002    0.0001    0.0179    0.0032
          24   -0.0037    0.0165   -0.0122   -0.0115   -0.0043   -0.0014    0.0006   -0.0082
          25   -0.0026   -0.0146    0.0040   -0.0086    0.0011   -0.0040   -0.0101    0.0088
          26   -0.0174    0.0073   -0.0193    0.0079   -0.0066   -0.0046   -0.0144    0.0010
          27   -0.0104    0.0072   -0.0096    0.0095    0.0002    0.0058   -0.0041    0.0118
          28   -0.0084   -0.0000   -0.0014    0.0021   -0.0025    0.0045    0.0050   -0.0058
          29   -0.0026   -0.0032   -0.0011    0.0011    0.0011    0.0015    0.0093   -0.0045
          30    0.0067    0.0053    0.0041    0.0032    0.0013   -0.0046   -0.0161    0.0046
          31    0.0109    0.0074   -0.0013    0.0002   -0.0013    0.0062   -0.0187    0.0040
          32   -0.0018   -0.0000   -0.0001   -0.0037   -0.0005   -0.0004    0.0022   -0.0039
          33    0.0009   -0.0030    0.0008    0.0021    0.0023   -0.0014   -0.0048    0.0043
          34   -0.0048    0.0194    0.1255    0.0900   -0.0719    0.0390   -0.0467   -0.1168
          35   -0.0661    0.0235    0.2268   -0.0933    0.0292    0.0722   -0.0087   -0.1130
          36    0.0139    0.0209    0.0138    0.1551    0.0010    0.0094   -0.0471   -0.0389
          37   -0.0487    0.0251    0.0082   -0.0576   -0.1013    0.0178   -0.0850   -0.0416
          38   -0.0473   -0.0008    0.0006   -0.0245   -0.0365    0.0079   -0.0566   -0.0488
          39   -0.0515    0.0139    0.0011   -0.0378   -0.0564    0.0147   -0.0684   -0.0504
          40   -0.0084   -0.0554   -0.0188    0.0166    0.1668    0.0191   -0.0449   -0.0557
          41    0.0079   -0.1029    0.0249    0.0645    0.0214    0.0171   -0.0350   -0.0469
          42   -0.0103   -0.0479   -0.0144    0.0212    0.1263    0.0178   -0.0318   -0.0424
          43   -0.0054    0.0088    0.0160    0.0094   -0.0211    0.0066    0.0174   -0.0052
          44   -0.0233    0.0823    0.0828    0.0453   -0.0562    0.0443    0.0941   -0.0873
          45    0.0280   -0.0240   -0.0337   -0.0262    0.0461   -0.0228   -0.0378   -0.0022
          46    0.0257   -0.0253    0.0177   -0.0185    0.0067    0.0046    0.0100   -0.0198
          47    0.0803   -0.0688    0.0132   -0.0439    0.1503    0.0322    0.0351   -0.0932
          48    0.0212   -0.0127    0.0451   -0.0394   -0.1083   -0.0072   -0.0072    0.0295
          49    0.0716    0.0153    0.0063    0.0350    0.0180   -0.0338   -0.0370    0.0016
          50    0.1399    0.0172    0.0262    0.0859    0.0107   -0.0687   -0.0628   -0.0435
          51   -0.0178   -0.0017   -0.0032   -0.0057   -0.0205   -0.0026    0.0142   -0.0389
          52    0.0200    0.0746   -0.0083   -0.0406    0.0314   -0.0352   -0.0209    0.0024
          53    0.0443    0.1304   -0.0167   -0.0688    0.0537   -0.0602   -0.0477    0.0249
          54   -0.0211    0.0359   -0.0182   -0.0282   -0.0042    0.0127    0.0182   -0.0125
          55   -0.0271   -0.0874   -0.0382   -0.0535    0.0098   -0.0516    0.0573   -0.0379
          56   -0.0195   -0.0800   -0.0299   -0.0678   -0.0096   -0.0656    0.0363   -0.0816
          57   -0.0025   -0.0347   -0.0048   -0.0326   -0.0050   -0.0224    0.0118   -0.0320
          58   -0.0906   -0.0104   -0.0250    0.0378    0.0237   -0.0527    0.0474   -0.0147
          59   -0.1347    0.0459   -0.0626    0.0861    0.0197   -0.0426    0.0295   -0.0148
          60   -0.0309   -0.0043   -0.0122    0.0132    0.0060   -0.0160    0.0220   -0.0010
          61   -0.0031   -0.0008    0.0027    0.0047   -0.0002    0.0010    0.0040   -0.0063
          62   -0.0379   -0.0264   -0.0802   -0.0225   -0.0148    0.1307   -0.0647    0.0299
          63    0.0318    0.0464    0.0871    0.0247    0.0095   -0.1568    0.0927   -0.0438
          64    0.0857    0.0365   -0.0680    0.0203   -0.0033    0.1745    0.0937   -0.0151
          65   -0.0090    0.0076    0.0026   -0.0048   -0.0045   -0.0204   -0.0221    0.0005
          66    0.0568    0.0309   -0.0501    0.0189   -0.0034    0.1159    0.0629   -0.0058
          67    0.0007   -0.0031    0.0005    0.0005   -0.0008   -0.0001    0.0001    0.0016
          68    0.0004   -0.0020    0.0004    0.0003   -0.0006   -0.0000    0.0001    0.0008
          69   -0.0025    0.0158   -0.0048   -0.0022    0.0033    0.0003   -0.0005   -0.0099


   Root No.      41        42        43        44        45        46        47        48

                41 A      42 A      43 A      44 A      45 A      46 A      47 A      48 A   

                1270.2    1333.7    1337.8    1382.9    1386.9    1391.9    1398.8    1402.3
  
           1   -0.0017    0.0035   -0.0039   -0.0015    0.0015   -0.0042   -0.0001    0.0001
           2    0.0130    0.0048   -0.0145   -0.0055    0.0076   -0.0041   -0.0032    0.0027
           3    0.0009    0.0011   -0.0028   -0.0014    0.0019   -0.0007    0.0001    0.0007
           4    0.0022    0.0007   -0.0020   -0.0013    0.0016    0.0024   -0.0004    0.0006
           5   -0.0015    0.0018   -0.0010   -0.0008    0.0006   -0.0008   -0.0001    0.0002
           6   -0.0006   -0.0000    0.0004    0.0002   -0.0007   -0.0070   -0.0000   -0.0000
           7   -0.0010   -0.0001    0.0007    0.0003   -0.0008   -0.0056    0.0000   -0.0001
           8   -0.0004   -0.0009    0.0010   -0.0002    0.0019    0.0323    0.0012   -0.0003
           9    0.0000   -0.0002    0.0003    0.0002   -0.0006   -0.0053   -0.0001    0.0000
          10    0.0000    0.0000   -0.0001   -0.0003    0.0011    0.0140    0.0004   -0.0001
          11   -0.0001   -0.0002    0.0005    0.0007   -0.0024   -0.0285   -0.0007    0.0001
          12   -0.0002    0.0001    0.0001    0.0005   -0.0020   -0.0259   -0.0007    0.0002
          13    0.0279   -0.0294    0.0034    0.0161   -0.0101    0.0031    0.0020   -0.0034
          14   -0.0334   -0.0040    0.0428    0.0179   -0.0276    0.0096    0.0075   -0.0083
          15    0.0368   -0.0271   -0.0157    0.0066    0.0039   -0.0009   -0.0006    0.0005
          16   -0.0048    0.0331    0.0149   -0.0347    0.0066   -0.0029   -0.0010    0.0086
          17    0.0116    0.0146    0.0073   -0.0011    0.0102    0.0026   -0.0295    0.0020
          18   -0.0112    0.0314    0.0109   -0.0156    0.0033    0.0000   -0.0071    0.0067
          19   -0.0121   -0.0023    0.0025   -0.0053    0.0085   -0.0020    0.0033   -0.0011
          20   -0.0133   -0.0282   -0.0303   -0.0147    0.0310   -0.0079    0.0132    0.0056
          21   -0.0042    0.0122    0.0150   -0.0023   -0.0245    0.0063    0.0135   -0.0138
          22   -0.0070    0.0063   -0.0228    0.0198   -0.0026   -0.0004    0.0095    0.0023
          23   -0.0119    0.0227   -0.0315    0.0296    0.0003   -0.0025    0.0207   -0.0011
          24   -0.0007   -0.0107    0.0034    0.0013    0.0139   -0.0055    0.0112   -0.0284
          25    0.0025    0.0172   -0.0301    0.0089   -0.0235    0.0049    0.0065    0.0202
          26    0.0121    0.0198   -0.0216   -0.0051   -0.0297    0.0064   -0.0216   -0.0142
          27   -0.0025    0.0001   -0.0128   -0.0002   -0.0050    0.0010   -0.0021    0.0033
          28   -0.0032   -0.0136    0.0107   -0.0111    0.0008   -0.0000   -0.0040   -0.0056
          29   -0.0091   -0.0133    0.0015   -0.0112   -0.0055    0.0014   -0.0041   -0.0003
          30    0.0147    0.0083    0.0075    0.0048    0.0058   -0.0010   -0.0009   -0.0010
[...]
 RED. MASS   0.7805         C  5 -- H 12          +7.3% ( 37.6%)      0.0%
 EFF. MASS   6.4829

 VIBRATION   43   43A         ATOM PAIR      ENERGY CONTRIBUTION    RADIAL
 FREQ.      1337.84         C  5 -- C  7         +10.2% ( 45.6%)     71.7%
 T-DIPOLE    0.2823         C  9 -- H 19          +8.1% ( 40.7%)      0.1%
 TRAVEL      0.0838         C  5 -- H 12          +7.8% ( 40.0%)      0.4%
 RED. MASS   0.8244         O  1 -- C  5          +7.3% ( 38.6%)     76.9%
 EFF. MASS   7.1837

 VIBRATION   44   44A         ATOM PAIR      ENERGY CONTRIBUTION    RADIAL
 FREQ.      1382.92         C  6 -- H 13         +17.0% ( 49.3%)      0.9%
 T-DIPOLE    0.1090         C  6 -- H 14         +15.6% ( 47.2%)      2.6%
 TRAVEL      0.1039         C  6 -- C  8         +11.7% ( 40.8%)     61.0%
 RED. MASS   0.4723         C  5 -- C  6          +8.7% ( 35.2%)     79.3%
 EFF. MASS   4.5126

 VIBRATION   45   45A         ATOM PAIR      ENERGY CONTRIBUTION    RADIAL
 FREQ.      1386.88         C  7 -- H 15         +13.0% ( 45.3%)      0.5%
 T-DIPOLE    0.2236         C  7 -- C  9         +12.9% ( 45.1%)     69.3%
 TRAVEL      0.0958         C  7 -- H 16         +12.5% ( 44.5%)      1.7%
 RED. MASS   0.5915         C  5 -- C  7         +10.2% ( 40.2%)     74.0%
 EFF. MASS   5.2944

 VIBRATION   46   46A         ATOM PAIR      ENERGY CONTRIBUTION    RADIAL
 FREQ.      1391.92         O  4 -- H 23         +88.1% ( 94.8%)      2.4%
 T-DIPOLE    0.3124         O  3 -- O  4          +3.6% ( 19.2%)      3.9%
 TRAVEL      0.1526         O  2 -- O  4          +2.3% ( 15.3%)      1.7%
 RED. MASS   0.8461         O  1 -- O  3          +1.1% ( 10.6%)     30.6%
 EFF. MASS   2.0804

 VIBRATION   47   47A         ATOM PAIR      ENERGY CONTRIBUTION    RADIAL
 FREQ.      1398.81         C  6 -- H 14         +14.0% ( 41.3%)      3.5%
 T-DIPOLE    0.1507         C  6 -- H 13         +12.1% ( 38.4%)      5.7%
 TRAVEL      0.1165         C  6 -- C  8         +10.6% ( 35.9%)     96.2%
 RED. MASS   0.2727         C  9 -- H 20          +9.2% ( 33.5%)      4.3%
 EFF. MASS   3.5501

 VIBRATION   48   48A         ATOM PAIR      ENERGY CONTRIBUTION    RADIAL
 FREQ.      1402.34         C  8 -- H 18         +19.2% ( 44.2%)      4.2%
 T-DIPOLE    0.0758         C  8 -- H 17         +17.1% ( 41.7%)      5.6%
 TRAVEL      0.1368         C  9 -- H 20         +15.1% ( 39.2%)      3.8%
 RED. MASS   0.2354         C  9 -- H 19         +13.2% ( 36.6%)      5.7%
 EFF. MASS   2.5706

 VIBRATION   49   49A         ATOM PAIR      ENERGY CONTRIBUTION    RADIAL
 FREQ.      1407.64         C  7 -- H 16         +16.7% ( 47.6%)      3.5%
 T-DIPOLE    0.2518         C  7 -- H 15         +14.4% ( 44.2%)      5.6%
 TRAVEL      0.1061         C  7 -- C  9         +10.3% ( 37.4%)     94.8%
 RED. MASS   0.3925         C  6 -- H 14         +10.1% ( 37.0%)      3.2%
 EFF. MASS   4.2531

 VIBRATION   50   50A         ATOM PAIR      ENERGY CONTRIBUTION    RADIAL
 FREQ.      1434.59         C  9 -- C 11         +15.8% ( 57.7%)     99.6%
 T-DIPOLE    0.0514         C  8 -- C 10         +15.7% ( 57.4%)     99.7%
 TRAVEL      0.0747         C 10 -- C 11          +8.2% ( 41.6%)      0.0%
 RED. MASS   1.4013         C  9 -- H 19          +8.1% ( 41.3%)      3.0%
 EFF. MASS   8.4323

 VIBRATION   51   51A         ATOM PAIR      ENERGY CONTRIBUTION    RADIAL
 FREQ.      1882.85         C 10 -- C 11         +44.2% ( 97.8%)    100.0%
 T-DIPOLE    0.0481         C  9 -- C 11         +14.3% ( 55.5%)     54.0%
 TRAVEL      0.0550         C  8 -- C 10         +14.2% ( 55.5%)     54.0%
 RED. MASS   5.4116         C 11 -- H 22         +13.1% ( 53.2%)      4.1%
 EFF. MASS  11.8465         C 10 -- H 21         +13.1% ( 53.2%)      4.1%

 VIBRATION   52   52A         ATOM PAIR      ENERGY CONTRIBUTION    RADIAL
 FREQ.      2819.81         C  5 -- H 12         +96.3% ( 99.9%)    100.0%
 T-DIPOLE    0.0599         O  1 -- C  5          +1.1% ( 10.9%)     11.3%
 TRAVEL      0.1278         C  5 -- C  7          +1.1% ( 10.8%)     10.0%
 RED. MASS   0.9255         C  5 -- C  6          +1.1% ( 10.8%)     10.4%
 EFF. MASS   1.4637

 VIBRATION   53   53A         ATOM PAIR      ENERGY CONTRIBUTION    RADIAL
 FREQ.      2937.99         C  9 -- H 20         +37.6% ( 63.7%)     97.9%
 T-DIPOLE    0.0275         C  8 -- H 18         +25.8% ( 52.8%)     97.9%
 TRAVEL      0.1221         C  9 -- H 19         +19.6% ( 45.9%)     94.1%
 RED. MASS   0.2869         C  8 -- H 17         +13.8% ( 38.6%)     94.2%
 EFF. MASS   1.5395

 VIBRATION   54   54A         ATOM PAIR      ENERGY CONTRIBUTION    RADIAL
 FREQ.      2940.70         C  8 -- H 18         +35.5% ( 61.9%)     97.6%
 T-DIPOLE    0.0262         C  9 -- H 20         +24.9% ( 51.8%)     97.6%
 TRAVEL      0.1219         C  8 -- H 17         +21.5% ( 48.1%)     94.7%
 RED. MASS   0.2773         C  9 -- H 19         +14.6% ( 39.7%)     94.6%
 EFF. MASS   1.5436

 VIBRATION   55   55A         ATOM PAIR      ENERGY CONTRIBUTION    RADIAL
 FREQ.      2958.45         C  6 -- H 13         +52.3% ( 75.1%)     97.2%
 T-DIPOLE    0.0835         C  6 -- H 14         +40.9% ( 66.4%)     95.7%
 TRAVEL      0.1216         C  7 -- H 15          +2.0% ( 14.8%)     97.4%
 RED. MASS   0.4794         C  7 -- H 16          +1.4% ( 12.3%)     95.3%
 EFF. MASS   1.5416

 VIBRATION   56   56A         ATOM PAIR      ENERGY CONTRIBUTION    RADIAL
 FREQ.      2960.03         C  7 -- H 15         +50.7% ( 74.0%)     97.0%
 T-DIPOLE    0.0987         C  7 -- H 16         +42.5% ( 67.7%)     96.0%
 TRAVEL      0.1214         C  6 -- H 13          +1.8% ( 13.8%)     96.7%
 RED. MASS   0.4771         C  6 -- H 14          +1.7% ( 13.5%)     96.4%
 EFF. MASS   1.5469

 VIBRATION   57   57A         ATOM PAIR      ENERGY CONTRIBUTION    RADIAL
 FREQ.      3021.78         C  8 -- H 17         +33.5% ( 57.1%)     99.0%
 T-DIPOLE    0.0659         C  9 -- H 19         +29.0% ( 53.2%)     99.1%
 TRAVEL      0.1318         C  8 -- H 18         +18.3% ( 42.3%)     95.1%
 RED. MASS   0.2476         C  9 -- H 20         +14.7% ( 37.9%)     94.7%
 EFF. MASS   1.2846

 VIBRATION   58   58A         ATOM PAIR      ENERGY CONTRIBUTION    RADIAL
 FREQ.      3023.77         C  9 -- H 19         +32.6% ( 56.3%)     98.9%
 T-DIPOLE    0.0259         C  8 -- H 17         +26.4% ( 50.7%)     98.8%
 TRAVEL      0.1316         C  9 -- H 20         +19.0% ( 43.0%)     95.5%
 RED. MASS   0.2368         C  8 -- H 18         +16.6% ( 40.2%)     95.9%
 EFF. MASS   1.2878

 VIBRATION   59   59A         ATOM PAIR      ENERGY CONTRIBUTION    RADIAL
 FREQ.      3034.65         C  6 -- H 14         +51.8% ( 70.9%)     98.2%
 T-DIPOLE    0.0831         C  6 -- H 13         +41.6% ( 63.6%)     97.0%
 TRAVEL      0.1320         C 10 -- H 21          +1.7% ( 12.7%)    100.0%
 RED. MASS   0.4380         C  8 -- H 17          +1.2% ( 10.9%)     99.8%
 EFF. MASS   1.2745

 VIBRATION   60   60A         ATOM PAIR      ENERGY CONTRIBUTION    RADIAL
 FREQ.      3036.52         C 11 -- H 22         +46.7% ( 69.2%)    100.0%
 T-DIPOLE    0.2873         C 10 -- H 21         +45.4% ( 68.2%)    100.0%
 TRAVEL      0.1239         C  8 -- H 17          +1.4% ( 11.9%)     99.7%
 RED. MASS   0.4109         C  7 -- H 16          +1.1% ( 10.5%)     98.5%
 EFF. MASS   1.4456

 VIBRATION   61   61A         ATOM PAIR      ENERGY CONTRIBUTION    RADIAL
 FREQ.      3039.47         C  7 -- H 16         +50.9% ( 70.3%)     98.1%
 T-DIPOLE    0.1274         C  7 -- H 15         +43.1% ( 64.7%)     97.2%
 TRAVEL      0.1320         C  9 -- H 19          +1.3% ( 11.2%)     99.8%
 RED. MASS   0.4419         C  6 -- H 14          +1.2% ( 10.9%)     98.9%
 EFF. MASS   1.2728

 VIBRATION   62   62A         ATOM PAIR      ENERGY CONTRIBUTION    RADIAL
 FREQ.      3056.67         C 10 -- H 21         +47.6% ( 69.9%)     99.9%
 T-DIPOLE    0.2918         C 11 -- H 22         +47.6% ( 69.9%)     99.9%
 TRAVEL      0.1184         C 10 -- C 11          +1.9% ( 14.0%)    100.0%
 RED. MASS   0.4528         C  8 -- C 10          +0.8% (  8.8%)     15.5%
 EFF. MASS   1.5748

 VIBRATION   63   63A         ATOM PAIR      ENERGY CONTRIBUTION    RADIAL
 FREQ.      3981.12         O  4 -- H 23         +99.3% (100.0%)     99.9%
 T-DIPOLE    0.3860         O  3 -- O  4          +0.4% (  6.0%)      0.5%
 TRAVEL      0.1108         O  2 -- O  4          +0.4% (  6.0%)     37.5%
 RED. MASS   0.9480
 EFF. MASS   1.3806

      SYMMETRY NUMBER FOR POINT-GROUP C1  =  1


          SYSTEM IS A GROUND STATE



 InChI=1S/C7H12O4/c8-10-11-9-7-5-3-1-2-4-6-7/h1-2,7-8H,3-6H2


          MOLECULE IS NOT LINEAR

          THERE ARE 63 GENUINE VIBRATIONS IN THIS SYSTEM
          THIS THERMODYNAMICS CALCULATION IS LIMITED TO
          MOLECULES WHICH HAVE NO INTERNAL ROTATIONS




                    CALCULATED THERMODYNAMIC PROPERTIES
                                          *
   TEMP. (K)   PARTITION FUNCTION   H.O.F.    ENTHALPY  HEAT CAPACITY ENTROPY
                                   KCAL/MOL   CAL/MOLE    CAL/K/MOL  CAL/K/MOL


 298.00  VIB.     0.2131D+05                  5668.5648    37.5261    38.8280
         ROT.     0.1091D+07                   888.2813     2.9808    30.6074
         INT.     0.2324D+11                  6556.8461    40.5069    69.4354
         TRA.     0.1960D+28                  1480.4688     4.9680    41.1199
         TOT.                       -4.846    8037.3149    45.4749   110.5554

 200.00  VIB.     0.8906D+03                  2609.9983    25.0874    26.5468
         ROT.     0.5996D+06                   596.1620     2.9808    29.4188
         INT.     0.5340D+09                  3206.1602    28.0682    55.9656
         TRA.     0.1077D+28                   993.6033     4.9680    39.1388
         TOT.                       -8.684    4199.7635    33.0362    95.1044

 210.00  VIB.     0.1236D+04                  2866.8920    26.2941    27.8000
         ROT.     0.6452D+06                   625.9700     2.9808    29.5642
         INT.     0.7974D+09                  3492.8621    29.2749    57.3642
         TRA.     0.1159D+28                  1043.2834     4.9680    39.3812
         TOT.                       -8.347    4536.1455    34.2429    96.7454

 220.00  VIB.     0.1713D+04                  3135.9371    27.5177    29.0514
         ROT.     0.6918D+06                   655.7781     2.9808    29.7029
         INT.     0.1185D+10                  3791.7152    30.4986    58.7542
         TRA.     0.1243D+28                  1092.9636     4.9680    39.6123
         TOT.                       -7.999    4884.6788    35.4666    98.3665

 230.00  VIB.     0.2373D+04                  3417.3038    28.7584    30.3019
         ROT.     0.7395D+06                   685.5862     2.9808    29.8354
         INT.     0.1755D+10                  4102.8900    31.7392    60.1373
         TRA.     0.1329D+28                  1142.6437     4.9680    39.8331
         TOT.                       -7.638    5245.5337    36.7072    99.9704

 240.00  VIB.     0.3283D+04                  3711.1593    30.0153    31.5523
         ROT.     0.7882D+06                   715.3943     2.9808    29.9622
         INT.     0.2587D+10                  4426.5536    32.9961    61.5146
         TRA.     0.1416D+28                  1192.3239     4.9680    40.0446
         TOT.                       -7.265    5618.8775    37.9642   101.5591

 250.00  VIB.     0.4538D+04                  4017.6601    31.2871    32.8034
         ROT.     0.8380D+06                   745.2024     2.9808    30.0839
         INT.     0.3803D+10                  4762.8625    34.2680    62.8873
         TRA.     0.1506D+28                  1242.0041     4.9680    40.2474
         TOT.                       -6.879    6004.8666    39.2360   103.1346

 260.00  VIB.     0.6269D+04                  4336.9452    32.5718    34.0555
         ROT.     0.8888D+06                   775.0105     2.9808    30.2008
         INT.     0.5572D+10                  5111.9557    35.5527    64.2563
         TRA.     0.1597D+28                  1291.6842     4.9680    40.4422
         TOT.                       -6.480    6403.6400    40.5207   104.6985

 270.00  VIB.     0.8655D+04                  4669.1319    33.8670    35.3090
         ROT.     0.9406D+06                   804.8186     2.9808    30.3133
         INT.     0.8141D+10                  5473.9505    36.8478    65.6223
         TRA.     0.1690D+28                  1341.3644     4.9680    40.6297
         TOT.                       -6.068    6815.3149    41.8158   106.2520

 280.00  VIB.     0.1194D+05                  5014.3117    35.1700    36.5642
         ROT.     0.9933D+06                   834.6267     2.9808    30.4217
         INT.     0.1186D+11                  5848.9385    38.1508    66.9859
         TRA.     0.1785D+28                  1391.0445     4.9680    40.8104
         TOT.                       -5.643    7239.9830    43.1188   107.7963

 290.00  VIB.     0.1648D+05                  5372.5489    36.4780    37.8211
         ROT.     0.1047D+07                   864.4348     2.9808    30.5263
         INT.     0.1725D+11                  6236.9837    39.4588    68.3475
         TRA.     0.1881D+28                  1440.7247     4.9680    40.9847
         TOT.                       -5.206    7677.7084    44.4268   109.3322

 300.00  VIB.     0.2272D+05                  5743.8790    37.7881    39.0799
         ROT.     0.1102D+07                   894.2429     2.9808    30.6274
         INT.     0.2503D+11                  6638.1219    40.7689    69.7073
         TRA.     0.1979D+28                  1490.4049     4.9680    41.1532
         TOT.                       -4.755    8128.5268    45.7369   110.8604

 310.00  VIB.     0.3132D+05                  6128.3089    39.0975    40.3403
         ROT.     0.1157D+07                   924.0510     2.9808    30.7251
         INT.     0.3624D+11                  7052.3600    42.0783    71.0654
         TRA.     0.2079D+28                  1540.0850     4.9680    41.3161
         TOT.                       -4.291    8592.4450    47.0463   112.3815

 320.00  VIB.     0.4317D+05                  6525.8178    40.4035    41.6022
         ROT.     0.1214D+07                   953.8591     2.9808    30.8197
         INT.     0.5238D+11                  7479.6769    43.3843    72.4220
         TRA.     0.2181D+28                  1589.7652     4.9680    41.4738
         TOT.                       -3.814    9069.4421    48.3523   113.8958

 330.00  VIB.     0.5948D+05                  6936.3579    41.7033    42.8654
         ROT.     0.1271D+07                   983.6672     2.9808    30.9115
         INT.     0.7559D+11                  7920.0251    44.6842    73.7769
         TRA.     0.2284D+28                  1639.4454     4.9680    41.6267
         TOT.                       -3.324    9559.4705    49.6522   115.4036

 340.00  VIB.     0.8195D+05                  7359.8566    42.9948    44.1296
         ROT.     0.1329D+07                  1013.4753     2.9808    31.0005
         INT.     0.1089D+12                  8373.3319    45.9756    75.1301
         TRA.     0.2388D+28                  1689.1255     4.9680    41.7750
         TOT.                       -2.821   10062.4574    50.9436   116.9050

 350.00  VIB.     0.1129D+06                  7796.2181    44.2756    45.3944
         ROT.     0.1388D+07                  1043.2834     2.9808    31.0869
         INT.     0.1567D+12                  8839.5015    47.2564    76.4813
         TRA.     0.2494D+28                  1738.8057     4.9680    41.9190
         TOT.                       -2.305   10578.3072    52.2244   118.4003

 360.00  VIB.     0.1555D+06                  8245.3260    45.5437    46.6595
         ROT.     0.1448D+07                  1073.0915     2.9808    31.1708
         INT.     0.2252D+12                  9318.4176    48.5246    77.8304
         TRA.     0.2602D+28                  1788.4859     4.9680    42.0589
         TOT.                       -1.777   11106.9034    53.4926   119.8893

 370.00  VIB.     0.2142D+06                  8707.0452    46.7975    47.9245
         ROT.     0.1509D+07                  1102.8996     2.9808    31.2525
         INT.     0.3231D+12                  9809.9448    49.7784    79.1770
         TRA.     0.2711D+28                  1838.1660     4.9680    42.1951
         TOT.                       -1.235   11648.1108    54.7464   121.3721

 380.00  VIB.     0.2949D+06                  9181.2240    48.0355    49.1890
         ROT.     0.1570D+07                  1132.7077     2.9808    31.3320
         INT.     0.4632D+12                 10313.9317    51.0163    80.5210
         TRA.     0.2822D+28                  1887.8462     4.9680    42.3275
         TOT.                       -0.682   12201.7779    55.9843   122.8485

 390.00  VIB.     0.4061D+06                  9667.6970    49.2562    50.4525
         ROT.     0.1633D+07                  1162.5158     2.9808    31.4094
         INT.     0.6631D+12                 10830.2128    52.2370    81.8620
         TRA.     0.2934D+28                  1937.5263     4.9680    42.4566
         TOT.                       -0.116   12767.7391    57.2050   124.3186

 400.00  VIB.     0.5592D+06                 10166.2865    50.4586    51.7148
         ROT.     0.1696D+07                  1192.3239     2.9808    31.4849
         INT.     0.9484D+12                 11358.6104    53.4394    83.1997
         TRA.     0.3048D+28                  1987.2065     4.9680    42.5824
         TOT.                        0.462   13345.8169    58.4074   125.7821

   *: NOTE: HEATS OF FORMATION ARE RELATIVE TO THE
            ELEMENTS IN THEIR STANDARD STATE AT 298K
              (=  Standard Enthalpy of Formation).

            Hvib:  Zero-point energy is not included.
                   frequencies of less than zero cm-1 are not included.
            Hrot = (3/2)RT
            Htra = (3/2)RT + pV = (5/2)RT

            Heat capacity is Cp, not Cv

          For more information, see: HTTP://OpenMOPAC.net/Manual/thermochemistry.html


           FORCE CONSTANT IN CARTESIAN COORDINATES (Millidynes/A)

    ATOM   CHEMICAL       X               Y               Z
   NUMBER   SYMBOL  FORCE CONSTANT  FORCE CONSTANT  FORCE CONSTANT

      1       O        3.895323        6.189346        1.068594
      2       O        2.882977        6.032333        0.752868
      3       O        0.826897        5.419735        2.967903
      4       O        1.305955        8.432487        2.422122
      5       C        8.111266        8.621527        7.682070
      6       C        7.804644        8.370653        8.137704
      7       C        8.434346        8.128083        7.924038
      8       C        8.353833        8.287318        8.596243
      9       C        8.824014        8.085782        8.359523
     10       C       10.143538        6.641417       10.342080
     11       C       10.113493        6.668632       10.350452
     12       H        2.335031        1.306898        2.221757
     13       H        0.789416        2.855367        2.779483
     14       H        2.756222        1.100301        2.586711
     15       H        3.850834        0.762839        1.810640
     16       H        3.001067        1.240119        2.201534
     17       H        2.682992        0.999280        2.676282
     18       H        3.125229        1.540906        1.608842
     19       H        0.949268        2.057539        3.355561
     20       H        2.029859        1.048838        3.191047
     21       H        4.715654        0.749717        0.739830
     22       H        1.769706        2.340046        2.095424
     23       H        1.073672        7.831195        1.033920

 **********************
 *                    *
 * JOB ENDED NORMALLY *
 *                    *
 **********************



 TOTAL JOB TIME:             3.32 SECONDS

 == MOPAC DONE ==
