 *******************************************************************************
 ** Site#: 14399        For non-commercial use only    Version 18.184L 64BITS **
 *******************************************************************************
 ** Cite this program as: MOPAC2016, Version: 18.184L, James J. P. Stewart,   **
 ** Stewart Computational Chemistry, web: HTTP://OpenMOPAC.net. Days left:  18**
 *******************************************************************************
 **                                                                           **
 **                                MOPAC2016                                  **
 **                                                                           **
 *******************************************************************************

                              PM3 CALCULATION RESULTS

 *******************************************************************************
 *  CALCULATION DONE:                                Sat Jun 15 10:20:30 2019  *
 *  PM3        - The PM3 Hamiltonian to be used
 *  PRECISE    - CRITERIA TO BE INCREASED BY 100 TIMES
 *  NOSYM      - POINT-GROUP SYMMETRY SET TO C1
 *  THREADS=1  - MULTI-THREADING NOT USED
 *  T=         - A TIME OF 172800.0 SECONDS REQUESTED
 *  DUMP=N     - RESTART FILE WRITTEN EVERY  7200.000 SECONDS
 *******************************************************************************
pm3  precise nosym THREADS=1
 InChI=1S/C7H10/c1-2-6-4-5-7(6)3-1/h6-7H,1-4H2/lp5

   ATOM   CHEMICAL          X               Y               Z
  NUMBER   SYMBOL      (ANGSTROMS)     (ANGSTROMS)     (ANGSTROMS)
 
     1       C          0.82740000  *   0.11760000  *  -0.65430000  *
     2       C          0.21600000  *  -1.19950000  *  -0.21520000  *
     3       C         -0.25780000  *   1.18620000  *  -0.51990000  *
     4       C         -1.22390000  *  -0.91940000  *   0.20760000  *
     5       C         -1.33140000  *   0.59020000  *   0.38080000  *
     6       C          1.80560000  *   0.04840000  *   0.51780000  *
     7       C          1.18820000  *  -1.26950000  *   0.95660000  *
     8       H          1.32080000  *   0.07690000  *  -1.65060000  *
     9       H          0.34400000  *  -2.03050000  *  -0.94250000  *
    10       H         -2.34310000  *   0.95970000  *   0.10610000  *
    11       H         -1.11920000  *   0.85880000  *   1.43920000  *
    12       H         -0.69160000  *   1.38630000  *  -1.52390000  *
    13       H          0.14210000  *   2.13760000  *  -0.10690000  *
    14       H         -1.90820000  *  -1.24580000  *  -0.60560000  *
    15       H         -1.49310000  *  -1.45710000  *   1.14280000  *
    16       H          1.66650000  *   0.84370000  *   1.28180000  *
    17       H          2.85760000  *  -0.08350000  *   0.18610000  *
 


          CARTESIAN COORDINATES 

    NO.       ATOM           X           Y           Z

     1         C          0.8274      0.1176     -0.6543
     2         C          0.2160     -1.1995     -0.2152
     3         C         -0.2578      1.1862     -0.5199
     4         C         -1.2239     -0.9194      0.2076
     5         C         -1.3314      0.5902      0.3808
     6         C          1.8056      0.0484      0.5178
     7         C          1.1882     -1.2695      0.9566
     8         H          1.3208      0.0769     -1.6506
     9         H          0.3440     -2.0305     -0.9425
    10         H         -2.3431      0.9597      0.1061
    11         H         -1.1192      0.8588      1.4392
    12         H         -0.6916      1.3863     -1.5239
    13         H          0.1421      2.1376     -0.1069
    14         H         -1.9082     -1.2458     -0.6056
    15         H         -1.4931     -1.4571      1.1428
    16         H          1.6665      0.8437      1.2818
    17         H          2.8576     -0.0835      0.1861

  H: (PM3): J. J. P. STEWART, J. COMP. CHEM. 10, 209 (1989).
  C: (PM3): J. J. P. STEWART, J. COMP. CHEM. 10, 209 (1989).

           Empirical Formula: C7 H10  =    17 atoms



      MOLECULAR POINT GROUP   :   C1  


      RHF CALCULATION, NO. OF DOUBLY OCCUPIED LEVELS = 19


          Geometry optimization using EF

          DIAGONAL MATRIX USED AS START HESSIAN

 CYCLE:     1 TIME:   0.008 TIME LEFT:  2.00D  GRAD.:    64.032 HEAT:  88.19994
 CYCLE:     2 TIME:   0.008 TIME LEFT:  2.00D  GRAD.:    33.885 HEAT:  86.83788
 CYCLE:     3 TIME:   0.000 TIME LEFT:  2.00D  GRAD.:    56.182 HEAT:  86.69759
 CYCLE:     4 TIME:   0.004 TIME LEFT:  2.00D  GRAD.:    35.394 HEAT:  85.77494
 CYCLE:     5 TIME:   0.008 TIME LEFT:  2.00D  GRAD.:    32.569 HEAT:  85.54449
 CYCLE:     6 TIME:   0.004 TIME LEFT:  2.00D  GRAD.:    14.149 HEAT:  85.24322
 CYCLE:     7 TIME:   0.004 TIME LEFT:  2.00D  GRAD.:     9.184 HEAT:  85.16644
 CYCLE:     8 TIME:   0.004 TIME LEFT:  2.00D  GRAD.:     8.009 HEAT:  85.11203
 CYCLE:     9 TIME:   0.004 TIME LEFT:  2.00D  GRAD.:    11.880 HEAT:  85.08817
 CYCLE:    10 TIME:   0.000 TIME LEFT:  2.00D  GRAD.:    13.478 HEAT:  85.08625
 CYCLE:    11 TIME:   0.008 TIME LEFT:  2.00D  GRAD.:     6.175 HEAT:  85.04200
 CYCLE:    12 TIME:   0.004 TIME LEFT:  2.00D  GRAD.:     4.773 HEAT:  85.03271
 CYCLE:    13 TIME:   0.004 TIME LEFT:  2.00D  GRAD.:     3.178 HEAT:  85.02335
 CYCLE:    14 TIME:   0.000 TIME LEFT:  2.00D  GRAD.:     4.240 HEAT:  85.01951
 CYCLE:    15 TIME:   0.004 TIME LEFT:  2.00D  GRAD.:     5.061 HEAT:  85.01591
 CYCLE:    16 TIME:   0.004 TIME LEFT:  2.00D  GRAD.:     3.790 HEAT:  85.00818
 CYCLE:    17 TIME:   0.004 TIME LEFT:  2.00D  GRAD.:     3.779 HEAT:  85.00348
 CYCLE:    18 TIME:   0.004 TIME LEFT:  2.00D  GRAD.:     2.989 HEAT:  84.99588
 CYCLE:    19 TIME:   0.000 TIME LEFT:  2.00D  GRAD.:     5.955 HEAT:  84.99335
 CYCLE:    20 TIME:   0.004 TIME LEFT:  2.00D  GRAD.:     4.491 HEAT:  84.97717
 CYCLE:    21 TIME:   0.004 TIME LEFT:  2.00D  GRAD.:     6.324 HEAT:  84.96841
 CYCLE:    22 TIME:   0.004 TIME LEFT:  2.00D  GRAD.:     3.391 HEAT:  84.95025
 CYCLE:    23 TIME:   0.000 TIME LEFT:  2.00D  GRAD.:     3.334 HEAT:  84.93768
 CYCLE:    24 TIME:   0.004 TIME LEFT:  2.00D  GRAD.:     3.702 HEAT:  84.92467
 CYCLE:    25 TIME:   0.004 TIME LEFT:  2.00D  GRAD.:     2.773 HEAT:  84.90654
 CYCLE:    26 TIME:   0.004 TIME LEFT:  2.00D  GRAD.:     2.250 HEAT:  84.89044
 CYCLE:    27 TIME:   0.000 TIME LEFT:  2.00D  GRAD.:     1.848 HEAT:  84.88318
 CYCLE:    28 TIME:   0.004 TIME LEFT:  2.00D  GRAD.:     1.473 HEAT:  84.87854
 CYCLE:    29 TIME:   0.004 TIME LEFT:  2.00D  GRAD.:     1.285 HEAT:  84.87497
 CYCLE:    30 TIME:   0.004 TIME LEFT:  2.00D  GRAD.:     1.096 HEAT:  84.87155
 CYCLE:    31 TIME:   0.004 TIME LEFT:  2.00D  GRAD.:     0.946 HEAT:  84.86929
 CYCLE:    32 TIME:   0.000 TIME LEFT:  2.00D  GRAD.:     0.958 HEAT:  84.86697
 CYCLE:    33 TIME:   0.004 TIME LEFT:  2.00D  GRAD.:     0.834 HEAT:  84.86526
 CYCLE:    34 TIME:   0.004 TIME LEFT:  2.00D  GRAD.:     0.794 HEAT:  84.86379
 CYCLE:    35 TIME:   0.004 TIME LEFT:  2.00D  GRAD.:     0.839 HEAT:  84.86254
 CYCLE:    36 TIME:   0.000 TIME LEFT:  2.00D  GRAD.:     0.747 HEAT:  84.86148
 CYCLE:    37 TIME:   0.004 TIME LEFT:  2.00D  GRAD.:     0.499 HEAT:  84.86056
 CYCLE:    38 TIME:   0.004 TIME LEFT:  2.00D  GRAD.:     0.296 HEAT:  84.86011
 CYCLE:    39 TIME:   0.004 TIME LEFT:  2.00D  GRAD.:     0.246 HEAT:  84.85993
 CYCLE:    40 TIME:   0.000 TIME LEFT:  2.00D  GRAD.:     0.258 HEAT:  84.85976
 CYCLE:    41 TIME:   0.004 TIME LEFT:  2.00D  GRAD.:     0.244 HEAT:  84.85965
 CYCLE:    42 TIME:   0.004 TIME LEFT:  2.00D  GRAD.:     0.261 HEAT:  84.85949
 CYCLE:    43 TIME:   0.004 TIME LEFT:  2.00D  GRAD.:     0.270 HEAT:  84.85935
 CYCLE:    44 TIME:   0.004 TIME LEFT:  2.00D  GRAD.:     0.311 HEAT:  84.85918
 CYCLE:    45 TIME:   0.000 TIME LEFT:  2.00D  GRAD.:     0.321 HEAT:  84.85899
 CYCLE:    46 TIME:   0.004 TIME LEFT:  2.00D  GRAD.:     0.286 HEAT:  84.85872
 CYCLE:    47 TIME:   0.004 TIME LEFT:  2.00D  GRAD.:     0.243 HEAT:  84.85860
 CYCLE:    48 TIME:   0.004 TIME LEFT:  2.00D  GRAD.:     0.229 HEAT:  84.85852
 CYCLE:    49 TIME:   0.000 TIME LEFT:  2.00D  GRAD.:     0.163 HEAT:  84.85841
 CYCLE:    50 TIME:   0.004 TIME LEFT:  2.00D  GRAD.:     0.121 HEAT:  84.85838
 CYCLE:    51 TIME:   0.004 TIME LEFT:  2.00D  GRAD.:     0.098 HEAT:  84.85833
 CYCLE:    52 TIME:   0.004 TIME LEFT:  2.00D  GRAD.:     0.124 HEAT:  84.85837
 CYCLE:    53 TIME:   0.000 TIME LEFT:  2.00D  GRAD.:     0.067 HEAT:  84.85829
 CYCLE:    54 TIME:   0.004 TIME LEFT:  2.00D  GRAD.:     0.055 HEAT:  84.85828
 CYCLE:    55 TIME:   0.004 TIME LEFT:  2.00D  GRAD.:     0.046 HEAT:  84.85828

     GRADIENT =  0.04551  IS LESS THAN CUTOFF =  0.05000



 -------------------------------------------------------------------------------
 pm3  precise nosym THREADS=1
 InChI=1S/C7H10/c1-2-6-4-5-7(6)3-1/h6-7H,1-4H2/lp5



     GEOMETRY OPTIMISED USING EIGENVECTOR FOLLOWING (EF).     
     SCF FIELD WAS ACHIEVED                                   


                              PM3 CALCULATION
                                                       MOPAC2016 (Version: 18.184L)
                                                       Sat Jun 15 10:20:30 2019
                                                       No. of days remaining =  18




          FINAL HEAT OF FORMATION =         84.85828 KCAL/MOL =     355.04702 KJ/MOL


          TOTAL ENERGY            =       -980.12989 EV
          ELECTRONIC ENERGY       =      -4700.27135 EV  POINT GROUP:     C1  
          CORE-CORE REPULSION     =       3720.14146 EV
          COSMO AREA              =        139.45 SQUARE ANGSTROMS
          COSMO VOLUME            =        136.30 CUBIC ANGSTROMS

          GRADIENT NORM           =          0.04551 = 0.01104 PER ATOM
          IONIZATION POTENTIAL    =          9.149581 EV
          HOMO LUMO ENERGIES (EV) =         -9.150 -0.545
          NO. OF FILLED LEVELS    =         19
          MOLECULAR WEIGHT        =         94.1560

          MOLECULAR DIMENSIONS (Angstroms)

            Atom       Atom       Distance
            H    17    H    10     5.34947
            H     9    H    13     4.18194
            H    15    H     8     3.35592


          SCF CALCULATIONS        =         63
 
          WALL-CLOCK TIME         =          0.191 SECONDS
          COMPUTATION TIME        =          0.169 SECONDS




   ATOM   CHEMICAL          X               Y               Z
  NUMBER   SYMBOL      (ANGSTROMS)     (ANGSTROMS)     (ANGSTROMS)
 
     1       C          0.82451895  *   0.14959999  *  -0.67003274  *
     2       C          0.20901350  *  -1.20547047  *  -0.20042717  *
     3       C         -0.24762955  *   1.21046949  *  -0.50780775  *
     4       C         -1.21877647  *  -0.93522520  *   0.23979723  *
     5       C         -1.36585490  *   0.58546025  *   0.32905281  *
     6       C          1.82844011  *   0.00993716  *   0.50520111  *
     7       C          1.20162591  *  -1.27961330  *   0.93682358  *
     8       H          1.29128543  *   0.16246138  *  -1.67152111  *
     9       H          0.29804903  *  -2.05780178  *  -0.90070555  *
    10       H         -2.36184930  *   0.91510759  *  -0.01705207  *
    11       H         -1.29184139  *   0.91896083  *   1.38164942  *
    12       H         -0.62895989  *   1.52357294  *  -1.49764885  *
    13       H          0.15442574  *   2.12609944  *  -0.03628208  *
    14       H         -1.93183731  *  -1.35851658  *  -0.49140519  *
    15       H         -1.44102959  *  -1.42878602  *   1.20383974  *
    16       H          1.77468764  *   0.79572141  *   1.27775847  *
    17       H          2.88788501  *  -0.08567485  *   0.21868764  *

                             CARTESIAN COORDINATES

   1    C        0.824518949     0.149599991    -0.670032735
   2    C        0.209013497    -1.205470468    -0.200427166
   3    C       -0.247629548     1.210469492    -0.507807752
   4    C       -1.218776467    -0.935225203     0.239797235
   5    C       -1.365854899     0.585460254     0.329052814
   6    C        1.828440109     0.009937157     0.505201107
   7    C        1.201625915    -1.279613302     0.936823578
   8    H        1.291285432     0.162461381    -1.671521107
   9    H        0.298049030    -2.057801782    -0.900705546
  10    H       -2.361849296     0.915107591    -0.017052071
  11    H       -1.291841387     0.918960835     1.381649419
  12    H       -0.628959891     1.523572941    -1.497648847
  13    H        0.154425741     2.126099443    -0.036282079
  14    H       -1.931837308    -1.358516581    -0.491405191
  15    H       -1.441029594    -1.428786019     1.203839737
  16    H        1.774687644     0.795721412     1.277758467
  17    H        2.887885009    -0.085674854     0.218687640


           Empirical Formula: C7 H10  =    17 atoms



      MOLECULAR POINT GROUP   :   C1  


                  EIGENVALUES  
 -42.09060 -32.49331 -29.17913 -24.74134 -21.37226 -19.80838 -17.84272 -16.97418
 -16.36409 -14.88671 -14.29806 -13.70828 -13.19210 -13.01392 -12.76584 -12.39937
 -11.60638 -11.32950  -9.14958  -0.54483   2.90337   3.07744   3.37018   3.40791
   3.55847   3.60249   3.71553   3.93949   3.96747   4.07128   4.10764   4.21652
   4.43118   4.69465   4.91803   4.97116   5.00751   5.22352


              NET ATOMIC CHARGES AND DIPOLE CONTRIBUTIONS

  ATOM NO.   TYPE          CHARGE      No. of ELECS.   s-Pop       p-Pop       
    1          C          -0.101131        4.1011     1.20258     2.89855
    2          C          -0.249493        4.2495     1.21900     3.03049
    3          C          -0.089194        4.0892     1.16100     2.92820
    4          C          -0.051584        4.0516     1.15417     2.89741
    5          C          -0.102982        4.1030     1.16619     2.93680
    6          C          -0.271954        4.2720     1.19952     3.07244
    7          C           0.130664        3.8693     1.73242     2.13692
    8          H           0.078661        0.9213     0.92134
    9          H           0.112572        0.8874     0.88743
   10          H           0.053587        0.9464     0.94641
   11          H           0.050091        0.9499     0.94991
   12          H           0.052522        0.9475     0.94748
   13          H           0.056556        0.9434     0.94344
   14          H           0.049930        0.9501     0.95007
   15          H           0.064527        0.9355     0.93547
   16          H           0.110881        0.8891     0.88912
   17          H           0.106347        0.8937     0.89365
 DIPOLE           X         Y         Z       TOTAL
 POINT-CHG.    -0.078    -0.042     0.358     0.369
 HYBRID        -0.258     1.412    -1.617     2.162
 SUM           -0.335     1.370    -1.259     1.891


          ATOMIC ORBITAL ELECTRON POPULATIONS

     Atom    s        px        py        pz   
    1  C   1.20258   0.96021   0.95577   0.98257
    2  C   1.21900   1.00139   0.98200   1.04710
    3  C   1.16100   0.95630   0.96952   1.00237
    4  C   1.15417   0.92735   0.95302   1.01704
    5  C   1.16619   0.98361   0.95284   1.00034
    6  C   1.19952   1.00711   1.06526   1.00007
    7  C   1.73242   0.57447   0.79160   0.77085
    8  H   0.92134
    9  H   0.88743
   10  H   0.94641
   11  H   0.94991
   12  H   0.94748
   13  H   0.94344
   14  H   0.95007
   15  H   0.93547
   16  H   0.88912
   17  H   0.89365
 *******************************************************************************
 ** Site#: 14399        For non-commercial use only    Version 18.184L 64BITS **
 *******************************************************************************
 ** Cite this program as: MOPAC2016, Version: 18.184L, James J. P. Stewart,   **
 ** Stewart Computational Chemistry, web: HTTP://OpenMOPAC.net. Days left:  18**
 *******************************************************************************
 **                                                                           **
 **                                MOPAC2016                                  **
 **                                                                           **
 *******************************************************************************

                              PM3 CALCULATION RESULTS

 *******************************************************************************
 *  CALCULATION DONE:                                Sat Jun 15 10:20:30 2019  *
 *  PM3        - The PM3 Hamiltonian to be used
 *  OLDGEO     - PREVIOUS GEOMETRY TO BE USED
 *  PRECISE    - CRITERIA TO BE INCREASED BY 100 TIMES
 *  NOSYM      - POINT-GROUP SYMMETRY SET TO C1
 *  THREADS=1  - MULTI-THREADING NOT USED
 *  T=         - A TIME OF 172800.0 SECONDS REQUESTED
 *  DUMP=N     - RESTART FILE WRITTEN EVERY  7200.000 SECONDS
 *  THERMO     - THERMODYNAMIC QUANTITIES TO BE CALCULATED
 *******************************************************************************
oldgeo thermo nosym precise THREADS=1  pm3
 InChI=1S/C7H10/c1-2-6-4-5-7(6)3-1/h6-7H,1-4H2/lp5

   ATOM   CHEMICAL          X               Y               Z
  NUMBER   SYMBOL      (ANGSTROMS)     (ANGSTROMS)     (ANGSTROMS)
 
     1       C          0.82451895  *   0.14959999  *  -0.67003274  *
     2       C          0.20901350  *  -1.20547047  *  -0.20042717  *
     3       C         -0.24762955  *   1.21046949  *  -0.50780775  *
     4       C         -1.21877647  *  -0.93522520  *   0.23979723  *
     5       C         -1.36585490  *   0.58546025  *   0.32905281  *
     6       C          1.82844011  *   0.00993716  *   0.50520111  *
     7       C          1.20162591  *  -1.27961330  *   0.93682358  *
     8       H          1.29128543  *   0.16246138  *  -1.67152111  *
     9       H          0.29804903  *  -2.05780178  *  -0.90070555  *
    10       H         -2.36184930  *   0.91510759  *  -0.01705207  *
    11       H         -1.29184139  *   0.91896083  *   1.38164942  *
    12       H         -0.62895989  *   1.52357294  *  -1.49764885  *
    13       H          0.15442574  *   2.12609944  *  -0.03628208  *
    14       H         -1.93183731  *  -1.35851658  *  -0.49140519  *
    15       H         -1.44102959  *  -1.42878602  *   1.20383974  *
    16       H          1.77468764  *   0.79572141  *   1.27775847  *
    17       H          2.88788501  *  -0.08567485  *   0.21868764  *
 


          CARTESIAN COORDINATES 

    NO.       ATOM           X           Y           Z

     1         C          0.8245      0.1496     -0.6700
     2         C          0.2090     -1.2055     -0.2004
     3         C         -0.2476      1.2105     -0.5078
     4         C         -1.2188     -0.9352      0.2398
     5         C         -1.3659      0.5855      0.3291
     6         C          1.8284      0.0099      0.5052
     7         C          1.2016     -1.2796      0.9368
     8         H          1.2913      0.1625     -1.6715
     9         H          0.2980     -2.0578     -0.9007
    10         H         -2.3618      0.9151     -0.0171
    11         H         -1.2918      0.9190      1.3816
    12         H         -0.6290      1.5236     -1.4976
    13         H          0.1544      2.1261     -0.0363
    14         H         -1.9318     -1.3585     -0.4914
    15         H         -1.4410     -1.4288      1.2038
    16         H          1.7747      0.7957      1.2778
    17         H          2.8879     -0.0857      0.2187

  H: (PM3): J. J. P. STEWART, J. COMP. CHEM. 10, 209 (1989).
  C: (PM3): J. J. P. STEWART, J. COMP. CHEM. 10, 209 (1989).

           Empirical Formula: C7 H10  =    17 atoms



      MOLECULAR POINT GROUP   :   C1  


      RHF CALCULATION, NO. OF DOUBLY OCCUPIED LEVELS = 19



          HEAT OF FORMATION =      84.858276 KCALS/MOLE


          CARTESIAN COORDINATE DERIVATIVES

   NUMBER  ATOM         X            Y            Z

     1       C      0.004480     0.001832     0.002196
     2       C      0.001357     0.002558     0.000001
     3       C      0.001499    -0.003879     0.001227
     4       C     -0.002024    -0.002922     0.003811
     5       C      0.003696     0.001027     0.006946
     6       C      0.007484     0.007067     0.004236
     7       C      0.005368    -0.001550     0.003422
     8       H     -0.005568     0.001974    -0.002099
     9       H      0.000750    -0.015826    -0.003226
    10       H      0.001880     0.019168     0.004295
    11       H     -0.003007    -0.002839    -0.009382
    12       H     -0.004972     0.004586     0.001917
    13       H     -0.005184    -0.019385    -0.009224
    14       H      0.003659    -0.000439     0.001169
    15       H     -0.006631    -0.007185    -0.007451
    16       H     -0.006105     0.001841    -0.001337
    17       H      0.003318     0.013973     0.003499
 


          GRADIENT NORM =   0.04552

          MOLECULAR WEIGHT =   94.16



          ROTATIONAL CONSTANTS IN CM(-1)

          A =    0.14880004   B =    0.10077444   C =    0.07562799



           PRINCIPAL MOMENTS OF INERTIA IN UNITS OF 10**(-40)*GRAM-CM**2

          A =      188.1234   B =      277.7765   C =      370.1378


          ORIENTATION OF MOLECULE IN FORCE CALCULATION

    NO.       ATOM         X         Y         Z

     1          C      -0.7708   -0.5918    0.4205
     2          C       0.7898   -0.5918    0.4205
     3          C      -1.2203    0.8571    0.4205
     4          C       1.2508    0.8549    0.4156
     5          C       0.0153    1.7039    0.1078
     6          C      -0.6918   -1.2809   -0.9679
     7          C       0.8050   -1.2486   -0.9406
     8          H      -1.2674   -1.1940    1.2026
     9          H       1.2841   -1.2069    1.1965
    10          H       0.0177    2.6443    0.6875
    11          H       0.0132    2.0105   -0.9555
    12          H      -1.6396    1.1276    1.4075
    13          H      -2.0320    1.0310   -0.3098
    14          H       1.6795    1.1237    1.3986
    15          H       2.0571    1.0160   -0.3235
    16          H      -1.1204   -0.7122   -1.8105
    17          H      -1.1129   -2.2976   -1.0204


    FIRST DERIVATIVES WILL BE USED IN THE CALCULATION OF SECOND DERIVATIVES

    FOR POINT-GROUP C1   THERE ARE   1 UNIQUE SYMMETRY FUNCTIONS.

 STEP:   1 TIME =     0.01 SECS, INTEGRAL =      0.01 TIME LEFT: 172799.99
 STEP:   2 TIME =     0.01 SECS, INTEGRAL =      0.02 TIME LEFT: 172799.98
 STEP:   3 TIME =     0.01 SECS, INTEGRAL =      0.04 TIME LEFT: 172799.96
 STEP:   4 TIME =     0.01 SECS, INTEGRAL =      0.05 TIME LEFT: 172799.95
 STEP:   5 TIME =     0.02 SECS, INTEGRAL =      0.06 TIME LEFT: 172799.94
 STEP:   6 TIME =     0.01 SECS, INTEGRAL =      0.07 TIME LEFT: 172799.93
 STEP:   7 TIME =     0.01 SECS, INTEGRAL =      0.09 TIME LEFT: 172799.91
 STEP:   8 TIME =     0.01 SECS, INTEGRAL =      0.10 TIME LEFT: 172799.90
 STEP:   9 TIME =     0.01 SECS, INTEGRAL =      0.11 TIME LEFT: 172799.89
 STEP:  10 TIME =     0.01 SECS, INTEGRAL =      0.12 TIME LEFT: 172799.88
 STEP:  11 TIME =     0.01 SECS, INTEGRAL =      0.13 TIME LEFT: 172799.87
 STEP:  12 TIME =     0.01 SECS, INTEGRAL =      0.14 TIME LEFT: 172799.86
 STEP:  13 TIME =     0.01 SECS, INTEGRAL =      0.15 TIME LEFT: 172799.85
 STEP:  14 TIME =     0.01 SECS, INTEGRAL =      0.16 TIME LEFT: 172799.84
 STEP:  15 TIME =     0.01 SECS, INTEGRAL =      0.18 TIME LEFT: 172799.82
 STEP:  16 TIME =     0.01 SECS, INTEGRAL =      0.19 TIME LEFT: 172799.81
 STEP:  17 TIME =     0.01 SECS, INTEGRAL =      0.20 TIME LEFT: 172799.80
 STEP:  18 TIME =     0.01 SECS, INTEGRAL =      0.21 TIME LEFT: 172799.79
 STEP:  19 TIME =     0.01 SECS, INTEGRAL =      0.22 TIME LEFT: 172799.78
 STEP:  20 TIME =     0.01 SECS, INTEGRAL =      0.23 TIME LEFT: 172799.77
 STEP:  21 TIME =     0.01 SECS, INTEGRAL =      0.25 TIME LEFT: 172799.75
 STEP:  22 TIME =     0.01 SECS, INTEGRAL =      0.26 TIME LEFT: 172799.74
 STEP:  23 TIME =     0.01 SECS, INTEGRAL =      0.27 TIME LEFT: 172799.73
 STEP:  24 TIME =     0.02 SECS, INTEGRAL =      0.29 TIME LEFT: 172799.71
 STEP:  25 TIME =     0.01 SECS, INTEGRAL =      0.30 TIME LEFT: 172799.70
 STEP:  26 TIME =     0.01 SECS, INTEGRAL =      0.31 TIME LEFT: 172799.69
 STEP:  27 TIME =     0.01 SECS, INTEGRAL =      0.32 TIME LEFT: 172799.68
 STEP:  28 TIME =     0.01 SECS, INTEGRAL =      0.33 TIME LEFT: 172799.67
 STEP:  29 TIME =     0.01 SECS, INTEGRAL =      0.34 TIME LEFT: 172799.66
 STEP:  30 TIME =     0.01 SECS, INTEGRAL =      0.36 TIME LEFT: 172799.64
 STEP:  31 TIME =     0.01 SECS, INTEGRAL =      0.37 TIME LEFT: 172799.63
 STEP:  32 TIME =     0.01 SECS, INTEGRAL =      0.38 TIME LEFT: 172799.62
 STEP:  33 TIME =     0.01 SECS, INTEGRAL =      0.39 TIME LEFT: 172799.61
 STEP:  34 TIME =     0.01 SECS, INTEGRAL =      0.40 TIME LEFT: 172799.60
 STEP:  35 TIME =     0.01 SECS, INTEGRAL =      0.41 TIME LEFT: 172799.59
 STEP:  36 TIME =     0.01 SECS, INTEGRAL =      0.43 TIME LEFT: 172799.57
 STEP:  37 TIME =     0.01 SECS, INTEGRAL =      0.44 TIME LEFT: 172799.56
 STEP:  38 TIME =     0.01 SECS, INTEGRAL =      0.45 TIME LEFT: 172799.55
 STEP:  39 TIME =     0.01 SECS, INTEGRAL =      0.46 TIME LEFT: 172799.54
 STEP:  40 TIME =     0.01 SECS, INTEGRAL =      0.47 TIME LEFT: 172799.53
 STEP:  41 TIME =     0.01 SECS, INTEGRAL =      0.48 TIME LEFT: 172799.52
 STEP:  42 TIME =     0.01 SECS, INTEGRAL =      0.49 TIME LEFT: 172799.51
 STEP:  43 TIME =     0.01 SECS, INTEGRAL =      0.50 TIME LEFT: 172799.50
 STEP:  44 TIME =     0.01 SECS, INTEGRAL =      0.52 TIME LEFT: 172799.48
 STEP:  45 TIME =     0.01 SECS, INTEGRAL =      0.53 TIME LEFT: 172799.47
 STEP:  46 TIME =     0.01 SECS, INTEGRAL =      0.54 TIME LEFT: 172799.46
 STEP:  47 TIME =     0.01 SECS, INTEGRAL =      0.55 TIME LEFT: 172799.45
 STEP:  48 TIME =     0.02 SECS, INTEGRAL =      0.57 TIME LEFT: 172799.43
 STEP:  49 TIME =     0.01 SECS, INTEGRAL =      0.58 TIME LEFT: 172799.42
 STEP:  50 TIME =     0.01 SECS, INTEGRAL =      0.59 TIME LEFT: 172799.41
 STEP:  51 TIME =     0.01 SECS, INTEGRAL =      0.60 TIME LEFT: 172799.40

(To convert to Hartree/Bohr^2, multiply by (10^(-21) x N x a0^2)/(4.184 x 627.51) =  0.0642)


           FORCE MATRIX IN MILLIDYNES/ANGSTROM


                  C  1       C  2       C  3       C  4       C  5       C  6
 ------------------------------------------------------------------------------
     C    1  14.509921
     C    2   3.032728  14.239923
     C    3   4.230425   0.690819  14.465601
     C    4   0.678849   4.108772   0.709423  14.338221
     C    5   0.771179   0.775785   3.901887   3.893172  14.283357
     C    6   3.316566   2.061877   0.516208   0.060908   0.034184  14.066772
     C    7   2.011268   4.188937   0.059066   0.498996   0.041059   4.562313
     H    8   4.595930   0.411798   0.425958   0.029827   0.038277   0.420053
     H    9   0.416641   4.542525   0.029922   0.440190   0.035101   0.049279
     H   10   0.039596   0.040734   0.437989   0.434116   4.570908   0.003727
     H   11   0.013974   0.013912   0.441335   0.442616   4.511865   0.002229
     H   12   0.440759   0.009419   4.532659   0.013982   0.441046   0.041044
     H   13   0.444652   0.038640   4.533504   0.039766   0.439204   0.021736
     H   14   0.011011   0.461261   0.013534   4.542636   0.440796   0.012299
     H   15   0.038909   0.444339   0.038219   4.547718   0.437471   0.005072
     H   16   0.443365   0.048100   0.020112   0.013732   0.003748   4.596321
     H   17   0.434876   0.051259   0.034962   0.008219   0.001309   4.653366


                  C  7       H  8       H  9       H 10       H 11       H 12
 ------------------------------------------------------------------------------
     C    7   8.745256
     H    8   0.045277   5.094877
     H    9   0.319255   0.016720   5.036866
     H   10   0.007185   0.004297   0.003399   5.179987
     H   11   0.004746   0.001456   0.001121   0.584370   5.114064
     H   12   0.006477   0.034271   0.001159   0.031467   0.038264   5.125735
     H   13   0.006630   0.015086   0.003932   0.017059   0.031392   0.576407
     H   14   0.029465   0.000850   0.031320   0.031729   0.038007   0.001130
     H   15   0.036543   0.003990   0.015634   0.017237   0.031324   0.001406
     H   16   0.335595   0.028426   0.006118   0.001021   0.002961   0.003231
     H   17   0.333968   0.024954   0.011647   0.000482   0.000321   0.004336


                  H 13       H 14       H 15       H 16       H 17
 ------------------------------------------------------------------
     H   13   5.149313
     H   14   0.001583   5.130994
     H   15   0.003965   0.570491   5.151127
     H   16   0.026581   0.002198   0.001171   5.227006
     H   17   0.003299   0.001751   0.000663   0.561447   5.275664


          HEAT OF FORMATION =      84.858276 KCALS/MOLE

          ZERO POINT ENERGY      93.163 KCAL/MOL


           NORMAL COORDINATE ANALYSIS (Total motion = 1 Angstrom)


   Root No.       1         2         3         4         5         6         7         8

                 1 A       2 A       3 A       4 A       5 A       6 A       7 A       8 A   

                 117.8     158.0     343.4     379.0     615.4     638.3     726.4     784.2
  
           1    0.0002    0.0064   -0.0217    0.0243    0.0226    0.0145   -0.0215   -0.0098
           2    0.0063   -0.0010   -0.0141   -0.0101    0.0511   -0.0274   -0.0036    0.0105
           3   -0.0070    0.0094    0.0182    0.0409    0.0058    0.0188    0.0235   -0.0062
           4   -0.0013    0.0066   -0.0210    0.0253    0.0249   -0.0072   -0.0204    0.0066
           5    0.0059    0.0050   -0.0179   -0.0081   -0.0469   -0.0390    0.0061    0.0116
           6   -0.0064   -0.0210    0.0496    0.0048   -0.0101    0.0181   -0.0260   -0.0048
           7   -0.0068    0.0055   -0.0026   -0.0111   -0.0416    0.0548   -0.0130   -0.0211
           8    0.0034    0.0008   -0.0086   -0.0241    0.0424   -0.0013    0.0221   -0.0082
           9   -0.0289   -0.0324   -0.0122   -0.0388    0.0110   -0.0110    0.0090   -0.0164
          10    0.0070    0.0043    0.0114    0.0025   -0.0327   -0.0632   -0.0086    0.0215
          11    0.0022    0.0033   -0.0305   -0.0015   -0.0450   -0.0111   -0.0155   -0.0070
          12   -0.0282    0.0433   -0.0354    0.0009   -0.0081   -0.0109   -0.0082   -0.0153
          13    0.0008    0.0146    0.0108   -0.0083   -0.0258   -0.0023    0.0060   -0.0000
          14    0.0240    0.0016   -0.0237   -0.0165   -0.0077    0.0644    0.0028   -0.0293
          15    0.0558    0.0014   -0.0085   -0.0058    0.0024   -0.0252    0.0007   -0.0207
          16    0.0000   -0.0195    0.0112   -0.0145    0.0302    0.0023    0.0273    0.0000
          17   -0.0235   -0.0362    0.0132    0.0528    0.0278    0.0008   -0.0504    0.0081
          18    0.0077    0.0263    0.0046    0.0123    0.0156    0.0009    0.0289    0.0156
          19   -0.0001   -0.0195    0.0081   -0.0145    0.0310    0.0027    0.0215    0.0028
          20   -0.0223    0.0392    0.0984   -0.0052   -0.0150    0.0029    0.0264    0.0083
          21    0.0073   -0.0383   -0.0022    0.0002   -0.0251   -0.0069   -0.0178    0.0106
          22    0.0029    0.0209   -0.0525    0.0447    0.0199   -0.0237   -0.0039    0.0024
          23    0.0186    0.0253   -0.0106   -0.0106    0.0638   -0.0064    0.0213    0.0149
          24    0.0047    0.0384    0.0001    0.0514    0.0141    0.0097    0.0520    0.0058
          25   -0.0052    0.0200   -0.0298    0.0543    0.0174    0.0299   -0.0064   -0.0084
          26    0.0167   -0.0301   -0.0158   -0.0076   -0.0629   -0.0142   -0.0426    0.0113
          27    0.0052   -0.0563    0.0527   -0.0135   -0.0180    0.0129   -0.0718    0.0050
          28    0.0011   -0.0041    0.0249   -0.0274    0.0356    0.0046    0.0436   -0.0021
          29   -0.0342    0.0043   -0.0339   -0.0255   -0.0033    0.0113    0.0068   -0.1213
          30    0.1513   -0.0029    0.0077    0.0088   -0.0057    0.0681   -0.0063    0.1344
          31    0.0018    0.0482    0.0037    0.0073   -0.0313   -0.0010    0.0025    0.0017
          32    0.1350   -0.0036   -0.0044    0.0004   -0.0182    0.1851   -0.0043    0.1387
          33    0.0881   -0.0001   -0.0031   -0.0011   -0.0007    0.0115   -0.0016    0.0328
          34   -0.0780   -0.0360   -0.0196   -0.1020   -0.0714    0.1067   -0.0198    0.0927
          35   -0.0049    0.0179    0.0155    0.0220    0.0568    0.0016    0.0511   -0.0222
          36   -0.0569   -0.0549   -0.0263   -0.0916   -0.0055    0.0110   -0.0020    0.0393
          37    0.0395    0.0345    0.0131    0.0399   -0.0329    0.0158    0.0001   -0.0969
          38   -0.0011   -0.0130   -0.0128   -0.0837    0.0142   -0.0303    0.0315    0.0250
          39   -0.0822   -0.0684   -0.0314   -0.1132   -0.0071    0.0284   -0.0030    0.0797
          40    0.0784   -0.0539    0.0988   -0.0068   -0.0530   -0.1252   -0.0103   -0.0851
          41   -0.0066   -0.0234    0.0148    0.0074   -0.0605   -0.0133   -0.0432   -0.0157
          42   -0.0570    0.0764   -0.0875    0.0027    0.0048    0.0176   -0.0001    0.0370
          43   -0.0398    0.0446   -0.0396    0.0034   -0.0302   -0.0202   -0.0011    0.0956
          44   -0.0035    0.0281   -0.0957    0.0105   -0.0123   -0.0323   -0.0195    0.0212
          45   -0.0813    0.0935   -0.1090    0.0047    0.0028    0.0347   -0.0016    0.0751
          46   -0.0010   -0.0935   -0.0621    0.0327   -0.0397   -0.0174    0.2354    0.0092
          47   -0.0439   -0.0930   -0.0276    0.1482   -0.0555    0.0263    0.1096    0.0092
          48   -0.0054    0.0264    0.0163    0.0483    0.0001    0.0281    0.0214    0.0115
          49    0.0012    0.0377    0.1087   -0.0895    0.0825    0.0120   -0.1369   -0.0096
          50   -0.0254   -0.0635   -0.0289    0.0906   -0.0019   -0.0014    0.0342    0.0121
          51    0.0308    0.0832    0.0126   -0.0700    0.1153   -0.0277   -0.1075    0.0221


   Root No.       9        10        11        12        13        14        15        16

                 9 A      10 A      11 A      12 A      13 A      14 A      15 A      16 A   

                 811.2     887.8     927.3     945.3     954.5     988.5    1011.1    1023.1
  
           1   -0.0271   -0.0205   -0.0214    0.0295   -0.0113    0.0130   -0.0023    0.0040
           2   -0.0180   -0.0126   -0.0076    0.0091    0.0080    0.0029   -0.0009    0.0148
           3    0.0297    0.0156    0.0056    0.0164    0.0113   -0.0108   -0.0091    0.0128
           4   -0.0233   -0.0113    0.0476   -0.0148   -0.0164   -0.0134    0.0044   -0.0029
           5    0.0176    0.0085   -0.0191    0.0121    0.0079    0.0193   -0.0157   -0.0136
           6   -0.0261   -0.0209    0.0120    0.0044   -0.0131   -0.0153    0.0055   -0.0006
           7    0.0014   -0.0041   -0.0089   -0.0252    0.0160    0.0054   -0.0211    0.0169
           8    0.0001    0.0001    0.0229    0.0093   -0.0192   -0.0110   -0.0097   -0.0033
           9    0.0251   -0.0253   -0.0038    0.0088    0.0080   -0.0197   -0.0012   -0.0107
          10    0.0049   -0.0021    0.0009    0.0082    0.0029   -0.0242    0.0437    0.0118
          11    0.0026    0.0042    0.0080   -0.0094    0.0022   -0.0227   -0.0032    0.0004
          12   -0.0258    0.0216   -0.0000    0.0206    0.0119   -0.0159   -0.0102   -0.0113
          13    0.0154    0.0010   -0.0039    0.0007   -0.0025    0.0055   -0.0101   -0.0134
          14   -0.0005    0.0018   -0.0051    0.0107    0.0011    0.0022    0.0512   -0.0013
          15   -0.0012    0.0015    0.0004   -0.0184   -0.0119    0.0158   -0.0026    0.0111
          16    0.0141    0.0154   -0.0022   -0.0023    0.0096   -0.0128   -0.0012    0.0034
          17    0.0165    0.0177   -0.0123   -0.0171    0.0228    0.0084   -0.0016   -0.0023
          18   -0.0114    0.0180   -0.0171   -0.0385    0.0008   -0.0053    0.0131   -0.0063
          19    0.0084    0.0142   -0.0348   -0.0138   -0.0013    0.0102    0.0028   -0.0191
          20   -0.0153   -0.0234    0.0070   -0.0024   -0.0013    0.0216    0.0021    0.0041
          21    0.0114   -0.0107    0.0291    0.0082    0.0043    0.0540    0.0104    0.0016
          22   -0.0151   -0.0276   -0.0828    0.1513   -0.0540    0.1225   -0.0486   -0.0016
          23   -0.0444    0.0108   -0.0029   -0.0087   -0.0115    0.0023   -0.0117    0.0762
          24    0.0155    0.0288   -0.0348    0.0796   -0.0294    0.0593   -0.0453    0.0557
          25    0.0041   -0.0007    0.2186   -0.0157    0.0190    0.0747   -0.0383   -0.0983
          26    0.0381   -0.0321   -0.0653   -0.0265   -0.0875   -0.0235   -0.1378   -0.0169
          27   -0.0261   -0.0595   -0.1346   -0.0222   -0.1105   -0.1009   -0.0615    0.0581
          28    0.0590   -0.0574    0.0114    0.0142   -0.0562    0.0388   -0.0246   -0.0800
          29   -0.0043    0.0070   -0.0091   -0.0171   -0.0173    0.0325    0.0817    0.0143
          30    0.0053   -0.0069    0.0095    0.0278    0.0186   -0.0381   -0.0544   -0.0152
          31   -0.0263    0.0718    0.0002    0.0299    0.0093    0.0251   -0.0664   -0.0111
          32    0.0070   -0.0069    0.0112    0.0645    0.0359   -0.0685    0.0072   -0.0348
          33    0.0013   -0.0016    0.0046   -0.0003   -0.0008   -0.0063   -0.0153    0.0007
          34   -0.0864    0.0932    0.0140   -0.0045    0.0128    0.0360   -0.0525    0.0572
          35    0.0617   -0.0033    0.0503    0.0692    0.0310   -0.0984   -0.0979    0.0303
          36   -0.0318    0.0192   -0.0003    0.0017   -0.0075    0.0166    0.0095   -0.0013
          37    0.0682   -0.0582   -0.0108   -0.0640    0.0096   -0.0084   -0.0444   -0.0187
          38   -0.0286    0.0473    0.0644   -0.0888   -0.1129    0.0435   -0.0485   -0.0600
          39   -0.0592    0.0493    0.0080    0.0299   -0.0069    0.0112    0.0133    0.0161
          40   -0.0891    0.0966    0.0009    0.0531    0.0434   -0.0179    0.0090    0.0085
          41   -0.0517   -0.0033    0.0329    0.0229    0.0052   -0.1447   -0.0422   -0.1046
          42    0.0332   -0.0218   -0.0066   -0.0087   -0.0084    0.0137    0.0151    0.0183
          43    0.0771   -0.0637   -0.0210    0.0020   -0.0170   -0.0265    0.0975   -0.0073
          44    0.0334   -0.0134    0.0629   -0.1114   -0.0404    0.0130   -0.0445    0.1452
          45    0.0629   -0.0531   -0.0129   -0.0100   -0.0202   -0.0106    0.0408    0.0016
          46   -0.0556   -0.0671    0.0530   -0.0112    0.1011   -0.0246   -0.0332    0.0689
          47   -0.0110    0.0527   -0.0252   -0.0124   -0.0895   -0.0125    0.0333   -0.0081
          48    0.0099    0.0850   -0.0540   -0.0298   -0.1180   -0.0116    0.0522   -0.0432
          49    0.1379    0.1014    0.0868    0.0556   -0.0341   -0.0230    0.0089    0.0728
          50   -0.0359   -0.0155   -0.0464   -0.0381    0.0322    0.0113   -0.0037   -0.0273
          51   -0.0303   -0.0370   -0.0915   -0.0870    0.1487    0.0341   -0.0247   -0.0501


   Root No.      17        18        19        20        21        22        23        24

                17 A      18 A      19 A      20 A      21 A      22 A      23 A      24 A   

                1040.1    1051.9    1084.1    1093.9    1112.6    1142.5    1156.0    1169.3
  
           1   -0.0060   -0.0053    0.0067   -0.0133    0.0113    0.0115   -0.0113    0.0562
           2   -0.0096   -0.0141    0.0070   -0.0200    0.0165    0.0099   -0.0113    0.0046
           3    0.0085    0.0023   -0.0129    0.0026   -0.0243   -0.0039   -0.0282    0.0346
           4    0.0081    0.0075    0.0016    0.0091    0.0098   -0.0049    0.0205   -0.0402
           5    0.0031   -0.0067    0.0157   -0.0157    0.0145   -0.0041    0.0063    0.0189
           6    0.0029    0.0003   -0.0022    0.0035   -0.0082    0.0055   -0.0118    0.0254
           7   -0.0256   -0.0188    0.0036   -0.0126    0.0056   -0.0121    0.0121   -0.0016
           8   -0.0085    0.0052   -0.0111    0.0033    0.0003   -0.0080    0.0081    0.0199
           9   -0.0123   -0.0001   -0.0097    0.0063    0.0277    0.0021   -0.0103   -0.0218
          10   -0.0022    0.0041   -0.0132    0.0024   -0.0125   -0.0200   -0.0016    0.0042
          11   -0.0097    0.0014    0.0009    0.0116   -0.0143    0.0170   -0.0116    0.0053
          12   -0.0057    0.0022    0.0191    0.0065    0.0053   -0.0296   -0.0046   -0.0112
          13    0.0149    0.0073    0.0079    0.0078   -0.0004    0.0261   -0.0139   -0.0094
          14    0.0243    0.0109   -0.0051    0.0082   -0.0036   -0.0076   -0.0002   -0.0145
          15    0.0100   -0.0019   -0.0055   -0.0229   -0.0248    0.0241    0.0228    0.0086
          16    0.0108   -0.0087    0.0034   -0.0024   -0.0024    0.0017   -0.0101    0.0242
          17    0.0139   -0.0066    0.0049    0.0101   -0.0047   -0.0019    0.0081   -0.0098
          18    0.0132   -0.0104    0.0188    0.0046    0.0251    0.0045    0.0265   -0.0097
          19   -0.0281    0.0217   -0.0168   -0.0004   -0.0142   -0.0049   -0.0019   -0.0242
          20   -0.0046    0.0050   -0.0033   -0.0001    0.0058   -0.0004    0.0057   -0.0088
          21   -0.0207    0.0047   -0.0012   -0.0004    0.0110    0.0030    0.0118   -0.0148
          22    0.0182   -0.0398   -0.0357    0.1368   -0.0283   -0.0108    0.1050   -0.0514
          23   -0.0631   -0.0517    0.0099   -0.1139   -0.0547   -0.0065   -0.1356   -0.1849
          24   -0.0155   -0.0489   -0.0377    0.0296   -0.1052   -0.0302   -0.0496   -0.1786
          25    0.0528    0.0275   -0.0449   -0.1080   -0.0107   -0.0799   -0.0607   -0.0034
          26    0.1376    0.0429   -0.0296   -0.0969    0.0213   -0.1278   -0.0297   -0.0507
          27    0.0784    0.0271   -0.0086    0.0156    0.0106   -0.0443    0.0124   -0.0515
          28    0.0325    0.0523    0.2583    0.0331   -0.0861    0.0415   -0.0411   -0.0151
          29    0.0535    0.0154   -0.0159   -0.0079   -0.0352    0.0142    0.0263   -0.0170
          30   -0.0394   -0.0085    0.0101    0.0056    0.0249   -0.0103   -0.0173    0.0108
          31    0.0808    0.0564   -0.1442    0.0235    0.1179    0.2191   -0.0706   -0.0502
          32   -0.0266    0.0111    0.0074    0.0629    0.0471   -0.0531   -0.0379   -0.0349
          33   -0.0051   -0.0019   -0.0013   -0.0089   -0.0103    0.0110    0.0122    0.0031
          34    0.0110    0.0263    0.0127   -0.0380   -0.0727    0.0056    0.0903    0.0474
          35   -0.0619    0.1159   -0.0369   -0.0342   -0.0279   -0.0085    0.1976    0.0159
          36    0.0177   -0.0112   -0.0010    0.0044    0.0012    0.0097   -0.0307   -0.0001
          37   -0.0614   -0.0687   -0.0292    0.0372    0.0482   -0.0439   -0.0014   -0.0048
          38   -0.0050   -0.1092   -0.0938    0.1265   -0.0402   -0.0927   -0.0276    0.1124
          39    0.0308    0.0282    0.0068   -0.0192   -0.0301    0.0200   -0.0047    0.0049
          40   -0.0046    0.0490    0.0315    0.0338    0.0357   -0.1180   -0.0397   -0.0087
          41   -0.0403   -0.0920    0.0007   -0.0032   -0.1044    0.1605    0.0356   -0.0708
          42    0.0052    0.0088    0.0004   -0.0038    0.0072   -0.0267   -0.0020    0.0155
          43    0.0293   -0.0290   -0.0661   -0.0471   -0.0420    0.0036    0.0240    0.0178
          44   -0.0572    0.1072    0.0452    0.1254    0.0041    0.0493   -0.0866    0.0311
          45    0.0173   -0.0124   -0.0287   -0.0234   -0.0237    0.0022    0.0080    0.0114
          46    0.1189   -0.0704    0.0335    0.0380    0.0133   -0.0022    0.0292   -0.0175
          47   -0.0380   -0.0082    0.0229   -0.0332    0.0426    0.0132    0.0078    0.0035
          48   -0.0756    0.0193    0.0152   -0.0436    0.0479    0.0166    0.0064    0.0226
          49    0.0570   -0.0967    0.0648    0.0022    0.0583    0.0162    0.0386   -0.0255
          50   -0.0070    0.0262   -0.0175    0.0052   -0.0248   -0.0065   -0.0108    0.0079
          51    0.0346    0.0347   -0.0303    0.0414   -0.0616   -0.0156   -0.0091    0.0302


   Root No.      25        26        27        28        29        30        31        32

                25 A      26 A      27 A      28 A      29 A      30 A      31 A      32 A   

                1237.5    1266.5    1299.9    1306.8    1320.3    1342.8    1354.6    1396.4
  
           1   -0.0125    0.0082   -0.0405    0.0151   -0.0247   -0.0006   -0.0178    0.0082
           2    0.0122   -0.0167    0.0210    0.0068    0.0046   -0.0149    0.0687   -0.0044
           3   -0.0342   -0.0321    0.0079    0.0071    0.0049   -0.0002    0.0174   -0.0073
           4   -0.0454   -0.0011    0.0397    0.0030    0.0119    0.0055   -0.0070   -0.0066
           5   -0.0211    0.0095    0.0275   -0.0188   -0.0033   -0.0255   -0.0466   -0.0105
           6    0.0302    0.0334    0.0109   -0.0080    0.0164   -0.0246   -0.0218   -0.0169
           7    0.0050   -0.0129    0.0009   -0.0216    0.0181    0.0099   -0.0114    0.0079
           8    0.0078   -0.0293   -0.0128   -0.0110    0.0310    0.0262   -0.0528   -0.0093
           9    0.0033    0.0143   -0.0003   -0.0022   -0.0063   -0.0045    0.0012   -0.0002
          10    0.0106   -0.0087   -0.0133   -0.0259   -0.0108   -0.0065   -0.0045   -0.0210
          11    0.0033    0.0303   -0.0189    0.0408    0.0370    0.0270    0.0292   -0.0093
          12   -0.0015   -0.0117   -0.0012   -0.0017   -0.0086    0.0016    0.0039   -0.0010
          13    0.0201   -0.0026    0.0342    0.0741   -0.0156   -0.0014   -0.0068    0.0049
          14   -0.0029    0.0004    0.0042   -0.0056   -0.0125   -0.0056    0.0016    0.0153
          15   -0.0007   -0.0012    0.0016   -0.0001    0.0014   -0.0010    0.0009   -0.0053
          16    0.0093    0.0146    0.0617   -0.0269    0.0013    0.0070    0.0073    0.0254
          17    0.0013    0.0046   -0.0128    0.0017    0.0021   -0.0123   -0.0147    0.0066
          18    0.0181    0.0037   -0.0243    0.0071    0.0066   -0.0275   -0.0070    0.0125
          19   -0.0015   -0.0172   -0.0410    0.0192    0.0084   -0.0190    0.0005   -0.0178
          20   -0.0080   -0.0086   -0.0024    0.0026   -0.0067    0.0109    0.0083    0.0066
          21   -0.0193   -0.0155   -0.0036    0.0039   -0.0141    0.0220    0.0112    0.0136
          22    0.1380   -0.0008    0.0443   -0.0345    0.0521    0.0049    0.0458   -0.0006
          23   -0.0377    0.1128   -0.0225    0.0012   -0.0488   -0.0116   -0.0769    0.0133
          24    0.0248    0.0601    0.0277   -0.0287    0.0141    0.0048   -0.0534   -0.0004
          25    0.1593    0.0128   -0.0414   -0.0225   -0.0023   -0.0305    0.0354   -0.0091
          26    0.0388   -0.0612   -0.0368   -0.0152   -0.0382    0.0151    0.0453    0.0157
          27   -0.0555   -0.0310    0.0117    0.0115   -0.0023    0.0298    0.0217    0.0040
          28   -0.0676    0.0484   -0.0826   -0.1248    0.0368    0.0050    0.0694   -0.0084
          29   -0.0066   -0.0000    0.0146   -0.0196   -0.0527   -0.0385    0.0212   -0.0445
          30    0.0057   -0.0007   -0.0140    0.0211    0.0586    0.0468   -0.0273    0.0784
          31   -0.0613    0.0484   -0.0761   -0.1447    0.0330    0.0010    0.0230   -0.0115
          32   -0.0006    0.0041    0.0057   -0.0208   -0.0675   -0.0462    0.0285   -0.0861
          33    0.0004   -0.0003    0.0015   -0.0027   -0.0104   -0.0095    0.0065   -0.0271
          34   -0.0182    0.0146   -0.0001   -0.0430    0.0035   -0.0513    0.1257   -0.0682
          35   -0.0083    0.1388   -0.0210    0.0230   -0.0900   -0.0348    0.0260    0.0421
          36   -0.0029   -0.0194    0.0015   -0.0166    0.0187   -0.0107    0.0297   -0.0396
          37   -0.0184    0.0311   -0.0084   -0.0624   -0.0030   -0.0429    0.0942   -0.0456
          38   -0.0921    0.0746   -0.0365    0.0247   -0.0900   -0.0353    0.0421    0.0414
          39    0.0042   -0.0102    0.0039    0.0474   -0.0097    0.0345   -0.0843    0.0623
          40   -0.0010    0.0281   -0.0651   -0.0209    0.0389    0.0358    0.0633    0.1317
          41    0.0354   -0.1340   -0.0226   -0.0716   -0.0996   -0.0126    0.0016    0.0603
          42   -0.0034    0.0176    0.0184    0.0232    0.0084   -0.0050   -0.0148   -0.0738
          43   -0.0060    0.0360   -0.0604   -0.0376    0.0471    0.0247    0.0406    0.0869
          44    0.1112   -0.0573   -0.0064   -0.0707   -0.0831   -0.0533   -0.0364    0.0511
          45    0.0044    0.0174   -0.0452   -0.0351    0.0266    0.0161    0.0353    0.1137
          46    0.0163    0.0076   -0.1088    0.0256   -0.0349    0.0589   -0.0207   -0.0430
          47    0.0529    0.0328    0.0076   -0.0311   -0.0691    0.1800    0.0310   -0.0666
          48    0.0504    0.0264    0.0708   -0.0419   -0.0297    0.0920    0.0392   -0.0086
          49    0.0302    0.0075   -0.0991    0.0240   -0.0358    0.0555   -0.0032   -0.0448
          50   -0.0053    0.0063    0.0479   -0.0169    0.0161   -0.0313   -0.0071    0.0335
          51    0.0202    0.0474    0.0310   -0.0530   -0.0780    0.2109   -0.0216   -0.0543


   Root No.      33        34        35        36        37        38        39        40

                33 A      34 A      35 A      36 A      37 A      38 A      39 A      40 A   

                1411.1    1415.8    1426.6    2967.7    2977.1    2986.8    2995.4    3007.6
  
           1    0.0104    0.0130   -0.0136    0.0007   -0.0017   -0.0008   -0.0051    0.0165
           2   -0.0105   -0.0231    0.0202    0.0009   -0.0019   -0.0010   -0.0056    0.0197
           3   -0.0111   -0.0076    0.0091   -0.0010    0.0024    0.0013    0.0070   -0.0258
           4   -0.0194   -0.0007    0.0084   -0.0008   -0.0026    0.0036   -0.0181   -0.0036
           5   -0.0315   -0.0019    0.0121    0.0009    0.0029   -0.0041    0.0216    0.0047
           6   -0.0257   -0.0083    0.0130   -0.0011   -0.0039    0.0054   -0.0279   -0.0064
           7    0.0123   -0.0208    0.0305    0.0037   -0.0048   -0.0030    0.0003   -0.0022
           8    0.0064    0.0288   -0.0122    0.0013   -0.0016   -0.0009   -0.0002    0.0002
           9   -0.0021    0.0033   -0.0076    0.0190   -0.0243   -0.0145    0.0000   -0.0054
          10    0.0232   -0.0210   -0.0161   -0.0027   -0.0044    0.0031    0.0037    0.0007
          11    0.0261    0.0036   -0.0020    0.0011    0.0018   -0.0013   -0.0003    0.0000
          12    0.0069   -0.0040   -0.0055    0.0144    0.0242   -0.0167   -0.0136   -0.0020
          13   -0.0128    0.0155   -0.0053   -0.0001   -0.0000   -0.0001    0.0001   -0.0001
          14   -0.0170   -0.0268   -0.0234   -0.0072   -0.0013   -0.0060   -0.0017   -0.0008
          15    0.0042    0.0081    0.0099   -0.0244   -0.0043   -0.0207   -0.0054   -0.0023
          16    0.0331    0.0115   -0.0144    0.0001   -0.0001   -0.0002    0.0001    0.0008
          17    0.0090    0.0053   -0.0060   -0.0002    0.0005    0.0004    0.0015   -0.0130
          18    0.0172    0.0048   -0.0076    0.0001   -0.0002   -0.0002   -0.0005    0.0068
          19   -0.0226   -0.0113    0.0122   -0.0001   -0.0001    0.0002   -0.0003   -0.0005
          20    0.0095    0.0035   -0.0050   -0.0001   -0.0001    0.0001    0.0003    0.0002
          21    0.0186    0.0085   -0.0105   -0.0000   -0.0002    0.0001   -0.0006    0.0003
          22    0.0098   -0.0171    0.0168   -0.0081    0.0195    0.0108    0.0543   -0.1998
          23    0.0104    0.0302   -0.0335   -0.0081    0.0217    0.0113    0.0671   -0.2367
          24    0.0037    0.0133   -0.0125    0.0124   -0.0306   -0.0160   -0.0882    0.3091
          25    0.0050   -0.0201    0.0028    0.0087    0.0306   -0.0427    0.2166    0.0499
          26    0.0409   -0.0035   -0.0188   -0.0094   -0.0356    0.0505   -0.2650   -0.0581
          27    0.0134    0.0024   -0.0075    0.0134    0.0481   -0.0665    0.3403    0.0746
          28    0.0345   -0.0415    0.0140    0.0001    0.0023    0.0002   -0.0002    0.0000
          29    0.0369    0.0647    0.0719    0.1443    0.0257    0.1261    0.0308    0.0108
          30   -0.0701   -0.1189   -0.1248    0.0849    0.0149    0.0719    0.0172    0.0058
          31    0.0297   -0.0370    0.0127    0.0007   -0.0032    0.0005    0.0011   -0.0002
          32    0.0822    0.1322    0.1280   -0.0600   -0.0108   -0.0531   -0.0144   -0.0065
          33    0.0257    0.0425    0.0416    0.2089    0.0367    0.1755    0.0472    0.0217
          34   -0.0713    0.0894   -0.1254    0.0586   -0.0765   -0.0468   -0.0001   -0.0142
          35    0.0143   -0.0489    0.0141   -0.0393    0.0479    0.0277   -0.0012    0.0109
          36   -0.0329    0.0607   -0.0675   -0.1375    0.1742    0.1039   -0.0003    0.0277
          37   -0.0497    0.0553   -0.0894   -0.1025    0.1354    0.0816   -0.0003    0.0420
          38    0.0150   -0.0661    0.0341    0.0237   -0.0296   -0.0171    0.0001   -0.0091
          39    0.0602   -0.0895    0.1195   -0.0899    0.1167    0.0692   -0.0004    0.0372
          40   -0.0865    0.0960    0.0623   -0.0452   -0.0775    0.0552    0.0403    0.0047
          41   -0.0175    0.0095   -0.0128   -0.0299   -0.0477    0.0316    0.0263    0.0029
          42    0.0562   -0.0474   -0.0303   -0.1043   -0.1737    0.1205    0.0851    0.0084
          43   -0.0612    0.0678    0.0497    0.0764    0.1322   -0.0922   -0.0853   -0.0166
          44   -0.0556    0.0122    0.0051    0.0169    0.0276   -0.0183   -0.0175   -0.0035
          45   -0.0896    0.0830    0.0602   -0.0686   -0.1165    0.0799    0.0753    0.0151
          46   -0.0471   -0.0124    0.0161   -0.0005    0.0020    0.0014    0.0068   -0.0489
          47   -0.0741   -0.0192    0.0255    0.0007   -0.0026   -0.0013   -0.0094    0.0613
          48   -0.0050   -0.0016    0.0011   -0.0015    0.0044    0.0027    0.0129   -0.0913
          49   -0.0514   -0.0160    0.0193    0.0003   -0.0006   -0.0014   -0.0023    0.0438
          50    0.0416    0.0152   -0.0186    0.0004   -0.0010   -0.0028   -0.0042    0.0971
          51   -0.0562   -0.0016    0.0099   -0.0001    0.0002    0.0000   -0.0000    0.0052


   Root No.      41        42        43        44        45

                41 A      42 A      43 A      44 A      45 A   

                3021.8    3056.3    3056.9    3064.2    3095.0
  
           1    0.0064    0.0007   -0.0004    0.0007   -0.0006
           2    0.0079    0.0005   -0.0001    0.0007   -0.0007
           3   -0.0103   -0.0009    0.0006   -0.0007   -0.0003
           4   -0.0007   -0.0005   -0.0004   -0.0006    0.0012
           5    0.0013    0.0003    0.0000    0.0006    0.0000
           6   -0.0016   -0.0006   -0.0006   -0.0006    0.0014
           7   -0.0018    0.0161   -0.0172    0.0082    0.0007
           8    0.0003   -0.0056    0.0062   -0.0033   -0.0002
           9   -0.0012   -0.0025    0.0027   -0.0011    0.0003
          10    0.0002   -0.0131   -0.0206   -0.0083    0.0001
          11    0.0000   -0.0043   -0.0071   -0.0031    0.0000
          12   -0.0003   -0.0018   -0.0029   -0.0010    0.0001
          13   -0.0000    0.0001   -0.0005   -0.0000    0.0000
          14   -0.0001    0.0113    0.0012   -0.0241   -0.0000
          15   -0.0003   -0.0026   -0.0003    0.0045    0.0001
          16   -0.0023    0.0001   -0.0002    0.0001   -0.0274
          17    0.0386    0.0008   -0.0009    0.0005   -0.0197
          18   -0.0223   -0.0002    0.0001   -0.0001   -0.0256
          19   -0.0003   -0.0001   -0.0000   -0.0000   -0.0006
          20    0.0007    0.0000   -0.0001    0.0000   -0.0004
          21   -0.0003    0.0000    0.0000   -0.0000   -0.0006
          22   -0.0785   -0.0061    0.0045   -0.0052    0.0028
          23   -0.0909   -0.0086    0.0066   -0.0066    0.0034
          24    0.1244    0.0105   -0.0079    0.0085   -0.0056
          25    0.0120    0.0039    0.0038    0.0041   -0.0043
          26   -0.0137   -0.0059   -0.0062   -0.0054    0.0054
          27    0.0175    0.0069    0.0070    0.0067   -0.0067
          28   -0.0001   -0.0001   -0.0019    0.0007   -0.0000
          29    0.0000   -0.1105   -0.0120    0.2444    0.0006
          30   -0.0003   -0.0784   -0.0085    0.1715    0.0004
          31   -0.0001    0.0003   -0.0008   -0.0005   -0.0000
          32   -0.0014   -0.0227   -0.0025    0.0469    0.0003
          33    0.0045    0.1094    0.0119   -0.2278   -0.0015
          34    0.0015   -0.0569    0.0628   -0.0303   -0.0012
          35   -0.0006    0.0411   -0.0448    0.0209    0.0011
          36   -0.0072    0.1648   -0.1816    0.0869    0.0040
          37    0.0209   -0.1331    0.1473   -0.0720   -0.0075
          38   -0.0049    0.0272   -0.0293    0.0135    0.0011
          39    0.0189   -0.1356    0.1493   -0.0724   -0.0080
          40    0.0002    0.0473    0.0769    0.0312   -0.0006
          41    0.0002    0.0330    0.0530    0.0208   -0.0004
          42   -0.0001    0.1323    0.2145    0.0862   -0.0014
          43   -0.0041    0.1068    0.1735    0.0712   -0.0009
          44   -0.0009    0.0205    0.0324    0.0125   -0.0002
          45    0.0038   -0.1106   -0.1789   -0.0728    0.0009
          46    0.1539    0.0021   -0.0015    0.0013    0.1469
          47   -0.1914   -0.0023    0.0014   -0.0014   -0.2317
          48    0.2947    0.0033   -0.0021    0.0020    0.3066
          49   -0.1241   -0.0029    0.0039   -0.0021    0.1812
          50   -0.2789   -0.0069    0.0093   -0.0050    0.4706
          51   -0.0232   -0.0005    0.0005   -0.0004    0.0041


           MASS-WEIGHTED COORDINATE ANALYSIS (NORMAL COORDINATES)


   Root No.       1         2         3         4         5         6         7         8

                 1 A       2 A       3 A       4 A       5 A       6 A       7 A       8 A   

                 117.8     158.0     343.4     379.0     615.4     638.3     726.4     784.2
  
           1    0.0020    0.0515   -0.1418    0.1851    0.1530    0.0984   -0.1565   -0.0869
           2    0.0523   -0.0078   -0.0923   -0.0772    0.3456   -0.1854   -0.0263    0.0932
           3   -0.0585    0.0753    0.1191    0.3120    0.0391    0.1270    0.1714   -0.0554
           4   -0.0111    0.0530   -0.1374    0.1926    0.1682   -0.0488   -0.1490    0.0589
           5    0.0492    0.0400   -0.1169   -0.0621   -0.3169   -0.2638    0.0446    0.1028
           6   -0.0532   -0.1685    0.3240    0.0369   -0.0683    0.1222   -0.1892   -0.0425
           7   -0.0571    0.0437   -0.0173   -0.0845   -0.2813    0.3707   -0.0947   -0.1881
           8    0.0281    0.0064   -0.0564   -0.1834    0.2866   -0.0085    0.1613   -0.0731
           9   -0.2418   -0.2597   -0.0795   -0.2961    0.0744   -0.0742    0.0658   -0.1459
          10    0.0589    0.0344    0.0747    0.0189   -0.2210   -0.4279   -0.0623    0.1917
          11    0.0182    0.0264   -0.1995   -0.0115   -0.3044   -0.0753   -0.1131   -0.0619
          12   -0.2362    0.3467   -0.2311    0.0072   -0.0546   -0.0739   -0.0599   -0.1361
          13    0.0067    0.1171    0.0705   -0.0632   -0.1744   -0.0155    0.0434   -0.0003
          14    0.2006    0.0127   -0.1553   -0.1258   -0.0522    0.4360    0.0201   -0.2607
          15    0.4667    0.0115   -0.0559   -0.0444    0.0163   -0.1708    0.0051   -0.1844
          16    0.0003   -0.1560    0.0729   -0.1107    0.2044    0.0153    0.1991    0.0001
          17   -0.1970   -0.2901    0.0864    0.4028    0.1880    0.0054   -0.3677    0.0717
          18    0.0641    0.2103    0.0303    0.0940    0.1056    0.0061    0.2104    0.1392
          19   -0.0005   -0.1560    0.0532   -0.1105    0.2096    0.0182    0.1568    0.0249
          20   -0.1869    0.3140    0.6433   -0.0398   -0.1014    0.0197    0.1925    0.0735
          21    0.0608   -0.3064   -0.0147    0.0012   -0.1693   -0.0468   -0.1299    0.0947
          22    0.0071    0.0484   -0.0994    0.0987    0.0391   -0.0465   -0.0082    0.0062
          23    0.0452    0.0586   -0.0200   -0.0234    0.1249   -0.0126    0.0449    0.0385
          24    0.0114    0.0890    0.0002    0.1134    0.0276    0.0191    0.1097    0.0149
          25   -0.0125    0.0463   -0.0565    0.1198    0.0340    0.0586   -0.0134   -0.0216
          26    0.0405   -0.0698   -0.0299   -0.0169   -0.1231   -0.0278   -0.0899    0.0292
          27    0.0125   -0.1305    0.0997   -0.0299   -0.0353    0.0253   -0.1516    0.0129
          28    0.0027   -0.0095    0.0472   -0.0604    0.0697    0.0090    0.0921   -0.0053
          29   -0.0830    0.0099   -0.0643   -0.0564   -0.0064    0.0222    0.0143   -0.3126
          30    0.3667   -0.0067    0.0146    0.0194   -0.0111    0.1336   -0.0132    0.3463
          31    0.0044    0.1119    0.0070    0.0162   -0.0613   -0.0019    0.0053    0.0045
          32    0.3273   -0.0084   -0.0083    0.0009   -0.0357    0.3631   -0.0092    0.3576
          33    0.2136   -0.0003   -0.0058   -0.0023   -0.0014    0.0226   -0.0035    0.0845
          34   -0.1891   -0.0834   -0.0370   -0.2252   -0.1398    0.2093   -0.0419    0.2388
          35   -0.0118    0.0416    0.0294    0.0486    0.1112    0.0032    0.1078   -0.0572
          36   -0.1379   -0.1274   -0.0499   -0.2021   -0.0107    0.0216   -0.0043    0.1012
          37    0.0958    0.0800    0.0248    0.0881   -0.0644    0.0309    0.0002   -0.2499
          38   -0.0027   -0.0303   -0.0243   -0.1849    0.0278   -0.0595    0.0665    0.0644
          39   -0.1992   -0.1586   -0.0595   -0.2498   -0.0140    0.0556   -0.0064    0.2055
          40    0.1901   -0.1251    0.1871   -0.0150   -0.1037   -0.2456   -0.0217   -0.2194
          41   -0.0161   -0.0542    0.0279    0.0164   -0.1184   -0.0261   -0.0913   -0.0405
          42   -0.1382    0.1771   -0.1657    0.0059    0.0094    0.0344   -0.0002    0.0955
          43   -0.0966    0.1035   -0.0750    0.0076   -0.0591   -0.0397   -0.0022    0.2464
          44   -0.0086    0.0651   -0.1812    0.0232   -0.0242   -0.0633   -0.0412    0.0545
          45   -0.1972    0.2168   -0.2065    0.0105    0.0056    0.0680   -0.0033    0.1936
          46   -0.0023   -0.2169   -0.1175    0.0723   -0.0777   -0.0341    0.4972    0.0238
          47   -0.1064   -0.2157   -0.0523    0.3271   -0.1086    0.0515    0.2315    0.0238
          48   -0.0131    0.0611    0.0309    0.1067    0.0003    0.0551    0.0452    0.0297
          49    0.0029    0.0874    0.2059   -0.1976    0.1616    0.0236   -0.2891   -0.0247
          50   -0.0615   -0.1473   -0.0548    0.2000   -0.0038   -0.0028    0.0722    0.0313
          51    0.0748    0.1931    0.0238   -0.1545    0.2257   -0.0544   -0.2270    0.0569


   Root No.       9        10        11        12        13        14        15        16

                 9 A      10 A      11 A      12 A      13 A      14 A      15 A      16 A   

                 811.2     887.8     927.3     945.3     954.5     988.5    1011.1    1023.1
  
           1   -0.2413   -0.1989   -0.1673    0.2638   -0.1064    0.1097   -0.0205    0.0413
           2   -0.1606   -0.1223   -0.0596    0.0811    0.0754    0.0241   -0.0076    0.1538
           3    0.2652    0.1512    0.0438    0.1468    0.1069   -0.0917   -0.0806    0.1330
           4   -0.2074   -0.1092    0.3726   -0.1326   -0.1550   -0.1138    0.0385   -0.0298
           5    0.1573    0.0825   -0.1493    0.1080    0.0743    0.1634   -0.1391   -0.1413
           6   -0.2330   -0.2027    0.0941    0.0395   -0.1240   -0.1296    0.0483   -0.0063
           7    0.0122   -0.0393   -0.0700   -0.2248    0.1517    0.0457   -0.1862    0.1758
           8    0.0007    0.0013    0.1791    0.0833   -0.1810   -0.0932   -0.0860   -0.0340
           9    0.2236   -0.2454   -0.0296    0.0784    0.0759   -0.1667   -0.0103   -0.1108
          10    0.0433   -0.0205    0.0071    0.0736    0.0273   -0.2053    0.3857    0.1225
          11    0.0229    0.0407    0.0627   -0.0843    0.0209   -0.1925   -0.0280    0.0040
          12   -0.2304    0.2093   -0.0003    0.1840    0.1126   -0.1347   -0.0898   -0.1176
          13    0.1376    0.0098   -0.0308    0.0060   -0.0236    0.0466   -0.0891   -0.1390
          14   -0.0046    0.0170   -0.0399    0.0956    0.0099    0.0186    0.4520   -0.0140
          15   -0.0109    0.0142    0.0033   -0.1643   -0.1127    0.1337   -0.0230    0.1153
          16    0.1255    0.1487   -0.0169   -0.0201    0.0911   -0.1088   -0.0105    0.0355
          17    0.1472    0.1718   -0.0959   -0.1528    0.2153    0.0708   -0.0142   -0.0237
          18   -0.1020    0.1744   -0.1338   -0.3437    0.0073   -0.0452    0.1158   -0.0656
          19    0.0748    0.1376   -0.2721   -0.1237   -0.0120    0.0860    0.0249   -0.1983
          20   -0.1363   -0.2262    0.0550   -0.0213   -0.0125    0.1829    0.0188    0.0427
          21    0.1020   -0.1031    0.2278    0.0735    0.0406    0.4571    0.0917    0.0168
          22   -0.0391   -0.0773   -0.1879    0.3916   -0.1478    0.3004   -0.1244   -0.0048
          23   -0.1146    0.0302   -0.0066   -0.0225   -0.0316    0.0057   -0.0299    0.2293
          24    0.0401    0.0807   -0.0790    0.2059   -0.0806    0.1455   -0.1160    0.1674
          25    0.0106   -0.0019    0.4957   -0.0406    0.0520    0.1832   -0.0979   -0.2955
          26    0.0984   -0.0901   -0.1481   -0.0687   -0.2397   -0.0577   -0.3527   -0.0508
          27   -0.0673   -0.1669   -0.3052   -0.0575   -0.3027   -0.2474   -0.1575    0.1748
          28    0.1524   -0.1609    0.0258    0.0367   -0.1538    0.0951   -0.0629   -0.2405
          29   -0.0112    0.0196   -0.0205   -0.0443   -0.0473    0.0798    0.2091    0.0431
          30    0.0136   -0.0192    0.0216    0.0720    0.0509   -0.0934   -0.1391   -0.0458
          31   -0.0681    0.2015    0.0004    0.0775    0.0254    0.0615   -0.1699   -0.0332
          32    0.0180   -0.0194    0.0254    0.1670    0.0984   -0.1681    0.0185   -0.1047
          33    0.0033   -0.0044    0.0104   -0.0009   -0.0021   -0.0154   -0.0392    0.0020
          34   -0.2232    0.2615    0.0317   -0.0117    0.0349    0.0882   -0.1344    0.1721
          35    0.1594   -0.0093    0.1140    0.1792    0.0848   -0.2414   -0.2506    0.0911
          36   -0.0822    0.0539   -0.0007    0.0043   -0.0206    0.0408    0.0244   -0.0039
          37    0.1763   -0.1633   -0.0245   -0.1655    0.0262   -0.0205   -0.1137   -0.0561
          38   -0.0739    0.1326    0.1461   -0.2297   -0.3092    0.1067   -0.1241   -0.1805
          39   -0.1530    0.1382    0.0182    0.0775   -0.0190    0.0276    0.0341    0.0484
          40   -0.2303    0.2708    0.0021    0.1373    0.1190   -0.0439    0.0230    0.0257
          41   -0.1336   -0.0092    0.0747    0.0592    0.0142   -0.3549   -0.1081   -0.3145
          42    0.0857   -0.0610   -0.0150   -0.0226   -0.0230    0.0337    0.0386    0.0551
          43    0.1993   -0.1785   -0.0477    0.0052   -0.0465   -0.0651    0.2495   -0.0219
          44    0.0864   -0.0375    0.1427   -0.2882   -0.1106    0.0320   -0.1140    0.4366
          45    0.1626   -0.1488   -0.0292   -0.0258   -0.0552   -0.0259    0.1044    0.0047
          46   -0.1435   -0.1881    0.1203   -0.0291    0.2770   -0.0604   -0.0851    0.2073
          47   -0.0284    0.1478   -0.0572   -0.0320   -0.2452   -0.0307    0.0852   -0.0243
          48    0.0257    0.2384   -0.1225   -0.0770   -0.3230   -0.0284    0.1337   -0.1299
          49    0.3562    0.2843    0.1967    0.1438   -0.0933   -0.0563    0.0227    0.2190
          50   -0.0927   -0.0434   -0.1051   -0.0987    0.0882    0.0276   -0.0094   -0.0821
          51   -0.0782   -0.1038   -0.2075   -0.2252    0.4072    0.0837   -0.0631   -0.1507


   Root No.      17        18        19        20        21        22        23        24

                17 A      18 A      19 A      20 A      21 A      22 A      23 A      24 A   

                1040.1    1051.9    1084.1    1093.9    1112.6    1142.5    1156.0    1169.3
  
           1   -0.0567   -0.0561    0.0604   -0.1271    0.1084    0.0951   -0.0995    0.4112
           2   -0.0911   -0.1485    0.0638   -0.1909    0.1591    0.0815   -0.0996    0.0338
           3    0.0802    0.0239   -0.1169    0.0249   -0.2342   -0.0323   -0.2474    0.2530
           4    0.0771    0.0784    0.0149    0.0869    0.0948   -0.0406    0.1800   -0.2937
           5    0.0298   -0.0701    0.1422   -0.1500    0.1393   -0.0342    0.0554    0.1385
           6    0.0276    0.0029   -0.0198    0.0332   -0.0792    0.0458   -0.1033    0.1860
           7   -0.2427   -0.1979    0.0329   -0.1202    0.0539   -0.0995    0.1061   -0.0114
           8   -0.0801    0.0551   -0.1006    0.0317    0.0029   -0.0659    0.0710    0.1458
           9   -0.1165   -0.0009   -0.0880    0.0600    0.2663    0.0173   -0.0907   -0.1598
          10   -0.0208    0.0436   -0.1196    0.0232   -0.1204   -0.1651   -0.0138    0.0310
          11   -0.0915    0.0148    0.0079    0.1107   -0.1376    0.1399   -0.1015    0.0387
          12   -0.0541    0.0230    0.1725    0.0622    0.0512   -0.2443   -0.0402   -0.0820
          13    0.1410    0.0771    0.0718    0.0741   -0.0042    0.2151   -0.1216   -0.0690
          14    0.2302    0.1148   -0.0460    0.0784   -0.0349   -0.0626   -0.0018   -0.1060
          15    0.0947   -0.0197   -0.0501   -0.2184   -0.2389    0.1988    0.2000    0.0626
          16    0.1023   -0.0913    0.0305   -0.0227   -0.0231    0.0139   -0.0886    0.1772
          17    0.1316   -0.0698    0.0442    0.0968   -0.0454   -0.0157    0.0713   -0.0716
          18    0.1254   -0.1090    0.1704    0.0436    0.2414    0.0368    0.2327   -0.0707
          19   -0.2660    0.2283   -0.1523   -0.0035   -0.1366   -0.0404   -0.0169   -0.1771
          20   -0.0433    0.0530   -0.0298   -0.0014    0.0556   -0.0032    0.0500   -0.0641
          21   -0.1956    0.0489   -0.0110   -0.0036    0.1058    0.0247    0.1038   -0.1082
          22    0.0498   -0.1213   -0.0936    0.3780   -0.0790   -0.0259    0.2670   -0.1088
          23   -0.1731   -0.1574    0.0261   -0.3149   -0.1526   -0.0154   -0.3447   -0.3917
          24   -0.0426   -0.1489   -0.0988    0.0818   -0.2934   -0.0721   -0.1260   -0.3785
          25    0.1449    0.0838   -0.1178   -0.2984   -0.0298   -0.1911   -0.1543   -0.0072
          26    0.3775    0.1305   -0.0776   -0.2678    0.0593   -0.3054   -0.0755   -0.1074
          27    0.2150    0.0826   -0.0226    0.0432    0.0296   -0.1060    0.0314   -0.1090
          28    0.0893    0.1593    0.6776    0.0915   -0.2400    0.0992   -0.1046   -0.0320
          29    0.1468    0.0468   -0.0417   -0.0219   -0.0981    0.0340    0.0670   -0.0360
          30   -0.1080   -0.0260    0.0264    0.0156    0.0693   -0.0246   -0.0441    0.0228
          31    0.2217    0.1716   -0.3783    0.0650    0.3289    0.5236   -0.1795   -0.1063
          32   -0.0731    0.0339    0.0195    0.1738    0.1315   -0.1269   -0.0964   -0.0740
          33   -0.0139   -0.0058   -0.0035   -0.0246   -0.0287    0.0264    0.0311    0.0065
          34    0.0301    0.0800    0.0332   -0.1051   -0.2028    0.0135    0.2295    0.1004
          35   -0.1698    0.3527   -0.0967   -0.0945   -0.0777   -0.0203    0.5024    0.0336
          36    0.0486   -0.0342   -0.0026    0.0121    0.0033    0.0231   -0.0781   -0.0003
          37   -0.1683   -0.2091   -0.0766    0.1028    0.1344   -0.1050   -0.0035   -0.0101
          38   -0.0138   -0.3325   -0.2460    0.3496   -0.1121   -0.2216   -0.0703    0.2382
          39    0.0845    0.0857    0.0178   -0.0531   -0.0839    0.0479   -0.0120    0.0103
          40   -0.0126    0.1491    0.0826    0.0936    0.0996   -0.2819   -0.1008   -0.0184
          41   -0.1105   -0.2800    0.0018   -0.0087   -0.2911    0.3836    0.0906   -0.1500
          42    0.0141    0.0269    0.0010   -0.0106    0.0200   -0.0637   -0.0052    0.0329
          43    0.0803   -0.0882   -0.1734   -0.1301   -0.1172    0.0086    0.0611    0.0377
          44   -0.1568    0.3264    0.1187    0.3466    0.0113    0.1179   -0.2203    0.0659
          45    0.0473   -0.0377   -0.0753   -0.0648   -0.0660    0.0052    0.0204    0.0242
          46    0.3263   -0.2143    0.0878    0.1049    0.0371   -0.0053    0.0741   -0.0370
          47   -0.1043   -0.0251    0.0600   -0.0919    0.1187    0.0316    0.0199    0.0075
          48   -0.2073    0.0587    0.0398   -0.1206    0.1337    0.0396    0.0162    0.0478
          49    0.1564   -0.2945    0.1701    0.0061    0.1626    0.0387    0.0981   -0.0540
          50   -0.0191    0.0798   -0.0459    0.0145   -0.0691   -0.0156   -0.0276    0.0167
          51    0.0949    0.1057   -0.0795    0.1146   -0.1717   -0.0373   -0.0232    0.0640


   Root No.      25        26        27        28        29        30        31        32

                25 A      26 A      27 A      28 A      29 A      30 A      31 A      32 A   

                1237.5    1266.5    1299.9    1306.8    1320.3    1342.8    1354.6    1396.4
  
           1   -0.1062    0.0734   -0.3022    0.1182   -0.2372   -0.0051   -0.1323    0.0789
           2    0.1036   -0.1488    0.1568    0.0532    0.0443   -0.1234    0.5094   -0.0420
           3   -0.2902   -0.2866    0.0593    0.0557    0.0470   -0.0020    0.1290   -0.0700
           4   -0.3856   -0.0097    0.2962    0.0236    0.1139    0.0458   -0.0519   -0.0628
           5   -0.1791    0.0851    0.2053   -0.1471   -0.0315   -0.2107   -0.3452   -0.1010
           6    0.2563    0.2983    0.0809   -0.0626    0.1579   -0.2036   -0.1618   -0.1620
           7    0.0427   -0.1148    0.0069   -0.1693    0.1743    0.0818   -0.0843    0.0755
           8    0.0662   -0.2616   -0.0954   -0.0863    0.2981    0.2163   -0.3917   -0.0894
           9    0.0282    0.1276   -0.0019   -0.0168   -0.0607   -0.0373    0.0089   -0.0019
          10    0.0900   -0.0772   -0.0993   -0.2027   -0.1037   -0.0539   -0.0331   -0.2015
          11    0.0278    0.2705   -0.1410    0.3197    0.3559    0.2232    0.2162   -0.0890
          12   -0.0124   -0.1043   -0.0088   -0.0131   -0.0822    0.0130    0.0288   -0.0095
          13    0.1706   -0.0236    0.2552    0.5802   -0.1501   -0.0116   -0.0502    0.0466
          14   -0.0242    0.0032    0.0316   -0.0437   -0.1197   -0.0460    0.0116    0.1471
          15   -0.0055   -0.0106    0.0120   -0.0006    0.0130   -0.0085    0.0066   -0.0507
          16    0.0789    0.1300    0.4606   -0.2104    0.0128    0.0578    0.0538    0.2438
          17    0.0112    0.0410   -0.0953    0.0135    0.0197   -0.1014   -0.1087    0.0630
          18    0.1533    0.0332   -0.1815    0.0558    0.0639   -0.2275   -0.0516    0.1201
          19   -0.0126   -0.1530   -0.3059    0.1500    0.0808   -0.1572    0.0035   -0.1703
          20   -0.0679   -0.0767   -0.0182    0.0201   -0.0644    0.0897    0.0616    0.0629
          21   -0.1641   -0.1379   -0.0271    0.0308   -0.1359    0.1819    0.0831    0.1300
          22    0.3393   -0.0021    0.0957   -0.0782    0.1450    0.0117    0.0983   -0.0017
          23   -0.0928    0.2914   -0.0485    0.0026   -0.1359   -0.0278   -0.1651    0.0369
          24    0.0611    0.1553    0.0598   -0.0651    0.0392    0.0115   -0.1147   -0.0011
          25    0.3918    0.0331   -0.0895   -0.0510   -0.0063   -0.0730    0.0760   -0.0254
          26    0.0954   -0.1582   -0.0795   -0.0345   -0.1064    0.0361    0.0972    0.0435
          27   -0.1365   -0.0802    0.0253    0.0261   -0.0063    0.0714    0.0465    0.0112
          28   -0.1663    0.1250   -0.1784   -0.2829    0.1023    0.0120    0.1489   -0.0235
          29   -0.0163   -0.0001    0.0316   -0.0445   -0.1468   -0.0922    0.0455   -0.1237
          30    0.0140   -0.0017   -0.0303    0.0479    0.1633    0.1121   -0.0587    0.2179
          31   -0.1506    0.1251   -0.1644   -0.3280    0.0918    0.0024    0.0493   -0.0319
          32   -0.0014    0.0105    0.0123   -0.0472   -0.1881   -0.1105    0.0612   -0.2391
          33    0.0009   -0.0009    0.0031   -0.0061   -0.0290   -0.0228    0.0139   -0.0754
          34   -0.0447    0.0378   -0.0003   -0.0975    0.0098   -0.1227    0.2699   -0.1895
          35   -0.0203    0.3586   -0.0454    0.0522   -0.2506   -0.0834    0.0558    0.1169
          36   -0.0071   -0.0502    0.0032   -0.0376    0.0520   -0.0257    0.0638   -0.1101
          37   -0.0452    0.0803   -0.0181   -0.1415   -0.0083   -0.1028    0.2023   -0.1266
          38   -0.2264    0.1927   -0.0788    0.0560   -0.2505   -0.0846    0.0905    0.1150
          39    0.0103   -0.0264    0.0084    0.1076   -0.0271    0.0825   -0.1810    0.1730
          40   -0.0024    0.0727   -0.1406   -0.0473    0.1084    0.0858    0.1360    0.3659
          41    0.0870   -0.3461   -0.0489   -0.1624   -0.2773   -0.0301    0.0033    0.1676
          42   -0.0084    0.0453    0.0397    0.0526    0.0234   -0.0120   -0.0319   -0.2050
          43   -0.0147    0.0930   -0.1304   -0.0853    0.1310    0.0591    0.0871    0.2415
          44    0.2734   -0.1481   -0.0137   -0.1602   -0.2314   -0.1276   -0.0781    0.1419
          45    0.0109    0.0449   -0.0976   -0.0796    0.0740    0.0384    0.0758    0.3160
          46    0.0400    0.0195   -0.2350    0.0580   -0.0971    0.1409   -0.0444   -0.1194
          47    0.1302    0.0848    0.0165   -0.0705   -0.1924    0.4308    0.0665   -0.1850
          48    0.1239    0.0682    0.1530   -0.0949   -0.0826    0.2202    0.0841   -0.0238
          49    0.0744    0.0193   -0.2142    0.0543   -0.0997    0.1329   -0.0068   -0.1245
          50   -0.0130    0.0162    0.1036   -0.0383    0.0449   -0.0750   -0.0153    0.0932
          51    0.0497    0.1225    0.0669   -0.1202   -0.2172    0.5047   -0.0463   -0.1509


   Root No.      33        34        35        36        37        38        39        40

                33 A      34 A      35 A      36 A      37 A      38 A      39 A      40 A   

                1411.1    1415.8    1426.6    2967.7    2977.1    2986.8    2995.4    3007.6
  
           1    0.0926    0.1187   -0.1240    0.0064   -0.0146   -0.0076   -0.0324    0.1132
           2   -0.0927   -0.2099    0.1843    0.0075   -0.0158   -0.0095   -0.0352    0.1346
           3   -0.0982   -0.0690    0.0833   -0.0085    0.0207    0.0118    0.0442   -0.1764
           4   -0.1721   -0.0063    0.0765   -0.0068   -0.0221    0.0333   -0.1147   -0.0248
           5   -0.2791   -0.0169    0.1105    0.0079    0.0248   -0.0389    0.1363    0.0320
           6   -0.2280   -0.0755    0.1186   -0.0094   -0.0331    0.0506   -0.1768   -0.0436
           7    0.1086   -0.1895    0.2788    0.0325   -0.0405   -0.0277    0.0016   -0.0149
           8    0.0571    0.2623   -0.1118    0.0113   -0.0140   -0.0088   -0.0010    0.0017
           9   -0.0186    0.0296   -0.0691    0.1647   -0.2060   -0.1360    0.0002   -0.0369
          10    0.2058   -0.1909   -0.1473   -0.0234   -0.0377    0.0291    0.0234    0.0051
          11    0.2314    0.0326   -0.0185    0.0095    0.0156   -0.0122   -0.0019    0.0002
          12    0.0607   -0.0367   -0.0501    0.1251    0.2051   -0.1570   -0.0860   -0.0139
          13   -0.1135    0.1407   -0.0484   -0.0005   -0.0003   -0.0006    0.0005   -0.0004
          14   -0.1505   -0.2441   -0.2139   -0.0625   -0.0108   -0.0566   -0.0106   -0.0054
          15    0.0370    0.0742    0.0904   -0.2120   -0.0365   -0.1941   -0.0340   -0.0156
          16    0.2931    0.1051   -0.1314    0.0009   -0.0009   -0.0015    0.0007    0.0054
          17    0.0794    0.0480   -0.0548   -0.0018    0.0045    0.0037    0.0097   -0.0893
          18    0.1526    0.0437   -0.0692    0.0005   -0.0018   -0.0020   -0.0034    0.0465
          19   -0.2001   -0.1033    0.1120   -0.0008   -0.0010    0.0015   -0.0017   -0.0036
          20    0.0844    0.0315   -0.0454   -0.0006   -0.0012    0.0007    0.0022    0.0013
          21    0.1650    0.0774   -0.0961   -0.0003   -0.0013    0.0011   -0.0037    0.0023
          22    0.0251   -0.0452    0.0444   -0.0204    0.0479    0.0292    0.0994   -0.3963
[...]
 EFF. MASS   4.2806

 VIBRATION   24   24A         ATOM PAIR      ENERGY CONTRIBUTION    RADIAL
 FREQ.      1169.35         C  1 -- H  8         +21.5% ( 70.1%)      0.0%
 T-DIPOLE    0.3909         C  1 -- C  2         +13.2% ( 54.8%)     97.0%
 TRAVEL      0.0925         C  1 -- C  3          +8.9% ( 45.0%)     14.9%
 RED. MASS   1.0749         C  1 -- C  6          +7.8% ( 42.1%)     61.7%
 EFF. MASS   6.7357

 VIBRATION   25   25A         ATOM PAIR      ENERGY CONTRIBUTION    RADIAL
 FREQ.      1237.52         C  2 -- H  9         +18.1% ( 59.3%)      0.8%
 T-DIPOLE    0.1941         C  1 -- C  2         +11.0% ( 46.2%)     17.1%
 TRAVEL      0.1005         C  2 -- C  7          +9.7% ( 43.4%)     34.0%
 RED. MASS   0.9603         C  2 -- C  6          +9.4% ( 42.7%)     37.9%
 EFF. MASS   5.3977

 VIBRATION   26   26A         ATOM PAIR      ENERGY CONTRIBUTION    RADIAL
 FREQ.      1266.53         C  3 -- H 12         +10.1% ( 44.8%)      1.0%
 T-DIPOLE    0.3464         C  4 -- H 14          +9.7% ( 43.9%)      0.4%
 TRAVEL      0.0991         C  1 -- H  8          +9.7% ( 43.9%)      2.9%
 RED. MASS   0.5522         C  1 -- C  2          +8.3% ( 40.6%)      1.7%
 EFF. MASS   5.4207

 VIBRATION   27   27A         ATOM PAIR      ENERGY CONTRIBUTION    RADIAL
 FREQ.      1299.90         C  6 -- C  7         +11.8% ( 55.0%)     94.0%
 T-DIPOLE    0.9459         C  1 -- C  6         +10.2% ( 51.0%)     19.1%
 TRAVEL      0.0785         C  6 -- H 16          +9.3% ( 48.9%)      0.9%
 RED. MASS   1.3564         C  2 -- C  6          +8.9% ( 47.7%)     12.6%
 EFF. MASS   8.4095

 VIBRATION   28   28A         ATOM PAIR      ENERGY CONTRIBUTION    RADIAL
 FREQ.      1306.82         C  4 -- C  5         +17.6% ( 62.0%)     93.8%
 T-DIPOLE    0.3224         C  5 -- H 11         +15.9% ( 59.0%)      0.0%
 TRAVEL      0.0822         C  5 -- H 10         +14.7% ( 56.7%)      0.1%
 RED. MASS   1.7104         C  3 -- C  5         +12.8% ( 52.8%)     69.4%
 EFF. MASS   7.6442

 VIBRATION   29   29A         ATOM PAIR      ENERGY CONTRIBUTION    RADIAL
 FREQ.      1320.28         C  4 -- H 14         +10.8% ( 43.2%)      0.1%
 T-DIPOLE    0.2163         C  4 -- H 15         +10.0% ( 41.6%)      0.1%
 TRAVEL      0.0984         C  3 -- H 12          +8.4% ( 38.1%)      0.2%
 RED. MASS   0.5563         C  3 -- H 13          +8.2% ( 37.8%)      0.2%
 EFF. MASS   5.2747

 VIBRATION   30   30A         ATOM PAIR      ENERGY CONTRIBUTION    RADIAL
 FREQ.      1342.81         C  6 -- H 17         +16.3% ( 48.8%)      1.4%
 T-DIPOLE    0.5558         C  6 -- H 16         +15.0% ( 46.8%)      2.0%
 TRAVEL      0.1063         C  2 -- C  7          +8.9% ( 36.0%)     82.2%
 RED. MASS   0.4142         C  2 -- C  4          +7.6% ( 33.3%)     59.7%
 EFF. MASS   4.4437

 VIBRATION   31   31A         ATOM PAIR      ENERGY CONTRIBUTION    RADIAL
 FREQ.      1354.57         C  1 -- C  3         +15.9% ( 63.4%)     92.4%
 T-DIPOLE    0.4503         C  1 -- C  2         +12.6% ( 56.5%)      0.8%
 TRAVEL      0.0780         C  1 -- H  8         +10.5% ( 51.5%)      1.5%
 RED. MASS   1.6600         C  1 -- C  6          +9.0% ( 47.8%)     44.2%
 EFF. MASS   8.1912

 VIBRATION   32   32A         ATOM PAIR      ENERGY CONTRIBUTION    RADIAL
 FREQ.      1396.37         C  4 -- H 14         +13.3% ( 42.1%)      2.8%
 T-DIPOLE    0.3336         C  4 -- H 15         +11.6% ( 39.3%)      5.4%
 TRAVEL      0.1135         C  6 -- C  7          +8.0% ( 32.5%)     99.8%
 RED. MASS   0.2573         C  2 -- C  6          +7.3% ( 31.1%)     99.8%
 EFF. MASS   3.7489

 VIBRATION   33   33A         ATOM PAIR      ENERGY CONTRIBUTION    RADIAL
 FREQ.      1411.09         C  2 -- C  6         +10.8% ( 46.7%)     95.3%
 T-DIPOLE    0.5113         C  2 -- C  4         +10.7% ( 46.6%)     74.0%
 TRAVEL      0.0842         C  2 -- C  7          +8.5% ( 41.6%)     91.3%
 RED. MASS   0.7084         C  6 -- C  7          +7.5% ( 39.0%)     99.7%
 EFF. MASS   6.7424

 VIBRATION   34   34A         ATOM PAIR      ENERGY CONTRIBUTION    RADIAL
 FREQ.      1415.79         C  5 -- H 11         +11.0% ( 39.9%)      4.0%
 T-DIPOLE    0.1193         C  5 -- H 10         +10.5% ( 39.0%)      5.8%
 TRAVEL      0.1037         C  3 -- H 13         +10.2% ( 38.5%)      5.2%
 RED. MASS   0.3678         C  1 -- C  3         +10.0% ( 38.1%)     89.8%
 EFF. MASS   4.4252

 VIBRATION   35   35A         ATOM PAIR      ENERGY CONTRIBUTION    RADIAL
 FREQ.      1426.59         C  3 -- H 13         +12.7% ( 42.3%)      5.3%
 T-DIPOLE    0.1671         C  3 -- H 12         +11.3% ( 39.9%)      7.1%
 TRAVEL      0.1052         C  5 -- H 10          +9.8% ( 37.2%)      4.4%
 RED. MASS   0.3082         C  5 -- H 11          +8.7% ( 35.1%)      5.7%
 EFF. MASS   4.2747

 VIBRATION   36   36A         ATOM PAIR      ENERGY CONTRIBUTION    RADIAL
 FREQ.      2967.73         C  5 -- H 11         +31.5% ( 58.5%)     97.4%
 T-DIPOLE    0.0205         C  5 -- H 10         +19.6% ( 46.1%)     94.7%
 TRAVEL      0.1206         C  3 -- H 12         +16.1% ( 41.9%)     96.8%
 RED. MASS   0.2126         C  3 -- H 13         +13.1% ( 37.8%)     95.8%
 EFF. MASS   1.5633

 VIBRATION   37   37A         ATOM PAIR      ENERGY CONTRIBUTION    RADIAL
 FREQ.      2977.12         C  3 -- H 12         +24.9% ( 51.8%)     97.0%
 T-DIPOLE    0.0914         C  4 -- H 14         +24.9% ( 51.8%)     97.0%
 TRAVEL      0.1212         C  3 -- H 13         +21.5% ( 48.2%)     96.1%
 RED. MASS   0.2332         C  4 -- H 15         +20.9% ( 47.5%)     96.0%
 EFF. MASS   1.5413

 VIBRATION   38   38A         ATOM PAIR      ENERGY CONTRIBUTION    RADIAL
 FREQ.      2986.81         C  5 -- H 11         +26.3% ( 53.0%)     97.7%
 T-DIPOLE    0.0743         C  5 -- H 10         +17.2% ( 42.8%)     95.2%
 TRAVEL      0.1218         C  4 -- H 14         +14.7% ( 39.6%)     97.1%
 RED. MASS   0.1726         C  4 -- H 15         +12.2% ( 36.2%)     96.2%
 EFF. MASS   1.5212         C  3 -- H 12         +10.9% ( 34.1%)     97.0%

 VIBRATION   39   39A         ATOM PAIR      ENERGY CONTRIBUTION    RADIAL
 FREQ.      2995.44         C  2 -- H  9         +80.8% ( 91.9%)    100.0%
 T-DIPOLE    0.3458         C  1 -- H  8          +5.3% ( 23.6%)    100.0%
 TRAVEL      0.1246         C  4 -- H 15          +4.9% ( 22.6%)     97.6%
 RED. MASS   0.6711         C  4 -- H 14          +3.6% ( 19.3%)     95.8%
 EFF. MASS   1.4509

 VIBRATION   40   40A         ATOM PAIR      ENERGY CONTRIBUTION    RADIAL
 FREQ.      3007.57         C  1 -- H  8         +77.6% ( 90.3%)    100.0%
 T-DIPOLE    0.1216         C  6 -- H 16          +6.2% ( 25.6%)     97.3%
 TRAVEL      0.1237         C  6 -- H 17          +5.0% ( 23.0%)     95.9%
 RED. MASS   0.6273         C  2 -- H  9          +4.6% ( 21.9%)    100.0%
 EFF. MASS   1.4644

 VIBRATION   41   41A         ATOM PAIR      ENERGY CONTRIBUTION    RADIAL
 FREQ.      3021.81         C  6 -- H 16         +52.1% ( 74.8%)     98.0%
 T-DIPOLE    0.3692         C  6 -- H 17         +34.4% ( 60.7%)     95.7%
 TRAVEL      0.1218         C  1 -- H  8         +10.0% ( 32.8%)    100.0%
 RED. MASS   0.4308         C  1 -- C  6          +0.9% (  9.9%)      0.9%
 EFF. MASS   1.5049

 VIBRATION   42   42A         ATOM PAIR      ENERGY CONTRIBUTION    RADIAL
 FREQ.      3056.29         C  3 -- H 13         +25.1% ( 49.4%)     97.9%
 T-DIPOLE    0.0196         C  3 -- H 12         +21.7% ( 45.9%)     97.1%
 TRAVEL      0.1308         C  4 -- H 15         +16.4% ( 40.0%)     97.9%
 RED. MASS   0.1791         C  4 -- H 14         +14.1% ( 37.1%)     97.0%
 EFF. MASS   1.2896         C  5 -- H 10         +12.7% ( 35.1%)     98.6%

 VIBRATION   43   43A         ATOM PAIR      ENERGY CONTRIBUTION    RADIAL
 FREQ.      3056.86         C  4 -- H 15         +30.9% ( 54.8%)     98.0%
 T-DIPOLE    0.1154         C  4 -- H 14         +26.6% ( 50.8%)     97.2%
 TRAVEL      0.1317         C  3 -- H 13         +21.9% ( 46.2%)     98.0%
 RED. MASS   0.2484         C  3 -- H 12         +18.9% ( 42.8%)     97.3%
 EFF. MASS   1.2726

 VIBRATION   44   44A         ATOM PAIR      ENERGY CONTRIBUTION    RADIAL
 FREQ.      3064.17         C  5 -- H 10         +48.8% ( 68.8%)     98.8%
 T-DIPOLE    0.0557         C  5 -- H 11         +28.7% ( 52.8%)     95.7%
 TRAVEL      0.1309         C  3 -- H 13          +5.7% ( 23.6%)     98.1%
 RED. MASS   0.3267         C  4 -- H 15          +5.7% ( 23.5%)     98.1%
 EFF. MASS   1.2850

 VIBRATION   45   45A         ATOM PAIR      ENERGY CONTRIBUTION    RADIAL
 FREQ.      3095.00         C  6 -- H 17         +59.2% ( 76.3%)     98.3%
 T-DIPOLE    0.4389         C  6 -- H 16         +38.5% ( 61.6%)     95.5%
 TRAVEL      0.1300         C  2 -- C  6          +0.7% (  8.5%)     98.1%
 RED. MASS   0.5020         C  1 -- C  6          +0.7% (  8.4%)     51.4%
 EFF. MASS   1.2886

      SYMMETRY NUMBER FOR POINT-GROUP C1  =  1


          SYSTEM IS A GROUND STATE



 InChI=1S/C7H10/c1-2-6-4-5-7(6)3-1/h6-7H,1-4H2/lp5


          MOLECULE IS NOT LINEAR

          THERE ARE 45 GENUINE VIBRATIONS IN THIS SYSTEM
          THIS THERMODYNAMICS CALCULATION IS LIMITED TO
          MOLECULES WHICH HAVE NO INTERNAL ROTATIONS




                    CALCULATED THERMODYNAMIC PROPERTIES
                                          *
   TEMP. (K)   PARTITION FUNCTION   H.O.F.    ENTHALPY  HEAT CAPACITY ENTROPY
                                   KCAL/MOL   CAL/MOLE    CAL/K/MOL  CAL/K/MOL


 298.00  VIB.     0.8572D+01                  1997.8614    17.5682    10.9738
         ROT.     0.1569D+06                   888.2813     2.9808    26.7543
         INT.     0.1345D+07                  2886.1427    20.5490    37.7281
         TRA.     0.8833D+27                  1480.4688     4.9680    39.5363
         TOT.                       84.858    4366.6115    25.5170    77.2644

 200.00  VIB.     0.3151D+01                   730.3017     8.7918     5.9321
         ROT.     0.8626D+05                   596.1620     2.9808    25.5657
         INT.     0.2718D+06                  1326.4637    11.7726    31.4978
         TRA.     0.4856D+27                   993.6033     4.9680    37.5551
         TOT.                       82.812    2320.0669    16.7406    69.0529

 210.00  VIB.     0.3457D+01                   821.8802     9.5314     6.3788
         ROT.     0.9281D+05                   625.9700     2.9808    25.7111
         INT.     0.3209D+06                  1447.8503    12.5122    32.0899
         TRA.     0.5225D+27                  1043.2834     4.9680    37.7975
         TOT.                       82.983    2491.1337    17.4802    69.8874

 220.00  VIB.     0.3801D+01                   921.0760    10.3149     6.8401
         ROT.     0.9952D+05                   655.7781     2.9808    25.8498
         INT.     0.3783D+06                  1576.8542    13.2957    32.6899
         TRA.     0.5603D+27                  1092.9636     4.9680    38.0286
         TOT.                       83.161    2669.8177    18.2637    70.7185

 230.00  VIB.     0.4187D+01                  1028.3169    11.1399     7.3167
         ROT.     0.1064D+06                   685.5862     2.9808    25.9823
         INT.     0.4454D+06                  1713.9031    14.1207    33.2990
         TRA.     0.5989D+27                  1142.6437     4.9680    38.2495
         TOT.                       83.348    2856.5468    19.0888    71.5484

 240.00  VIB.     0.4622D+01                  1144.0028    12.0034     7.8089
         ROT.     0.1134D+06                   715.3943     2.9808    26.1091
         INT.     0.5241D+06                  1859.3971    14.9842    33.9181
         TRA.     0.6384D+27                  1192.3239     4.9680    38.4609
         TOT.                       83.543    3051.7210    19.9522    72.3790

 250.00  VIB.     0.5114D+01                  1268.5002    12.9016     8.3170
         ROT.     0.1206D+06                   745.2024     2.9808    26.2308
         INT.     0.6165D+06                  2013.7026    15.8824    34.5478
         TRA.     0.6787D+27                  1242.0041     4.9680    38.6637
         TOT.                       83.747    3255.7067    20.8504    73.2116

 260.00  VIB.     0.5670D+01                  1402.1372    13.8306     8.8410
         ROT.     0.1279D+06                   775.0105     2.9808    26.3477
         INT.     0.7250D+06                  2177.1478    16.8114    35.1888
         TRA.     0.7198D+27                  1291.6842     4.9680    38.8586
         TOT.                       83.960    3468.8320    21.7794    74.0473

 270.00  VIB.     0.6301D+01                  1545.2015    14.7863     9.3808
         ROT.     0.1353D+06                   804.8186     2.9808    26.4602
         INT.     0.8526D+06                  2350.0201    17.7671    35.8411
         TRA.     0.7618D+27                  1341.3644     4.9680    39.0461
         TOT.                       84.183    3691.3845    22.7351    74.8871

 280.00  VIB.     0.7018D+01                  1697.9383    15.7644     9.9362
         ROT.     0.1429D+06                   834.6267     2.9808    26.5686
         INT.     0.1003D+07                  2532.5650    18.7452    36.5048
         TRA.     0.8045D+27                  1391.0445     4.9680    39.2267
         TOT.                       84.415    3923.6096    23.7133    75.7316

 290.00  VIB.     0.7836D+01                  1860.5508    16.7608    10.5067
         ROT.     0.1506D+06                   864.4348     2.9808    26.6732
         INT.     0.1180D+07                  2724.9856    19.7416    37.1800
         TRA.     0.8479D+27                  1440.7247     4.9680    39.4011
         TOT.                       84.657    4165.7103    24.7096    76.5810

 300.00  VIB.     0.8769D+01                  2033.2008    17.7713    11.0919
         ROT.     0.1585D+06                   894.2429     2.9808    26.7743
         INT.     0.1390D+07                  2927.4437    20.7521    37.8662
         TRA.     0.8922D+27                  1490.4049     4.9680    39.5695
         TOT.                       84.910    4417.8486    25.7201    77.4357

 310.00  VIB.     0.9836D+01                  2216.0101    18.7920    11.6913
         ROT.     0.1665D+06                   924.0510     2.9808    26.8720
         INT.     0.1637D+07                  3140.0611    21.7728    38.5633
         TRA.     0.9372D+27                  1540.0850     4.9680    39.7324
         TOT.                       85.172    4680.1462    26.7408    78.2957

 320.00  VIB.     0.1106D+02                  2409.0630    19.8194    12.3041
         ROT.     0.1746D+06                   953.8591     2.9808    26.9667
         INT.     0.1931D+07                  3362.9221    22.8002    39.2708
         TRA.     0.9829D+27                  1589.7652     4.9680    39.8901
         TOT.                       85.444    4952.6873    27.7682    79.1609

 330.00  VIB.     0.1246D+02                  2612.4084    20.8500    12.9298
         ROT.     0.1828D+06                   983.6672     2.9808    27.0584
         INT.     0.2279D+07                  3596.0756    23.8308    39.9881
         TRA.     0.1029D+28                  1639.4454     4.9680    40.0430
         TOT.                       85.727    5235.5210    28.7988    80.0312

 340.00  VIB.     0.1408D+02                  2826.0630    21.8807    13.5675
         ROT.     0.1912D+06                  1013.4753     2.9808    27.1474
         INT.     0.2692D+07                  3839.5383    24.8615    40.7149
         TRA.     0.1076D+28                  1689.1255     4.9680    40.1913
         TOT.                       86.020    5528.6638    29.8295    80.9062

 350.00  VIB.     0.1594D+02                  3050.0140    22.9088    14.2166
         ROT.     0.1997D+06                  1043.2834     2.9808    27.2338
         INT.     0.3183D+07                  4093.2974    25.8896    41.4504
         TRA.     0.1124D+28                  1738.8057     4.9680    40.3353
         TOT.                       86.324    5832.1031    30.8576    81.7857

 360.00  VIB.     0.1809D+02                  3284.2220    23.9318    14.8763
         ROT.     0.2083D+06                  1073.0915     2.9808    27.3177
         INT.     0.3768D+07                  4357.3136    26.9126    42.1941
         TRA.     0.1173D+28                  1788.4859     4.9680    40.4753
         TOT.                       86.637    6145.7994    31.8806    82.6694

 370.00  VIB.     0.2057D+02                  3528.6244    24.9473    15.5459
         ROT.     0.2171D+06                  1102.8996     2.9808    27.3994
         INT.     0.4465D+07                  4631.5241    27.9281    42.9453
         TRA.     0.1222D+28                  1838.1660     4.9680    40.6114
         TOT.                       86.961    6469.6901    32.8962    83.5567

 380.00  VIB.     0.2345D+02                  3783.1378    25.9536    16.2246
         ROT.     0.2259D+06                  1132.7077     2.9808    27.4789
         INT.     0.5297D+07                  4915.8455    28.9344    43.7035
         TRA.     0.1272D+28                  1887.8462     4.9680    40.7439
         TOT.                       87.295    6803.6916    33.9025    84.4474

 390.00  VIB.     0.2678D+02                  4047.6607    26.9490    16.9116
         ROT.     0.2349D+06                  1162.5158     2.9808    27.5563
         INT.     0.6290D+07                  5210.1765    29.9298    44.4680
         TRA.     0.1322D+28                  1937.5263     4.9680    40.8729
         TOT.                       87.639    7147.7028    34.8978    85.3409

 400.00  VIB.     0.3065D+02                  4322.0766    27.9320    17.6064
         ROT.     0.2440D+06                  1192.3239     2.9808    27.6318
         INT.     0.7477D+07                  5514.4005    30.9128    45.2382
         TRA.     0.1374D+28                  1987.2065     4.9680    40.9987
         TOT.                       87.993    7501.6070    35.8808    86.2369

   *: NOTE: HEATS OF FORMATION ARE RELATIVE TO THE
            ELEMENTS IN THEIR STANDARD STATE AT 298K
              (=  Standard Enthalpy of Formation).

            Hvib:  Zero-point energy is not included.
                   frequencies of less than zero cm-1 are not included.
            Hrot = (3/2)RT
            Htra = (3/2)RT + pV = (5/2)RT

            Heat capacity is Cp, not Cv

          For more information, see: HTTP://OpenMOPAC.net/Manual/thermochemistry.html


           FORCE CONSTANT IN CARTESIAN COORDINATES (Millidynes/A)

    ATOM   CHEMICAL       X               Y               Z
   NUMBER   SYMBOL  FORCE CONSTANT  FORCE CONSTANT  FORCE CONSTANT

      1       C        7.686283        8.894183        8.034445
      2       C        7.546516        8.345972        8.358614
      3       C        8.812335        7.804011        8.356370
      4       C        8.798157        7.690540        8.261443
      5       C        7.324836        9.071681        8.250184
      6       C        8.393031        7.732517        7.762093
      7       C        6.240677        1.839892        4.907795
      8       H        1.556435        1.989183        2.845095
      9       H        1.516634        1.943500        2.734528
     10       H        0.704926        3.780117        2.011706
     11       H        0.730635        0.965334        4.735081
     12       H        1.247190        0.966955        4.222128
     13       H        2.968368        0.793654        2.700323
     14       H        1.276355        0.967903        4.199299
     15       H        2.938421        0.773833        2.738265
     16       H        1.195116        1.901326        3.252412
     17       H        1.185119        4.535682        0.674073

 **********************
 *                    *
 * JOB ENDED NORMALLY *
 *                    *
 **********************



 TOTAL JOB TIME:             1.02 SECONDS

 == MOPAC DONE ==
