 *******************************************************************************
 ** Site#: 14399        For non-commercial use only    Version 18.184L 64BITS **
 *******************************************************************************
 ** Cite this program as: MOPAC2016, Version: 18.184L, James J. P. Stewart,   **
 ** Stewart Computational Chemistry, web: HTTP://OpenMOPAC.net. Days left:  18**
 *******************************************************************************
 **                                                                           **
 **                                MOPAC2016                                  **
 **                                                                           **
 *******************************************************************************

                              PM3 CALCULATION RESULTS

 *******************************************************************************
 *  CALCULATION DONE:                                Sat Jun 15 10:14:54 2019  *
 *  PM3        - The PM3 Hamiltonian to be used
 *  PRECISE    - CRITERIA TO BE INCREASED BY 100 TIMES
 *  NOSYM      - POINT-GROUP SYMMETRY SET TO C1
 *  THREADS=1  - MULTI-THREADING NOT USED
 *  T=         - A TIME OF 172800.0 SECONDS REQUESTED
 *  DUMP=N     - RESTART FILE WRITTEN EVERY  7200.000 SECONDS
 *******************************************************************************
pm3  precise nosym THREADS=1
 InChI=1S/C9H10/c1-2-5-9-7-3-6-8(9)4-1/h1,3-6,8H,2,7H2

   ATOM   CHEMICAL          X               Y               Z
  NUMBER   SYMBOL      (ANGSTROMS)     (ANGSTROMS)     (ANGSTROMS)
 
     1       C         -0.24290000  *  -0.65370000  *  -0.73340000  *
     2       C         -1.75440000  *   0.91500000  *   0.43500000  *
     3       C          2.07470000  *   0.87700000  *  -0.02160000  *
     4       C         -0.38080000  *   0.70150000  *  -0.10770000  *
     5       C          0.69270000  *   1.43040000  *   0.23980000  *
     6       C         -1.51970000  *  -1.30400000  *  -0.32000000  *
     7       C          0.98840000  *  -1.35510000  *  -0.21130000  *
     8       C         -2.34870000  *  -0.44650000  *   0.27600000  *
     9       C          2.08270000  *  -0.63480000  *   0.10130000  *
    10       H         -0.19340000  *  -0.57050000  *  -1.84010000  *
    11       H         -1.72540000  *   1.19390000  *   1.51010000  *
    12       H         -2.30960000  *   1.66590000  *  -0.16520000  *
    13       H          2.39020000  *   1.15740000  *  -1.04860000  *
    14       H          2.79370000  *   1.31400000  *   0.70290000  *
    15       H         -3.34390000  *  -0.71650000  *   0.61330000  *
    16       H          1.01710000  *  -2.43900000  *  -0.15040000  *
    17       H         -1.77910000  *  -2.33570000  *  -0.53490000  *
    18       H          2.98350000  *  -1.14030000  *   0.43520000  *
    19       H          0.57500000  *   2.34110000  *   0.81960000  *
 


          CARTESIAN COORDINATES 

    NO.       ATOM           X           Y           Z

     1         C         -0.2429     -0.6537     -0.7334
     2         C         -1.7544      0.9150      0.4350
     3         C          2.0747      0.8770     -0.0216
     4         C         -0.3808      0.7015     -0.1077
     5         C          0.6927      1.4304      0.2398
     6         C         -1.5197     -1.3040     -0.3200
     7         C          0.9884     -1.3551     -0.2113
     8         C         -2.3487     -0.4465      0.2760
     9         C          2.0827     -0.6348      0.1013
    10         H         -0.1934     -0.5705     -1.8401
    11         H         -1.7254      1.1939      1.5101
    12         H         -2.3096      1.6659     -0.1652
    13         H          2.3902      1.1574     -1.0486
    14         H          2.7937      1.3140      0.7029
    15         H         -3.3439     -0.7165      0.6133
    16         H          1.0171     -2.4390     -0.1504
    17         H         -1.7791     -2.3357     -0.5349
    18         H          2.9835     -1.1403      0.4352
    19         H          0.5750      2.3411      0.8196

  H: (PM3): J. J. P. STEWART, J. COMP. CHEM. 10, 209 (1989).
  C: (PM3): J. J. P. STEWART, J. COMP. CHEM. 10, 209 (1989).

           Empirical Formula: C9 H10  =    19 atoms



      MOLECULAR POINT GROUP   :   C1  


      RHF CALCULATION, NO. OF DOUBLY OCCUPIED LEVELS = 23


          Geometry optimization using EF

          DIAGONAL MATRIX USED AS START HESSIAN

 CYCLE:     1 TIME:   0.004 TIME LEFT:  2.00D  GRAD.:    76.165 HEAT:  44.57326
 CYCLE:     2 TIME:   0.012 TIME LEFT:  2.00D  GRAD.:    70.137 HEAT:  43.51828
 CYCLE:     3 TIME:   0.004 TIME LEFT:  2.00D  GRAD.:    45.187 HEAT:  42.55148
 CYCLE:     4 TIME:   0.004 TIME LEFT:  2.00D  GRAD.:    60.908 HEAT:  42.48085
 CYCLE:     5 TIME:   0.004 TIME LEFT:  2.00D  GRAD.:    36.057 HEAT:  41.71495
 CYCLE:     6 TIME:   0.008 TIME LEFT:  2.00D  GRAD.:    24.541 HEAT:  41.47050
 CYCLE:     7 TIME:   0.004 TIME LEFT:  2.00D  GRAD.:    24.594 HEAT:  41.35524
 CYCLE:     8 TIME:   0.004 TIME LEFT:  2.00D  GRAD.:    18.595 HEAT:  41.19070
 CYCLE:     9 TIME:   0.004 TIME LEFT:  2.00D  GRAD.:    22.003 HEAT:  41.07691
 CYCLE:    10 TIME:   0.004 TIME LEFT:  2.00D  GRAD.:    21.953 HEAT:  40.96364
 CYCLE:    11 TIME:   0.008 TIME LEFT:  2.00D  GRAD.:    23.202 HEAT:  40.92812
 CYCLE:    12 TIME:   0.004 TIME LEFT:  2.00D  GRAD.:    13.142 HEAT:  40.80794
 CYCLE:    13 TIME:   0.004 TIME LEFT:  2.00D  GRAD.:    14.934 HEAT:  40.75365
 CYCLE:    14 TIME:   0.004 TIME LEFT:  2.00D  GRAD.:    18.795 HEAT:  40.75110
 CYCLE:    15 TIME:   0.004 TIME LEFT:  2.00D  GRAD.:    15.046 HEAT:  40.67773
 CYCLE:    16 TIME:   0.004 TIME LEFT:  2.00D  GRAD.:    17.196 HEAT:  40.65486
 CYCLE:    17 TIME:   0.004 TIME LEFT:  2.00D  GRAD.:    20.657 HEAT:  40.64841
 CYCLE:    18 TIME:   0.004 TIME LEFT:  2.00D  GRAD.:    16.304 HEAT:  40.59725
 CYCLE:    19 TIME:   0.004 TIME LEFT:  2.00D  GRAD.:     7.810 HEAT:  40.51141
 CYCLE:    20 TIME:   0.004 TIME LEFT:  2.00D  GRAD.:     4.402 HEAT:  40.47545
 CYCLE:    21 TIME:   0.004 TIME LEFT:  2.00D  GRAD.:     7.481 HEAT:  40.45916
 CYCLE:    22 TIME:   0.004 TIME LEFT:  2.00D  GRAD.:     5.635 HEAT:  40.43463
 CYCLE:    23 TIME:   0.004 TIME LEFT:  2.00D  GRAD.:     3.757 HEAT:  40.42077
 CYCLE:    24 TIME:   0.000 TIME LEFT:  2.00D  GRAD.:     3.218 HEAT:  40.41058
 CYCLE:    25 TIME:   0.004 TIME LEFT:  2.00D  GRAD.:     3.797 HEAT:  40.39669
 CYCLE:    26 TIME:   0.008 TIME LEFT:  2.00D  GRAD.:     5.285 HEAT:  40.38590
 CYCLE:    27 TIME:   0.000 TIME LEFT:  2.00D  GRAD.:     3.086 HEAT:  40.37247
 CYCLE:    28 TIME:   0.004 TIME LEFT:  2.00D  GRAD.:     4.968 HEAT:  40.36710
 CYCLE:    29 TIME:   0.004 TIME LEFT:  2.00D  GRAD.:     2.960 HEAT:  40.35378
 CYCLE:    30 TIME:   0.004 TIME LEFT:  2.00D  GRAD.:     2.653 HEAT:  40.34446
 CYCLE:    31 TIME:   0.004 TIME LEFT:  2.00D  GRAD.:     2.946 HEAT:  40.33931
 CYCLE:    32 TIME:   0.004 TIME LEFT:  2.00D  GRAD.:     1.654 HEAT:  40.33394
 CYCLE:    33 TIME:   0.004 TIME LEFT:  2.00D  GRAD.:     1.412 HEAT:  40.33013
 CYCLE:    34 TIME:   0.004 TIME LEFT:  2.00D  GRAD.:     1.399 HEAT:  40.32729
 CYCLE:    35 TIME:   0.004 TIME LEFT:  2.00D  GRAD.:     0.890 HEAT:  40.32528
 CYCLE:    36 TIME:   0.004 TIME LEFT:  2.00D  GRAD.:     0.964 HEAT:  40.32337
 CYCLE:    37 TIME:   0.004 TIME LEFT:  2.00D  GRAD.:     1.065 HEAT:  40.32109
 CYCLE:    38 TIME:   0.004 TIME LEFT:  2.00D  GRAD.:     1.183 HEAT:  40.31898
 CYCLE:    39 TIME:   0.004 TIME LEFT:  2.00D  GRAD.:     1.032 HEAT:  40.31627
 CYCLE:    40 TIME:   0.004 TIME LEFT:  2.00D  GRAD.:     1.126 HEAT:  40.31287
 CYCLE:    41 TIME:   0.004 TIME LEFT:  2.00D  GRAD.:     1.196 HEAT:  40.30976
 CYCLE:    42 TIME:   0.004 TIME LEFT:  2.00D  GRAD.:     0.931 HEAT:  40.30743
 CYCLE:    43 TIME:   0.004 TIME LEFT:  2.00D  GRAD.:     0.673 HEAT:  40.30603
 CYCLE:    44 TIME:   0.004 TIME LEFT:  2.00D  GRAD.:     0.606 HEAT:  40.30509
 CYCLE:    45 TIME:   0.004 TIME LEFT:  2.00D  GRAD.:     0.528 HEAT:  40.30447
 CYCLE:    46 TIME:   0.004 TIME LEFT:  2.00D  GRAD.:     0.376 HEAT:  40.30405
 CYCLE:    47 TIME:   0.004 TIME LEFT:  2.00D  GRAD.:     0.235 HEAT:  40.30383
 CYCLE:    48 TIME:   0.004 TIME LEFT:  2.00D  GRAD.:     0.200 HEAT:  40.30370
 CYCLE:    49 TIME:   0.004 TIME LEFT:  2.00D  GRAD.:     0.195 HEAT:  40.30361
 CYCLE:    50 TIME:   0.004 TIME LEFT:  2.00D  GRAD.:     0.169 HEAT:  40.30354
 CYCLE:    51 TIME:   0.004 TIME LEFT:  2.00D  GRAD.:     0.139 HEAT:  40.30348
 CYCLE:    52 TIME:   0.004 TIME LEFT:  2.00D  GRAD.:     0.114 HEAT:  40.30344
 CYCLE:    53 TIME:   0.000 TIME LEFT:  2.00D  GRAD.:     0.145 HEAT:  40.30341
 CYCLE:    54 TIME:   0.004 TIME LEFT:  2.00D  GRAD.:     0.102 HEAT:  40.30339
 CYCLE:    55 TIME:   0.004 TIME LEFT:  2.00D  GRAD.:     0.085 HEAT:  40.30336
 CYCLE:    56 TIME:   0.004 TIME LEFT:  2.00D  GRAD.:     0.090 HEAT:  40.30334
 CYCLE:    57 TIME:   0.004 TIME LEFT:  2.00D  GRAD.:     0.064 HEAT:  40.30332
 CYCLE:    58 TIME:   0.004 TIME LEFT:  2.00D  GRAD.:     0.054 HEAT:  40.30331
 CYCLE:    59 TIME:   0.004 TIME LEFT:  2.00D  GRAD.:     0.038 HEAT:  40.30331

     GRADIENT =  0.03790  IS LESS THAN CUTOFF =  0.05000



 -------------------------------------------------------------------------------
 pm3  precise nosym THREADS=1
 InChI=1S/C9H10/c1-2-5-9-7-3-6-8(9)4-1/h1,3-6,8H,2,7H2



     GEOMETRY OPTIMISED USING EIGENVECTOR FOLLOWING (EF).     
     SCF FIELD WAS ACHIEVED                                   


                              PM3 CALCULATION
                                                       MOPAC2016 (Version: 18.184L)
                                                       Sat Jun 15 10:14:55 2019
                                                       No. of days remaining =  18




          FINAL HEAT OF FORMATION =         40.30331 KCAL/MOL =     168.62905 KJ/MOL


          TOTAL ENERGY            =      -1219.34281 EV
          ELECTRONIC ENERGY       =      -6262.99189 EV  POINT GROUP:     C1  
          CORE-CORE REPULSION     =       5043.64909 EV
          COSMO AREA              =        159.46 SQUARE ANGSTROMS
          COSMO VOLUME            =        158.15 CUBIC ANGSTROMS

          GRADIENT NORM           =          0.03790 = 0.00870 PER ATOM
          IONIZATION POTENTIAL    =          9.182477 EV
          HOMO LUMO ENERGIES (EV) =         -9.182  0.957
          NO. OF FILLED LEVELS    =         23
          MOLECULAR WEIGHT        =        118.1780

          MOLECULAR DIMENSIONS (Angstroms)

            Atom       Atom       Distance
            H    15    H    14     6.48734
            H    16    H    12     4.86622
            H    10    H    11     3.19781


          SCF CALCULATIONS        =         65
 
          WALL-CLOCK TIME         =          0.246 SECONDS
          COMPUTATION TIME        =          0.226 SECONDS




   ATOM   CHEMICAL          X               Y               Z
  NUMBER   SYMBOL      (ANGSTROMS)     (ANGSTROMS)     (ANGSTROMS)
 
     1       C         -0.24918669  *  -0.66874761  *  -0.66491270  *
     2       C         -1.78796783  *   0.92230954  *   0.36944238  *
     3       C          2.07973476  *   0.86752839  *   0.01442988  *
     4       C         -0.35763186  *   0.69002205  *  -0.01344650  *
     5       C          0.71960732  *   1.41566108  *   0.28749510  *
     6       C         -1.53824400  *  -1.33599285  *  -0.26808073  *
     7       C          1.01440192  *  -1.35061624  *  -0.27231063  *
     8       C         -2.39159358  *  -0.45191565  *   0.26845975  *
     9       C          2.09891219  *  -0.62583920  *   0.01782817  *
    10       H         -0.23682119  *  -0.55428088  *  -1.77853295  *
    11       H         -1.88534769  *   1.34004553  *   1.38802009  *
    12       H         -2.28796352  *   1.63259371  *  -0.31557608  *
    13       H          2.44128207  *   1.23467718  *  -0.96826285  *
    14       H          2.79374267  *   1.25334886  *   0.76781127  *
    15       H         -3.40619010  *  -0.64977726  *   0.61131812  *
    16       H          1.01295017  *  -2.44444879  *  -0.25220399  *
    17       H         -1.70678438  *  -2.39847288  *  -0.43707221  *
    18       H          3.04992467  *  -1.10365895  *   0.27401234  *
    19       H          0.64700442  *   2.39291088  *   0.77344190  *

                             CARTESIAN COORDINATES

   1    C       -0.249186692    -0.668747613    -0.664912696
   2    C       -1.787967832     0.922309537     0.369442380
   3    C        2.079734755     0.867528395     0.014429878
   4    C       -0.357631863     0.690022045    -0.013446504
   5    C        0.719607317     1.415661075     0.287495098
   6    C       -1.538244001    -1.335992846    -0.268080733
   7    C        1.014401918    -1.350616242    -0.272310627
   8    C       -2.391593579    -0.451915648     0.268459752
   9    C        2.098912188    -0.625839203     0.017828166
  10    H       -0.236821194    -0.554280878    -1.778532946
  11    H       -1.885347688     1.340045533     1.388020095
  12    H       -2.287963521     1.632593711    -0.315576078
  13    H        2.441282067     1.234677182    -0.968262849
  14    H        2.793742675     1.253348863     0.767811269
  15    H       -3.406190101    -0.649777264     0.611318115
  16    H        1.012950171    -2.444448794    -0.252203991
  17    H       -1.706784382    -2.398472883    -0.437072205
  18    H        3.049924673    -1.103658955     0.274012345
  19    H        0.647004423     2.392910884     0.773441902


           Empirical Formula: C9 H10  =    19 atoms



      MOLECULAR POINT GROUP   :   C1  


                  EIGENVALUES  
 -41.43373 -35.13191 -30.82624 -27.22740 -26.06529 -21.83995 -20.05929 -19.25984
 -17.31895 -16.45438 -15.97072 -15.73669 -14.72740 -14.38793 -14.21184 -13.63677
 -13.26531 -12.77410 -12.62233 -11.66029 -10.14780  -9.93394  -9.18248   0.95714
   1.04008   1.19369   3.26482   3.30020   3.44393   3.59838   3.60401   3.78295
   3.94970   4.05721   4.17893   4.40633   4.41285   4.52470   4.63493   4.72410
   5.28402   5.39549   5.49268   5.92498   6.08078   6.17164


              NET ATOMIC CHARGES AND DIPOLE CONTRIBUTIONS

  ATOM NO.   TYPE          CHARGE      No. of ELECS.   s-Pop       p-Pop       
    1          C           0.021837        3.9782     1.14440     2.83377
    2          C          -0.013492        4.0135     1.13757     2.87592
    3          C          -0.018196        4.0182     1.13309     2.88511
    4          C          -0.131178        4.1312     1.20735     2.92383
    5          C          -0.143728        4.1437     1.18843     2.95530
    6          C          -0.143985        4.1440     1.20292     2.94107
    7          C          -0.133844        4.1338     1.19264     2.94121
    8          C          -0.153299        4.1533     1.20424     2.94906
    9          C          -0.150267        4.1503     1.19587     2.95439
   10          H           0.083338        0.9167     0.91666
   11          H           0.062517        0.9375     0.93748
   12          H           0.064149        0.9359     0.93585
   13          H           0.063166        0.9368     0.93683
   14          H           0.055598        0.9444     0.94440
   15          H           0.111714        0.8883     0.88829
   16          H           0.105492        0.8945     0.89451
   17          H           0.114156        0.8858     0.88584
   18          H           0.100192        0.8998     0.89981
   19          H           0.105831        0.8942     0.89417
 DIPOLE           X         Y         Z       TOTAL
 POINT-CHG.    -0.039     0.135    -0.131     0.191
 HYBRID         0.002    -0.018     0.020     0.027
 SUM           -0.037     0.117    -0.111     0.165


          ATOMIC ORBITAL ELECTRON POPULATIONS

     Atom    s        px        py        pz   
    1  C   1.14440   0.92261   0.92312   0.98804
    2  C   1.13757   0.92042   0.95309   1.00242
    3  C   1.13309   0.94831   0.93142   1.00539
    4  C   1.20735   0.95604   0.96573   1.00207
    5  C   1.18843   0.94391   0.99278   1.01861
    6  C   1.20292   0.95870   0.98112   1.00124
    7  C   1.19264   0.94827   0.98420   1.00873
    8  C   1.20424   0.98629   0.95790   1.00488
    9  C   1.19587   0.97983   0.96026   1.01430
   10  H   0.91666
   11  H   0.93748
   12  H   0.93585
   13  H   0.93683
   14  H   0.94440
   15  H   0.88829
   16  H   0.89451
   17  H   0.88584
   18  H   0.89981
   19  H   0.89417
 *******************************************************************************
 ** Site#: 14399        For non-commercial use only    Version 18.184L 64BITS **
 *******************************************************************************
 ** Cite this program as: MOPAC2016, Version: 18.184L, James J. P. Stewart,   **
 ** Stewart Computational Chemistry, web: HTTP://OpenMOPAC.net. Days left:  18**
 *******************************************************************************
 **                                                                           **
 **                                MOPAC2016                                  **
 **                                                                           **
 *******************************************************************************

                              PM3 CALCULATION RESULTS

 *******************************************************************************
 *  CALCULATION DONE:                                Sat Jun 15 10:14:55 2019  *
 *  PM3        - The PM3 Hamiltonian to be used
 *  OLDGEO     - PREVIOUS GEOMETRY TO BE USED
 *  PRECISE    - CRITERIA TO BE INCREASED BY 100 TIMES
 *  NOSYM      - POINT-GROUP SYMMETRY SET TO C1
 *  THREADS=1  - MULTI-THREADING NOT USED
 *  T=         - A TIME OF 172800.0 SECONDS REQUESTED
 *  DUMP=N     - RESTART FILE WRITTEN EVERY  7200.000 SECONDS
 *  THERMO     - THERMODYNAMIC QUANTITIES TO BE CALCULATED
 *******************************************************************************
oldgeo thermo nosym precise THREADS=1  pm3
 InChI=1S/C9H10/c1-2-5-9-7-3-6-8(9)4-1/h1,3-6,8H,2,7H2

   ATOM   CHEMICAL          X               Y               Z
  NUMBER   SYMBOL      (ANGSTROMS)     (ANGSTROMS)     (ANGSTROMS)
 
     1       C         -0.24918669  *  -0.66874761  *  -0.66491270  *
     2       C         -1.78796783  *   0.92230954  *   0.36944238  *
     3       C          2.07973476  *   0.86752839  *   0.01442988  *
     4       C         -0.35763186  *   0.69002205  *  -0.01344650  *
     5       C          0.71960732  *   1.41566108  *   0.28749510  *
     6       C         -1.53824400  *  -1.33599285  *  -0.26808073  *
     7       C          1.01440192  *  -1.35061624  *  -0.27231063  *
     8       C         -2.39159358  *  -0.45191565  *   0.26845975  *
     9       C          2.09891219  *  -0.62583920  *   0.01782817  *
    10       H         -0.23682119  *  -0.55428088  *  -1.77853295  *
    11       H         -1.88534769  *   1.34004553  *   1.38802009  *
    12       H         -2.28796352  *   1.63259371  *  -0.31557608  *
    13       H          2.44128207  *   1.23467718  *  -0.96826285  *
    14       H          2.79374267  *   1.25334886  *   0.76781127  *
    15       H         -3.40619010  *  -0.64977726  *   0.61131812  *
    16       H          1.01295017  *  -2.44444879  *  -0.25220399  *
    17       H         -1.70678438  *  -2.39847288  *  -0.43707221  *
    18       H          3.04992467  *  -1.10365895  *   0.27401234  *
    19       H          0.64700442  *   2.39291088  *   0.77344190  *
 


          CARTESIAN COORDINATES 

    NO.       ATOM           X           Y           Z

     1         C         -0.2492     -0.6687     -0.6649
     2         C         -1.7880      0.9223      0.3694
     3         C          2.0797      0.8675      0.0144
     4         C         -0.3576      0.6900     -0.0134
     5         C          0.7196      1.4157      0.2875
     6         C         -1.5382     -1.3360     -0.2681
     7         C          1.0144     -1.3506     -0.2723
     8         C         -2.3916     -0.4519      0.2685
     9         C          2.0989     -0.6258      0.0178
    10         H         -0.2368     -0.5543     -1.7785
    11         H         -1.8853      1.3400      1.3880
    12         H         -2.2880      1.6326     -0.3156
    13         H          2.4413      1.2347     -0.9683
    14         H          2.7937      1.2533      0.7678
    15         H         -3.4062     -0.6498      0.6113
    16         H          1.0130     -2.4444     -0.2522
    17         H         -1.7068     -2.3985     -0.4371
    18         H          3.0499     -1.1037      0.2740
    19         H          0.6470      2.3929      0.7734

  H: (PM3): J. J. P. STEWART, J. COMP. CHEM. 10, 209 (1989).
  C: (PM3): J. J. P. STEWART, J. COMP. CHEM. 10, 209 (1989).

           Empirical Formula: C9 H10  =    19 atoms



      MOLECULAR POINT GROUP   :   C1  


      RHF CALCULATION, NO. OF DOUBLY OCCUPIED LEVELS = 23



          HEAT OF FORMATION =      40.303311 KCALS/MOLE


          CARTESIAN COORDINATE DERIVATIVES

   NUMBER  ATOM         X            Y            Z

     1       C      0.006218    -0.000995     0.004205
     2       C     -0.002182    -0.000277    -0.002490
     3       C      0.003881    -0.001874    -0.002883
     4       C      0.001145     0.003136     0.006828
     5       C      0.002794     0.002186    -0.008423
     6       C     -0.003622    -0.001267     0.003828
     7       C      0.002520    -0.002814     0.005989
     8       C     -0.006171     0.010120    -0.001738
     9       C     -0.004301     0.000039    -0.010568
    10       H     -0.011554    -0.008084    -0.006125
    11       H      0.003917     0.003613     0.000832
    12       H      0.001577     0.001676     0.000602
    13       H      0.008733    -0.007054     0.004249
    14       H      0.011751     0.000592     0.002080
    15       H     -0.002538    -0.004204    -0.000444
    16       H      0.006668    -0.010654     0.001328
    17       H     -0.000143     0.005134     0.001322
    18       H     -0.012158     0.006428    -0.000854
    19       H     -0.006536     0.004298     0.002261
 


          GRADIENT NORM =   0.04020


          TIME FOR SCF CALCULATION =    0.00

          TIME FOR DERIVATIVES     =    0.00

          MOLECULAR WEIGHT =  118.18



          ROTATIONAL CONSTANTS IN CM(-1)

          A =    0.11406710   B =    0.05204177   C =    0.03765364



           PRINCIPAL MOMENTS OF INERTIA IN UNITS OF 10**(-40)*GRAM-CM**2

          A =      245.4062   B =      537.8905   C =      743.4282


          ORIENTATION OF MOLECULE IN FORCE CALCULATION

    NO.       ATOM         X         Y         Z

     1          C      -0.5415   -0.6890    0.2632
     2          C       1.9017   -0.6890    0.2632
     3          C      -0.7202    2.1769    0.2632
     4          C       0.6875    0.1823    0.3767
     5          C       0.6090    1.5131    0.3956
     6          C       0.0039   -1.9661   -0.3164
     7          C      -1.6151   -0.0016   -0.5052
     8          C       1.3442   -1.9749   -0.2834
     9          C      -1.7034    1.3315   -0.4778
    10          H      -0.9462   -0.9068    1.2841
    11          H       2.6663   -0.2551   -0.4066
    12          H       2.3892   -0.8466    1.2437
    13          H      -1.1249    2.4093    1.2699
    14          H      -0.5997    3.1500   -0.2513
    15          H       1.9995   -2.7833   -0.6046
    16          H      -2.3180   -0.6282   -1.0621
    17          H      -0.6534   -2.7537   -0.6818
    18          H      -2.5051    1.8589   -1.0047
    19          H       1.4968    2.1485    0.4618


    FIRST DERIVATIVES WILL BE USED IN THE CALCULATION OF SECOND DERIVATIVES

          ESTIMATED TIME TO COMPLETE CALCULATION =        0.89 SECONDS

    FOR POINT-GROUP C1   THERE ARE   1 UNIQUE SYMMETRY FUNCTIONS.

 STEP:   1 TIME =     0.02 SECS, INTEGRAL =      0.02 TIME LEFT: 172799.98
 STEP:   2 TIME =     0.02 SECS, INTEGRAL =      0.03 TIME LEFT: 172799.96
 STEP:   3 TIME =     0.02 SECS, INTEGRAL =      0.05 TIME LEFT: 172799.95
 STEP:   4 TIME =     0.02 SECS, INTEGRAL =      0.06 TIME LEFT: 172799.93
 STEP:   5 TIME =     0.02 SECS, INTEGRAL =      0.08 TIME LEFT: 172799.92
 STEP:   6 TIME =     0.02 SECS, INTEGRAL =      0.09 TIME LEFT: 172799.90
 STEP:   7 TIME =     0.02 SECS, INTEGRAL =      0.11 TIME LEFT: 172799.89
 STEP:   8 TIME =     0.02 SECS, INTEGRAL =      0.12 TIME LEFT: 172799.87
 STEP:   9 TIME =     0.02 SECS, INTEGRAL =      0.14 TIME LEFT: 172799.85
 STEP:  10 TIME =     0.02 SECS, INTEGRAL =      0.16 TIME LEFT: 172799.84
 STEP:  11 TIME =     0.02 SECS, INTEGRAL =      0.18 TIME LEFT: 172799.82
 STEP:  12 TIME =     0.02 SECS, INTEGRAL =      0.20 TIME LEFT: 172799.80
 STEP:  13 TIME =     0.02 SECS, INTEGRAL =      0.21 TIME LEFT: 172799.79
 STEP:  14 TIME =     0.02 SECS, INTEGRAL =      0.23 TIME LEFT: 172799.77
 STEP:  15 TIME =     0.02 SECS, INTEGRAL =      0.25 TIME LEFT: 172799.75
 STEP:  16 TIME =     0.02 SECS, INTEGRAL =      0.26 TIME LEFT: 172799.73
 STEP:  17 TIME =     0.02 SECS, INTEGRAL =      0.28 TIME LEFT: 172799.72
 STEP:  18 TIME =     0.02 SECS, INTEGRAL =      0.29 TIME LEFT: 172799.70
 STEP:  19 TIME =     0.02 SECS, INTEGRAL =      0.31 TIME LEFT: 172799.69
 STEP:  20 TIME =     0.02 SECS, INTEGRAL =      0.33 TIME LEFT: 172799.67
 STEP:  21 TIME =     0.02 SECS, INTEGRAL =      0.34 TIME LEFT: 172799.65
 STEP:  22 TIME =     0.02 SECS, INTEGRAL =      0.36 TIME LEFT: 172799.64
 STEP:  23 TIME =     0.02 SECS, INTEGRAL =      0.38 TIME LEFT: 172799.62
 STEP:  24 TIME =     0.02 SECS, INTEGRAL =      0.39 TIME LEFT: 172799.61
 STEP:  25 TIME =     0.02 SECS, INTEGRAL =      0.41 TIME LEFT: 172799.59
 STEP:  26 TIME =     0.02 SECS, INTEGRAL =      0.42 TIME LEFT: 172799.57
 STEP:  27 TIME =     0.02 SECS, INTEGRAL =      0.44 TIME LEFT: 172799.55
 STEP:  28 TIME =     0.02 SECS, INTEGRAL =      0.46 TIME LEFT: 172799.54
 STEP:  29 TIME =     0.02 SECS, INTEGRAL =      0.47 TIME LEFT: 172799.52
 STEP:  30 TIME =     0.02 SECS, INTEGRAL =      0.49 TIME LEFT: 172799.51
 STEP:  31 TIME =     0.02 SECS, INTEGRAL =      0.50 TIME LEFT: 172799.49
 STEP:  32 TIME =     0.02 SECS, INTEGRAL =      0.52 TIME LEFT: 172799.48
 STEP:  33 TIME =     0.02 SECS, INTEGRAL =      0.54 TIME LEFT: 172799.46
 STEP:  34 TIME =     0.02 SECS, INTEGRAL =      0.55 TIME LEFT: 172799.45
 STEP:  35 TIME =     0.02 SECS, INTEGRAL =      0.57 TIME LEFT: 172799.43
 STEP:  36 TIME =     0.02 SECS, INTEGRAL =      0.59 TIME LEFT: 172799.41
 STEP:  37 TIME =     0.02 SECS, INTEGRAL =      0.60 TIME LEFT: 172799.39
 STEP:  38 TIME =     0.02 SECS, INTEGRAL =      0.62 TIME LEFT: 172799.38
 STEP:  39 TIME =     0.02 SECS, INTEGRAL =      0.63 TIME LEFT: 172799.36
 STEP:  40 TIME =     0.02 SECS, INTEGRAL =      0.65 TIME LEFT: 172799.35
 STEP:  41 TIME =     0.02 SECS, INTEGRAL =      0.66 TIME LEFT: 172799.33
 STEP:  42 TIME =     0.02 SECS, INTEGRAL =      0.68 TIME LEFT: 172799.31
 STEP:  43 TIME =     0.02 SECS, INTEGRAL =      0.70 TIME LEFT: 172799.30
 STEP:  44 TIME =     0.02 SECS, INTEGRAL =      0.71 TIME LEFT: 172799.28
 STEP:  45 TIME =     0.02 SECS, INTEGRAL =      0.73 TIME LEFT: 172799.27
 STEP:  46 TIME =     0.02 SECS, INTEGRAL =      0.75 TIME LEFT: 172799.25
 STEP:  47 TIME =     0.02 SECS, INTEGRAL =      0.76 TIME LEFT: 172799.23
 STEP:  48 TIME =     0.02 SECS, INTEGRAL =      0.78 TIME LEFT: 172799.22
 STEP:  49 TIME =     0.02 SECS, INTEGRAL =      0.79 TIME LEFT: 172799.20
 STEP:  50 TIME =     0.02 SECS, INTEGRAL =      0.81 TIME LEFT: 172799.18
 STEP:  51 TIME =     0.02 SECS, INTEGRAL =      0.83 TIME LEFT: 172799.17
 STEP:  52 TIME =     0.02 SECS, INTEGRAL =      0.84 TIME LEFT: 172799.15
 STEP:  53 TIME =     0.02 SECS, INTEGRAL =      0.86 TIME LEFT: 172799.14
 STEP:  54 TIME =     0.02 SECS, INTEGRAL =      0.88 TIME LEFT: 172799.12
 STEP:  55 TIME =     0.02 SECS, INTEGRAL =      0.89 TIME LEFT: 172799.11
 STEP:  56 TIME =     0.02 SECS, INTEGRAL =      0.91 TIME LEFT: 172799.09
 STEP:  57 TIME =     0.02 SECS, INTEGRAL =      0.93 TIME LEFT: 172799.07

(To convert to Hartree/Bohr^2, multiply by (10^(-21) x N x a0^2)/(4.184 x 627.51) =  0.0642)


           FORCE MATRIX IN MILLIDYNES/ANGSTROM


                  C  1       C  2       C  3       C  4       C  5       C  6
 ------------------------------------------------------------------------------
     C    1  15.534832
     C    2   0.755783  14.922088
     C    3   0.196056   0.123204  14.908808
     C    4   4.142250   4.556594   0.931804  19.214025
     C    5   0.788256   0.648996   4.796365  10.580152  18.202766
     C    6   4.395501   1.158546   0.009433   1.014591   0.050470  18.233747
     C    7   4.867429   0.047470   0.856733   0.736227   0.084133   0.591375
     C    8   1.190888   4.445810   0.010003   1.063880   0.050294  10.428530
     C    9   0.922092   0.006502   4.741446   0.102430   0.747352   0.049578
     H   10   4.108016   0.020299   0.018552   0.414178   0.024371   0.402531
     H   11   0.039122   4.522562   0.008962   0.441227   0.016452   0.039948
     H   12   0.022726   4.478566   0.015599   0.428070   0.022620   0.035296
     H   13   0.020120   0.016643   4.366843   0.026774   0.420455   0.002898
     H   14   0.012221   0.012487   4.472812   0.047424   0.425777   0.001362
     H   15   0.113439   0.408315   0.001964   0.044203   0.006186   0.448712
     H   16   0.436274   0.005469   0.115994   0.038761   0.005842   0.016736
     H   17   0.413352   0.114386   0.001259   0.041624   0.006528   5.039702
     H   18   0.115063   0.002047   0.427800   0.006115   0.040530   0.012112
     H   19   0.110622   0.067135   0.429415   0.462582   4.883182   0.010293


                  C  7       C  8       C  9       H 10       H 11       H 12
 ------------------------------------------------------------------------------
     C    7  18.169150
     C    8   0.045144  18.214418
     C    9  10.554040   0.010794  18.045697
     H   10   0.399387   0.035040   0.030610   4.564784
     H   11   0.004478   0.432609   0.001250   0.001576   5.121364
     H   12   0.003361   0.429943   0.001125   0.001786   0.553467   5.081306
     H   13   0.027589   0.001829   0.419708   0.007725   0.001378   0.002393
     H   14   0.046907   0.001664   0.428138   0.002124   0.000860   0.001465
     H   15   0.015505   5.035691   0.002741   0.014793   0.015071   0.010125
     H   16   4.877861   0.002983   0.448027   0.012636   0.000840   0.000495
     H   17   0.011468   0.448788   0.002722   0.010399   0.014271   0.015799
     H   18   0.445750   0.002178   4.858288   0.014610   0.000209   0.000233
     H   19   0.008970   0.003772   0.040271   0.014077   0.008422   0.009488


                  H 13       H 14       H 15       H 16       H 17       H 18
 ------------------------------------------------------------------------------
     H   13   4.961667
     H   14   0.563393   5.047567
     H   15   0.000267   0.000490   5.429648
     H   16   0.015711   0.011229   0.000786   5.256930
     H   17   0.000422   0.000288   0.047833   0.007538   5.435475
     H   18   0.013265   0.036853   0.000802   0.064403   0.000534   5.231889
     H   19   0.012429   0.035819   0.000848   0.001957   0.001637   0.005233


                  H 19
 ------------------
     H   19   5.260603


          HEAT OF FORMATION =      40.303311 KCALS/MOLE

          ZERO POINT ENERGY     101.475 KCAL/MOL


           NORMAL COORDINATE ANALYSIS (Total motion = 1 Angstrom)


   Root No.       1         2         3         4         5         6         7         8

                 1 A       2 A       3 A       4 A       5 A       6 A       7 A       8 A   

                 126.9     210.0     265.0     381.2     393.1     450.6     515.0     538.9
  
           1    0.0003    0.0073   -0.0007    0.0313    0.0012    0.0046    0.0251    0.0037
           2    0.0094    0.0066   -0.0074    0.0338    0.0020    0.0086   -0.0291    0.0115
           3   -0.0042   -0.0422   -0.0280   -0.0039    0.0031    0.0196    0.0200   -0.0032
           4    0.0035    0.0033    0.0021    0.0141    0.0049    0.0084   -0.0209    0.0460
           5    0.0078   -0.0110    0.0102   -0.0307    0.0040   -0.0055   -0.0176   -0.0316
           6   -0.0413    0.0281   -0.0266    0.0037   -0.0098   -0.0060   -0.0054    0.0008
           7   -0.0166   -0.0047    0.0103   -0.0218   -0.0025   -0.0068   -0.0325   -0.0289
           8   -0.0120   -0.0022    0.0172   -0.0113   -0.0106   -0.0059    0.0609    0.0031
           9    0.0423    0.0228   -0.0198   -0.0108    0.0037   -0.0074    0.0091   -0.0116
          10    0.0049    0.0080   -0.0071    0.0422    0.0030    0.0096   -0.0084    0.0244
          11    0.0054    0.0048   -0.0048    0.0216    0.0017   -0.0044    0.0117   -0.0345
          12   -0.0169   -0.0417   -0.0059   -0.0221   -0.0009    0.0536   -0.0128    0.0313
          13   -0.0037    0.0062   -0.0087   -0.0022    0.0025   -0.0005   -0.0444   -0.0383
          14    0.0049    0.0044   -0.0057    0.0197    0.0013   -0.0029    0.0178   -0.0370
          15    0.0088   -0.0443    0.0445    0.0352    0.0065   -0.0171   -0.0103   -0.0076
          16   -0.0085    0.0117    0.0096   -0.0186    0.0009   -0.0110    0.0037    0.0262
          17   -0.0128   -0.0017   -0.0144    0.0191    0.0207    0.0283   -0.0309    0.0003
          18    0.0397   -0.0195   -0.0028   -0.0002   -0.0393   -0.0257   -0.0207    0.0224
          19    0.0193   -0.0116   -0.0077    0.0058   -0.0282    0.0303    0.0530   -0.0126
          20    0.0056    0.0126    0.0064   -0.0126   -0.0041   -0.0025    0.0120    0.0534
          21   -0.0360   -0.0091   -0.0042    0.0009    0.0412   -0.0221    0.0296    0.0156
          22   -0.0082    0.0105    0.0092   -0.0203   -0.0009   -0.0139    0.0014    0.0297
          23   -0.0132   -0.0220   -0.0150   -0.0164   -0.0110   -0.0069   -0.0361   -0.0162
          24    0.0208    0.0461    0.0268   -0.0078    0.0325    0.0174   -0.0027   -0.0156
          25    0.0111   -0.0287   -0.0100   -0.0207    0.0187   -0.0203    0.0221   -0.0466
          26    0.0052    0.0111    0.0063   -0.0169   -0.0001   -0.0091    0.0124    0.0543
          27   -0.0160    0.0399    0.0200   -0.0056   -0.0366    0.0169    0.0031   -0.0327
          28   -0.0141    0.0165   -0.0038    0.0608    0.0367   -0.0317    0.0511   -0.0234
          29    0.0443    0.0058   -0.0143    0.0640   -0.0332   -0.0155   -0.0592    0.0070
          30   -0.0025   -0.0373   -0.0295    0.0152    0.0099   -0.0009    0.0230   -0.0144
          31   -0.0295    0.0374   -0.0406    0.0578   -0.0307   -0.0570   -0.0016    0.0298
          32   -0.0080   -0.0433    0.0055   -0.0678   -0.0140   -0.0057   -0.0371   -0.0099
          33   -0.0896    0.0466   -0.0797    0.0313   -0.0639   -0.0836    0.0056   -0.0041
          34    0.0486   -0.0415    0.0551   -0.0281    0.0525    0.1006   -0.0470    0.0743
          35    0.0429    0.0172    0.0528   -0.0578    0.0489    0.0124   -0.0140   -0.0638
          36   -0.0583    0.0552   -0.0468    0.0208   -0.0274   -0.0510    0.0083   -0.0186
          37   -0.0293    0.0391    0.0014   -0.0437   -0.0323    0.0174   -0.0429   -0.0389
          38   -0.0871   -0.0376    0.1158    0.0153   -0.0742    0.0217    0.0850   -0.0258
          39    0.0547    0.0489   -0.0468   -0.0259    0.0073   -0.0046   -0.0014   -0.0082
          40   -0.0369   -0.0376    0.0566   -0.0172   -0.0097   -0.0151   -0.0290    0.0113
          41    0.0236    0.0149   -0.0289   -0.0254    0.0195   -0.0197    0.0530    0.0215
          42    0.1060    0.0481   -0.0987   -0.0373    0.0611   -0.0362   -0.0071    0.0333
          43   -0.0145    0.0140    0.0149   -0.0447   -0.0044   -0.0285    0.0149    0.0092
          44   -0.0275   -0.0407   -0.0297   -0.0328   -0.0354   -0.0259   -0.0312   -0.0240
          45    0.0438    0.1002    0.0752   -0.0158    0.0865    0.0356    0.0120   -0.0400
          46    0.0456   -0.0170   -0.0237    0.0180   -0.0665    0.0795    0.0786   -0.0353
          47    0.0081    0.0213    0.0167   -0.0414   -0.0138   -0.0143    0.0187    0.0407
          48   -0.0714   -0.0115    0.0043    0.0176    0.1000   -0.0715   -0.0115    0.0580
          49   -0.0142    0.0168    0.0176   -0.0503    0.0019   -0.0234   -0.0069    0.0261
          50   -0.0270    0.0037   -0.0257    0.0446    0.0479    0.0674   -0.0106   -0.0191
          51    0.0805   -0.0402    0.0073    0.0014   -0.0997   -0.0886   -0.0452    0.0642
          52    0.0300   -0.0546   -0.0339   -0.0355    0.0571   -0.0452    0.0352   -0.0482
          53    0.0135    0.0195    0.0066   -0.0295    0.0035   -0.0204   -0.0349    0.0530
          54   -0.0357    0.0878    0.0556    0.0049   -0.0907    0.0439   -0.0646   -0.0315
          55   -0.0100    0.0041   -0.0072   -0.0344   -0.0011   -0.0010   -0.0417   -0.0471
          56    0.0134    0.0086   -0.0138    0.0560    0.0053    0.0058    0.0178   -0.0212
          57    0.0061   -0.0601    0.1103    0.1152    0.0132   -0.0915   -0.0371   -0.0333


   Root No.       9        10        11        12        13        14        15        16

                 9 A      10 A      11 A      12 A      13 A      14 A      15 A      16 A   

                 664.2     746.3     763.4     779.1     802.7     844.4     891.4     933.7
  
           1    0.0206    0.0059    0.0153    0.0023   -0.0079   -0.0174   -0.0243   -0.0052
           2    0.0024   -0.0099   -0.0146   -0.0040    0.0079   -0.0023   -0.0264   -0.0018
           3   -0.0358    0.0103   -0.0085   -0.0302    0.0186    0.0055    0.0157    0.0049
           4   -0.0252   -0.0076    0.0229    0.0367   -0.0047    0.0184    0.0326    0.0034
           5   -0.0074    0.0072    0.0307   -0.0010   -0.0014   -0.0155    0.0020   -0.0100
           6    0.0023    0.0105    0.0004    0.0196   -0.0205    0.0071   -0.0272    0.0173
           7    0.0011    0.0063    0.0003   -0.0106    0.0007    0.0029    0.0002    0.0038
           8    0.0069   -0.0046   -0.0106    0.0255    0.0080    0.0384    0.0115    0.0108
           9   -0.0107   -0.0207   -0.0080    0.0193    0.0046   -0.0176   -0.0144   -0.0102
          10    0.0012   -0.0045    0.0128    0.0176   -0.0131   -0.0051    0.0139   -0.0029
          11    0.0250   -0.0033   -0.0159   -0.0058   -0.0080   -0.0056    0.0113   -0.0001
          12    0.0537   -0.0139   -0.0020    0.0003   -0.0096    0.0024    0.0069   -0.0169
          13    0.0183    0.0020   -0.0138   -0.0246   -0.0152   -0.0129    0.0177    0.0028
          14    0.0354   -0.0042   -0.0241   -0.0059   -0.0114    0.0005    0.0229    0.0006
          15    0.0020   -0.0032   -0.0047   -0.0053    0.0106   -0.0271    0.0182    0.0231
          16    0.0014   -0.0071   -0.0370   -0.0210    0.0122    0.0057   -0.0062    0.0022
          17   -0.0268   -0.0176   -0.0103   -0.0112    0.0313    0.0249   -0.0240    0.0150
          18   -0.0042    0.0064   -0.0284    0.0092    0.0063   -0.0001    0.0063   -0.0186
          19   -0.0014    0.0282    0.0351   -0.0085    0.0150   -0.0130   -0.0182   -0.0129
          20   -0.0040    0.0119    0.0096   -0.0161   -0.0063   -0.0173    0.0002   -0.0043
          21   -0.0026    0.0015    0.0153   -0.0149   -0.0199   -0.0062   -0.0017    0.0099
          22   -0.0018   -0.0066   -0.0361   -0.0207    0.0124    0.0053   -0.0063    0.0010
          23   -0.0156    0.0030    0.0487    0.0198   -0.0099    0.0008    0.0090   -0.0013
          24   -0.0150    0.0118    0.0006    0.0150   -0.0053   -0.0103    0.0102    0.0037
          25    0.0049   -0.0079   -0.0001    0.0362    0.0245    0.0197   -0.0059    0.0052
          26   -0.0037    0.0104    0.0048   -0.0139   -0.0065   -0.0138    0.0036   -0.0013
          27   -0.0073   -0.0104   -0.0049    0.0065   -0.0108    0.0181   -0.0031   -0.0074
          28   -0.0093    0.0081    0.0365   -0.0191   -0.0476   -0.0333   -0.0645    0.0437
          29   -0.0272    0.0160   -0.0461    0.0273    0.0242   -0.0094   -0.0696   -0.0372
          30   -0.0524    0.0166   -0.0060   -0.0316    0.0065   -0.0020   -0.0113    0.0168
          31   -0.0531   -0.0373    0.0622    0.0120    0.0423   -0.0075    0.1244   -0.0219
          32    0.0156   -0.0036    0.0399   -0.0302    0.0054    0.0022   -0.0514   -0.0552
          33   -0.0148   -0.0324    0.0520   -0.0310    0.0412   -0.0122    0.0451   -0.0432
          34    0.0139    0.0259   -0.0158    0.0960   -0.0807    0.0657   -0.0436    0.0407
          35   -0.0499    0.0571   -0.0147    0.0165   -0.0134   -0.0511   -0.0629    0.0674
          36   -0.0246    0.0003    0.0148   -0.0081    0.0170   -0.0230    0.0039    0.0097
          37   -0.0160    0.0014   -0.0023   -0.0305   -0.0495    0.0469   -0.0363   -0.0717
          38   -0.0712   -0.0977   -0.0339    0.0768    0.0025   -0.0627   -0.0403   -0.0374
          39    0.0026    0.0010   -0.0032   -0.0009   -0.0139    0.0267   -0.0161   -0.0286
          40   -0.0503   -0.0123    0.0171   -0.0004    0.0213   -0.0746   -0.0361    0.0116
          41    0.0421    0.0368   -0.0008    0.0072    0.0111    0.0911    0.0363    0.0340
          42    0.0468    0.0578    0.0162   -0.0172    0.0153    0.0661    0.0247    0.0370
          43    0.0169    0.0112   -0.0344   -0.0360   -0.0106   -0.0317   -0.0172   -0.0109
          44   -0.0171    0.0660   -0.0220    0.0612   -0.0568   -0.0522   -0.0064    0.0158
          45    0.0260   -0.1100    0.1851   -0.1201    0.0667    0.0472    0.0239   -0.0637
          46   -0.0781   -0.0042    0.0239   -0.1035   -0.0769   -0.0011    0.0054    0.0617
          47   -0.0119    0.0000   -0.0022    0.0036   -0.0191    0.0071    0.0363    0.0036
          48    0.1028    0.0558    0.0427    0.0824    0.1108   -0.0494   -0.0730   -0.0932
          49   -0.0109   -0.0005   -0.0276   -0.0081   -0.0056    0.0061    0.0515    0.0026
          50   -0.0605    0.0291   -0.0915    0.0036    0.0530   -0.0028   -0.0154   -0.0520
          51    0.0898   -0.1057    0.1288   -0.0474   -0.0076    0.0586   -0.1180    0.1253
          52   -0.0534   -0.0929   -0.0393    0.0247   -0.0844    0.0092   -0.0297   -0.0530
          53   -0.0121   -0.0094   -0.0202   -0.0158   -0.0162   -0.0321    0.0073   -0.0089
          54    0.0729    0.0998    0.0312    0.0219    0.1460    0.0161    0.0347    0.0734
          55    0.0125   -0.0023   -0.0138   -0.0230    0.0068   -0.0220    0.0060    0.0276
          56    0.0483   -0.0107   -0.0270    0.0001   -0.0343   -0.0122    0.0476   -0.0209
          57   -0.0399    0.1101    0.0196   -0.0792   -0.0717    0.2084   -0.0430   -0.1020


   Root No.      17        18        19        20        21        22        23        24

                17 A      18 A      19 A      20 A      21 A      22 A      23 A      24 A   

                 946.6     971.4     995.5    1022.2    1031.0    1039.9    1050.8    1058.7
  
           1   -0.0216   -0.0016    0.0107    0.0029   -0.0033    0.0031    0.0063   -0.0020
           2   -0.0158    0.0003    0.0031    0.0014    0.0053   -0.0126    0.0079    0.0050
           3    0.0282    0.0110   -0.0145    0.0132    0.0120    0.0085   -0.0082   -0.0155
           4    0.0020   -0.0038   -0.0022    0.0028   -0.0085    0.0144    0.0000   -0.0065
           5   -0.0137   -0.0080    0.0130    0.0038   -0.0034    0.0099    0.0027   -0.0078
           6    0.0125    0.0205   -0.0153   -0.0172   -0.0120    0.0164    0.0011    0.0037
           7   -0.0129   -0.0027   -0.0014    0.0020    0.0042    0.0039   -0.0005   -0.0004
           8   -0.0250   -0.0014   -0.0246    0.0209   -0.0104   -0.0014    0.0083   -0.0088
           9    0.0229    0.0088   -0.0006    0.0236   -0.0201   -0.0084    0.0165   -0.0018
          10    0.0043    0.0039    0.0027    0.0002    0.0081    0.0011    0.0076   -0.0028
          11    0.0120    0.0018    0.0014    0.0002   -0.0015    0.0027   -0.0015    0.0001
          12   -0.0120   -0.0078    0.0186    0.0175    0.0155    0.0018    0.0188   -0.0157
          13    0.0143   -0.0012   -0.0200    0.0004   -0.0222   -0.0082    0.0020   -0.0130
          14    0.0190    0.0025   -0.0031   -0.0007   -0.0057    0.0041   -0.0026   -0.0025
          15   -0.0196   -0.0037   -0.0223   -0.0074    0.0047    0.0135   -0.0174    0.0229
          16    0.0046   -0.0011   -0.0007   -0.0013    0.0019   -0.0030   -0.0016    0.0025
          17    0.0059   -0.0229    0.0066   -0.0042   -0.0043   -0.0078   -0.0132    0.0065
          18   -0.0158    0.0053    0.0075   -0.0169   -0.0219    0.0118    0.0039    0.0097
          19    0.0112   -0.0185   -0.0153   -0.0187   -0.0003   -0.0059   -0.0139    0.0028
          20    0.0115   -0.0014    0.0039   -0.0117    0.0026    0.0001   -0.0067    0.0048
          21   -0.0097   -0.0023    0.0179   -0.0205   -0.0075   -0.0201    0.0193    0.0301
          22    0.0021    0.0017   -0.0007   -0.0025    0.0016    0.0012    0.0005    0.0003
          23    0.0034    0.0124   -0.0147   -0.0042    0.0028   -0.0121    0.0026    0.0096
          24   -0.0021   -0.0235    0.0138    0.0219    0.0058   -0.0302   -0.0223    0.0005
          25    0.0068    0.0120    0.0355   -0.0137    0.0135   -0.0040    0.0026    0.0180
          26    0.0080    0.0040    0.0026    0.0015   -0.0004    0.0037   -0.0018    0.0011
          27   -0.0136   -0.0128   -0.0037   -0.0337    0.0188   -0.0016   -0.0175   -0.0238
          28   -0.0681    0.1015    0.0567    0.1389    0.0145    0.0902   -0.1148   -0.0850
          29   -0.0878    0.1084   -0.0725   -0.0170    0.1528   -0.0838    0.0542    0.0044
          30   -0.0071    0.0746   -0.0116    0.0631    0.0500    0.0280   -0.0470   -0.0483
          31   -0.0145   -0.0646    0.0202    0.0424    0.0361    0.0079    0.0356   -0.0250
          32   -0.0683    0.0448    0.0546   -0.0124   -0.1064   -0.0051   -0.1124   -0.0024
          33   -0.0437   -0.0175    0.0398    0.0190   -0.0269   -0.0020   -0.0334   -0.0140
          34    0.0445    0.0840   -0.0500   -0.0359   -0.0556    0.0038   -0.0469    0.0232
          35    0.0150   -0.0670   -0.0144   -0.0383    0.0448    0.1663    0.1554   -0.0579
          36   -0.0052   -0.0339    0.0052   -0.0033    0.0196    0.0464    0.0488   -0.0199
          37   -0.0133   -0.0448   -0.0405    0.1377    0.0487    0.1128   -0.0156    0.2162
          38    0.0746    0.0262   -0.0059    0.0766   -0.0509   -0.0124    0.0435    0.0070
          39   -0.0025   -0.0148   -0.0209    0.0652    0.0080    0.0383    0.0023    0.0812
          40   -0.0038    0.0250    0.0195    0.0251   -0.0380   -0.0464    0.0607   -0.1130
          41   -0.0768   -0.0128   -0.0422    0.0144    0.0007    0.0045    0.0018   -0.0233
          42   -0.0769   -0.0085   -0.0304    0.0136   -0.0084   -0.0095    0.0171   -0.0545
          43   -0.0008    0.0401   -0.0162    0.0226    0.0643   -0.0613    0.0261   -0.0014
          44    0.0013   -0.0182    0.0052    0.0458    0.0537   -0.0876   -0.0068    0.0048
          45   -0.0046    0.1295   -0.0662   -0.0537    0.0025    0.0333    0.0518    0.0099
          46   -0.0577    0.0086    0.0274    0.0134   -0.0464   -0.0570    0.0737    0.0619
          47    0.0317    0.0208    0.0668   -0.0813    0.0520    0.0348   -0.0591   -0.0072
          48    0.0555   -0.0608   -0.1042    0.0138   -0.0023    0.0052   -0.0342   -0.0306
          49    0.0416    0.0270   -0.0488    0.0167    0.0462   -0.0735   -0.0205    0.0300
          50   -0.0655   -0.0036    0.0446   -0.0420   -0.0630    0.0591    0.0149   -0.0012
          51    0.0719   -0.0860    0.0112    0.0327    0.0273   -0.0102   -0.0242   -0.0213
          52   -0.0179   -0.0319   -0.0058   -0.0552    0.0522    0.0207   -0.0426   -0.0602
          53    0.0298    0.0369    0.0523    0.0137    0.0419    0.0471   -0.0212   -0.0557
          54    0.0440    0.0854    0.1089    0.0403    0.0022    0.0019    0.0332    0.0399
          55   -0.0383   -0.0102   -0.0654    0.0268   -0.0629   -0.0271    0.0087   -0.0342
          56    0.0835    0.0165    0.0520   -0.0423    0.0522    0.0360   -0.0195    0.0351
          57    0.0794   -0.0138    0.0511    0.0427   -0.0163   -0.0338    0.0559   -0.0636


   Root No.      25        26        27        28        29        30        31        32

                25 A      26 A      27 A      28 A      29 A      30 A      31 A      32 A   

                1066.7    1089.9    1095.2    1143.8    1176.5    1201.5    1250.6    1294.7
  
           1   -0.0099   -0.0005   -0.0009    0.0087   -0.0085   -0.0248    0.0174    0.0167
           2   -0.0042    0.0016   -0.0003    0.0101    0.0181   -0.0152   -0.0277    0.0217
           3    0.0122   -0.0167    0.0039    0.0043    0.0024   -0.0203   -0.0017    0.0296
           4    0.0245   -0.0048    0.0047    0.0041   -0.0079    0.0102   -0.0207   -0.0190
           5    0.0186   -0.0044    0.0001   -0.0005   -0.0140    0.0031   -0.0043    0.0349
           6    0.0025   -0.0059   -0.0030    0.0013   -0.0062   -0.0015   -0.0042    0.0116
           7   -0.0073   -0.0130   -0.0153   -0.0027    0.0025    0.0116   -0.0046    0.0197
           8    0.0032   -0.0032    0.0045   -0.0006    0.0129   -0.0002    0.0170    0.0012
           9    0.0060    0.0052    0.0034   -0.0068    0.0009    0.0045    0.0022    0.0056
          10    0.0011   -0.0107    0.0017   -0.0065    0.0265   -0.0325    0.0193    0.0267
          11   -0.0040   -0.0057   -0.0094   -0.0024   -0.0186   -0.0120   -0.0176   -0.0005
          12    0.0004    0.0153    0.0002   -0.0045   -0.0012    0.0064   -0.0021   -0.0065
          13    0.0169    0.0158    0.0198   -0.0045    0.0125    0.0163    0.0233   -0.0134
          14    0.0061   -0.0038   -0.0061   -0.0006   -0.0181   -0.0014   -0.0173   -0.0167
          15    0.0015   -0.0055    0.0022    0.0022    0.0010   -0.0015    0.0022   -0.0009
          16   -0.0063    0.0043   -0.0042   -0.0017   -0.0097    0.0063    0.0108    0.0140
          17   -0.0157    0.0100   -0.0048   -0.0072    0.0062   -0.0004    0.0075   -0.0317
          18   -0.0330    0.0121   -0.0031   -0.0013    0.0074    0.0008   -0.0002   -0.0151
          19   -0.0026    0.0075   -0.0029   -0.0051   -0.0076    0.0044    0.0020   -0.0302
          20    0.0027    0.0085    0.0064    0.0010    0.0032    0.0106   -0.0143    0.0111
          21    0.0082    0.0064   -0.0014   -0.0024   -0.0089    0.0006    0.0049   -0.0218
          22    0.0015   -0.0014    0.0039   -0.0023   -0.0069    0.0099    0.0051    0.0094
          23   -0.0369    0.0120   -0.0014    0.0011   -0.0035    0.0064    0.0280    0.0063
          24    0.0043   -0.0018    0.0005   -0.0006   -0.0033    0.0024    0.0129    0.0041
          25    0.0025    0.0070    0.0053    0.0065    0.0060    0.0038   -0.0182    0.0106
          26    0.0012    0.0013    0.0010    0.0063    0.0026    0.0109   -0.0055    0.0139
          27   -0.0077   -0.0015   -0.0032    0.0051    0.0058    0.0056   -0.0147    0.0098
          28   -0.0870    0.0999    0.0108   -0.0329    0.0277    0.0815   -0.0326   -0.0391
          29    0.1814    0.0245   -0.0151   -0.0296   -0.0825    0.0602    0.0474   -0.0440
          30    0.0204    0.0290    0.0054   -0.0210   -0.0050    0.0396   -0.0059   -0.0090
          31    0.0004    0.0107    0.0235    0.0057   -0.0506    0.0487   -0.0687   -0.0370
          32    0.1889   -0.0505   -0.0283   -0.0016    0.1033   -0.0678    0.0069   -0.0600
          33    0.0839   -0.0164   -0.0017    0.0019    0.0216   -0.0046   -0.0451   -0.0642
          34    0.0134   -0.0374    0.0043    0.0096   -0.0461    0.0228   -0.0747   -0.0369
          35    0.0645    0.0419   -0.0057   -0.0015    0.0865   -0.0276   -0.0228   -0.0882
          36    0.0169    0.0172   -0.0028   -0.0015    0.0286   -0.0115    0.0156   -0.0034
          37   -0.0046   -0.0402   -0.0289   -0.0466   -0.0361   -0.0453   -0.0084   -0.0396
          38    0.0233    0.0129    0.0177   -0.0112    0.0158    0.0004    0.0720   -0.0350
          39    0.0024   -0.0101   -0.0054   -0.0214   -0.0141   -0.0184   -0.0080   -0.0116
          40   -0.0722   -0.1091   -0.1596   -0.1733   -0.0638   -0.0358   -0.0493   -0.0582
          41   -0.0086   -0.0235   -0.0114   -0.0075    0.0235   -0.0039    0.0511   -0.0181
          42   -0.0319   -0.0538   -0.0595   -0.0626    0.0016   -0.0149    0.0447   -0.0445
          43   -0.0639   -0.1071    0.1630   -0.0071    0.0744   -0.0196   -0.0757   -0.0999
          44   -0.0622   -0.0658    0.1086   -0.0031    0.0514   -0.0139   -0.0244   -0.0676
          45   -0.0675   -0.0188    0.0449    0.0002    0.0243   -0.0076   -0.0122   -0.0307
          46    0.0038   -0.0183   -0.0496    0.1046    0.0210    0.0815   -0.0337   -0.0008
          47    0.0133    0.0553    0.0819   -0.1795   -0.0539   -0.1260    0.0536   -0.0414
          48   -0.0116   -0.0118   -0.0265    0.0625    0.0177    0.0550   -0.0271   -0.0021
          49   -0.0198    0.1132   -0.1547    0.0209    0.0796   -0.0870   -0.0484   -0.0437
          50   -0.0412   -0.0543    0.0974   -0.0209   -0.0505    0.0653    0.0467    0.0064
          51    0.0402   -0.0412    0.0445   -0.0130   -0.0292    0.0244    0.0253    0.0048
          52   -0.0266   -0.0269   -0.0245    0.1137   -0.0192   -0.0209    0.0231   -0.0416
          53   -0.0275   -0.0585   -0.0453    0.2478   -0.0585   -0.0545    0.1001   -0.1134
          54    0.0070   -0.0104   -0.0067    0.0802   -0.0162   -0.0207    0.0234   -0.0375
          55    0.0130    0.0642    0.0713    0.0481   -0.0691   -0.0877   -0.0413   -0.0151
          56    0.0120   -0.0770   -0.0815   -0.0776    0.0972    0.1461    0.0750   -0.0171
          57    0.0077    0.0266    0.0167    0.0071   -0.0039   -0.0076   -0.0019    0.0020


   Root No.      33        34        35        36        37        38        39        40

                33 A      34 A      35 A      36 A      37 A      38 A      39 A      40 A   

                1338.2    1368.2    1377.1    1394.2    1399.9    1461.8    1810.9    1857.5
  
           1    0.0162   -0.0369   -0.0280    0.0146    0.0187    0.1056    0.0204   -0.0185
           2    0.0239   -0.0633    0.0208    0.0227   -0.0476   -0.0546   -0.0086    0.0208
           3    0.0039   -0.0242   -0.0005    0.0026   -0.0009    0.0245    0.0004   -0.0097
           4   -0.0119   -0.0030    0.0126    0.0670   -0.0023    0.0136   -0.0182    0.0029
           5    0.0424    0.0693   -0.0028    0.0045   -0.0272   -0.0027   -0.0027   -0.0037
           6    0.0118    0.0249    0.0008    0.0108   -0.0077    0.0006   -0.0020   -0.0009
           7    0.0134   -0.0118   -0.0295    0.0299    0.0794   -0.0552    0.0038   -0.0143
           8   -0.0037    0.0014   -0.0433    0.0027   -0.0337   -0.0161    0.0008   -0.0200
           9    0.0011   -0.0035   -0.0299    0.0128    0.0141   -0.0242    0.0015   -0.0099
          10   -0.0197    0.0617    0.0048   -0.0498    0.0081   -0.0505    0.0034   -0.0031
          11   -0.0122    0.0064    0.0052   -0.0016    0.0266   -0.0120   -0.0209    0.0348
          12   -0.0044    0.0025    0.0007   -0.0008    0.0030   -0.0053    0.0009    0.0030
          13    0.0108   -0.0011    0.0029   -0.0052   -0.0504    0.0322   -0.0053    0.0061
          14   -0.0185   -0.0017    0.0064    0.0070    0.0218   -0.0010    0.0231   -0.0275
          15    0.0006    0.0005    0.0023   -0.0016   -0.0059    0.0047   -0.0003    0.0005
          16   -0.0072   -0.0128    0.0049   -0.0118   -0.0022   -0.0122   -0.2059   -0.0290
          17    0.0058    0.0473   -0.0201   -0.0032    0.0210    0.0339    0.0210    0.0003
          18    0.0030    0.0188   -0.0068   -0.0007    0.0066    0.0099    0.0037   -0.0025
          19    0.0072    0.0029    0.0029    0.0087   -0.0113   -0.0553   -0.0059    0.0393
          20   -0.0087    0.0050    0.0133   -0.0084    0.0041    0.0209    0.0227   -0.2048
          21    0.0051    0.0024    0.0006    0.0055   -0.0070   -0.0340   -0.0041    0.0141
          22   -0.0079   -0.0117    0.0090   -0.0078   -0.0070   -0.0225    0.2068    0.0284
          23   -0.0291   -0.0540    0.0058   -0.0136    0.0053   -0.0050    0.0183    0.0008
          24   -0.0120   -0.0213    0.0021   -0.0065    0.0025   -0.0014    0.0131    0.0012
          25   -0.0111    0.0032    0.0226   -0.0151   -0.0157    0.0340   -0.0014    0.0107
          26   -0.0101    0.0080    0.0008   -0.0094    0.0136    0.0402   -0.0247    0.2081
          27   -0.0080    0.0022    0.0160   -0.0102   -0.0070    0.0241   -0.0024    0.0209
          28   -0.0110    0.0286    0.0216   -0.0037   -0.0170   -0.0642   -0.0068   -0.0099
          29   -0.0240    0.0489   -0.0199   -0.0124    0.0424    0.0418   -0.0173   -0.0121
          30   -0.0165    0.0262    0.0103   -0.0109    0.0035   -0.0231   -0.0067   -0.0065
          31    0.0965   -0.0639   -0.0463   -0.1324    0.0032    0.0016   -0.0049    0.0004
          32   -0.0834   -0.0506    0.0101    0.0117    0.0420   -0.0001   -0.0384   -0.0007
          33    0.0449   -0.1093   -0.0511   -0.1833    0.0397   -0.0073   -0.0160   -0.0033
          34    0.1037   -0.0807   -0.0596   -0.1889    0.0211   -0.0054   -0.0006    0.0006
          35   -0.0334   -0.1019   -0.0189   -0.0865    0.0448   -0.0060   -0.0272   -0.0022
          36   -0.0516    0.0262    0.0289    0.1031   -0.0051    0.0072   -0.0092    0.0005
          37   -0.0189    0.0066    0.0481   -0.0270   -0.0640    0.0446    0.0026   -0.0122
          38    0.1092   -0.0102    0.2058   -0.0060    0.1248    0.0204    0.0002    0.0009
          39   -0.0291    0.0057   -0.0368   -0.0088   -0.0665    0.0098    0.0011   -0.0084
          40   -0.0679    0.0084   -0.0087   -0.0284   -0.1453    0.0537    0.0077   -0.0329
          41    0.0583   -0.0044    0.0940   -0.0068    0.0382    0.0035    0.0011   -0.0206
          42    0.0814   -0.0082    0.2008   -0.0176    0.0751    0.0353    0.0027   -0.0194
          43    0.0266    0.0780   -0.0193    0.0454    0.0174    0.0323    0.0456    0.0088
          44   -0.0053    0.0075   -0.0149    0.0206    0.0226    0.0348   -0.1348   -0.0204
          45   -0.0037    0.0029   -0.0073    0.0103    0.0123    0.0196   -0.0569   -0.0082
          46   -0.0305    0.0396    0.0266   -0.0236    0.0027    0.0081    0.0089   -0.1006
          47    0.0587   -0.0615   -0.0297    0.0490   -0.0165   -0.0775    0.0025   -0.0319
          48   -0.0212    0.0276    0.0215   -0.0164   -0.0045   -0.0069    0.0054   -0.0708
          49    0.0622    0.0595   -0.0375    0.0267    0.0117    0.0644   -0.0483   -0.0099
          50   -0.0413   -0.0057    0.0098   -0.0304    0.0095   -0.0211   -0.1334   -0.0218
          51   -0.0188    0.0018    0.0008   -0.0142    0.0093   -0.0007   -0.0585   -0.0098
          52    0.0050    0.0020    0.0118   -0.0032   -0.0407   -0.0172    0.0111   -0.1018
          53    0.0266    0.0091   -0.0265    0.0146   -0.0575   -0.0784   -0.0033    0.0164
          54    0.0036    0.0039    0.0105   -0.0049   -0.0416   -0.0194    0.0076   -0.0704
          55   -0.0434    0.0353    0.0375   -0.0269    0.0047    0.0053    0.0133   -0.0105
          56    0.0563   -0.0506   -0.0428    0.0371   -0.0581    0.0381    0.0034   -0.0139
          57   -0.0029   -0.0037   -0.0017    0.0001    0.0043   -0.0006    0.0010   -0.0036


   Root No.      41        42        43        44        45        46        47        48

                41 A      42 A      43 A      44 A      45 A      46 A      47 A      48 A   

                1930.8    2846.3    2939.7    2973.5    3020.2    3046.4    3059.8    3076.1
  
           1   -0.0068    0.0270   -0.0002   -0.0001   -0.0001    0.0005    0.0002    0.0001
           2   -0.0237    0.0140   -0.0002    0.0000   -0.0001   -0.0001   -0.0002    0.0004
           3    0.0001   -0.0662    0.0005   -0.0002    0.0002   -0.0000    0.0002   -0.0000
           4    0.0220   -0.0002   -0.0000    0.0065   -0.0000   -0.0409   -0.0001    0.0001
           5   -0.0252   -0.0001   -0.0001    0.0197   -0.0000   -0.0105   -0.0000   -0.0003
           6   -0.0032    0.0000    0.0000   -0.0572   -0.0000   -0.0054   -0.0000   -0.0002
           7   -0.0120    0.0002    0.0188    0.0000    0.0058   -0.0000   -0.0003   -0.0001
           8    0.0186    0.0001    0.0196    0.0000   -0.0392    0.0001    0.0024   -0.0030
           9   -0.0001   -0.0004   -0.0529   -0.0002   -0.0070    0.0000   -0.0004    0.0005
          10   -0.0264    0.0008    0.0002   -0.0001   -0.0003   -0.0005   -0.0002   -0.0007
          11    0.2492    0.0011    0.0003    0.0004    0.0004    0.0004    0.0002    0.0054
          12    0.0113   -0.0001   -0.0002   -0.0001   -0.0000    0.0000   -0.0001    0.0002
          13    0.0414    0.0002   -0.0006    0.0003    0.0029    0.0001   -0.0016   -0.0469
          14   -0.2081   -0.0006   -0.0012   -0.0002    0.0016   -0.0001   -0.0015   -0.0387
          15   -0.0014   -0.0002   -0.0001   -0.0001    0.0002   -0.0000   -0.0000   -0.0037
          16   -0.0214    0.0009   -0.0000    0.0001   -0.0000    0.0001    0.0002   -0.0000
          17   -0.0042   -0.0008    0.0000    0.0000   -0.0000   -0.0003    0.0001   -0.0000
          18   -0.0012   -0.0006   -0.0000   -0.0003   -0.0000   -0.0001    0.0001   -0.0000
          19   -0.0054   -0.0006   -0.0000    0.0000   -0.0000   -0.0001    0.0184   -0.0065
          20    0.0363    0.0011    0.0002   -0.0000    0.0001   -0.0000    0.0150   -0.0069
          21   -0.0024   -0.0006   -0.0003    0.0000   -0.0000   -0.0001    0.0144   -0.0052
          22    0.0203   -0.0007    0.0000   -0.0003    0.0000    0.0002   -0.0000   -0.0000
          23   -0.0051    0.0002    0.0000    0.0001   -0.0000   -0.0014   -0.0000    0.0000
          24   -0.0009   -0.0003    0.0000   -0.0001   -0.0000   -0.0006   -0.0000    0.0000
          25   -0.0005    0.0000    0.0006   -0.0000   -0.0032    0.0000   -0.0312   -0.0024
          26   -0.0363   -0.0007   -0.0011    0.0000    0.0017   -0.0000    0.0215    0.0029
          27   -0.0035   -0.0003    0.0003    0.0000   -0.0021    0.0000   -0.0204   -0.0016
          28   -0.0108   -0.3277    0.0018   -0.0005    0.0009   -0.0002    0.0007   -0.0003
          29    0.0077   -0.1743    0.0004    0.0000    0.0002   -0.0001    0.0004   -0.0001
          30   -0.0014    0.8155   -0.0044    0.0010   -0.0021    0.0005   -0.0006    0.0008
          31   -0.0041    0.0001    0.0006   -0.3016    0.0006    0.3250    0.0004   -0.0000
          32    0.0255    0.0000    0.0003   -0.1672    0.0004    0.1961    0.0002   -0.0005
          33   -0.0004   -0.0001   -0.0005    0.2500   -0.0006   -0.3218   -0.0004   -0.0000
          34    0.0081   -0.0007   -0.0005    0.2263    0.0002    0.1626    0.0002    0.0012
          35    0.0066    0.0007    0.0002   -0.0689   -0.0001   -0.0709   -0.0001   -0.0004
          36    0.0039   -0.0017   -0.0008    0.4432    0.0006    0.3872    0.0005    0.0021
          37   -0.0100   -0.0027   -0.1906   -0.0003   -0.1339    0.0003    0.0041   -0.0046
          38   -0.0020    0.0022    0.1108    0.0002    0.0476   -0.0001   -0.0009   -0.0000
          39   -0.0023    0.0066    0.4741    0.0009    0.3392   -0.0007   -0.0126    0.0107
          40   -0.0296    0.0000   -0.0374   -0.0001    0.0639   -0.0001   -0.0069   -0.0000
          41    0.0175   -0.0014   -0.3390   -0.0006    0.4204   -0.0008   -0.0298    0.0333
          42    0.0012    0.0002    0.1667    0.0003   -0.2527    0.0005    0.0148   -0.0192
          43    0.0148   -0.0023    0.0000    0.0023   -0.0001   -0.0099    0.0000    0.0011
          44   -0.0198    0.0029   -0.0000   -0.0014    0.0001    0.0097   -0.0000   -0.0013
          45   -0.0075    0.0001   -0.0000   -0.0019    0.0000    0.0037   -0.0000   -0.0005
          46    0.0219    0.0016    0.0008   -0.0000    0.0022    0.0008   -0.2194    0.0786
          47   -0.0012   -0.0000    0.0001   -0.0000    0.0025    0.0007   -0.1901    0.0695
          48    0.0182   -0.0017   -0.0003   -0.0001    0.0017    0.0007   -0.1734    0.0623
          49   -0.0121    0.0017   -0.0000   -0.0001    0.0000    0.0069   -0.0005   -0.0003
          50   -0.0210    0.0016    0.0000    0.0003    0.0000    0.0078   -0.0011   -0.0002
          51   -0.0092   -0.0011    0.0000   -0.0007    0.0000    0.0036   -0.0003   -0.0002
          52    0.0206    0.0023   -0.0077    0.0000    0.0325   -0.0001    0.3720    0.0328
          53    0.0040   -0.0011    0.0081   -0.0000   -0.0240    0.0001   -0.2399   -0.0220
          54    0.0177    0.0003   -0.0066    0.0000    0.0206   -0.0001    0.2449    0.0215
          55   -0.1328   -0.0014    0.0096   -0.0015   -0.0276   -0.0016    0.0234    0.5632
          56   -0.0358   -0.0011    0.0097   -0.0014   -0.0227   -0.0004    0.0166    0.3995
          57   -0.0052   -0.0012   -0.0006    0.0002   -0.0026    0.0002    0.0018    0.0428


   Root No.      49        50        51

                49 A      50 A      51 A   

                3081.2    3120.8    3139.4
  
           1   -0.0000   -0.0003   -0.0009
           2   -0.0006    0.0003    0.0003
           3    0.0001    0.0002    0.0003
           4    0.0000    0.0001    0.0019
           5    0.0001   -0.0001    0.0006
           6    0.0000   -0.0002    0.0002
           7   -0.0001    0.0000    0.0000
           8    0.0027    0.0000    0.0000
           9   -0.0001   -0.0000   -0.0000
          10    0.0005   -0.0002   -0.0000
          11   -0.0009    0.0001    0.0014
          12    0.0001    0.0000    0.0003
          13    0.0070   -0.0001   -0.0001
          14    0.0057   -0.0000   -0.0003
          15    0.0006   -0.0000   -0.0000
          16   -0.0003    0.0215   -0.0305
          17    0.0000    0.0263   -0.0289
          18   -0.0001    0.0122   -0.0136
          19   -0.0246   -0.0001    0.0001
          20   -0.0274   -0.0001   -0.0001
          21   -0.0198   -0.0001    0.0001
          22   -0.0000    0.0247    0.0280
          23    0.0001   -0.0301   -0.0267
          24    0.0000   -0.0119   -0.0104
          25   -0.0195   -0.0000   -0.0000
          26    0.0179    0.0000    0.0000
          27   -0.0124   -0.0000   -0.0000
          28   -0.0000    0.0004    0.0002
          29   -0.0006    0.0008   -0.0001
          30   -0.0008   -0.0002   -0.0020
          31   -0.0005   -0.0027   -0.0090
          32   -0.0002   -0.0033   -0.0066
          33    0.0005    0.0020    0.0082
          34   -0.0004   -0.0000   -0.0032
          35    0.0002   -0.0007    0.0010
          36   -0.0008   -0.0012   -0.0087
          37    0.0045    0.0000    0.0000
          38   -0.0007   -0.0000   -0.0000
          39   -0.0119   -0.0000   -0.0001
          40   -0.0046   -0.0000   -0.0000
          41   -0.0267   -0.0001   -0.0000
          42    0.0139    0.0000    0.0000
          43    0.0006   -0.2864   -0.2508
          44   -0.0008    0.3579    0.3098
          45   -0.0003    0.1422    0.1230
          46    0.2952    0.0014   -0.0004
          47    0.2622    0.0018   -0.0011
          48    0.2341    0.0013   -0.0005
          49    0.0007   -0.2577    0.2803
          50    0.0017   -0.3137    0.3371
          51    0.0005   -0.1454    0.1565
          52    0.2253    0.0004    0.0004
          53   -0.1491   -0.0003   -0.0002
          54    0.1480    0.0003    0.0003
          55   -0.0807    0.0004    0.0010
          56   -0.0574    0.0003    0.0006
          57   -0.0061    0.0001    0.0000


           MASS-WEIGHTED COORDINATE ANALYSIS (NORMAL COORDINATES)


   Root No.       1         2         3         4         5         6         7         8

                 1 A       2 A       3 A       4 A       5 A       6 A       7 A       8 A   

                 126.9     210.0     265.0     381.2     393.1     450.6     515.0     538.9
  
           1    0.0022    0.0547   -0.0061    0.2510    0.0103    0.0386    0.1726    0.0230
           2    0.0784    0.0499   -0.0656    0.2717    0.0171    0.0724   -0.2005    0.0727
           3   -0.0352   -0.3178   -0.2487   -0.0312    0.0263    0.1659    0.1378   -0.0201
           4    0.0289    0.0247    0.0185    0.1136    0.0417    0.0713   -0.1439    0.2899
           5    0.0651   -0.0827    0.0905   -0.2461    0.0342   -0.0468   -0.1210   -0.1990
           6   -0.3436    0.2117   -0.2361    0.0294   -0.0835   -0.0508   -0.0375    0.0051
           7   -0.1379   -0.0354    0.0918   -0.1748   -0.0211   -0.0572   -0.2234   -0.1818
           8   -0.1000   -0.0169    0.1530   -0.0906   -0.0907   -0.0502    0.4192    0.0196
           9    0.3518    0.1721   -0.1757   -0.0869    0.0315   -0.0624    0.0623   -0.0728
          10    0.0405    0.0600   -0.0632    0.3387    0.0257    0.0807   -0.0575    0.1534
          11    0.0447    0.0361   -0.0425    0.1732    0.0143   -0.0370    0.0804   -0.2169
          12   -0.1401   -0.3144   -0.0520   -0.1774   -0.0075    0.4533   -0.0878    0.1973
          13   -0.0309    0.0466   -0.0774   -0.0178    0.0213   -0.0045   -0.3054   -0.2414
          14    0.0407    0.0332   -0.0505    0.1579    0.0112   -0.0246    0.1224   -0.2328
          15    0.0734   -0.3334    0.3953    0.2823    0.0551   -0.1446   -0.0706   -0.0477
          16   -0.0703    0.0879    0.0850   -0.1493    0.0080   -0.0928    0.0252    0.1651
          17   -0.1063   -0.0130   -0.1280    0.1536    0.1764    0.2388   -0.2129    0.0020
          18    0.3297   -0.1471   -0.0248   -0.0016   -0.3357   -0.2173   -0.1422    0.1412
          19    0.1600   -0.0872   -0.0686    0.0464   -0.2410    0.2559    0.3650   -0.0796
          20    0.0468    0.0952    0.0569   -0.1015   -0.0346   -0.0214    0.0825    0.3362
          21   -0.2994   -0.0688   -0.0375    0.0068    0.3514   -0.1870    0.2038    0.0980
          22   -0.0681    0.0793    0.0814   -0.1630   -0.0073   -0.1178    0.0093    0.1871
          23   -0.1098   -0.1659   -0.1330   -0.1319   -0.0943   -0.0582   -0.2485   -0.1019
          24    0.1732    0.3473    0.2379   -0.0625    0.2776    0.1473   -0.0188   -0.0982
          25    0.0926   -0.2161   -0.0886   -0.1659    0.1600   -0.1713    0.1520   -0.2932
          26    0.0429    0.0833    0.0558   -0.1360   -0.0009   -0.0770    0.0856    0.3420
          27   -0.1332    0.3003    0.1782   -0.0449   -0.3126    0.1426    0.0212   -0.2057
          28   -0.0341    0.0360   -0.0098    0.1413    0.0907   -0.0776    0.1019   -0.0427
          29    0.1068    0.0127   -0.0367    0.1489   -0.0821   -0.0380   -0.1180    0.0128
          30   -0.0060   -0.0815   -0.0759    0.0354    0.0246   -0.0023    0.0458   -0.0263
          31   -0.0710    0.0817   -0.1046    0.1346   -0.0760   -0.1395   -0.0031    0.0543
          32   -0.0193   -0.0944    0.0140   -0.1576   -0.0346   -0.0140   -0.0741   -0.0180
          33   -0.2158    0.1018   -0.2052    0.0728   -0.1580   -0.2046    0.0112   -0.0074
          34    0.1170   -0.0906    0.1418   -0.0653    0.1299    0.2463   -0.0937    0.1354
          35    0.1033    0.0374    0.1360   -0.1345    0.1208    0.0304   -0.0278   -0.1164
          36   -0.1403    0.1204   -0.1205    0.0485   -0.0678   -0.1247    0.0165   -0.0338
          37   -0.0706    0.0853    0.0036   -0.1016   -0.0798    0.0425   -0.0856   -0.0709
          38   -0.2096   -0.0820    0.2982    0.0355   -0.1835    0.0530    0.1694   -0.0470
          39    0.1316    0.1068   -0.1206   -0.0602    0.0181   -0.0114   -0.0029   -0.0149
          40   -0.0889   -0.0822    0.1458   -0.0401   -0.0239   -0.0370   -0.0578    0.0206
          41    0.0567    0.0325   -0.0743   -0.0590    0.0481   -0.0483    0.1058    0.0392
          42    0.2551    0.1049   -0.2542   -0.0869    0.1510   -0.0886   -0.0142    0.0608
          43   -0.0348    0.0306    0.0383   -0.1039   -0.0109   -0.0698    0.0297    0.0167
          44   -0.0662   -0.0887   -0.0765   -0.0762   -0.0876   -0.0634   -0.0621   -0.0438
          45    0.1054    0.2187    0.1936   -0.0367    0.2140    0.0872    0.0239   -0.0729
          46    0.1097   -0.0372   -0.0610    0.0420   -0.1644    0.1946    0.1567   -0.0644
          47    0.0195    0.0464    0.0430   -0.0963   -0.0340   -0.0351    0.0373    0.0742
          48   -0.1719   -0.0251    0.0110    0.0410    0.2473   -0.1751   -0.0229    0.1058
          49   -0.0343    0.0367    0.0453   -0.1170    0.0047   -0.0572   -0.0138    0.0476
          50   -0.0650    0.0082   -0.0661    0.1038    0.1185    0.1651   -0.0212   -0.0348
          51    0.1938   -0.0877    0.0187    0.0032   -0.2464   -0.2170   -0.0901    0.1171
          52    0.0722   -0.1193   -0.0872   -0.0826    0.1412   -0.1106    0.0702   -0.0879
          53    0.0326    0.0425    0.0170   -0.0686    0.0087   -0.0500   -0.0696    0.0967
          54   -0.0860    0.1916    0.1432    0.0113   -0.2243    0.1074   -0.1289   -0.0574
          55   -0.0241    0.0090   -0.0186   -0.0799   -0.0028   -0.0024   -0.0832   -0.0860
          56    0.0322    0.0189   -0.0356    0.1303    0.0131    0.0141    0.0355   -0.0387
          57    0.0146   -0.1313    0.2839    0.2681    0.0328   -0.2239   -0.0741   -0.0607


   Root No.       9        10        11        12        13        14        15        16

                 9 A      10 A      11 A      12 A      13 A      14 A      15 A      16 A   

                 664.2     746.3     763.4     779.1     802.7     844.4     891.4     933.7
  
           1    0.1714    0.0589    0.1144    0.0190   -0.0736   -0.1495   -0.2166   -0.0538
           2    0.0197   -0.0983   -0.1090   -0.0338    0.0741   -0.0198   -0.2360   -0.0189
           3   -0.2986    0.1026   -0.0639   -0.2523    0.1739    0.0471    0.1399    0.0507
           4   -0.2097   -0.0760    0.1711    0.3062   -0.0435    0.1578    0.2907    0.0352
           5   -0.0617    0.0716    0.2297   -0.0086   -0.0135   -0.1327    0.0176   -0.1035
           6    0.0193    0.1045    0.0026    0.1637   -0.1918    0.0610   -0.2430    0.1802
           7    0.0088    0.0624    0.0026   -0.0888    0.0066    0.0245    0.0018    0.0397
           8    0.0576   -0.0457   -0.0790    0.2132    0.0747    0.3296    0.1026    0.1121
           9   -0.0888   -0.2066   -0.0601    0.1612    0.0425   -0.1508   -0.1286   -0.1063
          10    0.0101   -0.0451    0.0957    0.1470   -0.1222   -0.0435    0.1242   -0.0298
          11    0.2088   -0.0327   -0.1187   -0.0483   -0.0747   -0.0480    0.1009   -0.0006
          12    0.4474   -0.1387   -0.0152    0.0023   -0.0897    0.0205    0.0619   -0.1756
          13    0.1527    0.0194   -0.1030   -0.2056   -0.1420   -0.1109    0.1576    0.0287
          14    0.2950   -0.0421   -0.1807   -0.0492   -0.1065    0.0047    0.2043    0.0062
          15    0.0169   -0.0322   -0.0351   -0.0443    0.0987   -0.2328    0.1622    0.2398
          16    0.0117   -0.0704   -0.2773   -0.1755    0.1138    0.0488   -0.0554    0.0227
          17   -0.2237   -0.1758   -0.0771   -0.0937    0.2918    0.2140   -0.2146    0.1564
          18   -0.0350    0.0642   -0.2129    0.0769    0.0589   -0.0009    0.0558   -0.1934
          19   -0.0113    0.2815    0.2629   -0.0709    0.1405   -0.1113   -0.1626   -0.1336
          20   -0.0334    0.1189    0.0720   -0.1344   -0.0587   -0.1486    0.0021   -0.0447
          21   -0.0220    0.0145    0.1145   -0.1243   -0.1854   -0.0529   -0.0148    0.1030
          22   -0.0154   -0.0653   -0.2700   -0.1726    0.1153    0.0457   -0.0566    0.0108
          23   -0.1305    0.0302    0.3645    0.1652   -0.0926    0.0071    0.0800   -0.0140
          24   -0.1249    0.1171    0.0043    0.1249   -0.0497   -0.0886    0.0908    0.0389
          25    0.0409   -0.0792   -0.0006    0.3027    0.2283    0.1689   -0.0531    0.0537
          26   -0.0312    0.1037    0.0356   -0.1158   -0.0605   -0.1185    0.0320   -0.0137
          27   -0.0607   -0.1033   -0.0366    0.0540   -0.1004    0.1552   -0.0275   -0.0774
          28   -0.0226    0.0233    0.0791   -0.0461   -0.1286   -0.0828   -0.1667    0.1317
          29   -0.0657    0.0463   -0.0999    0.0661    0.0654   -0.0234   -0.1800   -0.1120
          30   -0.1266    0.0481   -0.0129   -0.0764    0.0176   -0.0050   -0.0291    0.0505
          31   -0.1283   -0.1077    0.1348    0.0290    0.1145   -0.0187    0.3217   -0.0660
          32    0.0376   -0.0103    0.0866   -0.0731    0.0146    0.0055   -0.1330   -0.1663
          33   -0.0357   -0.0937    0.1129   -0.0750    0.1113   -0.0302    0.1165   -0.1301
          34    0.0337    0.0748   -0.0343    0.2323   -0.2182    0.1634   -0.1127    0.1225
          35   -0.1206    0.1650   -0.0318    0.0400   -0.0362   -0.1269   -0.1627    0.2030
          36   -0.0594    0.0009    0.0321   -0.0195    0.0459   -0.0573    0.0101    0.0291
          37   -0.0385    0.0040   -0.0050   -0.0738   -0.1337    0.1165   -0.0939   -0.2159
          38   -0.1719   -0.2819   -0.0735    0.1859    0.0068   -0.1558   -0.1042   -0.1126
          39    0.0062    0.0028   -0.0070   -0.0022   -0.0377    0.0663   -0.0417   -0.0863
          40   -0.1214   -0.0354    0.0371   -0.0009    0.0575   -0.1852   -0.0934    0.0351
          41    0.1016    0.1061   -0.0017    0.0174    0.0301    0.2263    0.0938    0.1024
          42    0.1130    0.1667    0.0351   -0.0417    0.0414    0.1641    0.0637    0.1114
          43    0.0408    0.0323   -0.0745   -0.0870   -0.0287   -0.0788   -0.0445   -0.0327
          44   -0.0413    0.1904   -0.0477    0.1482   -0.1536   -0.1298   -0.0166    0.0475
          45    0.0628   -0.3176    0.4013   -0.2904    0.1805    0.1173    0.0619   -0.1920
          46   -0.1886   -0.0120    0.0518   -0.2503   -0.2079   -0.0027    0.0140    0.1857
          47   -0.0288    0.0001   -0.0048    0.0087   -0.0516    0.0177    0.0937    0.0110
          48    0.2483    0.1610    0.0927    0.1992    0.2996   -0.1228   -0.1888   -0.2809
          49   -0.0262   -0.0015   -0.0599   -0.0196   -0.0151    0.0151    0.1331    0.0077
          50   -0.1461    0.0840   -0.1984    0.0088    0.1433   -0.0068   -0.0399   -0.1567
          51    0.2169   -0.3051    0.2794   -0.1147   -0.0204    0.1456   -0.3051    0.3775
          52   -0.1289   -0.2683   -0.0852    0.0598   -0.2284    0.0230   -0.0769   -0.1597
          53   -0.0291   -0.0271   -0.0439   -0.0382   -0.0437   -0.0797    0.0188   -0.0268
          54    0.1760    0.2880    0.0676    0.0529    0.3949    0.0401    0.0897    0.2212
          55    0.0302   -0.0068   -0.0299   -0.0556    0.0183   -0.0548    0.0154    0.0830
          56    0.1167   -0.0308   -0.0585    0.0002   -0.0926   -0.0302    0.1232   -0.0631
          57   -0.0962    0.3178    0.0426   -0.1916   -0.1938    0.5177   -0.1112   -0.3072


   Root No.      17        18        19        20        21        22        23        24

                17 A      18 A      19 A      20 A      21 A      22 A      23 A      24 A   

                 946.6     971.4     995.5    1022.2    1031.0    1039.9    1050.8    1058.7
  
           1   -0.1993   -0.0161    0.1020    0.0267   -0.0330    0.0301    0.0614   -0.0184
           2   -0.1461    0.0027    0.0294    0.0125    0.0535   -0.1214    0.0776    0.0452
           3    0.2603    0.1079   -0.1383    0.1205    0.1211    0.0819   -0.0802   -0.1392
           4    0.0183   -0.0370   -0.0207    0.0256   -0.0862    0.1380    0.0004   -0.0582
           5   -0.1263   -0.0784    0.1247    0.0348   -0.0340    0.0952    0.0268   -0.0701
           6    0.1156    0.2005   -0.1462   -0.1578   -0.1216    0.1580    0.0103    0.0335
[...]
 T-DIPOLE    0.0400         C  1 -- H 10         +12.4% ( 43.1%)      0.6%
 TRAVEL      0.1240         C  7 -- H 16         +12.1% ( 42.7%)      1.7%
 RED. MASS   0.3963         C  4 -- C  5          +8.1% ( 34.8%)      2.2%
 EFF. MASS   3.6514

 VIBRATION   31   31A         ATOM PAIR      ENERGY CONTRIBUTION    RADIAL
 FREQ.      1250.55         C  1 -- C  4          +8.1% ( 39.5%)     50.7%
 T-DIPOLE    0.0513         C  5 -- H 19          +7.7% ( 38.6%)      1.4%
 TRAVEL      0.0907         C  2 -- C  4          +7.4% ( 37.8%)     89.7%
 RED. MASS   0.4505         C  2 -- C  8          +7.4% ( 37.7%)     94.0%
 EFF. MASS   6.5498

 VIBRATION   32   32A         ATOM PAIR      ENERGY CONTRIBUTION    RADIAL
 FREQ.      1294.71         C  1 -- C  7         +10.6% ( 45.9%)     62.1%
 T-DIPOLE    0.0934         C  1 -- C  6         +10.3% ( 45.3%)     78.0%
 TRAVEL      0.0842         C  2 -- C  4          +8.0% ( 39.9%)     94.8%
 RED. MASS   0.7022         C  2 -- H 12          +6.8% ( 36.8%)      0.0%
 EFF. MASS   7.3430

 VIBRATION   33   33A         ATOM PAIR      ENERGY CONTRIBUTION    RADIAL
 FREQ.      1338.17         C  2 -- C  8         +14.1% ( 48.2%)     81.9%
 T-DIPOLE    0.0980         C  2 -- H 11         +13.2% ( 46.6%)      0.0%
 TRAVEL      0.0944         C  2 -- H 12         +11.6% ( 43.7%)      0.1%
 RED. MASS   0.5843         C  2 -- C  4          +8.1% ( 36.5%)     21.4%
 EFF. MASS   5.6522

 VIBRATION   34   34A         ATOM PAIR      ENERGY CONTRIBUTION    RADIAL
 FREQ.      1368.22         C  2 -- C  8         +13.5% ( 55.7%)     90.3%
 T-DIPOLE    0.0414         C  1 -- C  4         +13.4% ( 55.4%)     98.0%
 TRAVEL      0.0706         C  1 -- C  6         +12.1% ( 52.6%)     70.5%
 RED. MASS   1.6725         C  2 -- C  4         +10.9% ( 49.9%)     95.1%
 EFF. MASS   9.9013

 VIBRATION   35   35A         ATOM PAIR      ENERGY CONTRIBUTION    RADIAL
 FREQ.      1377.12         C  3 -- H 14         +21.3% ( 58.1%)      4.3%
 T-DIPOLE    0.0708         C  3 -- H 13         +20.4% ( 57.0%)      4.2%
 TRAVEL      0.0959         C  3 -- C  9         +14.8% ( 48.6%)     99.5%
 RED. MASS   0.8348         C  3 -- C  5          +9.8% ( 39.5%)      2.0%
 EFF. MASS   5.3194

 VIBRATION   36   36A         ATOM PAIR      ENERGY CONTRIBUTION    RADIAL
 FREQ.      1394.23         C  2 -- H 12         +18.7% ( 57.2%)      6.6%
 T-DIPOLE    0.0598         C  2 -- C  4         +18.3% ( 56.5%)     58.9%
 TRAVEL      0.0867         C  2 -- H 11         +17.9% ( 55.9%)      7.9%
 RED. MASS   0.9987         C  2 -- C  8         +11.1% ( 44.0%)     39.3%
 EFF. MASS   6.4277

 VIBRATION   37   37A         ATOM PAIR      ENERGY CONTRIBUTION    RADIAL
 FREQ.      1399.90         C  3 -- C  5         +20.5% ( 68.4%)     99.4%
 T-DIPOLE    0.0620         C  3 -- H 14         +14.1% ( 56.8%)      3.0%
 TRAVEL      0.0737         C  3 -- H 13         +13.4% ( 55.3%)      2.6%
 RED. MASS   1.8837         C  3 -- C  9         +11.4% ( 51.1%)     18.3%
 EFF. MASS   8.8693

 VIBRATION   38   38A         ATOM PAIR      ENERGY CONTRIBUTION    RADIAL
 FREQ.      1461.81         C  1 -- C  7         +19.8% ( 71.3%)     93.7%
 T-DIPOLE    0.0563         C  1 -- C  4         +14.8% ( 61.7%)     40.4%
 TRAVEL      0.0646         C  1 -- C  6         +13.8% ( 59.6%)     57.4%
 RED. MASS   2.6350         C  1 -- H 10         +12.2% ( 56.1%)      0.1%
 EFF. MASS  11.0697

 VIBRATION   39   39A         ATOM PAIR      ENERGY CONTRIBUTION    RADIAL
 FREQ.      1810.85         C  6 -- C  8         +44.6% ( 99.1%)    100.0%
 T-DIPOLE    0.0594         C  2 -- C  8         +13.6% ( 54.7%)     22.2%
 TRAVEL      0.0560         C  1 -- C  6         +13.6% ( 54.7%)     22.5%
 RED. MASS   5.1081         C  8 -- H 15         +12.6% ( 52.7%)     10.2%
 EFF. MASS  11.8909         C  6 -- H 17         +12.5% ( 52.4%)     10.6%

 VIBRATION   40   40A         ATOM PAIR      ENERGY CONTRIBUTION    RADIAL
 FREQ.      1857.48         C  7 -- C  9         +42.9% ( 96.7%)    100.0%
 T-DIPOLE    0.0894         C  1 -- C  7         +13.6% ( 54.5%)     45.6%
 TRAVEL      0.0553         C  3 -- C  9         +13.5% ( 54.4%)     48.3%
 RED. MASS   5.0203         C  9 -- H 18         +12.6% ( 52.4%)      5.3%
 EFF. MASS  11.8844         C  7 -- H 16         +12.5% ( 52.3%)      5.8%

 VIBRATION   41   41A         ATOM PAIR      ENERGY CONTRIBUTION    RADIAL
 FREQ.      1930.76         C  4 -- C  5         +42.4% ( 96.4%)     99.2%
 T-DIPOLE    0.1285         C  2 -- C  4         +16.8% ( 60.7%)     51.3%
 TRAVEL      0.0541         C  1 -- C  4         +16.4% ( 59.9%)     27.0%
 RED. MASS   5.3679         C  3 -- C  5         +10.6% ( 48.1%)     40.6%
 EFF. MASS  11.9178

 VIBRATION   42   42A         ATOM PAIR      ENERGY CONTRIBUTION    RADIAL
 FREQ.      2846.34         C  1 -- H 10         +97.1% (100.0%)    100.0%
 T-DIPOLE    0.1112         C  1 -- C  7          +1.0% (  9.9%)      7.6%
 TRAVEL      0.1288         C  1 -- C  4          +1.0% (  9.9%)     10.8%
 RED. MASS   0.9297         C  1 -- C  6          +1.0% (  9.9%)      9.4%
 EFF. MASS   1.4281

 VIBRATION   43   43A         ATOM PAIR      ENERGY CONTRIBUTION    RADIAL
 FREQ.      2939.68         C  3 -- H 13         +62.8% ( 82.1%)     97.8%
 T-DIPOLE    0.0392         C  3 -- H 14         +35.0% ( 61.3%)     94.6%
 TRAVEL      0.1223         C  3 -- C  5          +1.1% ( 10.8%)      0.3%
 RED. MASS   0.5556         C  3 -- C  9          +1.1% ( 10.8%)      0.2%
 EFF. MASS   1.5326

 VIBRATION   44   44A         ATOM PAIR      ENERGY CONTRIBUTION    RADIAL
 FREQ.      2973.55         C  2 -- H 12         +56.3% ( 77.7%)     97.4%
 T-DIPOLE    0.0530         C  2 -- H 11         +41.6% ( 66.8%)     95.8%
 TRAVEL      0.1215         C  2 -- C  8          +1.1% ( 10.8%)      0.1%
 RED. MASS   0.5286         C  2 -- C  4          +1.1% ( 10.8%)      0.1%
 EFF. MASS   1.5349

 VIBRATION   45   45A         ATOM PAIR      ENERGY CONTRIBUTION    RADIAL
 FREQ.      3020.19         C  3 -- H 14         +63.7% ( 78.8%)     99.0%
 T-DIPOLE    0.0891         C  3 -- H 13         +33.9% ( 57.5%)     95.1%
 TRAVEL      0.1315         C  3 -- C  9          +0.7% (  8.2%)     21.7%
 RED. MASS   0.5128         C  3 -- C  5          +0.7% (  8.2%)     23.4%
 EFF. MASS   1.2902

 VIBRATION   46   46A         ATOM PAIR      ENERGY CONTRIBUTION    RADIAL
 FREQ.      3046.41         C  2 -- H 11         +57.3% ( 74.8%)     98.3%
 T-DIPOLE    0.1192         C  2 -- H 12         +41.2% ( 63.4%)     96.2%
 TRAVEL      0.1311         C  2 -- C  4          +0.7% (  8.4%)     38.1%
 RED. MASS   0.4945         C  2 -- C  8          +0.7% (  8.4%)     34.0%
 EFF. MASS   1.2873

 VIBRATION   47   47A         ATOM PAIR      ENERGY CONTRIBUTION    RADIAL
 FREQ.      3059.79         C  9 -- H 18         +67.1% ( 83.1%)    100.0%
 T-DIPOLE    0.2976         C  7 -- H 16         +30.0% ( 55.5%)    100.0%
 TRAVEL      0.1228         C  7 -- C  9          +1.1% ( 10.7%)      2.2%
 RED. MASS   0.5278         C  3 -- C  9          +0.9% (  9.8%)     22.0%
 EFF. MASS   1.4614

 VIBRATION   48   48A         ATOM PAIR      ENERGY CONTRIBUTION    RADIAL
 FREQ.      3076.07         C  5 -- H 19         +93.3% ( 98.1%)    100.0%
 T-DIPOLE    0.3579         C  7 -- H 16          +2.9% ( 17.3%)    100.0%
 TRAVEL      0.1197         C  4 -- C  5          +1.6% ( 12.7%)     41.8%
 RED. MASS   0.8622         C  3 -- C  5          +1.4% ( 12.1%)     19.7%
 EFF. MASS   1.5295

 VIBRATION   49   49A         ATOM PAIR      ENERGY CONTRIBUTION    RADIAL
 FREQ.      3081.18         C  7 -- H 16         +64.1% ( 81.3%)     99.9%
 T-DIPOLE    0.2728         C  9 -- H 18         +28.9% ( 54.6%)     99.8%
 TRAVEL      0.1172         C  5 -- H 19          +3.0% ( 17.6%)    100.0%
 RED. MASS   0.4968         C  7 -- C  9          +2.0% ( 14.3%)     94.9%
 EFF. MASS   1.5927

 VIBRATION   50   50A         ATOM PAIR      ENERGY CONTRIBUTION    RADIAL
 FREQ.      3120.79         C  8 -- H 15         +53.9% ( 74.6%)    100.0%
 T-DIPOLE    0.3802         C  6 -- H 17         +43.5% ( 67.0%)    100.0%
 TRAVEL      0.1215         C  6 -- C  8          +1.1% ( 10.8%)      0.2%
 RED. MASS   0.4702         C  2 -- C  8          +0.8% (  9.2%)     26.4%
 EFF. MASS   1.4646

 VIBRATION   51   51A         ATOM PAIR      ENERGY CONTRIBUTION    RADIAL
 FREQ.      3139.43         C  6 -- H 17         +53.0% ( 74.2%)     99.9%
 T-DIPOLE    0.3738         C  8 -- H 15         +42.6% ( 66.5%)     99.9%
 TRAVEL      0.1141         C  6 -- C  8          +2.5% ( 16.0%)     99.7%
 RED. MASS   0.4723         C  1 -- C  6          +1.0% ( 10.4%)     19.6%
 EFF. MASS   1.6503

      SYMMETRY NUMBER FOR POINT-GROUP C1  =  1


          SYSTEM IS A GROUND STATE



 InChI=1S/C9H10/c1-2-5-9-7-3-6-8(9)4-1/h1,3-6,8H,2,7H2


          MOLECULE IS NOT LINEAR

          THERE ARE 51 GENUINE VIBRATIONS IN THIS SYSTEM
          THIS THERMODYNAMICS CALCULATION IS LIMITED TO
          MOLECULES WHICH HAVE NO INTERNAL ROTATIONS




                    CALCULATED THERMODYNAMIC PROPERTIES
                                          *
   TEMP. (K)   PARTITION FUNCTION   H.O.F.    ENTHALPY  HEAT CAPACITY ENTROPY
                                   KCAL/MOL   CAL/MOLE    CAL/K/MOL  CAL/K/MOL


 298.00  VIB.     0.1168D+02                  2601.3456    22.9502    13.6131
         ROT.     0.3534D+06                   888.2813     2.9808    28.3680
         INT.     0.4126D+07                  3489.6269    25.9311    41.9811
         TRA.     0.1242D+28                  1480.4688     4.9680    40.2136
         TOT.                       40.303    4970.0958    30.8991    82.1947

 200.00  VIB.     0.3236D+01                   901.1489    12.0574     6.8392
         ROT.     0.1943D+06                   596.1620     2.9808    27.1793
         INT.     0.6287D+06                  1497.3108    15.0382    34.0185
         TRA.     0.6829D+27                   993.6033     4.9680    38.2325
         TOT.                       37.824    2490.9141    20.0062    72.2510

 210.00  VIB.     0.3631D+01                  1026.7222    13.0630     7.4516
         ROT.     0.2091D+06                   625.9700     2.9808    27.3248
         INT.     0.7591D+06                  1652.6922    16.0438    34.7764
         TRA.     0.7347D+27                  1043.2834     4.9680    38.4749
         TOT.                       38.029    2695.9756    21.0118    73.2513

 220.00  VIB.     0.4090D+01                  1162.5189    14.1016     8.0832
         ROT.     0.2242D+06                   655.7781     2.9808    27.4634
         INT.     0.9168D+06                  1818.2971    17.0824    35.5466
         TRA.     0.7878D+27                  1092.9636     4.9680    38.7060
         TOT.                       38.244    2911.2606    22.0504    74.2526

 230.00  VIB.     0.4624D+01                  1308.8546    15.1703     8.7335
         ROT.     0.2396D+06                   685.5862     2.9808    27.5959
         INT.     0.1108D+07                  1994.4408    18.1511    36.3294
         TRA.     0.8422D+27                  1142.6437     4.9680    38.9268
         TOT.                       38.470    3137.0846    23.1191    75.2563

 240.00  VIB.     0.5246D+01                  1466.0131    16.2656     9.4022
         ROT.     0.2554D+06                   715.3943     2.9808    27.7228
         INT.     0.1340D+07                  2181.4074    19.2464    37.1250
         TRA.     0.8977D+27                  1192.3239     4.9680    39.1383
         TOT.                       38.707    3373.7313    24.2144    76.2633

 250.00  VIB.     0.5974D+01                  1634.2429    17.3839    10.0888
         ROT.     0.2715D+06                   745.2024     2.9808    27.8445
         INT.     0.1622D+07                  2379.4453    20.3647    37.9333
         TRA.     0.9544D+27                  1242.0041     4.9680    39.3411
         TOT.                       38.955    3621.4494    25.3327    77.2743

 260.00  VIB.     0.6825D+01                  1813.7547    18.5213    10.7927
         ROT.     0.2880D+06                   775.0105     2.9808    27.9614
         INT.     0.1966D+07                  2588.7652    21.5021    38.7541
         TRA.     0.1012D+28                  1291.6842     4.9680    39.5359
         TOT.                       39.214    3880.4495    26.4702    78.2900

 270.00  VIB.     0.7825D+01                  2004.7203    19.6740    11.5133
         ROT.     0.3048D+06                   804.8186     2.9808    28.0739
         INT.     0.2385D+07                  2809.5389    22.6548    39.5871
         TRA.     0.1071D+28                  1341.3644     4.9680    39.7234
         TOT.                       39.484    4150.9033    27.6228    79.3106

 280.00  VIB.     0.9001D+01                  2207.2727    20.8380    12.2498
         ROT.     0.3219D+06                   834.6267     2.9808    28.1823
         INT.     0.2897D+07                  3041.8994    23.8189    40.4321
         TRA.     0.1131D+28                  1391.0445     4.9680    39.9041
         TOT.                       39.766    4432.9439    28.7869    80.3362

 290.00  VIB.     0.1039D+02                  2421.5068    22.0098    13.0014
         ROT.     0.3393D+06                   864.4348     2.9808    28.2869
         INT.     0.3524D+07                  3285.9416    24.9906    41.2883
         TRA.     0.1192D+28                  1440.7247     4.9680    40.0784
         TOT.                       40.060    4726.6663    29.9586    81.3668

 300.00  VIB.     0.1203D+02                  2647.4814    23.1856    13.7674
         ROT.     0.3569D+06                   894.2429     2.9808    28.3879
         INT.     0.4293D+07                  3541.7244    26.1664    42.1553
         TRA.     0.1255D+28                  1490.4049     4.9680    40.2469
         TOT.                       40.365    5032.1292    31.1344    82.4022

 310.00  VIB.     0.1397D+02                  2885.2212    24.3623    14.5468
         ROT.     0.3749D+06                   924.0510     2.9808    28.4857
         INT.     0.5237D+07                  3809.2722    27.3431    43.0325
         TRA.     0.1318D+28                  1540.0850     4.9680    40.4098
         TOT.                       40.683    5349.3573    32.3111    83.4423

 320.00  VIB.     0.1627D+02                  3134.7191    25.5367    15.3389
         ROT.     0.3932D+06                   953.8591     2.9808    28.5803
         INT.     0.6398D+07                  4088.5782    28.5175    43.9192
         TRA.     0.1382D+28                  1589.7652     4.9680    40.5675
         TOT.                       41.012    5678.3434    33.4855    84.4867

 330.00  VIB.     0.1901D+02                  3395.9391    26.7062    16.1426
         ROT.     0.4118D+06                   983.6672     2.9808    28.6720
         INT.     0.7827D+07                  4379.6063    29.6871    44.8146
         TRA.     0.1447D+28                  1639.4454     4.9680    40.7204
         TOT.                       41.352    6019.0517    34.6551    85.5350

 340.00  VIB.     0.2227D+02                  3668.8192    27.8683    16.9571
         ROT.     0.4307D+06                  1013.4753     2.9808    28.7610
         INT.     0.9590D+07                  4682.2945    30.8492    45.7182
         TRA.     0.1514D+28                  1689.1255     4.9680    40.8687
         TOT.                       41.705    6371.4200    35.8172    86.5868

 350.00  VIB.     0.2616D+02                  3953.2740    29.0209    17.7816
         ROT.     0.4498D+06                  1043.2834     2.9808    28.8474
         INT.     0.1177D+08                  4996.5575    32.0017    46.6290
         TRA.     0.1581D+28                  1738.8057     4.9680    41.0127
         TOT.                       42.069    6735.3631    36.9697    87.6417

 360.00  VIB.     0.3081D+02                  4249.1978    30.1618    18.6152
         ROT.     0.4692D+06                  1073.0915     2.9808    28.9314
         INT.     0.1446D+08                  5322.2893    33.1426    47.5466
         TRA.     0.1649D+28                  1788.4859     4.9680    41.1526
         TOT.                       42.444    7110.7752    38.1107    88.6992

 370.00  VIB.     0.3638D+02                  4556.4669    31.2897    19.4570
         ROT.     0.4889D+06                  1102.8996     2.9808    29.0131
         INT.     0.1779D+08                  5659.3665    34.2705    48.4701
         TRA.     0.1718D+28                  1838.1660     4.9680    41.2888
         TOT.                       42.831    7497.5325    39.2385    89.7588

 380.00  VIB.     0.4307D+02                  4874.9425    32.4029    20.3063
         ROT.     0.5089D+06                  1132.7077     2.9808    29.0926
         INT.     0.2192D+08                  6007.6502    35.3837    49.3988
         TRA.     0.1788D+28                  1887.8462     4.9680    41.4213
         TOT.                       43.229    7895.4964    40.3517    90.8201

 390.00  VIB.     0.5110D+02                  5204.4728    33.5004    21.1622
         ROT.     0.5291D+06                  1162.5158     2.9808    29.1700
         INT.     0.2704D+08                  6366.9886    36.4812    50.3322
         TRA.     0.1860D+28                  1937.5263     4.9680    41.5503
         TOT.                       43.638    8304.5150    41.4493    91.8825

 400.00  VIB.     0.6077D+02                  5544.8956    34.5813    22.0240
         ROT.     0.5496D+06                  1192.3239     2.9808    29.2455
         INT.     0.3340D+08                  6737.2195    37.5621    51.2694
         TRA.     0.1932D+28                  1987.2065     4.9680    41.6761
         TOT.                       44.058    8724.4260    42.5301    92.9455

   *: NOTE: HEATS OF FORMATION ARE RELATIVE TO THE
            ELEMENTS IN THEIR STANDARD STATE AT 298K
              (=  Standard Enthalpy of Formation).

            Hvib:  Zero-point energy is not included.
                   frequencies of less than zero cm-1 are not included.
            Hrot = (3/2)RT
            Htra = (3/2)RT + pV = (5/2)RT

            Heat capacity is Cp, not Cv

          For more information, see: HTTP://OpenMOPAC.net/Manual/thermochemistry.html


           FORCE CONSTANT IN CARTESIAN COORDINATES (Millidynes/A)

    ATOM   CHEMICAL       X               Y               Z
   NUMBER   SYMBOL  FORCE CONSTANT  FORCE CONSTANT  FORCE CONSTANT

      1       C        9.844391        9.137855        7.660061
      2       C        9.717016        8.089525        7.891982
      3       C        8.763350        9.156289        7.836085
      4       C        8.710325       16.764856        2.922687
      5       C        9.545851       15.269318        2.464853
      6       C       14.961195        8.667726        3.629317
      7       C        7.241920       15.138050        4.940072
      8       C       14.954944        8.818550        3.445729
      9       C        7.357457       15.040603        4.695578
     10       H        1.127355        0.758909        3.814339
     11       H        2.673390        1.341727        2.337726
     12       H        1.427739        0.724909        4.122556
     13       H        1.183358        0.780510        4.170192
     14       H        0.770928        3.882687        1.661667
     15       H        2.380047        3.240848        0.811118
     16       H        2.458196        2.178767        1.649262
     17       H        2.385787        3.104548        0.939724
     18       H        3.003170        1.766453        1.508216
     19       H        3.690237        2.224159        0.363431

 **********************
 *                    *
 * JOB ENDED NORMALLY *
 *                    *
 **********************



 TOTAL JOB TIME:             1.46 SECONDS

 == MOPAC DONE ==
