 *******************************************************************************
 ** Site#: 14399        For non-commercial use only    Version 18.184L 64BITS **
 *******************************************************************************
 ** Cite this program as: MOPAC2016, Version: 18.184L, James J. P. Stewart,   **
 ** Stewart Computational Chemistry, web: HTTP://OpenMOPAC.net. Days left:  18**
 *******************************************************************************
 **                                                                           **
 **                                MOPAC2016                                  **
 **                                                                           **
 *******************************************************************************

                              PM3 CALCULATION RESULTS

 *******************************************************************************
 *  CALCULATION DONE:                                Sat Jun 15 10:16:01 2019  *
 *  PM3        - The PM3 Hamiltonian to be used
 *  PRECISE    - CRITERIA TO BE INCREASED BY 100 TIMES
 *  NOSYM      - POINT-GROUP SYMMETRY SET TO C1
 *  THREADS=1  - MULTI-THREADING NOT USED
 *  T=         - A TIME OF 172800.0 SECONDS REQUESTED
 *  DUMP=N     - RESTART FILE WRITTEN EVERY  7200.000 SECONDS
 *******************************************************************************
pm3  precise nosym THREADS=1
 InChI=1S/C10H10/c1-2-8-7-9-5-3-4-6-10(8)9/h2-3,5-8H,1,4H2

   ATOM   CHEMICAL          X               Y               Z
  NUMBER   SYMBOL      (ANGSTROMS)     (ANGSTROMS)     (ANGSTROMS)
 
     1       C          1.36280000  *   0.28690000  *  -0.05860000  *
     2       C         -2.43630000  *   0.39920000  *  -0.72680000  *
     3       C         -0.03500000  *   0.32830000  *  -0.35290000  *
     4       C         -0.24220000  *   0.24700000  *   1.09220000  *
     5       C          1.09820000  *   0.19940000  *   1.37560000  *
     6       C         -0.99880000  *   0.40320000  *  -1.25080000  *
     7       C          2.01560000  *  -0.96440000  *  -0.58880000  *
     8       C         -2.60100000  *   0.31140000  *   0.81080000  *
     9       C         -1.56720000  *   0.23920000  *   1.67730000  *
    10       C          3.11260000  *  -0.90990000  *  -1.34850000  *
    11       H          1.88290000  *   1.23130000  *  -0.33760000  *
    12       H         -2.93410000  *   1.32790000  *  -1.07580000  *
    13       H         -2.96810000  *  -0.46210000  *  -1.18210000  *
    14       H          1.69710000  *   0.13300000  *   2.27390000  *
    15       H          1.58590000  *  -1.93530000  *  -0.35370000  *
    16       H         -3.60730000  *   0.30770000  *   1.20980000  *
    17       H         -0.77770000  *   0.46450000  *  -2.30790000  *
    18       H         -1.71910000  *   0.17830000  *   2.74680000  *
    19       H          3.56990000  *   0.04030000  *  -1.60700000  *
    20       H          3.56150000  *  -1.82570000  *  -1.71890000  *
 


          CARTESIAN COORDINATES 

    NO.       ATOM           X           Y           Z

     1         C          1.3628      0.2869     -0.0586
     2         C         -2.4363      0.3992     -0.7268
     3         C         -0.0350      0.3283     -0.3529
     4         C         -0.2422      0.2470      1.0922
     5         C          1.0982      0.1994      1.3756
     6         C         -0.9988      0.4032     -1.2508
     7         C          2.0156     -0.9644     -0.5888
     8         C         -2.6010      0.3114      0.8108
     9         C         -1.5672      0.2392      1.6773
    10         C          3.1126     -0.9099     -1.3485
    11         H          1.8829      1.2313     -0.3376
    12         H         -2.9341      1.3279     -1.0758
    13         H         -2.9681     -0.4621     -1.1821
    14         H          1.6971      0.1330      2.2739
    15         H          1.5859     -1.9353     -0.3537
    16         H         -3.6073      0.3077      1.2098
    17         H         -0.7777      0.4645     -2.3079
    18         H         -1.7191      0.1783      2.7468
    19         H          3.5699      0.0403     -1.6070
    20         H          3.5615     -1.8257     -1.7189

  H: (PM3): J. J. P. STEWART, J. COMP. CHEM. 10, 209 (1989).
  C: (PM3): J. J. P. STEWART, J. COMP. CHEM. 10, 209 (1989).

           Empirical Formula: C10 H10  =    20 atoms



      MOLECULAR POINT GROUP   :   C1  


      RHF CALCULATION, NO. OF DOUBLY OCCUPIED LEVELS = 25


          Geometry optimization using EF

          DIAGONAL MATRIX USED AS START HESSIAN

 CYCLE:     1 TIME:   0.004 TIME LEFT:  2.00D  GRAD.:   221.576 HEAT:  112.2337
 CYCLE:     2 TIME:   0.008 TIME LEFT:  2.00D  GRAD.:   111.472 HEAT:  102.9919
 CYCLE:     3 TIME:   0.008 TIME LEFT:  2.00D  GRAD.:    75.419 HEAT:  101.3956
 CYCLE:     4 TIME:   0.004 TIME LEFT:  2.00D  GRAD.:    49.793 HEAT:  100.2955
 CYCLE:     5 TIME:   0.012 TIME LEFT:  2.00D  GRAD.:    52.028 HEAT:  99.79980
 CYCLE:     6 TIME:   0.004 TIME LEFT:  2.00D  GRAD.:    34.448 HEAT:  99.20100
 CYCLE:     7 TIME:   0.008 TIME LEFT:  2.00D  GRAD.:    36.483 HEAT:  98.93685
 CYCLE:     8 TIME:   0.004 TIME LEFT:  2.00D  GRAD.:    29.818 HEAT:  98.65505
 CYCLE:     9 TIME:   0.004 TIME LEFT:  2.00D  GRAD.:    34.424 HEAT:  98.41761
 CYCLE:    10 TIME:   0.004 TIME LEFT:  2.00D  GRAD.:    39.674 HEAT:  98.23304
 CYCLE:    11 TIME:   0.004 TIME LEFT:  2.00D  GRAD.:    31.861 HEAT:  98.03775
 CYCLE:    12 TIME:   0.008 TIME LEFT:  2.00D  GRAD.:    21.345 HEAT:  97.84939
 CYCLE:    13 TIME:   0.008 TIME LEFT:  2.00D  GRAD.:    12.543 HEAT:  97.76809
 CYCLE:    14 TIME:   0.004 TIME LEFT:  2.00D  GRAD.:    11.401 HEAT:  97.71676
 CYCLE:    15 TIME:   0.004 TIME LEFT:  2.00D  GRAD.:    10.140 HEAT:  97.65320
 CYCLE:    16 TIME:   0.004 TIME LEFT:  2.00D  GRAD.:    14.618 HEAT:  97.62426
 CYCLE:    17 TIME:   0.004 TIME LEFT:  2.00D  GRAD.:    15.036 HEAT:  97.59757
 CYCLE:    18 TIME:   0.004 TIME LEFT:  2.00D  GRAD.:    19.097 HEAT:  97.59364
 CYCLE:    19 TIME:   0.008 TIME LEFT:  2.00D  GRAD.:     6.334 HEAT:  97.52647
 CYCLE:    20 TIME:   0.004 TIME LEFT:  2.00D  GRAD.:     8.869 HEAT:  97.52597
 CYCLE:    21 TIME:   0.004 TIME LEFT:  2.00D  GRAD.:     3.571 HEAT:  97.49966
 CYCLE:    22 TIME:   0.004 TIME LEFT:  2.00D  GRAD.:     4.323 HEAT:  97.49325
 CYCLE:    23 TIME:   0.004 TIME LEFT:  2.00D  GRAD.:     3.116 HEAT:  97.48115
 CYCLE:    24 TIME:   0.004 TIME LEFT:  2.00D  GRAD.:     5.137 HEAT:  97.47625
 CYCLE:    25 TIME:   0.004 TIME LEFT:  2.00D  GRAD.:     3.238 HEAT:  97.46806
 CYCLE:    26 TIME:   0.004 TIME LEFT:  2.00D  GRAD.:     3.426 HEAT:  97.46396
 CYCLE:    27 TIME:   0.004 TIME LEFT:  2.00D  GRAD.:     2.738 HEAT:  97.45887
 CYCLE:    28 TIME:   0.004 TIME LEFT:  2.00D  GRAD.:     1.998 HEAT:  97.45378
 CYCLE:    29 TIME:   0.004 TIME LEFT:  2.00D  GRAD.:     1.786 HEAT:  97.44996
 CYCLE:    30 TIME:   0.004 TIME LEFT:  2.00D  GRAD.:     1.526 HEAT:  97.44780
 CYCLE:    31 TIME:   0.008 TIME LEFT:  2.00D  GRAD.:     1.388 HEAT:  97.44533
 CYCLE:    32 TIME:   0.004 TIME LEFT:  2.00D  GRAD.:     1.822 HEAT:  97.44194
 CYCLE:    33 TIME:   0.004 TIME LEFT:  2.00D  GRAD.:     1.421 HEAT:  97.43820
 CYCLE:    34 TIME:   0.004 TIME LEFT:  2.00D  GRAD.:     1.346 HEAT:  97.43402
 CYCLE:    35 TIME:   0.004 TIME LEFT:  2.00D  GRAD.:     2.139 HEAT:  97.42814
 CYCLE:    36 TIME:   0.004 TIME LEFT:  2.00D  GRAD.:     1.556 HEAT:  97.42420
 CYCLE:    37 TIME:   0.004 TIME LEFT:  2.00D  GRAD.:     1.028 HEAT:  97.42061
 CYCLE:    38 TIME:   0.004 TIME LEFT:  2.00D  GRAD.:     0.967 HEAT:  97.41715
 CYCLE:    39 TIME:   0.008 TIME LEFT:  2.00D  GRAD.:     1.019 HEAT:  97.41480
 CYCLE:    40 TIME:   0.004 TIME LEFT:  2.00D  GRAD.:     0.791 HEAT:  97.41244
 CYCLE:    41 TIME:   0.004 TIME LEFT:  2.00D  GRAD.:     0.648 HEAT:  97.41092
 CYCLE:    42 TIME:   0.004 TIME LEFT:  2.00D  GRAD.:     0.595 HEAT:  97.40976
 CYCLE:    43 TIME:   0.004 TIME LEFT:  2.00D  GRAD.:     0.491 HEAT:  97.40893
 CYCLE:    44 TIME:   0.004 TIME LEFT:  2.00D  GRAD.:     0.385 HEAT:  97.40847
 CYCLE:    45 TIME:   0.004 TIME LEFT:  2.00D  GRAD.:     0.330 HEAT:  97.40815
 CYCLE:    46 TIME:   0.004 TIME LEFT:  2.00D  GRAD.:     0.324 HEAT:  97.40786
 CYCLE:    47 TIME:   0.004 TIME LEFT:  2.00D  GRAD.:     0.324 HEAT:  97.40757
 CYCLE:    48 TIME:   0.004 TIME LEFT:  2.00D  GRAD.:     0.312 HEAT:  97.40731
 CYCLE:    49 TIME:   0.004 TIME LEFT:  2.00D  GRAD.:     0.331 HEAT:  97.40703
 CYCLE:    50 TIME:   0.008 TIME LEFT:  2.00D  GRAD.:     0.298 HEAT:  97.40683
 CYCLE:    51 TIME:   0.004 TIME LEFT:  2.00D  GRAD.:     0.241 HEAT:  97.40658
 CYCLE:    52 TIME:   0.004 TIME LEFT:  2.00D  GRAD.:     0.177 HEAT:  97.40650
 CYCLE:    53 TIME:   0.004 TIME LEFT:  2.00D  GRAD.:     0.290 HEAT:  97.40641
 CYCLE:    54 TIME:   0.004 TIME LEFT:  2.00D  GRAD.:     0.139 HEAT:  97.40633
 CYCLE:    55 TIME:   0.004 TIME LEFT:  2.00D  GRAD.:     0.091 HEAT:  97.40629
 CYCLE:    56 TIME:   0.004 TIME LEFT:  2.00D  GRAD.:     0.100 HEAT:  97.40625
 CYCLE:    57 TIME:   0.004 TIME LEFT:  2.00D  GRAD.:     0.098 HEAT:  97.40621
 CYCLE:    58 TIME:   0.004 TIME LEFT:  2.00D  GRAD.:     0.095 HEAT:  97.40616
 CYCLE:    59 TIME:   0.004 TIME LEFT:  2.00D  GRAD.:     0.076 HEAT:  97.40615
 CYCLE:    60 TIME:   0.004 TIME LEFT:  2.00D  GRAD.:     0.080 HEAT:  97.40612
 CYCLE:    61 TIME:   0.008 TIME LEFT:  2.00D  GRAD.:     0.055 HEAT:  97.40610
 CYCLE:    62 TIME:   0.004 TIME LEFT:  2.00D  GRAD.:     0.057 HEAT:  97.40608
 CYCLE:    63 TIME:   0.004 TIME LEFT:  2.00D  GRAD.:     0.069 HEAT:  97.40607
 CYCLE:    64 TIME:   0.004 TIME LEFT:  2.00D  GRAD.:     0.082 HEAT:  97.40604
 CYCLE:    65 TIME:   0.004 TIME LEFT:  2.00D  GRAD.:     0.074 HEAT:  97.40597
 CYCLE:    66 TIME:   0.004 TIME LEFT:  2.00D  GRAD.:     0.105 HEAT:  97.40588
 CYCLE:    67 TIME:   0.004 TIME LEFT:  2.00D  GRAD.:     0.131 HEAT:  97.40582
 CYCLE:    68 TIME:   0.004 TIME LEFT:  2.00D  GRAD.:     0.117 HEAT:  97.40577
 CYCLE:    69 TIME:   0.004 TIME LEFT:  2.00D  GRAD.:     0.189 HEAT:  97.40566
 CYCLE:    70 TIME:   0.004 TIME LEFT:  2.00D  GRAD.:     0.142 HEAT:  97.40560
 CYCLE:    71 TIME:   0.008 TIME LEFT:  2.00D  GRAD.:     0.301 HEAT:  97.40543
 CYCLE:    72 TIME:   0.004 TIME LEFT:  2.00D  GRAD.:     0.144 HEAT:  97.40532
 CYCLE:    73 TIME:   0.004 TIME LEFT:  2.00D  GRAD.:     0.193 HEAT:  97.40512
 CYCLE:    74 TIME:   0.004 TIME LEFT:  2.00D  GRAD.:     0.163 HEAT:  97.40494
 CYCLE:    75 TIME:   0.004 TIME LEFT:  2.00D  GRAD.:     0.148 HEAT:  97.40457
 CYCLE:    76 TIME:   0.004 TIME LEFT:  2.00D  GRAD.:     0.522 HEAT:  97.40384
 CYCLE:    77 TIME:   0.004 TIME LEFT:  2.00D  GRAD.:     0.181 HEAT:  97.40375
 CYCLE:    78 TIME:   0.008 TIME LEFT:  2.00D  GRAD.:     1.149 HEAT:  97.40379
 CYCLE:    79 TIME:   0.004 TIME LEFT:  2.00D  GRAD.:     0.313 HEAT:  97.40335
 CYCLE:    80 TIME:   0.004 TIME LEFT:  2.00D  GRAD.:     0.499 HEAT:  97.40316
 CYCLE:    81 TIME:   0.004 TIME LEFT:  2.00D  GRAD.:     0.120 HEAT:  97.40310
 CYCLE:    82 TIME:   0.004 TIME LEFT:  2.00D  GRAD.:     0.194 HEAT:  97.40303
 CYCLE:    83 TIME:   0.004 TIME LEFT:  2.00D  GRAD.:     0.099 HEAT:  97.40297
 CYCLE:    84 TIME:   0.004 TIME LEFT:  2.00D  GRAD.:     0.074 HEAT:  97.40289
 CYCLE:    85 TIME:   0.008 TIME LEFT:  2.00D  GRAD.:     0.127 HEAT:  97.40278
 CYCLE:    86 TIME:   0.004 TIME LEFT:  2.00D  GRAD.:     0.059 HEAT:  97.40278
 CYCLE:    87 TIME:   0.004 TIME LEFT:  2.00D  GRAD.:     0.196 HEAT:  97.40277
 CYCLE:    88 TIME:   0.004 TIME LEFT:  2.00D  GRAD.:     0.036 HEAT:  97.40276

     GRADIENT =  0.03595  IS LESS THAN CUTOFF =  0.05000



 -------------------------------------------------------------------------------
 pm3  precise nosym THREADS=1
 InChI=1S/C10H10/c1-2-8-7-9-5-3-4-6-10(8)9/h2-3,5-8H,1,4H2



     GEOMETRY OPTIMISED USING EIGENVECTOR FOLLOWING (EF).     
     SCF FIELD WAS ACHIEVED                                   


                              PM3 CALCULATION
                                                       MOPAC2016 (Version: 18.184L)
                                                       Sat Jun 15 10:16:02 2019
                                                       No. of days remaining =  18




          FINAL HEAT OF FORMATION =         97.40276 KCAL/MOL =     407.53314 KJ/MOL


          TOTAL ENERGY            =      -1335.50716 EV
          ELECTRONIC ENERGY       =      -6922.93296 EV  POINT GROUP:     C1  
          CORE-CORE REPULSION     =       5587.42581 EV
          COSMO AREA              =        179.67 SQUARE ANGSTROMS
          COSMO VOLUME            =        176.75 CUBIC ANGSTROMS

          GRADIENT NORM           =          0.03595 = 0.00804 PER ATOM
          IONIZATION POTENTIAL    =          8.588178 EV
          HOMO LUMO ENERGIES (EV) =         -8.588 -0.093
          NO. OF FILLED LEVELS    =         25
          MOLECULAR WEIGHT        =        130.1890

          MOLECULAR DIMENSIONS (Angstroms)

            Atom       Atom       Distance
            H    20    H    16     8.20706
            H    14    H    17     5.20336
            H    11    H    15     3.07938


          SCF CALCULATIONS        =         95
 
          WALL-CLOCK TIME         =          0.410 SECONDS
          COMPUTATION TIME        =          0.373 SECONDS




   ATOM   CHEMICAL          X               Y               Z
  NUMBER   SYMBOL      (ANGSTROMS)     (ANGSTROMS)     (ANGSTROMS)
 
     1       C          1.43070184  *   0.25168036  *  -0.11068620  *
     2       C         -2.46937260  *   0.41065777  *  -0.68856670  *
     3       C         -0.08250887  *   0.30956544  *  -0.33647093  *
     4       C         -0.27542872  *   0.24197043  *   1.13187435  *
     5       C          1.05268665  *   0.17549292  *   1.39198420  *
     6       C         -1.06859490  *   0.38597025  *  -1.21730278  *
     7       C          2.10037242  *  -0.96075247  *  -0.64010756  *
     8       C         -2.62059007  *   0.34873180  *   0.79845930  *
     9       C         -1.60286782  *   0.26933194  *   1.67374615  *
    10       C          3.22154340  *  -0.90842653  *  -1.34986190  *
    11       H          1.95984015  *   1.18785386  *  -0.38767160  *
    12       H         -2.96874836  *   1.33205914  *  -1.05302570  *
    13       H         -3.03011006  *  -0.43754723  *  -1.13279551  *
    14       H          1.68293874  *   0.09837073  *   2.26546125  *
    15       H          1.61483663  *  -1.91670918  *  -0.41065702  *
    16       H         -3.65527853  *   0.37198592  *   1.15994800  *
    17       H         -0.92351225  *   0.43139921  *  -2.29952552  *
    18       H         -1.75117116  *   0.22540596  *   2.75626184  *
    19       H          3.72917865  *   0.02019866  *  -1.59735299  *
    20       H          3.71159095  *  -1.79761418  *  -1.73450112  *

                             CARTESIAN COORDINATES

   1    C        1.430701841     0.251680360    -0.110686200
   2    C       -2.469372598     0.410657766    -0.688566699
   3    C       -0.082508874     0.309565445    -0.336470927
   4    C       -0.275428723     0.241970433     1.131874354
   5    C        1.052686646     0.175492918     1.391984197
   6    C       -1.068594895     0.385970246    -1.217302782
   7    C        2.100372420    -0.960752474    -0.640107560
   8    C       -2.620590067     0.348731799     0.798459301
   9    C       -1.602867820     0.269331938     1.673746146
  10    C        3.221543399    -0.908426529    -1.349861904
  11    H        1.959840148     1.187853856    -0.387671597
  12    H       -2.968748364     1.332059138    -1.053025700
  13    H       -3.030110062    -0.437547227    -1.132795512
  14    H        1.682938744     0.098370731     2.265461252
  15    H        1.614836632    -1.916709181    -0.410657022
  16    H       -3.655278525     0.371985919     1.159948000
  17    H       -0.923512250     0.431399208    -2.299525523
  18    H       -1.751171159     0.225405958     2.756261843
  19    H        3.729178649     0.020198660    -1.597352987
  20    H        3.711590948    -1.797614178    -1.734501120


           Empirical Formula: C10 H10  =    20 atoms



      MOLECULAR POINT GROUP   :   C1  


                  EIGENVALUES  
 -41.06399 -35.65222 -31.72470 -29.95513 -25.32463 -23.67101 -20.79087 -19.97593
 -19.11919 -17.71144 -16.67660 -15.87446 -15.56349 -15.10733 -14.75086 -14.07689
 -13.82710 -13.23452 -12.74498 -12.49505 -11.54684 -11.21007 -10.33452 -10.20121
  -8.58818  -0.09280   0.96943   1.11292   2.33874   2.97893   3.10131   3.26389
   3.33585   3.54217   3.68826   3.81130   3.96816   3.98058   4.16439   4.25439
   4.34946   4.53096   4.77997   5.10303   5.22721   5.58172   5.70866   5.85833
   6.02560   6.56642


              NET ATOMIC CHARGES AND DIPOLE CONTRIBUTIONS

  ATOM NO.   TYPE          CHARGE      No. of ELECS.   s-Pop       p-Pop       
    1          C           0.043381        3.9566     1.16261     2.79401
    2          C          -0.021828        4.0218     1.13526     2.88657
    3          C          -0.132174        4.1322     1.21199     2.92018
    4          C          -0.080781        4.0808     1.19005     2.89073
    5          C          -0.130905        4.1309     1.22037     2.91054
    6          C          -0.107704        4.1077     1.18185     2.92585
    7          C          -0.128266        4.1283     1.19135     2.93691
    8          C          -0.125349        4.1253     1.19886     2.92649
    9          C          -0.069660        4.0697     1.16377     2.90589
   10          C          -0.156036        4.1560     1.18310     2.97293
   11          H           0.079725        0.9203     0.92028
   12          H           0.062223        0.9378     0.93778
   13          H           0.062269        0.9377     0.93773
   14          H           0.129772        0.8702     0.87023
   15          H           0.104218        0.8958     0.89578
   16          H           0.095242        0.9048     0.90476
   17          H           0.108778        0.8912     0.89122
   18          H           0.107049        0.8930     0.89295
   19          H           0.080769        0.9192     0.91923
   20          H           0.079277        0.9207     0.92072
 DIPOLE           X         Y         Z       TOTAL
 POINT-CHG.    -0.368     0.040    -0.186     0.414
 HYBRID        -0.070    -0.020    -0.010     0.074
 SUM           -0.438     0.020    -0.196     0.480


          ATOMIC ORBITAL ELECTRON POPULATIONS

     Atom    s        px        py        pz   
    1  C   1.16261   0.90734   0.96258   0.92410
    2  C   1.13526   0.94885   1.00576   0.93195
    3  C   1.21199   0.95592   1.01182   0.95244
    4  C   1.19005   0.94068   1.00276   0.94729
    5  C   1.22037   0.93950   1.01115   0.95989
    6  C   1.18185   0.93660   1.01259   0.97666
    7  C   1.19135   0.96977   0.98221   0.98493
    8  C   1.19886   0.97955   0.99258   0.95436
    9  C   1.16377   0.91624   1.01491   0.97475
   10  C   1.18310   0.97067   1.01131   0.99095
   11  H   0.92028
   12  H   0.93778
   13  H   0.93773
   14  H   0.87023
   15  H   0.89578
   16  H   0.90476
   17  H   0.89122
   18  H   0.89295
   19  H   0.91923
   20  H   0.92072
 *******************************************************************************
 ** Site#: 14399        For non-commercial use only    Version 18.184L 64BITS **
 *******************************************************************************
 ** Cite this program as: MOPAC2016, Version: 18.184L, James J. P. Stewart,   **
 ** Stewart Computational Chemistry, web: HTTP://OpenMOPAC.net. Days left:  18**
 *******************************************************************************
 **                                                                           **
 **                                MOPAC2016                                  **
 **                                                                           **
 *******************************************************************************

                              PM3 CALCULATION RESULTS

 *******************************************************************************
 *  CALCULATION DONE:                                Sat Jun 15 10:16:02 2019  *
 *  PM3        - The PM3 Hamiltonian to be used
 *  OLDGEO     - PREVIOUS GEOMETRY TO BE USED
 *  PRECISE    - CRITERIA TO BE INCREASED BY 100 TIMES
 *  NOSYM      - POINT-GROUP SYMMETRY SET TO C1
 *  THREADS=1  - MULTI-THREADING NOT USED
 *  T=         - A TIME OF 172800.0 SECONDS REQUESTED
 *  DUMP=N     - RESTART FILE WRITTEN EVERY  7200.000 SECONDS
 *  THERMO     - THERMODYNAMIC QUANTITIES TO BE CALCULATED
 *******************************************************************************
oldgeo thermo nosym precise THREADS=1  pm3
 InChI=1S/C10H10/c1-2-8-7-9-5-3-4-6-10(8)9/h2-3,5-8H,1,4H2

   ATOM   CHEMICAL          X               Y               Z
  NUMBER   SYMBOL      (ANGSTROMS)     (ANGSTROMS)     (ANGSTROMS)
 
     1       C          1.43070184  *   0.25168036  *  -0.11068620  *
     2       C         -2.46937260  *   0.41065777  *  -0.68856670  *
     3       C         -0.08250887  *   0.30956544  *  -0.33647093  *
     4       C         -0.27542872  *   0.24197043  *   1.13187435  *
     5       C          1.05268665  *   0.17549292  *   1.39198420  *
     6       C         -1.06859490  *   0.38597025  *  -1.21730278  *
     7       C          2.10037242  *  -0.96075247  *  -0.64010756  *
     8       C         -2.62059007  *   0.34873180  *   0.79845930  *
     9       C         -1.60286782  *   0.26933194  *   1.67374615  *
    10       C          3.22154340  *  -0.90842653  *  -1.34986190  *
    11       H          1.95984015  *   1.18785386  *  -0.38767160  *
    12       H         -2.96874836  *   1.33205914  *  -1.05302570  *
    13       H         -3.03011006  *  -0.43754723  *  -1.13279551  *
    14       H          1.68293874  *   0.09837073  *   2.26546125  *
    15       H          1.61483663  *  -1.91670918  *  -0.41065702  *
    16       H         -3.65527853  *   0.37198592  *   1.15994800  *
    17       H         -0.92351225  *   0.43139921  *  -2.29952552  *
    18       H         -1.75117116  *   0.22540596  *   2.75626184  *
    19       H          3.72917865  *   0.02019866  *  -1.59735299  *
    20       H          3.71159095  *  -1.79761418  *  -1.73450112  *
 


          CARTESIAN COORDINATES 

    NO.       ATOM           X           Y           Z

     1         C          1.4307      0.2517     -0.1107
     2         C         -2.4694      0.4107     -0.6886
     3         C         -0.0825      0.3096     -0.3365
     4         C         -0.2754      0.2420      1.1319
     5         C          1.0527      0.1755      1.3920
     6         C         -1.0686      0.3860     -1.2173
     7         C          2.1004     -0.9608     -0.6401
     8         C         -2.6206      0.3487      0.7985
     9         C         -1.6029      0.2693      1.6737
    10         C          3.2215     -0.9084     -1.3499
    11         H          1.9598      1.1879     -0.3877
    12         H         -2.9687      1.3321     -1.0530
    13         H         -3.0301     -0.4375     -1.1328
    14         H          1.6829      0.0984      2.2655
    15         H          1.6148     -1.9167     -0.4107
    16         H         -3.6553      0.3720      1.1599
    17         H         -0.9235      0.4314     -2.2995
    18         H         -1.7512      0.2254      2.7563
    19         H          3.7292      0.0202     -1.5974
    20         H          3.7116     -1.7976     -1.7345

  H: (PM3): J. J. P. STEWART, J. COMP. CHEM. 10, 209 (1989).
  C: (PM3): J. J. P. STEWART, J. COMP. CHEM. 10, 209 (1989).

           Empirical Formula: C10 H10  =    20 atoms



      MOLECULAR POINT GROUP   :   C1  


      RHF CALCULATION, NO. OF DOUBLY OCCUPIED LEVELS = 25



          HEAT OF FORMATION =      97.402757 KCALS/MOLE


          CARTESIAN COORDINATE DERIVATIVES

   NUMBER  ATOM         X            Y            Z

     1       C     -0.001503     0.003824    -0.000724
     2       C     -0.002851    -0.001654    -0.001218
     3       C     -0.005261     0.000622     0.002322
     4       C     -0.001240    -0.000828    -0.000248
     5       C     -0.002454     0.004523     0.001360
     6       C      0.000094    -0.004697    -0.002735
     7       C     -0.014232     0.005795    -0.002327
     8       C     -0.000766    -0.000691    -0.001021
     9       C      0.002183    -0.004209     0.000015
    10       C      0.013748    -0.006026     0.001949
    11       H      0.006771     0.001132     0.003559
    12       H      0.003668     0.001906     0.000712
    13       H     -0.016378     0.002315    -0.001723
    14       H     -0.002656     0.005772     0.000095
    15       H     -0.003241    -0.003674    -0.003076
    16       H     -0.001915     0.002469    -0.001347
    17       H      0.007195     0.000096     0.002008
    18       H      0.008969    -0.006763    -0.000887
    19       H      0.007356     0.004222     0.003171
    20       H      0.002514    -0.004134     0.000114
 


          GRADIENT NORM =   0.03669


          TIME FOR SCF CALCULATION =    0.00

          TIME FOR DERIVATIVES     =    0.00

          MOLECULAR WEIGHT =  130.19



          ROTATIONAL CONSTANTS IN CM(-1)

          A =    0.10771039   B =    0.03054478   C =    0.02513277



           PRINCIPAL MOMENTS OF INERTIA IN UNITS OF 10**(-40)*GRAM-CM**2

          A =      259.8893   B =      916.4503   C =     1113.7956


          ORIENTATION OF MOLECULE IN FORCE CALCULATION

    NO.       ATOM         X         Y         Z

     1          C      -1.4093   -0.1069   -0.4368
     2          C       2.5366   -0.1069   -0.4368
     3          C       0.1218   -0.1028   -0.4368
     4          C       0.0947   -0.6009    0.9593
     5          C      -1.2588   -0.6135    1.0218
     6          C       1.2285    0.1424   -1.1217
     7          C      -2.0425    1.2279   -0.5635
     8          C       2.4658   -0.6165    0.9679
     9          C       1.3285   -0.8563    1.6441
    10          C      -3.0446    1.4695   -1.4007
    11          H      -1.8540   -0.8581   -1.1232
    12          H       3.1206   -0.8302   -1.0424
    13          H       3.1217    0.8359   -0.4378
    14          H      -2.0128   -0.8618    1.7539
    15          H      -1.6347    2.0162    0.0803
    16          H       3.4364   -0.7943    1.4454
    17          H       1.2454    0.5136   -2.1494
    18          H       1.3147   -1.2291    2.6721
    19          H      -3.4727    0.7137   -2.0541
    20          H      -3.5085    2.4470   -1.4902


    FIRST DERIVATIVES WILL BE USED IN THE CALCULATION OF SECOND DERIVATIVES

          ESTIMATED TIME TO COMPLETE CALCULATION =        1.88 SECONDS

    FOR POINT-GROUP C1   THERE ARE   1 UNIQUE SYMMETRY FUNCTIONS.

 STEP:   1 TIME =     0.02 SECS, INTEGRAL =      0.02 TIME LEFT: 172799.98
 STEP:   2 TIME =     0.02 SECS, INTEGRAL =      0.03 TIME LEFT: 172799.96
 STEP:   3 TIME =     0.02 SECS, INTEGRAL =      0.05 TIME LEFT: 172799.94
 STEP:   4 TIME =     0.02 SECS, INTEGRAL =      0.07 TIME LEFT: 172799.92
 STEP:   5 TIME =     0.02 SECS, INTEGRAL =      0.09 TIME LEFT: 172799.90
 STEP:   6 TIME =     0.02 SECS, INTEGRAL =      0.11 TIME LEFT: 172799.89
 STEP:   7 TIME =     0.02 SECS, INTEGRAL =      0.12 TIME LEFT: 172799.87
 STEP:   8 TIME =     0.02 SECS, INTEGRAL =      0.14 TIME LEFT: 172799.85
 STEP:   9 TIME =     0.02 SECS, INTEGRAL =      0.16 TIME LEFT: 172799.83
 STEP:  10 TIME =     0.02 SECS, INTEGRAL =      0.18 TIME LEFT: 172799.81
 STEP:  11 TIME =     0.02 SECS, INTEGRAL =      0.20 TIME LEFT: 172799.79
 STEP:  12 TIME =     0.02 SECS, INTEGRAL =      0.22 TIME LEFT: 172799.77
 STEP:  13 TIME =     0.02 SECS, INTEGRAL =      0.24 TIME LEFT: 172799.75
 STEP:  14 TIME =     0.02 SECS, INTEGRAL =      0.26 TIME LEFT: 172799.73
 STEP:  15 TIME =     0.02 SECS, INTEGRAL =      0.28 TIME LEFT: 172799.71
 STEP:  16 TIME =     0.02 SECS, INTEGRAL =      0.30 TIME LEFT: 172799.70
 STEP:  17 TIME =     0.02 SECS, INTEGRAL =      0.31 TIME LEFT: 172799.68
 STEP:  18 TIME =     0.02 SECS, INTEGRAL =      0.33 TIME LEFT: 172799.66
 STEP:  19 TIME =     0.02 SECS, INTEGRAL =      0.35 TIME LEFT: 172799.64
 STEP:  20 TIME =     0.02 SECS, INTEGRAL =      0.37 TIME LEFT: 172799.62
 STEP:  21 TIME =     0.02 SECS, INTEGRAL =      0.39 TIME LEFT: 172799.61
 STEP:  22 TIME =     0.02 SECS, INTEGRAL =      0.40 TIME LEFT: 172799.59
 STEP:  23 TIME =     0.02 SECS, INTEGRAL =      0.42 TIME LEFT: 172799.57
 STEP:  24 TIME =     0.02 SECS, INTEGRAL =      0.44 TIME LEFT: 172799.55
 STEP:  25 TIME =     0.02 SECS, INTEGRAL =      0.46 TIME LEFT: 172799.53
 STEP:  26 TIME =     0.02 SECS, INTEGRAL =      0.48 TIME LEFT: 172799.52
 STEP:  27 TIME =     0.02 SECS, INTEGRAL =      0.50 TIME LEFT: 172799.50
 STEP:  28 TIME =     0.02 SECS, INTEGRAL =      0.52 TIME LEFT: 172799.48
 STEP:  29 TIME =     0.02 SECS, INTEGRAL =      0.54 TIME LEFT: 172799.46
 STEP:  30 TIME =     0.02 SECS, INTEGRAL =      0.55 TIME LEFT: 172799.44
 STEP:  31 TIME =     0.02 SECS, INTEGRAL =      0.57 TIME LEFT: 172799.42
 STEP:  32 TIME =     0.02 SECS, INTEGRAL =      0.59 TIME LEFT: 172799.40
 STEP:  33 TIME =     0.02 SECS, INTEGRAL =      0.61 TIME LEFT: 172799.38
 STEP:  34 TIME =     0.02 SECS, INTEGRAL =      0.63 TIME LEFT: 172799.36
 STEP:  35 TIME =     0.02 SECS, INTEGRAL =      0.65 TIME LEFT: 172799.34
 STEP:  36 TIME =     0.02 SECS, INTEGRAL =      0.67 TIME LEFT: 172799.32
 STEP:  37 TIME =     0.02 SECS, INTEGRAL =      0.68 TIME LEFT: 172799.31
 STEP:  38 TIME =     0.02 SECS, INTEGRAL =      0.70 TIME LEFT: 172799.29
 STEP:  39 TIME =     0.02 SECS, INTEGRAL =      0.72 TIME LEFT: 172799.27
 STEP:  40 TIME =     0.02 SECS, INTEGRAL =      0.74 TIME LEFT: 172799.25
 STEP:  41 TIME =     0.02 SECS, INTEGRAL =      0.76 TIME LEFT: 172799.23
 STEP:  42 TIME =     0.02 SECS, INTEGRAL =      0.78 TIME LEFT: 172799.21
 STEP:  43 TIME =     0.02 SECS, INTEGRAL =      0.79 TIME LEFT: 172799.20
 STEP:  44 TIME =     0.02 SECS, INTEGRAL =      0.81 TIME LEFT: 172799.18
 STEP:  45 TIME =     0.02 SECS, INTEGRAL =      0.83 TIME LEFT: 172799.16
 STEP:  46 TIME =     0.02 SECS, INTEGRAL =      0.85 TIME LEFT: 172799.14
 STEP:  47 TIME =     0.02 SECS, INTEGRAL =      0.87 TIME LEFT: 172799.12
 STEP:  48 TIME =     0.02 SECS, INTEGRAL =      0.89 TIME LEFT: 172799.11
 STEP:  49 TIME =     0.02 SECS, INTEGRAL =      0.91 TIME LEFT: 172799.09
 STEP:  50 TIME =     0.02 SECS, INTEGRAL =      0.93 TIME LEFT: 172799.07
 STEP:  51 TIME =     0.02 SECS, INTEGRAL =      0.95 TIME LEFT: 172799.05
 STEP:  52 TIME =     0.02 SECS, INTEGRAL =      0.96 TIME LEFT: 172799.03
 STEP:  53 TIME =     0.02 SECS, INTEGRAL =      0.98 TIME LEFT: 172799.02
 STEP:  54 TIME =     0.02 SECS, INTEGRAL =      1.00 TIME LEFT: 172799.00
 STEP:  55 TIME =     0.02 SECS, INTEGRAL =      1.02 TIME LEFT: 172798.98
 STEP:  56 TIME =     0.02 SECS, INTEGRAL =      1.04 TIME LEFT: 172798.96
 STEP:  57 TIME =     0.02 SECS, INTEGRAL =      1.05 TIME LEFT: 172798.94
 STEP:  58 TIME =     0.02 SECS, INTEGRAL =      1.07 TIME LEFT: 172798.92
 STEP:  59 TIME =     0.02 SECS, INTEGRAL =      1.09 TIME LEFT: 172798.90
 STEP:  60 TIME =     0.02 SECS, INTEGRAL =      1.11 TIME LEFT: 172798.88

(To convert to Hartree/Bohr^2, multiply by (10^(-21) x N x a0^2)/(4.184 x 627.51) =  0.0642)


           FORCE MATRIX IN MILLIDYNES/ANGSTROM


                  C  1       C  2       C  3       C  4       C  5       C  6
 ------------------------------------------------------------------------------
     C    1  14.749738
     C    2   0.137333  14.681606
     C    3   3.675210   0.993224  19.788961
     C    4   2.281801   0.209549   4.764282  20.362557
     C    5   3.141895   0.039084   2.440075   9.580948  17.624308
     C    6   0.351511   4.610207  10.914838   0.905531   0.073880  18.218045
     C    7   5.077353   0.014052   0.581115   0.050775   0.565824   0.017734
     C    8   0.021431   4.644321   0.087810   1.324937   0.128355   0.639655
     C    9   0.135981   0.760400   0.655119   6.209167   0.649405   0.029129
     C   10   0.863171   0.002498   0.035571   0.007642   0.034018   0.002169
     H   11   4.403399   0.012050   0.411817   0.041425   0.404443   0.012351
     H   12   0.016747   4.381326   0.038466   0.015729   0.004210   0.412258
     H   13   0.017180   4.380694   0.038902   0.015960   0.004287   0.412074
     H   14   0.315190   0.004186   0.105077   0.421467   5.329258   0.009520
     H   15   0.442434   0.001133   0.010552   0.003913   0.010903   0.002523
     H   16   0.010882   0.421740   0.006313   0.132962   0.007137   0.045910
     H   17   0.059866   0.424673   0.466603   0.120052   0.007279   4.913351
     H   18   0.008605   0.121703   0.036777   0.443076   0.007574   0.004388
     H   19   0.103485   0.000865   0.010334   0.001317   0.009839   0.001138
     H   20   0.143697   0.001070   0.017226   0.001904   0.017067   0.001521


                  C  7       C  8       C  9       C 10       H 11       H 12
 ------------------------------------------------------------------------------
     C    7  18.302220
     C    8   0.006584  17.690376
     C    9   0.024238  10.038053  18.372475
     C   10  11.058760   0.001309   0.004101  18.026353
     H   11   0.453915   0.002542   0.017867   0.046242   4.908030
     H   12   0.001107   0.414577   0.038399   0.000358   0.001572   4.964595
     H   13   0.001909   0.414356   0.038506   0.000563   0.001100   0.565372
     H   14   0.011853   0.006116   0.034162   0.002883   0.005470   0.000919
     H   15   4.812150   0.001690   0.002244   0.452296   0.037946   0.000407
     H   16   0.002693   4.812185   0.436986   0.000611   0.001664   0.030803
     H   17   0.007241   0.045729   0.006349   0.002135   0.007006   0.023870
     H   18   0.001649   0.446099   4.889798   0.000636   0.001175   0.015827
     H   19   0.490382   0.000497   0.000541   5.065741   0.028560   0.000141
     H   20   0.460964   0.000763   0.001414   5.106683   0.002078   0.000127


                  H 13       H 14       H 15       H 16       H 17       H 18
 ------------------------------------------------------------------------------
     H   13   4.963908
     H   14   0.000941   5.702967
     H   15   0.000348   0.003261   5.172679
     H   16   0.030462   0.001514   0.000407   5.181841
     H   17   0.023955   0.006838   0.001027   0.006616   5.296504
     H   18   0.015994   0.002911   0.000501   0.066453   0.001303   5.265736
     H   19   0.000131   0.001283   0.120197   0.000127   0.000629   0.000184
     H   20   0.000241   0.000687   0.081065   0.000173   0.000531   0.000168


                  H 19       H 20
 ------------------------------
     H   19   5.461700
     H   20   0.423982   5.493136


          HEAT OF FORMATION =      97.402757 KCALS/MOLE

          ZERO POINT ENERGY     103.850 KCAL/MOL


           NORMAL COORDINATE ANALYSIS (Total motion = 1 Angstrom)


   Root No.       1         2         3         4         5         6         7         8

                 1 A       2 A       3 A       4 A       5 A       6 A       7 A       8 A   

                  32.4     107.0     142.5     228.3     284.1     334.1     391.3     448.9
  
           1   -0.0159   -0.0040   -0.0085   -0.0028    0.0016    0.0047   -0.0174    0.0271
           2   -0.0120   -0.0240   -0.0140    0.0002   -0.0228    0.0393   -0.0097   -0.0116
           3    0.0276   -0.0185    0.0087    0.0121   -0.0038    0.0174    0.0090   -0.0224
           4   -0.0158   -0.0040   -0.0108   -0.0093   -0.0112   -0.0034    0.0139    0.0010
           5    0.0136   -0.0053    0.0501   -0.0221    0.0060    0.0042   -0.0040    0.0053
           6   -0.0150   -0.0035    0.0100   -0.0170   -0.0102   -0.0055    0.0069   -0.0188
           7   -0.0156   -0.0038   -0.0096   -0.0059   -0.0038    0.0003   -0.0044    0.0147
           8   -0.0037   -0.0269   -0.0399   -0.0052    0.0294    0.0270    0.0133    0.0119
           9    0.0106   -0.0160   -0.0059    0.0109    0.0251    0.0229    0.0171    0.0345
          10    0.0023   -0.0070   -0.0033   -0.0027   -0.0074   -0.0022    0.0166   -0.0172
          11   -0.0075   -0.0121   -0.0187   -0.0358    0.0438   -0.0132   -0.0022    0.0144
          12    0.0096   -0.0109    0.0016   -0.0003    0.0294    0.0082    0.0099    0.0354
          13    0.0030   -0.0073   -0.0030   -0.0032   -0.0094   -0.0039    0.0152   -0.0215
          14   -0.0143   -0.0361    0.0195   -0.0129   -0.0398   -0.0364   -0.0209    0.0256
          15    0.0245   -0.0222    0.0204    0.0085   -0.0071   -0.0076    0.0119   -0.0018
          16   -0.0247   -0.0026   -0.0148   -0.0134   -0.0146   -0.0069    0.0035   -0.0041
          17    0.0065   -0.0308   -0.0109    0.0507    0.0125   -0.0401   -0.0160   -0.0049
          18   -0.0003   -0.0155   -0.0036    0.0200    0.0039   -0.0112    0.0171    0.0021
          19   -0.0188    0.0209    0.0364    0.0243    0.0297    0.0056   -0.0432    0.0114
          20   -0.0129   -0.0077    0.0043    0.0092   -0.0122    0.0411   -0.0204   -0.0242
          21    0.0323    0.0183   -0.0250   -0.0217   -0.0165    0.0026   -0.0483   -0.0101
          22    0.0025   -0.0069   -0.0030   -0.0014   -0.0069    0.0004    0.0316   -0.0124
          23    0.0080    0.0514    0.0068    0.0245   -0.0362    0.0251    0.0080    0.0286
          24   -0.0161    0.0169   -0.0053    0.0005   -0.0249    0.0024    0.0104   -0.0102
          25    0.0114   -0.0083    0.0013    0.0040    0.0000    0.0048    0.0282   -0.0012
          26   -0.0019    0.0402   -0.0236   -0.0045    0.0305   -0.0203   -0.0147   -0.0350
          27   -0.0047    0.0106   -0.0084    0.0001    0.0118   -0.0049   -0.0029   -0.0091
          28    0.0662    0.0202    0.0133    0.0079    0.0166    0.0010   -0.0453    0.0036
          29    0.0200    0.0405    0.0081   -0.0069    0.0017   -0.0170    0.0617    0.0011
          30   -0.0599    0.0337    0.0041   -0.0069    0.0047   -0.0108   -0.0261    0.0093
          31   -0.0196   -0.0160   -0.0362   -0.0063    0.0226    0.0128    0.0005    0.0651
          32   -0.0127   -0.0033   -0.0205   -0.0007   -0.0173    0.0568   -0.0295   -0.0207
          33    0.0308   -0.0319    0.0343    0.0145   -0.0222   -0.0095    0.0199   -0.0359
          34   -0.0166   -0.0040    0.0506   -0.0982   -0.0035    0.0266    0.0081   -0.0276
          35    0.0202   -0.0316    0.1095   -0.0990    0.0373    0.0121   -0.0112   -0.0364
          36   -0.0237    0.0279   -0.0009   -0.0126   -0.0395    0.0146    0.0096    0.0017
          37   -0.0228   -0.0029   -0.0760    0.0754   -0.0226   -0.0369    0.0113    0.0280
          38    0.0180   -0.0061    0.0911   -0.0758    0.0135    0.0253   -0.0025   -0.0126
          39   -0.0175   -0.0423    0.0502   -0.0767    0.0266   -0.0215   -0.0158   -0.0655
          40    0.0124   -0.0091    0.0001   -0.0028   -0.0154   -0.0088    0.0278   -0.0537
          41   -0.0201   -0.0482    0.0610   -0.0029   -0.1149   -0.1060   -0.0593    0.0507
          42    0.0322   -0.0281    0.0377    0.0123   -0.0388   -0.0363    0.0120   -0.0265
          43   -0.0909    0.0433    0.0948    0.0675    0.0825    0.0069   -0.0086   -0.0114
          44   -0.0407   -0.0342    0.0174    0.0306   -0.0060    0.0694   -0.0147   -0.0454
          45    0.1120    0.0371   -0.0779   -0.0755   -0.0570   -0.0347   -0.0739    0.0316
          46    0.0088   -0.0077   -0.0000    0.0023   -0.0037    0.0033    0.0339   -0.0095
          47    0.0126    0.1007    0.0045    0.0725   -0.1088    0.0656    0.0266    0.0509
          48   -0.0271    0.0368   -0.0123    0.0108   -0.0582    0.0118    0.0129   -0.0069
          49   -0.0384   -0.0007   -0.0226   -0.0244   -0.0296   -0.0184    0.0042   -0.0372
          50    0.0103   -0.0480   -0.0131    0.1232   -0.0149   -0.1032   -0.0431   -0.0420
          51    0.0008   -0.0216   -0.0045    0.0460   -0.0061   -0.0340    0.0071   -0.0116
          52    0.0249   -0.0102    0.0085    0.0144    0.0131    0.0155    0.0314    0.0295
          53   -0.0058    0.0763   -0.0522    0.0136    0.0398   -0.0414   -0.0354   -0.1123
          54   -0.0059    0.0236   -0.0187    0.0068    0.0154   -0.0124   -0.0101   -0.0366
          55    0.1389   -0.0032   -0.0450   -0.0336   -0.0381    0.0136   -0.1376    0.0220
          56    0.0480    0.0700   -0.0038   -0.0309   -0.0028   -0.0644    0.1167    0.0382
          57   -0.1399    0.0152    0.0561    0.0480    0.0460    0.0346   -0.0267   -0.0446
          58    0.0692    0.0433    0.0509    0.0342    0.0593   -0.0173    0.0463   -0.0228
          59    0.0212    0.0545    0.0236    0.0017    0.0200   -0.0317    0.1100   -0.0040
          60   -0.0619    0.0667   -0.0218   -0.0487   -0.0162   -0.0726    0.0049    0.0874


   Root No.       9        10        11        12        13        14        15        16

                 9 A      10 A      11 A      12 A      13 A      14 A      15 A      16 A   

                 466.9     542.0     617.7     667.0     679.6     761.9     829.6     842.3
  
           1   -0.0160   -0.0341   -0.0180   -0.0016   -0.0097    0.0010    0.0135   -0.0310
           2   -0.0214   -0.0128   -0.0007    0.0007   -0.0100    0.0002    0.0084   -0.0219
           3    0.0118    0.0079   -0.0182    0.0338   -0.0103   -0.0022    0.0058   -0.0173
           4   -0.0154    0.0664   -0.0161    0.0225   -0.0147   -0.0014   -0.0090    0.0227
           5   -0.0059    0.0033    0.0013    0.0011   -0.0169   -0.0294   -0.0301   -0.0096
           6    0.0158   -0.0042    0.0181   -0.0083    0.0118   -0.0103   -0.0037   -0.0206
           7   -0.0099   -0.0113   -0.0288    0.0070   -0.0259    0.0008    0.0004   -0.0083
           8    0.0391   -0.0037   -0.0313    0.0063    0.0613   -0.0151    0.0080    0.0100
           9   -0.0268   -0.0001   -0.0116   -0.0069    0.0146   -0.0048    0.0028    0.0051
          10    0.0152   -0.0394    0.0076   -0.0079   -0.0033   -0.0002   -0.0054    0.0161
          11    0.0461    0.0186    0.0353    0.0010   -0.0284    0.0326    0.0011    0.0162
          12   -0.0230   -0.0029    0.0090   -0.0121   -0.0250    0.0138   -0.0050    0.0082
          13    0.0218   -0.0426    0.0028    0.0017   -0.0057   -0.0016   -0.0043    0.0188
          14    0.0034    0.0006   -0.0045   -0.0183    0.0091    0.0168   -0.0171   -0.0284
          15    0.0091    0.0058   -0.0114    0.0400    0.0008   -0.0011    0.0081   -0.0179
          16    0.0008    0.0300   -0.0205    0.0173   -0.0165   -0.0005   -0.0035    0.0053
          17    0.0080   -0.0139   -0.0025    0.0025   -0.0050    0.0017   -0.0174   -0.0033
          18   -0.0229    0.0475    0.0224   -0.0052    0.0163   -0.0001   -0.0094    0.0178
          19    0.0069   -0.0059    0.0196    0.0244    0.0200   -0.0018    0.0014   -0.0014
          20   -0.0173    0.0004    0.0261    0.0041   -0.0106   -0.0026   -0.0055    0.0174
          21    0.0120    0.0240   -0.0141   -0.0341   -0.0099    0.0027   -0.0024    0.0015
          22   -0.0094    0.0226    0.0396   -0.0286    0.0330    0.0022    0.0089   -0.0268
          23    0.0142    0.0103    0.0015    0.0026   -0.0137   -0.0088    0.0192    0.0039
          24    0.0249   -0.0153    0.0173   -0.0115    0.0093   -0.0024    0.0120   -0.0133
          25   -0.0164   -0.0082    0.0245   -0.0269    0.0095    0.0021   -0.0036    0.0012
          26   -0.0318    0.0155   -0.0002    0.0040    0.0037   -0.0253    0.0273   -0.0124
          27   -0.0099   -0.0620   -0.0094   -0.0117   -0.0269   -0.0077   -0.0097    0.0327
          28    0.0164    0.0107   -0.0017   -0.0048    0.0111    0.0007    0.0012   -0.0042
          29   -0.0081   -0.0087   -0.0027    0.0019   -0.0080   -0.0010   -0.0037    0.0134
          30    0.0067    0.0033    0.0016   -0.0007    0.0075    0.0009   -0.0007   -0.0006
          31   -0.0232   -0.0466   -0.0602   -0.0242    0.0218   -0.0079    0.0509   -0.0462
          32   -0.0357   -0.0067    0.0151   -0.0228   -0.0227   -0.0055    0.0144   -0.0034
          33    0.0334    0.0102   -0.0080    0.0744   -0.0164    0.0095   -0.0252   -0.0264
          34   -0.0442    0.0510   -0.0655    0.0400    0.0150    0.0821    0.0769    0.0682
          35   -0.0562   -0.0092   -0.0337    0.0054    0.0365    0.0642    0.0276    0.0320
          36    0.0463   -0.0062    0.0104    0.0032   -0.0200   -0.0366    0.0143   -0.0262
          37    0.0217    0.0831    0.0084    0.0273   -0.0674   -0.0863   -0.1032   -0.0045
          38   -0.0304   -0.0069   -0.0156   -0.0012    0.0173    0.0264    0.0301    0.0097
          39   -0.0211   -0.0286   -0.0330    0.0121    0.0412    0.0686    0.0163    0.0133
          40    0.0537   -0.0447    0.0035    0.0405   -0.0016   -0.0129    0.0022    0.0565
          41   -0.0370   -0.0029   -0.0685   -0.1004    0.1002   -0.1234    0.0611    0.1703
          42    0.0280    0.0033   -0.0325    0.0520    0.0357   -0.0603    0.0413    0.0880
          43    0.0485    0.0298   -0.0074   -0.0079    0.0301   -0.0047   -0.0072    0.0429
          44   -0.0147    0.0038    0.0108    0.0036   -0.0269   -0.0058    0.0041    0.0034
          45   -0.0171   -0.0037    0.0204   -0.0124    0.0040    0.0085   -0.0081   -0.0110
          46   -0.0117   -0.0042    0.0461   -0.0441    0.0328    0.0048    0.0041   -0.0230
          47    0.0239   -0.0167   -0.0431    0.0077    0.0802    0.2081   -0.0804    0.0652
          48    0.0322    0.0294   -0.0126    0.0212    0.0444    0.0732   -0.0158    0.0016
          49    0.0371    0.0336   -0.0109    0.0233   -0.0013   -0.0009    0.0012   -0.0106
          50   -0.0375   -0.0199    0.0103    0.0024   -0.0623    0.1303    0.1830    0.0171
          51   -0.0387    0.0444    0.0272   -0.0054   -0.0041    0.0462    0.0630    0.0250
          52   -0.0557   -0.0033    0.0145   -0.0373   -0.0119    0.0054   -0.0222    0.0254
          53   -0.1165   -0.0185   -0.0807    0.0245    0.1139    0.0716   -0.1459   -0.0500
          54   -0.0415   -0.0736   -0.0385   -0.0046    0.0127    0.0275   -0.0729    0.0199
          55   -0.0250   -0.0156    0.0868    0.0674    0.0378   -0.0086   -0.0188    0.0686
          56   -0.0201   -0.0423   -0.0054    0.0501    0.0077   -0.0025    0.0158   -0.0393
          57    0.0479    0.0585   -0.0547   -0.1030   -0.0277    0.0089   -0.0091    0.0092
          58    0.0693    0.0577   -0.1222   -0.1245   -0.0303    0.0155    0.0204   -0.0852
          59    0.0122    0.0051   -0.0537   -0.0394   -0.0225    0.0049    0.0079   -0.0300
          60   -0.0415   -0.0820    0.0763    0.1610    0.0711   -0.0112    0.0212   -0.0411


   Root No.      17        18        19        20        21        22        23        24

                17 A      18 A      19 A      20 A      21 A      22 A      23 A      24 A   

                 886.2     897.3     929.1     937.6     946.9     970.6    1005.4    1019.5
  
           1   -0.0311    0.0128    0.0003    0.0051   -0.0117    0.0058    0.0008    0.0226
           2   -0.0100    0.0063   -0.0222   -0.0082   -0.0006    0.0008    0.0003    0.0013
           3    0.0051   -0.0299   -0.0111   -0.0085    0.0067   -0.0023    0.0070    0.0315
           4    0.0146    0.0011   -0.0021   -0.0032    0.0056   -0.0397   -0.0010   -0.0190
           5   -0.0119    0.0027   -0.0090    0.0137    0.0219   -0.0131    0.0344   -0.0068
           6   -0.0138   -0.0052    0.0006    0.0062    0.0059    0.0368    0.0120    0.0031
           7   -0.0067   -0.0214    0.0122    0.0041   -0.0042   -0.0046   -0.0008    0.0142
           8    0.0274   -0.0004    0.0049    0.0033    0.0171    0.0056    0.0128   -0.0094
           9    0.0008    0.0119    0.0015    0.0060   -0.0007   -0.0172    0.0048    0.0142
          10    0.0056    0.0195   -0.0115   -0.0008   -0.0002   -0.0032    0.0028    0.0145
          11   -0.0343   -0.0068   -0.0131    0.0003    0.0082   -0.0024   -0.0131    0.0112
          12   -0.0045   -0.0243    0.0048   -0.0013    0.0058    0.0076   -0.0074   -0.0073
          13   -0.0013    0.0353   -0.0130    0.0012   -0.0039    0.0001    0.0028    0.0189
          14    0.0455    0.0247    0.0034    0.0071   -0.0079   -0.0035    0.0070   -0.0088
          15   -0.0233    0.0125    0.0262    0.0107   -0.0095    0.0080   -0.0059   -0.0358
          16    0.0041   -0.0089    0.0030   -0.0007    0.0012    0.0259   -0.0001    0.0039
          17   -0.0032   -0.0245    0.0147   -0.0195   -0.0294   -0.0085   -0.0343   -0.0037
          18    0.0002    0.0542   -0.0248   -0.0084   -0.0147    0.0230   -0.0064    0.0266
          19    0.0005    0.0076    0.0071   -0.0183    0.0131   -0.0011   -0.0006   -0.0026
          20   -0.0073   -0.0001    0.0093   -0.0059    0.0034   -0.0006   -0.0047   -0.0092
          21    0.0032   -0.0069   -0.0178    0.0148   -0.0122    0.0003   -0.0017   -0.0053
          22   -0.0060   -0.0274    0.0119    0.0015    0.0000   -0.0278   -0.0016   -0.0071
          23    0.0179    0.0116    0.0015    0.0023    0.0021    0.0172   -0.0471    0.0096
          24    0.0024   -0.0145    0.0095    0.0025    0.0007   -0.0484   -0.0182   -0.0050
          25    0.0111   -0.0157    0.0033   -0.0026    0.0045    0.0143   -0.0012   -0.0126
          26    0.0037    0.0032    0.0065   -0.0119   -0.0260    0.0049    0.0388    0.0022
          27    0.0345   -0.0048   -0.0025   -0.0110    0.0013   -0.0124    0.0129   -0.0260
          28    0.0051    0.0026   -0.0062   -0.0088    0.0072   -0.0013    0.0021   -0.0035
          29   -0.0039   -0.0005    0.0366    0.0156   -0.0040    0.0019    0.0058    0.0187
          30    0.0038    0.0011    0.0004    0.0078   -0.0054    0.0011   -0.0006    0.0026
          31   -0.0884    0.0588    0.0382    0.0710   -0.0366    0.0067    0.0104   -0.0348
          32   -0.0476    0.0078   -0.0610   -0.0202   -0.0039   -0.0047   -0.0284   -0.0918
          33    0.0819   -0.0607    0.0078   -0.0377    0.0260    0.0029    0.0315    0.1685
          34    0.0670   -0.0071    0.0203   -0.0200   -0.0095   -0.0301   -0.0934   -0.0324
          35    0.0179    0.0060    0.0031   -0.0269   -0.0392   -0.0422   -0.0232    0.0054
          36    0.0014   -0.0179    0.0092    0.0377    0.0618    0.0794   -0.0107   -0.0226
          37   -0.0242   -0.0148   -0.0118    0.0095    0.0299   -0.0284    0.0838   -0.0576
          38    0.0141    0.0130   -0.0030    0.0047    0.0059   -0.0191   -0.0198    0.0164
          39   -0.0051   -0.0389    0.0294   -0.0452   -0.0704    0.0889   -0.0189   -0.0162
          40   -0.0464    0.1117   -0.0066    0.0160   -0.0180   -0.0110   -0.0167   -0.0705
          41   -0.1204   -0.1276   -0.0531   -0.0376    0.0479    0.0023   -0.0101    0.0817
          42   -0.1256    0.0360    0.0151    0.0106   -0.0045   -0.0012   -0.0321   -0.0998
          43    0.0537   -0.0569   -0.0539    0.1371   -0.0773    0.0064    0.0109   -0.0069
          44   -0.0159   -0.0396   -0.0801    0.0167   -0.0272    0.0001   -0.0162   -0.0133
          45   -0.0200    0.0823    0.1291   -0.1118    0.0827   -0.0053    0.0052    0.0026
          46    0.0044   -0.0374    0.0118   -0.0015    0.0041    0.0149   -0.0010   -0.0160
          47   -0.0867   -0.0431   -0.0192   -0.0480   -0.0505    0.0465    0.1782   -0.0252
          48   -0.0561   -0.0184    0.0035   -0.0105   -0.0262   -0.1221    0.0639   -0.0039
          49    0.0116   -0.0544    0.0171   -0.0088    0.0145    0.2210   -0.0043   -0.0320
          50    0.0299   -0.0009   -0.0100    0.0901    0.1423   -0.0096    0.0903   -0.0234
          51    0.0118    0.0637   -0.0342    0.0311    0.0471    0.0253    0.0387    0.0204
          52    0.0479   -0.0494    0.0110   -0.0142    0.0234    0.1886   -0.0121   -0.0871
          53   -0.0664    0.0108   -0.0226    0.0850    0.1205    0.0016   -0.1439    0.0326
          54    0.0105   -0.0033   -0.0127    0.0237    0.0550   -0.0136   -0.0535   -0.0175
          55    0.0328   -0.0414    0.0391    0.1307   -0.0700    0.0107    0.0087    0.0394
          56    0.0014   -0.0240   -0.1109   -0.0136   -0.0110   -0.0024   -0.0162   -0.0323
          57   -0.0204    0.0569    0.1354   -0.0526    0.0541   -0.0021    0.0200    0.0318
          58   -0.0098    0.0247   -0.1240   -0.0511    0.0011   -0.0024   -0.0240   -0.0523
          59   -0.0100    0.0068   -0.0333   -0.0129   -0.0028    0.0002   -0.0074   -0.0094
          60    0.0235   -0.0284   -0.1280   -0.0710    0.0382   -0.0114   -0.0032   -0.0452


   Root No.      25        26        27        28        29        30        31        32

                25 A      26 A      27 A      28 A      29 A      30 A      31 A      32 A   

                1028.0    1061.4    1063.6    1090.2    1132.8    1142.9    1163.5    1169.0
  
           1   -0.0021    0.0001   -0.0088   -0.0210    0.0287   -0.0203   -0.0213    0.0093
           2   -0.0017   -0.0009   -0.0035   -0.0100    0.0089    0.0003   -0.0362   -0.0325
           3    0.0063   -0.0020   -0.0021   -0.0057   -0.0410    0.0496   -0.0020   -0.0128
           4   -0.0034   -0.0012    0.0016   -0.0248    0.0006    0.0011   -0.0095    0.0046
           5   -0.0032    0.0009   -0.0068    0.0002    0.0007   -0.0007    0.0014   -0.0008
           6    0.0008    0.0031    0.0206    0.0023   -0.0007    0.0004   -0.0029    0.0018
           7    0.0037    0.0034    0.0117    0.0495   -0.0044   -0.0009    0.0133   -0.0063
           8   -0.0081   -0.0071   -0.0050   -0.0040    0.0099   -0.0102   -0.0001    0.0065
           9    0.0010    0.0022    0.0268    0.0364   -0.0044   -0.0053    0.0257   -0.0113
          10    0.0021    0.0002    0.0063   -0.0132   -0.0065    0.0027    0.0159   -0.0074
          11    0.0010   -0.0026   -0.0020   -0.0037   -0.0059    0.0041   -0.0094    0.0002
          12   -0.0019   -0.0001    0.0021    0.0024    0.0143   -0.0030    0.0111   -0.0081
          13    0.0015    0.0012    0.0107   -0.0182    0.0078   -0.0058    0.0228   -0.0109
          14    0.0077    0.0017    0.0081    0.0136   -0.0087    0.0126    0.0084    0.0025
          15   -0.0036   -0.0015   -0.0210   -0.0309    0.0139   -0.0401    0.0110   -0.0038
          16    0.0013   -0.0008   -0.0181    0.0271   -0.0049   -0.0036   -0.0014    0.0013
          17    0.0028    0.0329    0.0025   -0.0025   -0.0013    0.0032    0.0003   -0.0025
          18    0.0034    0.0099   -0.0178   -0.0045   -0.0037    0.0011   -0.0085    0.0035
          19   -0.0300   -0.0013    0.0001   -0.0003   -0.0091    0.0075    0.0068    0.0037
          20   -0.0116    0.0003    0.0026    0.0072   -0.0005   -0.0050    0.0120    0.0162
          21    0.0321    0.0017    0.0012    0.0039    0.0114   -0.0126    0.0023    0.0115
          22   -0.0012   -0.0007   -0.0076    0.0092   -0.0017   -0.0027   -0.0034    0.0013
          23    0.0040   -0.0371    0.0065   -0.0018   -0.0031   -0.0018    0.0037   -0.0023
          24   -0.0007   -0.0149   -0.0128    0.0044    0.0084    0.0056   -0.0109    0.0058
          25   -0.0009   -0.0002    0.0017   -0.0053   -0.0050   -0.0028    0.0022   -0.0018
          26   -0.0006    0.0137    0.0098    0.0032    0.0034    0.0005    0.0059   -0.0022
          27   -0.0037    0.0003   -0.0276   -0.0071   -0.0088   -0.0022   -0.0153    0.0072
          28    0.0481    0.0007   -0.0001   -0.0003    0.0038   -0.0022   -0.0009    0.0105
          29    0.0195    0.0001   -0.0027   -0.0060   -0.0001    0.0026   -0.0000    0.0063
          30   -0.0526   -0.0014   -0.0005   -0.0022   -0.0055    0.0066    0.0022    0.0109
          31    0.0605   -0.0137   -0.0441   -0.1042   -0.1421    0.1744   -0.0400    0.1078
          32    0.0182    0.0033    0.0003    0.0065   -0.0346   -0.0078    0.0717   -0.1733
          33   -0.0560    0.0025    0.0168    0.0314    0.1179   -0.0704   -0.1062    0.0731
          34   -0.0038    0.1688    0.0615   -0.0775   -0.0408   -0.0322   -0.0161    0.0054
          35    0.0030   -0.1105   -0.0567    0.0111    0.0233    0.0203   -0.0060    0.0036
          36   -0.0067    0.3003    0.1412   -0.0600   -0.0653   -0.0553    0.0011   -0.0033
          37   -0.0065   -0.1615    0.0827   -0.0683   -0.0370   -0.0351   -0.0149    0.0042
          38   -0.0014    0.0996   -0.0590    0.0261    0.0226    0.0207    0.0036   -0.0001
          39    0.0126   -0.2723    0.1751   -0.0456   -0.0622   -0.0558    0.0042   -0.0065
          40    0.0038    0.0116    0.0632    0.1854    0.0250    0.0678   -0.0685    0.0260
          41   -0.0125   -0.0076   -0.0109   -0.0605   -0.0055   -0.0082    0.0103   -0.0185
          42   -0.0084    0.0058    0.0251    0.1544    0.0317    0.0283   -0.0833    0.0275
          43    0.0848    0.0012   -0.0009   -0.0014    0.0204   -0.0131   -0.0931   -0.2345
          44    0.0316    0.0040    0.0022    0.0066    0.0117   -0.0211    0.0934    0.2557
          45   -0.0935   -0.0045    0.0024    0.0051   -0.0224    0.0206   -0.0360   -0.1330
          46   -0.0003   -0.0038   -0.0423    0.0486   -0.1002   -0.0796   -0.0748    0.0348
          47   -0.0078    0.0611   -0.0207    0.0243   -0.0653   -0.0510   -0.0405    0.0186
          48   -0.0072    0.0282    0.0497   -0.0664    0.1817    0.1411    0.1130   -0.0524
          49   -0.0015   -0.0164   -0.1707    0.0416    0.0307    0.0382    0.1273   -0.0657
          50   -0.0157   -0.0527    0.0157    0.0149    0.0103   -0.0131    0.0123    0.0034
          51   -0.0032   -0.0210   -0.0123    0.0013   -0.0001   -0.0047   -0.0030    0.0050
          52   -0.0058    0.0052    0.0802   -0.0527    0.1565    0.1693   -0.0921    0.0528
          53    0.0056   -0.0198    0.0098    0.0021    0.0017   -0.0006    0.0056   -0.0042
          54   -0.0018   -0.0120   -0.0287   -0.0088   -0.0067    0.0001   -0.0173    0.0075
          55   -0.1599   -0.0047   -0.0060   -0.0171   -0.0195    0.0299   -0.0124    0.0085
          56   -0.0632    0.0003    0.0052    0.0122   -0.0006   -0.0087    0.0198    0.0088
          57    0.1792    0.0018   -0.0057   -0.0122    0.0102   -0.0007   -0.0139    0.0141
          58   -0.2003   -0.0031    0.0059    0.0102   -0.0033    0.0018   -0.0087    0.0098
          59   -0.0743   -0.0012    0.0009    0.0008   -0.0021    0.0027   -0.0032    0.0079
          60    0.2104    0.0036    0.0058    0.0132    0.0073   -0.0047   -0.0109    0.0120


   Root No.      33        34        35        36        37        38        39        40

                33 A      34 A      35 A      36 A      37 A      38 A      39 A      40 A   

                1193.9    1209.2    1306.2    1315.1    1367.9    1373.4    1404.5    1442.7
  
           1    0.0047   -0.0243   -0.0221   -0.0157    0.0018    0.0086   -0.0616   -0.0371
           2    0.0106   -0.0179    0.0194    0.0093   -0.0060   -0.0143    0.0689    0.0237
           3   -0.0090   -0.0145   -0.0118   -0.0108    0.0037    0.0085   -0.0334   -0.0071
           4    0.0044   -0.0067   -0.0060    0.0038   -0.0499    0.0506    0.0135   -0.0442
           5    0.0044   -0.0026    0.0021   -0.0032   -0.0113   -0.0235   -0.0126    0.0220
           6   -0.0125    0.0066   -0.0056    0.0088    0.0313    0.0646    0.0357   -0.0602
           7   -0.0183    0.0196    0.0075    0.0080    0.0042   -0.0234    0.0110   -0.0060
           8   -0.0073   -0.0027    0.0004   -0.0116    0.0077    0.0119   -0.0146    0.0124
           9    0.0068    0.0051   -0.0094    0.0290   -0.0198   -0.0297    0.0197   -0.0430
          10   -0.0009    0.0051   -0.0015    0.0063   -0.0027   -0.0049    0.0033   -0.0167
          11   -0.0058    0.0020    0.0003    0.0031   -0.0038   -0.0248    0.0045   -0.0297
          12    0.0215   -0.0086    0.0026   -0.0074    0.0100    0.0678   -0.0033    0.0869
          13   -0.0018    0.0100   -0.0079    0.0216   -0.0117    0.0253    0.0074    0.0569
          14    0.0004   -0.0068   -0.0060   -0.0036    0.0010    0.0072   -0.0118   -0.0001
          15   -0.0190    0.0197    0.0098    0.0066   -0.0007   -0.0159    0.0142   -0.0060
          16   -0.0265    0.0195    0.0235   -0.0189    0.0244   -0.0102   -0.0008    0.0517
          17    0.0032    0.0001   -0.0008    0.0042   -0.0019    0.0092    0.0079   -0.0053
          18   -0.0057   -0.0008    0.0038   -0.0111    0.0048   -0.0262   -0.0183    0.0157
          19   -0.0044   -0.0024   -0.0119   -0.0097   -0.0015   -0.0027    0.0125    0.0048
          20    0.0142    0.0554   -0.0071   -0.0001    0.0043    0.0105   -0.0464   -0.0154
          21    0.0049    0.0139   -0.0135   -0.0089   -0.0004   -0.0014   -0.0040   -0.0050
          22    0.0058   -0.0043    0.0027   -0.0055   -0.0003   -0.0163   -0.0083    0.0111
          23    0.0031   -0.0003    0.0062   -0.0074    0.0084    0.0067    0.0063   -0.0158
          24   -0.0084    0.0009   -0.0171    0.0206   -0.0232   -0.0183   -0.0173    0.0435
          25    0.0090   -0.0031    0.0227   -0.0278    0.0258   -0.0044    0.0133   -0.0423
          26   -0.0005    0.0017   -0.0040    0.0058   -0.0016    0.0080   -0.0005    0.0122
          27    0.0012   -0.0047    0.0107   -0.0156    0.0038   -0.0223    0.0017   -0.0330
          28   -0.0005   -0.0112    0.0001   -0.0025   -0.0026   -0.0063    0.0308    0.0115
          29   -0.0065   -0.0215    0.0021    0.0010   -0.0000    0.0001   -0.0023   -0.0016
          30   -0.0041   -0.0167    0.0009   -0.0019   -0.0022   -0.0053    0.0274    0.0108
          31    0.0855    0.1136    0.0192    0.0017   -0.0029    0.0037    0.0697    0.0486
          32   -0.1238   -0.1334   -0.0228   -0.0110    0.0061    0.0181   -0.0769   -0.0213
          33    0.0831    0.0240    0.0057    0.0001   -0.0068   -0.0256    0.0395   -0.0162
          34    0.0563   -0.0414   -0.0668    0.0637    0.1600   -0.0828   -0.0194    0.0385
          35   -0.0054   -0.0032   -0.0605    0.0702    0.1864    0.0021    0.0272   -0.0106
          36    0.0461   -0.0230    0.0226   -0.0340   -0.0405   -0.0882   -0.0457    0.0565
          37    0.0554   -0.0429   -0.0661    0.0638    0.1597   -0.0828   -0.0173    0.0393
          38   -0.0252    0.0178    0.0319   -0.0322   -0.1171    0.0550    0.0080   -0.0283
          39    0.0385   -0.0166    0.0566   -0.0709   -0.1507   -0.0689   -0.0513    0.0506
          40    0.0641   -0.0699   -0.0145   -0.0238    0.0065    0.0471   -0.0268    0.0357
          41   -0.0094    0.0169    0.0007    0.0143   -0.0071   -0.0024    0.0129    0.0132
          42    0.0447   -0.0543    0.0076   -0.0371    0.0179    0.0002   -0.0125   -0.0303
          43    0.0391    0.1027   -0.0219   -0.0099    0.0036    0.0097   -0.0485   -0.0192
          44   -0.0197   -0.0508    0.0011   -0.0012   -0.0013   -0.0045    0.0113    0.0014
          45    0.0211    0.0830   -0.0196   -0.0091    0.0035    0.0098   -0.0406   -0.0125
          46   -0.0206   -0.0073   -0.0481    0.0515   -0.0504    0.0132   -0.0187    0.0493
          47   -0.0142   -0.0019   -0.0260    0.0290   -0.0225    0.0265    0.0003    0.0081
          48    0.0389    0.0050    0.0723   -0.0806    0.0627   -0.0732   -0.0009   -0.0229
          49    0.1713   -0.0718   -0.0560    0.0703   -0.0832   -0.0671   -0.0043   -0.0531
          50   -0.0028    0.0018   -0.0033    0.0027   -0.0010    0.0111    0.0011   -0.0067
          51   -0.0056   -0.0015    0.0014   -0.0103    0.0042   -0.0285   -0.0217    0.0112
          52   -0.1236    0.0354   -0.0668    0.0836   -0.0679   -0.0830   -0.0311    0.0227
          53    0.0005    0.0015   -0.0036    0.0054   -0.0007    0.0094   -0.0003    0.0119
          54    0.0006   -0.0050    0.0109   -0.0164    0.0032   -0.0246    0.0006   -0.0334
          55   -0.0129   -0.0802    0.1271    0.0937    0.0102    0.0217   -0.0646   -0.0136
          56    0.0039    0.0542   -0.1240   -0.0948   -0.0121   -0.0262    0.0933    0.0266
          57   -0.0058   -0.0583    0.0741    0.0539    0.0044    0.0089   -0.0268   -0.0068
          58    0.0260    0.0359    0.1100    0.0869    0.0124    0.0264   -0.0912   -0.0248
          59    0.0088    0.0082    0.0570    0.0462    0.0080    0.0179   -0.0701   -0.0222
          60    0.0271    0.0360    0.1204    0.0955    0.0144    0.0314   -0.1079   -0.0280


   Root No.      41        42        43        44        45        46        47        48

                41 A      42 A      43 A      44 A      45 A      46 A      47 A      48 A   

                1808.9    1861.2    1907.3    1987.6    2929.6    2949.4    3006.9    3047.3
  
           1   -0.0034   -0.0232    0.0029   -0.0360    0.0001   -0.0291   -0.0000   -0.0012
           2   -0.0020    0.0291    0.0109    0.0089    0.0001   -0.0478    0.0000   -0.0018
           3    0.0046   -0.0088   -0.0147   -0.0119    0.0001   -0.0441    0.0000   -0.0018
           4   -0.0055    0.0009   -0.0098    0.0111   -0.0001   -0.0000   -0.0344    0.0000
           5   -0.0104    0.0007   -0.0015   -0.0001   -0.0572   -0.0004   -0.0064    0.0000
           6    0.0287   -0.0016    0.0043    0.0003   -0.0207   -0.0002    0.0178    0.0000
           7    0.0266    0.0025   -0.0836    0.1783    0.0000   -0.0007    0.0007    0.0001
           8    0.0029    0.0011   -0.0120    0.0447   -0.0002    0.0001    0.0001   -0.0002
           9   -0.0079   -0.0004    0.0339   -0.1258   -0.0001   -0.0005   -0.0002   -0.0000
          10   -0.0748   -0.0216    0.1899    0.1026   -0.0000    0.0015   -0.0003    0.0001
          11    0.0046    0.0015   -0.0139   -0.0175    0.0002   -0.0008   -0.0000   -0.0001
          12   -0.0113   -0.0026    0.0352    0.0469    0.0000    0.0009    0.0000    0.0001
          13    0.0640    0.0123   -0.1072   -0.0736    0.0000   -0.0010    0.0001    0.0000
          14   -0.0011    0.0013    0.0008   -0.0054   -0.0000    0.0001   -0.0000   -0.0002
          15    0.0019   -0.0013    0.0005    0.0167    0.0000   -0.0010    0.0000    0.0000
          16   -0.0245   -0.0022    0.0743   -0.1499   -0.0000    0.0001   -0.0007    0.0000
          17   -0.0020   -0.0002    0.0110   -0.0263   -0.0001   -0.0001    0.0008    0.0000
          18    0.0058    0.0007   -0.0308    0.0738   -0.0000   -0.0000   -0.0023   -0.0001
          19    0.0063    0.1616    0.0161    0.0044    0.0000    0.0010    0.0000   -0.0284
          20   -0.0018   -0.0768   -0.0101   -0.0039   -0.0000    0.0022    0.0000   -0.0467
          21    0.0043    0.1218    0.0132    0.0028   -0.0000    0.0016    0.0000   -0.0420
          22    0.1498   -0.0107    0.0431   -0.0002   -0.0000   -0.0000    0.0044    0.0004
          23    0.0434   -0.0030    0.0113    0.0004   -0.0000    0.0000   -0.0010   -0.0001
          24   -0.1216    0.0084   -0.0318   -0.0011   -0.0000    0.0000    0.0028    0.0002
          25   -0.1436    0.0193   -0.1077   -0.0328    0.0000   -0.0002    0.0002   -0.0000
          26   -0.0293    0.0007    0.0021    0.0054   -0.0003   -0.0000    0.0001    0.0000
          27    0.0827   -0.0023   -0.0038   -0.0144   -0.0001   -0.0001   -0.0002   -0.0001
          28   -0.0060   -0.1393   -0.0127   -0.0018   -0.0000   -0.0001   -0.0000    0.0011
          29    0.0015    0.0369    0.0035   -0.0000   -0.0000   -0.0006    0.0000    0.0048
          30   -0.0048   -0.1152   -0.0108   -0.0015   -0.0000   -0.0003   -0.0000    0.0026
          31    0.0044    0.0304   -0.0035   -0.0102   -0.0014    0.3505   -0.0002    0.0103
          32    0.0058   -0.0229   -0.0166   -0.0135   -0.0021    0.5824   -0.0003    0.0248
          33   -0.0046    0.0173    0.0082   -0.0083   -0.0020    0.5384   -0.0003    0.0185
          34    0.0018    0.0002   -0.0085    0.0150   -0.2492   -0.0012    0.2064   -0.0000
          35   -0.0056    0.0007   -0.0033   -0.0011    0.2983    0.0015   -0.3030    0.0000
          36    0.0239   -0.0015    0.0007    0.0124    0.2549    0.0014   -0.2312    0.0000
          37    0.0018    0.0006   -0.0084    0.0149    0.2502    0.0016    0.2063   -0.0001
          38   -0.0109    0.0003    0.0021   -0.0071    0.3930    0.0028    0.3798   -0.0001
          39    0.0217   -0.0015    0.0025    0.0102   -0.0043   -0.0001    0.0168    0.0000
          40    0.0305    0.0088   -0.0621   -0.0635    0.0000    0.0004    0.0005   -0.0001
          41    0.0174    0.0037   -0.0288   -0.0239   -0.0000   -0.0008    0.0002   -0.0001
          42   -0.0491   -0.0094    0.0806    0.0696   -0.0000   -0.0006   -0.0005    0.0001
          43    0.0002   -0.0001    0.0000   -0.0037    0.0001   -0.0161   -0.0001    0.2913
          44    0.0047    0.1199    0.0121    0.0037    0.0001   -0.0228   -0.0003    0.5718
          45    0.0021    0.0416    0.0022   -0.0013    0.0001   -0.0226   -0.0002    0.4629
          46    0.0628   -0.0057    0.0251    0.0042    0.0001    0.0001   -0.0521   -0.0050
          47   -0.0345    0.0019   -0.0056    0.0042   -0.0016    0.0000    0.0084    0.0009
          48    0.0945   -0.0047    0.0149   -0.0119   -0.0005    0.0000   -0.0224   -0.0025
          49   -0.0026    0.0021   -0.0281    0.0226    0.0000   -0.0001   -0.0030    0.0000
          50   -0.0037   -0.0006    0.0167   -0.0416   -0.0013    0.0008   -0.0085   -0.0003
          51    0.0104    0.0009   -0.0468    0.1159   -0.0006   -0.0007    0.0237    0.0008
          52    0.0327   -0.0052    0.0270   -0.0029   -0.0000   -0.0000    0.0006    0.0000
          53   -0.0404    0.0015   -0.0002    0.0063   -0.0007    0.0001    0.0004   -0.0003
          54    0.1113   -0.0038   -0.0004   -0.0176   -0.0004   -0.0003   -0.0010    0.0010
          55    0.0006   -0.0039   -0.0016    0.0000    0.0000    0.0038   -0.0000    0.0045
          56   -0.0057   -0.1360   -0.0127   -0.0025    0.0000    0.0029    0.0000    0.0043
          57   -0.0024   -0.0504   -0.0042   -0.0015    0.0000    0.0045   -0.0000    0.0057
          58   -0.0008   -0.0223   -0.0019   -0.0003    0.0000    0.0011    0.0001    0.0316
          59    0.0057    0.1349    0.0126    0.0011   -0.0000   -0.0018   -0.0001   -0.0750
          60    0.0020    0.0258    0.0005    0.0009    0.0000    0.0004    0.0000    0.0032


   Root No.      49        50        51        52        53        54

                49 A      50 A      51 A      52 A      53 A      54 A   

                3047.8    3081.5    3088.0    3133.8    3146.7    3216.1
  
           1    0.0000   -0.0000    0.0004   -0.0002   -0.0005   -0.0008
           2    0.0000    0.0000   -0.0000    0.0005   -0.0001    0.0002
           3   -0.0000   -0.0000   -0.0000    0.0000   -0.0005   -0.0005
           4   -0.0035   -0.0013    0.0022    0.0000   -0.0000    0.0001
           5   -0.0005   -0.0003    0.0005    0.0000   -0.0000    0.0000
           6    0.0015    0.0007   -0.0014   -0.0000    0.0000   -0.0001
           7   -0.0000   -0.0000   -0.0062    0.0000    0.0001    0.0022
           8    0.0000   -0.0002   -0.0011    0.0000   -0.0000    0.0009
           9   -0.0000    0.0005    0.0032   -0.0000    0.0000   -0.0024
          10    0.0005    0.0018   -0.0008    0.0000    0.0000    0.0084
          11    0.0000   -0.0002   -0.0001   -0.0000   -0.0000   -0.0005
          12   -0.0001    0.0004    0.0003    0.0000    0.0000    0.0013
          13   -0.0001   -0.0003    0.0002    0.0000   -0.0000   -0.0610
          14   -0.0000    0.0000    0.0000    0.0000   -0.0000   -0.0178
          15    0.0000   -0.0001   -0.0000   -0.0000    0.0001    0.0525
          16    0.0002    0.0004    0.0066    0.0000   -0.0000   -0.0006
          17    0.0004    0.0015    0.0231    0.0000   -0.0000   -0.0002
          18   -0.0010   -0.0042   -0.0641   -0.0000    0.0001    0.0005
          19   -0.0002   -0.0000    0.0000    0.0027   -0.0069   -0.0001
          20   -0.0003   -0.0000    0.0000   -0.0021   -0.0027    0.0000
          21   -0.0002   -0.0000    0.0001    0.0018   -0.0073    0.0000
          22   -0.0491   -0.0187    0.0032    0.0000   -0.0000   -0.0003
          23    0.0080    0.0016   -0.0005   -0.0000    0.0000   -0.0001
          24   -0.0214   -0.0041    0.0013    0.0000   -0.0000    0.0002
          25    0.0025    0.0039   -0.0004   -0.0000   -0.0000   -0.0002
          26   -0.0049    0.0197   -0.0016   -0.0000    0.0000    0.0001
          27    0.0136   -0.0545    0.0045    0.0000   -0.0000   -0.0004
          28   -0.0000   -0.0000    0.0001   -0.0208    0.0339   -0.0000
          29    0.0000   -0.0000   -0.0000   -0.0541   -0.0431   -0.0000
          30    0.0000   -0.0000    0.0000   -0.0377    0.0163   -0.0000
          31    0.0000    0.0001    0.0006   -0.0033    0.0016   -0.0012
          32    0.0000    0.0001    0.0005   -0.0015    0.0039   -0.0006
          33    0.0001    0.0001    0.0005   -0.0036    0.0029   -0.0007
          34    0.0192    0.0053   -0.0142    0.0000    0.0001   -0.0003
          35   -0.0285   -0.0079    0.0185   -0.0000   -0.0001    0.0004
          36   -0.0256   -0.0072    0.0113   -0.0000   -0.0001    0.0003
          37    0.0191    0.0054   -0.0141   -0.0000    0.0001   -0.0003
          38    0.0380    0.0108   -0.0212   -0.0000    0.0002   -0.0005
          39   -0.0014   -0.0004   -0.0032    0.0000   -0.0000   -0.0000
          40   -0.0001   -0.0006    0.0017   -0.0003    0.0001    0.6268
          41   -0.0001   -0.0002    0.0006   -0.0001   -0.0000    0.2062
          42    0.0002    0.0004   -0.0015    0.0004   -0.0002   -0.6077
          43    0.0017    0.0001   -0.0003    0.0083    0.0257    0.0001
          44    0.0034    0.0003   -0.0007    0.0086    0.0453    0.0002
          45    0.0027    0.0002   -0.0006    0.0106    0.0390    0.0001
          46    0.5533    0.1681   -0.0281   -0.0002    0.0003    0.0002
          47   -0.1033   -0.0297    0.0050    0.0000   -0.0001   -0.0000
          48    0.2775    0.0802   -0.0135   -0.0001    0.0002    0.0000
          49   -0.0001   -0.0004   -0.0074   -0.0000    0.0000   -0.0001
          50   -0.0057   -0.0177   -0.2616   -0.0002    0.0003    0.0005
          51    0.0158    0.0491    0.7256    0.0006   -0.0008   -0.0013
          52   -0.0010   -0.0084    0.0008    0.0000   -0.0000   -0.0003
          53    0.0645   -0.2203    0.0175    0.0001   -0.0001   -0.0001
          54   -0.1781    0.6084   -0.0482   -0.0004    0.0003    0.0002
          55    0.0001    0.0002   -0.0004    0.2916   -0.0550    0.0003
          56    0.0001    0.0003   -0.0007    0.5162   -0.1273    0.0005
          57    0.0001    0.0002   -0.0005    0.4456   -0.0943    0.0004
          58    0.0003    0.0001   -0.0004   -0.0783   -0.2891    0.0001
          59   -0.0006   -0.0002    0.0009    0.1393    0.6260   -0.0002
          60    0.0000    0.0000   -0.0001   -0.0240   -0.0502   -0.0001


           MASS-WEIGHTED COORDINATE ANALYSIS (NORMAL COORDINATES)


   Root No.       1         2         3         4         5         6         7         8

                 1 A       2 A       3 A       4 A       5 A       6 A       7 A       8 A   

                  32.4     107.0     142.5     228.3     284.1     334.1     391.3     448.9
  
           1   -0.1097   -0.0294   -0.0698   -0.0233    0.0127    0.0387   -0.1178    0.2277
           2   -0.0828   -0.1785   -0.1148    0.0020   -0.1764    0.3256   -0.0657   -0.0976
           3    0.1899   -0.1377    0.0712    0.1000   -0.0294    0.1440    0.0609   -0.1881
           4   -0.1085   -0.0300   -0.0886   -0.0767   -0.0864   -0.0285    0.0938    0.0085
           5    0.0939   -0.0390    0.4104   -0.1834    0.0466    0.0352   -0.0268    0.0445
           6   -0.1032   -0.0260    0.0817   -0.1407   -0.0786   -0.0456    0.0466   -0.1576
           7   -0.1078   -0.0281   -0.0783   -0.0485   -0.0293    0.0027   -0.0300    0.1238
           8   -0.0257   -0.1996   -0.3266   -0.0433    0.2279    0.2238    0.0897    0.1000
           9    0.0731   -0.1188   -0.0484    0.0905    0.1942    0.1899    0.1157    0.2897
          10    0.0156   -0.0523   -0.0272   -0.0225   -0.0575   -0.0182    0.1120   -0.1446
          11   -0.0515   -0.0899   -0.1530   -0.2964    0.3394   -0.1092   -0.0150    0.1206
          12    0.0659   -0.0807    0.0129   -0.0023    0.2280    0.0676    0.0668    0.2974
          13    0.0204   -0.0540   -0.0249   -0.0266   -0.0731   -0.0327    0.1030   -0.1801
          14   -0.0987   -0.2683    0.1600   -0.1072   -0.3081   -0.3012   -0.1412    0.2151
          15    0.1685   -0.1645    0.1669    0.0707   -0.0548   -0.0633    0.0802   -0.0148
          16   -0.1704   -0.0193   -0.1215   -0.1110   -0.1130   -0.0575    0.0234   -0.0341
          17    0.0449   -0.2290   -0.0894    0.4201    0.0968   -0.3319   -0.1082   -0.0413
          18   -0.0024   -0.1147   -0.0294    0.1656    0.0306   -0.0924    0.1158    0.0174
          19   -0.1296    0.1550    0.2981    0.2017    0.2299    0.0464   -0.2922    0.0957
          20   -0.0888   -0.0570    0.0352    0.0764   -0.0945    0.3404   -0.1379   -0.2028
          21    0.2226    0.1362   -0.2052   -0.1796   -0.1278    0.0212   -0.3268   -0.0848
          22    0.0174   -0.0512   -0.0248   -0.0120   -0.0535    0.0032    0.2136   -0.1040
          23    0.0548    0.3817    0.0555    0.2033   -0.2805    0.2079    0.0542    0.2399
          24   -0.1110    0.1254   -0.0431    0.0041   -0.1925    0.0200    0.0707   -0.0857
          25    0.0783   -0.0614    0.0109    0.0332    0.0002    0.0399    0.1908   -0.0105
          26   -0.0134    0.2981   -0.1932   -0.0370    0.2363   -0.1684   -0.0995   -0.2937
          27   -0.0325    0.0784   -0.0690    0.0009    0.0914   -0.0409   -0.0194   -0.0760
          28    0.4563    0.1502    0.1089    0.0659    0.1283    0.0079   -0.3064    0.0301
          29    0.1379    0.3005    0.0666   -0.0570    0.0128   -0.1406    0.4177    0.0097
          30   -0.4131    0.2505    0.0333   -0.0569    0.0363   -0.0894   -0.1764    0.0780
          31   -0.0392   -0.0343   -0.0860   -0.0152    0.0506    0.0306    0.0009    0.1583
          32   -0.0254   -0.0070   -0.0487   -0.0016   -0.0387    0.1362   -0.0578   -0.0504
          33    0.0614   -0.0685    0.0815    0.0349   -0.0497   -0.0228    0.0391   -0.0874
          34   -0.0332   -0.0086    0.1202   -0.2358   -0.0078    0.0638    0.0159   -0.0672
          35    0.0404   -0.0680    0.2598   -0.2378    0.0837    0.0291   -0.0220   -0.0887
          36   -0.0473    0.0599   -0.0021   -0.0302   -0.0886    0.0349    0.0187    0.0042
          37   -0.0455   -0.0062   -0.1803    0.1810   -0.0506   -0.0884    0.0222    0.0680
          38    0.0360   -0.0131    0.2161   -0.1820    0.0303    0.0606   -0.0049   -0.0305
          39   -0.0350   -0.0910    0.1191   -0.1842    0.0597   -0.0515   -0.0310   -0.1594
          40    0.0248   -0.0196    0.0003   -0.0067   -0.0346   -0.0212    0.0544   -0.1306
          41   -0.0402   -0.1037    0.1448   -0.0071   -0.2577   -0.2542   -0.1162    0.1232
          42    0.0643   -0.0605    0.0895    0.0296   -0.0870   -0.0870    0.0235   -0.0643
          43   -0.1814    0.0931    0.2251    0.1621    0.1850    0.0164   -0.0169   -0.0276
          44   -0.0812   -0.0736    0.0412    0.0735   -0.0135    0.1665   -0.0289   -0.1104
          45    0.2235    0.0798   -0.1849   -0.1813   -0.1278   -0.0832   -0.1448    0.0769
          46    0.0176   -0.0165   -0.0000    0.0056   -0.0083    0.0079    0.0663   -0.0231
          47    0.0252    0.2165    0.0106    0.1740   -0.2441    0.1574    0.0522    0.1238
          48   -0.0541    0.0792   -0.0291    0.0259   -0.1305    0.0283    0.0253   -0.0168
          49   -0.0766   -0.0014   -0.0536   -0.0586   -0.0665   -0.0442    0.0082   -0.0906
[...]
 TRAVEL      0.1302         C  9 -- H 18          +7.4% ( 34.7%)      0.0%
 RED. MASS   0.2455         C  3 -- C  5          +6.1% ( 31.6%)     96.7%
 EFF. MASS   3.3328

 VIBRATION   34   34A         ATOM PAIR      ENERGY CONTRIBUTION    RADIAL
 FREQ.      1209.17         C  1 -- C  7         +15.7% ( 56.0%)     44.1%
 T-DIPOLE    0.1207         C  7 -- C 10         +14.7% ( 54.3%)      2.1%
 TRAVEL      0.0920         C  7 -- H 15         +13.5% ( 51.9%)     17.5%
 RED. MASS   0.8688         C  1 -- H 11         +10.9% ( 46.7%)     11.8%
 EFF. MASS   6.5892

 VIBRATION   35   35A         ATOM PAIR      ENERGY CONTRIBUTION    RADIAL
 FREQ.      1306.22         C 10 -- H 19         +12.4% ( 43.2%)      0.0%
 T-DIPOLE    0.1071         C 10 -- H 20          +9.5% ( 37.8%)      0.5%
 TRAVEL      0.1141         C  1 -- C  7          +7.0% ( 32.5%)     97.4%
 RED. MASS   0.3001         C  1 -- C  5          +6.5% ( 31.3%)     68.4%
 EFF. MASS   3.9673

 VIBRATION   36   36A         ATOM PAIR      ENERGY CONTRIBUTION    RADIAL
 FREQ.      1315.06         C  9 -- H 18          +8.2% ( 36.7%)      4.3%
 T-DIPOLE    0.0499         C  3 -- C  5          +7.0% ( 34.0%)     95.6%
 TRAVEL      0.1016         C  8 -- H 16          +6.9% ( 33.8%)      0.5%
 RED. MASS   0.3507         C 10 -- H 19          +6.6% ( 33.1%)      0.3%
 EFF. MASS   4.9666

 VIBRATION   37   37A         ATOM PAIR      ENERGY CONTRIBUTION    RADIAL
 FREQ.      1367.91         C  2 -- H 12         +22.3% ( 57.0%)      6.5%
 T-DIPOLE    0.0962         C  2 -- H 13         +22.3% ( 57.0%)      6.5%
 TRAVEL      0.1048         C  2 -- C  8         +12.7% ( 43.0%)     62.4%
 RED. MASS   0.6772         C  2 -- C  6         +12.6% ( 43.0%)     41.6%
 EFF. MASS   4.4912

 VIBRATION   38   38A         ATOM PAIR      ENERGY CONTRIBUTION    RADIAL
 FREQ.      1373.44         C  2 -- C  6         +12.0% ( 55.3%)     77.0%
 T-DIPOLE    0.0509         C  2 -- H 12         +11.4% ( 53.9%)      0.2%
 TRAVEL      0.0715         C  2 -- H 13         +11.4% ( 53.9%)      0.2%
 RED. MASS   2.0705         C  2 -- C  8         +11.2% ( 53.4%)     58.9%
 EFF. MASS   9.6056         C  3 -- C  4         +10.7% ( 52.3%)     96.2%

 VIBRATION   39   39A         ATOM PAIR      ENERGY CONTRIBUTION    RADIAL
 FREQ.      1404.51         C  1 -- C  7         +18.3% ( 71.4%)     96.9%
 T-DIPOLE    0.3142         C  1 -- H 11         +13.7% ( 61.8%)      0.0%
 TRAVEL      0.0717         C  1 -- C  3         +12.6% ( 59.2%)     34.8%
 RED. MASS   2.4403         C  1 -- C  5         +12.3% ( 58.5%)     44.7%
 EFF. MASS   9.3410         C  1 -- C  4         +11.3% ( 55.9%)     71.2%

 VIBRATION   40   40A         ATOM PAIR      ENERGY CONTRIBUTION    RADIAL
 FREQ.      1442.69         C  4 -- C  5         +11.1% ( 55.4%)     40.9%
 T-DIPOLE    0.2329         C  4 -- C  9         +10.2% ( 53.2%)     44.8%
 TRAVEL      0.0640         C  3 -- C  4         +10.0% ( 52.7%)     99.6%
 RED. MASS   1.7001         C  2 -- C  6          +8.7% ( 49.2%)     96.4%
 EFF. MASS  11.4243

 VIBRATION   41   41A         ATOM PAIR      ENERGY CONTRIBUTION    RADIAL
 FREQ.      1808.95         C  8 -- C  9         +37.0% ( 92.3%)     99.5%
 T-DIPOLE    0.5421         C  2 -- C  8         +14.0% ( 56.7%)     56.1%
 TRAVEL      0.0560         C  8 -- H 16         +12.9% ( 54.5%)      4.4%
 RED. MASS   4.1867         C  4 -- C  9         +10.2% ( 48.4%)      0.5%
 EFF. MASS  11.8983

 VIBRATION   42   42A         ATOM PAIR      ENERGY CONTRIBUTION    RADIAL
 FREQ.      1861.15         C  7 -- C 10         +44.2% ( 98.5%)     98.8%
 T-DIPOLE    0.0849         C  1 -- C  7         +16.6% ( 60.4%)     55.1%
 TRAVEL      0.0554         C  7 -- H 15         +15.2% ( 57.7%)      3.9%
 RED. MASS   5.1493         C 10 -- H 19         +10.6% ( 48.3%)     10.9%
 EFF. MASS  11.8041         C 10 -- H 20         +10.4% ( 47.9%)     12.9%

 VIBRATION   43   43A         ATOM PAIR      ENERGY CONTRIBUTION    RADIAL
 FREQ.      1907.35         C  4 -- C  5         +21.4% ( 76.6%)     97.0%
 T-DIPOLE    0.4229         C  4 -- C  9         +18.1% ( 70.4%)     85.3%
 TRAVEL      0.0544         C  3 -- C  4         +14.4% ( 63.0%)      0.0%
 RED. MASS   3.2697         C  1 -- C  4         +12.0% ( 57.4%)     77.7%
 EFF. MASS  11.9518

 VIBRATION   44   44A         ATOM PAIR      ENERGY CONTRIBUTION    RADIAL
 FREQ.      1987.55         C  3 -- C  6         +28.6% ( 86.7%)    100.0%
 T-DIPOLE    0.5555         C  3 -- C  4         +15.8% ( 64.4%)     86.7%
 TRAVEL      0.0533         C  3 -- C  5         +14.1% ( 60.9%)     91.2%
 RED. MASS   4.0074         C  1 -- C  3         +12.8% ( 58.0%)     76.4%
 EFF. MASS  11.9260

 VIBRATION   45   45A         ATOM PAIR      ENERGY CONTRIBUTION    RADIAL
 FREQ.      2929.59         C  2 -- H 13         +49.0% ( 72.6%)     96.6%
 T-DIPOLE    0.0510         C  2 -- H 12         +48.8% ( 72.5%)     96.5%
 TRAVEL      0.1224         C  2 -- C  8          +1.1% ( 10.8%)      0.0%
 RED. MASS   0.5177         C  2 -- C  6          +1.1% ( 10.8%)      0.0%
 EFF. MASS   1.5355

 VIBRATION   46   46A         ATOM PAIR      ENERGY CONTRIBUTION    RADIAL
 FREQ.      2949.39         C  1 -- H 11         +95.6% ( 99.9%)    100.0%
 T-DIPOLE    0.1008         C  1 -- C  7          +1.1% ( 10.6%)     14.6%
 TRAVEL      0.1258         C  1 -- C  4          +1.1% ( 10.5%)     31.9%
 RED. MASS   0.9265         C  1 -- C  3          +1.0% ( 10.4%)     16.2%
 EFF. MASS   1.4444

 VIBRATION   47   47A         ATOM PAIR      ENERGY CONTRIBUTION    RADIAL
 FREQ.      3006.90         C  2 -- H 12         +48.9% ( 68.9%)     97.8%
 T-DIPOLE    0.1348         C  2 -- H 13         +48.7% ( 68.8%)     97.7%
 TRAVEL      0.1324         C  8 -- H 16          +1.0% (  9.7%)    100.0%
 RED. MASS   0.4737         C  2 -- C  8          +0.7% (  8.0%)     17.8%
 EFF. MASS   1.2796

 VIBRATION   48   48A         ATOM PAIR      ENERGY CONTRIBUTION    RADIAL
 FREQ.      3047.31         C  7 -- H 15         +96.1% ( 99.4%)    100.0%
 T-DIPOLE    0.2662         C  7 -- C 10          +1.4% ( 12.1%)     30.5%
 TRAVEL      0.1213         C  1 -- C  7          +1.3% ( 11.7%)     14.7%
 RED. MASS   0.9082         C 10 -- H 20          +1.0% ( 10.2%)     95.9%
 EFF. MASS   1.5035

 VIBRATION   49   49A         ATOM PAIR      ENERGY CONTRIBUTION    RADIAL
 FREQ.      3047.78         C  8 -- H 16         +88.5% ( 95.4%)    100.0%
 T-DIPOLE    0.3193         C  9 -- H 18          +8.1% ( 28.8%)     99.7%
 TRAVEL      0.1222         C  8 -- C  9          +1.3% ( 11.4%)     13.8%
 RED. MASS   0.7757         C  2 -- C  8          +1.2% ( 11.3%)     18.5%
 EFF. MASS   1.4827

 VIBRATION   50   50A         ATOM PAIR      ENERGY CONTRIBUTION    RADIAL
 FREQ.      3081.54         C  9 -- H 18         +88.4% ( 95.5%)    100.0%
 T-DIPOLE    0.3482         C  8 -- H 16          +7.5% ( 27.8%)     99.4%
 TRAVEL      0.1182         C  8 -- C  9          +1.8% ( 13.8%)     67.3%
 RED. MASS   0.7837         C  4 -- C  9          +1.4% ( 12.2%)     22.9%
 EFF. MASS   1.5672

 VIBRATION   51   51A         ATOM PAIR      ENERGY CONTRIBUTION    RADIAL
 FREQ.      3088.01         C  6 -- H 17         +95.9% ( 99.5%)    100.0%
 T-DIPOLE    0.3186         C  3 -- C  6          +1.7% ( 13.3%)     47.3%
 TRAVEL      0.1189         C  2 -- C  6          +1.5% ( 12.5%)     18.3%
 RED. MASS   0.9137         C  9 -- H 18          +0.4% (  6.6%)    100.0%
 EFF. MASS   1.5456

 VIBRATION   52   52A         ATOM PAIR      ENERGY CONTRIBUTION    RADIAL
 FREQ.      3133.80         C 10 -- H 19         +92.2% ( 97.7%)     99.9%
 T-DIPOLE    0.2035         C 10 -- H 20          +6.5% ( 25.9%)     70.3%
 TRAVEL      0.1183         C  7 -- C 10          +1.3% ( 11.7%)     22.9%
 RED. MASS   0.8585
 EFF. MASS   1.5368

 VIBRATION   53   53A         ATOM PAIR      ENERGY CONTRIBUTION    RADIAL
 FREQ.      3146.67         C 10 -- H 20         +92.0% ( 96.6%)     99.7%
 T-DIPOLE    0.2722         C 10 -- H 19          +5.5% ( 23.6%)     39.0%
 TRAVEL      0.1208         C  7 -- C 10          +1.6% ( 12.7%)     73.0%
 RED. MASS   0.8224         C  7 -- H 15          +0.9% (  9.4%)     95.2%
 EFF. MASS   1.4682

 VIBRATION   54   54A         ATOM PAIR      ENERGY CONTRIBUTION    RADIAL
 FREQ.      3216.08         C  5 -- H 14         +94.3% ( 99.9%)    100.0%
 T-DIPOLE    0.5863         C  4 -- C  5          +2.0% ( 14.6%)     66.7%
 TRAVEL      0.1146         C  3 -- C  5          +1.8% ( 13.9%)     99.0%
 RED. MASS   0.9303         C  1 -- C  5          +1.8% ( 13.8%)     36.9%
 EFF. MASS   1.5960

      SYMMETRY NUMBER FOR POINT-GROUP C1  =  1


          SYSTEM IS A GROUND STATE



 InChI=1S/C10H10/c1-2-8-7-9-5-3-4-6-10(8)9/h2-3,5-8H,1,4H2


          MOLECULE IS NOT LINEAR

          THERE ARE 54 GENUINE VIBRATIONS IN THIS SYSTEM
          THIS THERMODYNAMICS CALCULATION IS LIMITED TO
          MOLECULES WHICH HAVE NO INTERNAL ROTATIONS




                    CALCULATED THERMODYNAMIC PROPERTIES
                                          *
   TEMP. (K)   PARTITION FUNCTION   H.O.F.    ENTHALPY  HEAT CAPACITY ENTROPY
                                   KCAL/MOL   CAL/MOLE    CAL/K/MOL  CAL/K/MOL


 298.00  VIB.     0.1927D+03                  3692.4556    27.8492    22.8462
         ROT.     0.5810D+06                   888.2813     2.9808    29.3561
         INT.     0.1120D+09                  4580.7369    30.8300    52.2023
         TRA.     0.1436D+28                  1480.4688     4.9680    40.5022
         TOT.                       97.403    6061.2058    35.7980    92.7045

 200.00  VIB.     0.2696D+02                  1530.2980    16.5203    14.1983
         ROT.     0.3195D+06                   596.1620     2.9808    28.1674
         INT.     0.8613D+07                  2126.4599    19.5011    42.3657
         TRA.     0.7896D+27                   993.6033     4.9680    38.5210
         TOT.                       94.462    3120.0632    24.4691    80.8867

 210.00  VIB.     0.3271D+02                  1700.8247    17.5899    15.0301
         ROT.     0.3437D+06                   625.9700     2.9808    28.3128
         INT.     0.1124D+08                  2326.7947    20.5707    43.3429
         TRA.     0.8496D+27                  1043.2834     4.9680    38.7634
         TOT.                       94.712    3370.0781    25.5387    82.1063

 220.00  VIB.     0.3975D+02                  1882.1892    18.6875    15.8736
         ROT.     0.3686D+06                   655.7781     2.9808    28.4515
         INT.     0.1465D+08                  2537.9674    21.6683    44.3251
         TRA.     0.9110D+27                  1092.9636     4.9680    38.9945
         TOT.                       94.972    3630.9309    26.6363    83.3196

 230.00  VIB.     0.4838D+02                  2074.6579    19.8102    16.7289
         ROT.     0.3940D+06                   685.5862     2.9808    28.5840
         INT.     0.1906D+08                  2760.2442    22.7911    45.3130
         TRA.     0.9738D+27                  1142.6437     4.9680    39.2154
         TOT.                       95.244    3902.8879    27.7591    84.5283

 240.00  VIB.     0.5899D+02                  2278.4678    20.9551    17.5962
         ROT.     0.4199D+06                   715.3943     2.9808    28.7109
         INT.     0.2477D+08                  2993.8621    23.9359    46.3071
         TRA.     0.1038D+28                  1192.3239     4.9680    39.4268
         TOT.                       95.528    4186.1860    28.9039    85.7339

 250.00  VIB.     0.7204D+02                  2493.8225    22.1186    18.4751
         ROT.     0.4465D+06                   745.2024     2.9808    28.8326
         INT.     0.3216D+08                  3239.0249    25.0994    47.3077
         TRA.     0.1103D+28                  1242.0041     4.9680    39.6296
         TOT.                       95.823    4481.0290    30.0675    86.9373

 260.00  VIB.     0.8814D+02                  2720.8904    23.2972    19.3656
         ROT.     0.4735D+06                   775.0105     2.9808    28.9495
         INT.     0.4174D+08                  3495.9010    26.2780    48.3150
         TRA.     0.1170D+28                  1291.6842     4.9680    39.8245
         TOT.                       96.129    4787.5852    31.2460    88.1395

 270.00  VIB.     0.1080D+03                  2959.8035    24.4870    20.2671
         ROT.     0.5011D+06                   804.8186     2.9808    29.0620
         INT.     0.5413D+08                  3764.6221    27.4679    49.3290
         TRA.     0.1239D+28                  1341.3644     4.9680    40.0120
         TOT.                       96.448    5105.9865    32.4359    89.3410

 280.00  VIB.     0.1326D+03                  3210.6573    25.6847    21.1792
         ROT.     0.5292D+06                   834.6267     2.9808    29.1704
         INT.     0.7019D+08                  4045.2840    28.6655    50.3496
         TRA.     0.1308D+28                  1391.0445     4.9680    40.1926
         TOT.                       96.778    5436.3286    33.6335    90.5423

 290.00  VIB.     0.1631D+03                  3473.5121    26.8867    22.1015
         ROT.     0.5578D+06                   864.4348     2.9808    29.2750
         INT.     0.9099D+08                  4337.9470    29.8675    51.3765
         TRA.     0.1379D+28                  1440.7247     4.9680    40.3670
         TOT.                       97.120    5778.6717    34.8355    91.7435

 300.00  VIB.     0.2010D+03                  3748.3945    28.0897    23.0333
         ROT.     0.5869D+06                   894.2429     2.9808    29.3760
         INT.     0.1180D+09                  4642.6374    31.0705    52.4093
         TRA.     0.1451D+28                  1490.4049     4.9680    40.5354
         TOT.                       97.475    6133.0423    36.0385    92.9447

 310.00  VIB.     0.2481D+03                  4035.2995    29.2907    23.9739
         ROT.     0.6165D+06                   924.0510     2.9808    29.4738
         INT.     0.1529D+09                  4959.3505    32.2715    53.4477
         TRA.     0.1524D+28                  1540.0850     4.9680    40.6983
         TOT.                       97.841    6499.4355    37.2395    94.1460

 320.00  VIB.     0.3067D+03                  4334.1928    30.4869    24.9228
         ROT.     0.6465D+06                   953.8591     2.9808    29.5684
         INT.     0.1983D+09                  5288.0519    33.4678    54.4912
         TRA.     0.1598D+28                  1589.7652     4.9680    40.8560
         TOT.                       98.219    6877.8171    38.4358    95.3472

 330.00  VIB.     0.3798D+03                  4645.0139    31.6759    25.8791
         ROT.     0.6771D+06                   983.6672     2.9808    29.6601
         INT.     0.2572D+09                  5628.6812    34.6567    55.5393
         TRA.     0.1674D+28                  1639.4454     4.9680    41.0089
         TOT.                       98.610    7268.1265    39.6247    96.5482

 340.00  VIB.     0.4711D+03                  4967.6784    32.8553    26.8423
         ROT.     0.7081D+06                  1013.4753     2.9808    29.7491
         INT.     0.3336D+09                  5981.1537    35.8361    56.5914
         TRA.     0.1750D+28                  1689.1255     4.9680    41.1572
         TOT.                       99.012    7670.2793    40.8041    97.7486

 350.00  VIB.     0.5853D+03                  5302.0809    34.0232    27.8116
         ROT.     0.7396D+06                  1043.2834     2.9808    29.8355
         INT.     0.4329D+09                  6345.3643    37.0040    57.6471
         TRA.     0.1828D+28                  1738.8057     4.9680    41.3012
         TOT.                       99.426    8084.1700    41.9720    98.9483

 360.00  VIB.     0.7283D+03                  5648.0974    35.1778    28.7863
         ROT.     0.7715D+06                  1073.0915     2.9808    29.9195
         INT.     0.5619D+09                  6721.1889    38.1586    58.7057
         TRA.     0.1907D+28                  1788.4859     4.9680    41.4412
         TOT.                       99.851    8509.6748    43.1267   100.1469

 370.00  VIB.     0.9075D+03                  6005.5885    36.3178    29.7657
         ROT.     0.8038D+06                  1102.8996     2.9808    30.0012
         INT.     0.7295D+09                  7108.4881    39.2986    59.7668
         TRA.     0.1987D+28                  1838.1660     4.9680    41.5773
         TOT.                      100.288    8946.6541    44.2667   101.3441

 380.00  VIB.     0.1133D+04                  6374.4009    37.4419    30.7492
         ROT.     0.8366D+06                  1132.7077     2.9808    30.0807
         INT.     0.9475D+09                  7507.1086    40.4227    60.8298
         TRA.     0.2068D+28                  1887.8462     4.9680    41.7098
         TOT.                      100.737    9394.9548    45.3908   102.5396

 390.00  VIB.     0.1415D+04                  6754.3706    38.5491    31.7361
         ROT.     0.8699D+06                  1162.5158     2.9808    30.1581
         INT.     0.1231D+10                  7916.8864    41.5299    61.8942
         TRA.     0.2150D+28                  1937.5263     4.9680    41.8388
         TOT.                      101.196    9854.4127    46.4979   103.7330

 400.00  VIB.     0.1771D+04                  7145.3241    39.6386    32.7258
         ROT.     0.9036D+06                  1192.3239     2.9808    30.2336
         INT.     0.1600D+10                  8337.6480    42.6194    62.9594
         TRA.     0.2233D+28                  1987.2065     4.9680    41.9646
         TOT.                      101.666   10324.8545    47.5874   104.9240

   *: NOTE: HEATS OF FORMATION ARE RELATIVE TO THE
            ELEMENTS IN THEIR STANDARD STATE AT 298K
              (=  Standard Enthalpy of Formation).

            Hvib:  Zero-point energy is not included.
                   frequencies of less than zero cm-1 are not included.
            Hrot = (3/2)RT
            Htra = (3/2)RT + pV = (5/2)RT

            Heat capacity is Cp, not Cv

          For more information, see: HTTP://OpenMOPAC.net/Manual/thermochemistry.html


           FORCE CONSTANT IN CARTESIAN COORDINATES (Millidynes/A)

    ATOM   CHEMICAL       X               Y               Z
   NUMBER   SYMBOL  FORCE CONSTANT  FORCE CONSTANT  FORCE CONSTANT

      1       C        8.431777        8.820270        7.436039
      2       C        8.891826        7.787995        8.689885
      3       C       14.572470        3.308040        9.989214
      4       C       17.336375        3.004663        8.848166
      5       C       14.467132        2.819600        7.759808
      6       C       12.851653        3.403471       10.764350
      7       C        9.947558        9.107784        8.238181
      8       C       13.681411        3.333026        9.523109
      9       C       13.412479        3.361058       10.997896
     10       C        9.665381        8.884239        7.915847
     11       H        1.350221        2.582414        2.237221
     12       H        1.725971        2.532808        1.903396
     13       H        1.729787        3.781579        0.649070
     14       H        3.080986        0.610111        2.894812
     15       H        1.171324        2.998886        2.039277
     16       H        4.153071        0.512202        1.565185
     17       H        0.719628        0.911810        4.673829
     18       H        0.723270        0.908368        4.640824
     19       H        1.271561        2.974015        2.211643
     20       H        1.391326        4.540169        0.541775

 **********************
 *                    *
 * JOB ENDED NORMALLY *
 *                    *
 **********************



 TOTAL JOB TIME:             1.96 SECONDS

 == MOPAC DONE ==
