 *******************************************************************************
 ** Site#: 14399        For non-commercial use only    Version 18.184L 64BITS **
 *******************************************************************************
 ** Cite this program as: MOPAC2016, Version: 18.184L, James J. P. Stewart,   **
 ** Stewart Computational Chemistry, web: HTTP://OpenMOPAC.net. Days left:  18**
 *******************************************************************************
 **                                                                           **
 **                                MOPAC2016                                  **
 **                                                                           **
 *******************************************************************************

                              PM3 CALCULATION RESULTS

 *******************************************************************************
 *  CALCULATION DONE:                                Sat Jun 15 10:09:37 2019  *
 *  PM3        - The PM3 Hamiltonian to be used
 *  NONR       - DO NOT USE NEWTON-RAPHSON STEP IN EF
 *  PRECISE    - CRITERIA TO BE INCREASED BY 100 TIMES
 *  NOSYM      - POINT-GROUP SYMMETRY SET TO C1
 *  THREADS=1  - MULTI-THREADING NOT USED
 *  T=         - A TIME OF 172800.0 SECONDS REQUESTED
 *  DUMP=N     - RESTART FILE WRITTEN EVERY  7200.000 SECONDS
 *  GNORM=     - EXIT WHEN GRADIENT NORM DROPS BELOW   0.00    
 *******************************************************************************
pm3  precise nosym gnorm=0.0 nonr THREADS=1
 InChI=1S/C10H12/c1-2-3-4-7-10-8-5-6-9-10/h2,5-9H,1,3-4H2

   ATOM   CHEMICAL          X               Y               Z
  NUMBER   SYMBOL      (ANGSTROMS)     (ANGSTROMS)     (ANGSTROMS)
 
     1       C          0.64530000  *  -0.36320000  *  -0.27740000  *
     2       C          2.08930000  *   0.13840000  *  -0.17740000  *
     3       C         -1.65670000  *   0.55410000  *  -0.09370000  *
     4       C         -0.33620000  *   0.75410000  *  -0.05400000  *
     5       C          3.07020000  *  -0.98020000  *  -0.40100000  *
     6       C         -2.36400000  *  -0.69840000  *  -0.34380000  *
     7       C         -2.67960000  *   1.57070000  *   0.10950000  *
     8       C         -3.86100000  *   0.98150000  *  -0.00790000  *
     9       C         -3.66310000  *  -0.44100000  *  -0.29210000  *
    10       C          4.38560000  *  -0.75670000  *  -0.35660000  *
    11       H          0.47610000  *  -0.79830000  *  -1.28700000  *
    12       H          0.47640000  *  -1.15280000  *   0.48770000  *
    13       H          2.26030000  *   0.92830000  *  -0.94180000  *
    14       H          2.26060000  *   0.57400000  *   0.83170000  *
    15       H          0.03160000  *   1.75450000  *   0.14580000  *
    16       H          2.71560000  *  -1.98780000  *  -0.60230000  *
    17       H         -1.92680000  *  -1.66920000  *  -0.53780000  *
    18       H         -2.51950000  *   2.62040000  *   0.31920000  *
    19       H         -4.81560000  *   1.48060000  *   0.09190000  *
    20       H         -4.44650000  *  -1.17260000  *  -0.43810000  *
    21       H          5.08140000  *  -1.57330000  *  -0.51990000  *
    22       H          4.77650000  *   0.23690000  *  -0.15820000  *
 


          CARTESIAN COORDINATES 

    NO.       ATOM           X           Y           Z

     1         C          0.6453     -0.3632     -0.2774
     2         C          2.0893      0.1384     -0.1774
     3         C         -1.6567      0.5541     -0.0937
     4         C         -0.3362      0.7541     -0.0540
     5         C          3.0702     -0.9802     -0.4010
     6         C         -2.3640     -0.6984     -0.3438
     7         C         -2.6796      1.5707      0.1095
     8         C         -3.8610      0.9815     -0.0079
     9         C         -3.6631     -0.4410     -0.2921
    10         C          4.3856     -0.7567     -0.3566
    11         H          0.4761     -0.7983     -1.2870
    12         H          0.4764     -1.1528      0.4877
    13         H          2.2603      0.9283     -0.9418
    14         H          2.2606      0.5740      0.8317
    15         H          0.0316      1.7545      0.1458
    16         H          2.7156     -1.9878     -0.6023
    17         H         -1.9268     -1.6692     -0.5378
    18         H         -2.5195      2.6204      0.3192
    19         H         -4.8156      1.4806      0.0919
    20         H         -4.4465     -1.1726     -0.4381
    21         H          5.0814     -1.5733     -0.5199
    22         H          4.7765      0.2369     -0.1582

  H: (PM3): J. J. P. STEWART, J. COMP. CHEM. 10, 209 (1989).
  C: (PM3): J. J. P. STEWART, J. COMP. CHEM. 10, 209 (1989).

           Empirical Formula: C10 H12  =    22 atoms



      MOLECULAR POINT GROUP   :   C1  


      RHF CALCULATION, NO. OF DOUBLY OCCUPIED LEVELS = 26


          Geometry optimization using EF

  GNORM HAS BEEN SET TOO LOW, RESET TO 0.01

  SPECIFY LET AS KEYWORD TO ALLOW GNORM LESS THAN 0.01

          DIAGONAL MATRIX USED AS START HESSIAN

 CYCLE:     1 TIME:   0.008 TIME LEFT:  2.00D  GRAD.:   112.015 HEAT:  65.85070
 CYCLE:     2 TIME:   0.012 TIME LEFT:  2.00D  GRAD.:    50.693 HEAT:  63.82200
 CYCLE:     3 TIME:   0.004 TIME LEFT:  2.00D  GRAD.:    41.032 HEAT:  62.91502
 CYCLE:     4 TIME:   0.008 TIME LEFT:  2.00D  GRAD.:    26.977 HEAT:  62.42481
 CYCLE:     5 TIME:   0.008 TIME LEFT:  2.00D  GRAD.:    36.860 HEAT:  62.26687
 CYCLE:     6 TIME:   0.004 TIME LEFT:  2.00D  GRAD.:    37.458 HEAT:  62.10243
 CYCLE:     7 TIME:   0.004 TIME LEFT:  2.00D  GRAD.:    49.598 HEAT:  62.07570
 CYCLE:     8 TIME:   0.004 TIME LEFT:  2.00D  GRAD.:    37.503 HEAT:  61.85230
 CYCLE:     9 TIME:   0.012 TIME LEFT:  2.00D  GRAD.:    19.849 HEAT:  61.55016
 CYCLE:    10 TIME:   0.008 TIME LEFT:  2.00D  GRAD.:    14.694 HEAT:  61.48147
 CYCLE:    11 TIME:   0.004 TIME LEFT:  2.00D  GRAD.:    11.837 HEAT:  61.44341
 CYCLE:    12 TIME:   0.004 TIME LEFT:  2.00D  GRAD.:    11.571 HEAT:  61.42781
 CYCLE:    13 TIME:   0.004 TIME LEFT:  2.00D  GRAD.:     9.424 HEAT:  61.41344
 CYCLE:    14 TIME:   0.012 TIME LEFT:  2.00D  GRAD.:     4.792 HEAT:  61.39377
 CYCLE:    15 TIME:   0.008 TIME LEFT:  2.00D  GRAD.:     3.208 HEAT:  61.38778
 CYCLE:    16 TIME:   0.004 TIME LEFT:  2.00D  GRAD.:     4.127 HEAT:  61.38649
 CYCLE:    17 TIME:   0.004 TIME LEFT:  2.00D  GRAD.:     2.690 HEAT:  61.38234
 CYCLE:    18 TIME:   0.004 TIME LEFT:  2.00D  GRAD.:     4.460 HEAT:  61.38223
 CYCLE:    19 TIME:   0.004 TIME LEFT:  2.00D  GRAD.:     2.594 HEAT:  61.37618
 CYCLE:    20 TIME:   0.004 TIME LEFT:  2.00D  GRAD.:     3.073 HEAT:  61.37188
 CYCLE:    21 TIME:   0.008 TIME LEFT:  2.00D  GRAD.:     2.382 HEAT:  61.36442
 CYCLE:    22 TIME:   0.004 TIME LEFT:  2.00D  GRAD.:     1.711 HEAT:  61.35854
 CYCLE:    23 TIME:   0.004 TIME LEFT:  2.00D  GRAD.:     3.711 HEAT:  61.35287
 CYCLE:    24 TIME:   0.004 TIME LEFT:  2.00D  GRAD.:     2.407 HEAT:  61.35119
 CYCLE:    25 TIME:   0.008 TIME LEFT:  2.00D  GRAD.:     1.944 HEAT:  61.34888
 CYCLE:    26 TIME:   0.004 TIME LEFT:  2.00D  GRAD.:     1.857 HEAT:  61.34830
 CYCLE:    27 TIME:   0.004 TIME LEFT:  2.00D  GRAD.:     0.908 HEAT:  61.34661
 CYCLE:    28 TIME:   0.004 TIME LEFT:  2.00D  GRAD.:     0.892 HEAT:  61.34566
 CYCLE:    29 TIME:   0.008 TIME LEFT:  2.00D  GRAD.:     1.707 HEAT:  61.34531
 CYCLE:    30 TIME:   0.004 TIME LEFT:  2.00D  GRAD.:     0.771 HEAT:  61.34470
 CYCLE:    31 TIME:   0.004 TIME LEFT:  2.00D  GRAD.:     0.644 HEAT:  61.34436
 CYCLE:    32 TIME:   0.004 TIME LEFT:  2.00D  GRAD.:     0.556 HEAT:  61.34404
 CYCLE:    33 TIME:   0.004 TIME LEFT:  2.00D  GRAD.:     0.588 HEAT:  61.34368
 CYCLE:    34 TIME:   0.008 TIME LEFT:  2.00D  GRAD.:     0.681 HEAT:  61.34346
 CYCLE:    35 TIME:   0.004 TIME LEFT:  2.00D  GRAD.:     0.379 HEAT:  61.34323
 CYCLE:    36 TIME:   0.004 TIME LEFT:  2.00D  GRAD.:     0.479 HEAT:  61.34302
 CYCLE:    37 TIME:   0.004 TIME LEFT:  2.00D  GRAD.:     0.416 HEAT:  61.34274
 CYCLE:    38 TIME:   0.004 TIME LEFT:  2.00D  GRAD.:     0.440 HEAT:  61.34245
 CYCLE:    39 TIME:   0.004 TIME LEFT:  2.00D  GRAD.:     0.504 HEAT:  61.34219
 CYCLE:    40 TIME:   0.008 TIME LEFT:  2.00D  GRAD.:     0.562 HEAT:  61.34174
 CYCLE:    41 TIME:   0.004 TIME LEFT:  2.00D  GRAD.:     0.525 HEAT:  61.34108
 CYCLE:    42 TIME:   0.004 TIME LEFT:  2.00D  GRAD.:     0.771 HEAT:  61.34074
 CYCLE:    43 TIME:   0.004 TIME LEFT:  2.00D  GRAD.:     0.418 HEAT:  61.34003
 CYCLE:    44 TIME:   0.008 TIME LEFT:  2.00D  GRAD.:     0.315 HEAT:  61.33980
 CYCLE:    45 TIME:   0.004 TIME LEFT:  2.00D  GRAD.:     0.257 HEAT:  61.33957
 CYCLE:    46 TIME:   0.004 TIME LEFT:  2.00D  GRAD.:     0.239 HEAT:  61.33924
 CYCLE:    47 TIME:   0.004 TIME LEFT:  2.00D  GRAD.:     0.286 HEAT:  61.33897
 CYCLE:    48 TIME:   0.004 TIME LEFT:  2.00D  GRAD.:     0.263 HEAT:  61.33885
 CYCLE:    49 TIME:   0.008 TIME LEFT:  2.00D  GRAD.:     0.196 HEAT:  61.33865
 CYCLE:    50 TIME:   0.004 TIME LEFT:  2.00D  GRAD.:     0.161 HEAT:  61.33859
 CYCLE:    51 TIME:   0.004 TIME LEFT:  2.00D  GRAD.:     0.137 HEAT:  61.33850
 CYCLE:    52 TIME:   0.004 TIME LEFT:  2.00D  GRAD.:     0.080 HEAT:  61.33847
 CYCLE:    53 TIME:   0.004 TIME LEFT:  2.00D  GRAD.:     0.043 HEAT:  61.33845
 CYCLE:    54 TIME:   0.008 TIME LEFT:  2.00D  GRAD.:     0.045 HEAT:  61.33844
 CYCLE:    55 TIME:   0.004 TIME LEFT:  2.00D  GRAD.:     0.044 HEAT:  61.33843
 CYCLE:    56 TIME:   0.004 TIME LEFT:  2.00D  GRAD.:     0.057 HEAT:  61.33842
 CYCLE:    57 TIME:   0.004 TIME LEFT:  2.00D  GRAD.:     0.048 HEAT:  61.33841
 CYCLE:    58 TIME:   0.004 TIME LEFT:  2.00D  GRAD.:     0.044 HEAT:  61.33841
 CYCLE:    59 TIME:   0.004 TIME LEFT:  2.00D  GRAD.:     0.058 HEAT:  61.33840
 CYCLE:    60 TIME:   0.008 TIME LEFT:  2.00D  GRAD.:     0.050 HEAT:  61.33839
 CYCLE:    61 TIME:   0.004 TIME LEFT:  2.00D  GRAD.:     0.037 HEAT:  61.33838
 CYCLE:    62 TIME:   0.004 TIME LEFT:  2.00D  GRAD.:     0.032 HEAT:  61.33837
 CYCLE:    63 TIME:   0.004 TIME LEFT:  2.00D  GRAD.:     0.026 HEAT:  61.33837
 CYCLE:    64 TIME:   0.004 TIME LEFT:  2.00D  GRAD.:     0.025 HEAT:  61.33836
 CYCLE:    65 TIME:   0.004 TIME LEFT:  2.00D  GRAD.:     0.022 HEAT:  61.33836
 CYCLE:    66 TIME:   0.004 TIME LEFT:  2.00D  GRAD.:     0.022 HEAT:  61.33836
 CYCLE:    67 TIME:   0.008 TIME LEFT:  2.00D  GRAD.:     0.037 HEAT:  61.33834
 CYCLE:    68 TIME:   0.004 TIME LEFT:  2.00D  GRAD.:     0.069 HEAT:  61.33833
 CYCLE:    69 TIME:   0.004 TIME LEFT:  2.00D  GRAD.:     0.080 HEAT:  61.33831
 CYCLE:    70 TIME:   0.004 TIME LEFT:  2.00D  GRAD.:     0.066 HEAT:  61.33824
 CYCLE:    71 TIME:   0.008 TIME LEFT:  2.00D  GRAD.:     0.073 HEAT:  61.33822
 CYCLE:    72 TIME:   0.004 TIME LEFT:  2.00D  GRAD.:     0.098 HEAT:  61.33816
 CYCLE:    73 TIME:   0.004 TIME LEFT:  2.00D  GRAD.:     0.166 HEAT:  61.33792
 CYCLE:    74 TIME:   0.004 TIME LEFT:  2.00D  GRAD.:     0.399 HEAT:  61.33671
 CYCLE:    75 TIME:   0.008 TIME LEFT:  2.00D  GRAD.:     0.541 HEAT:  61.33553
 CYCLE:    76 TIME:   0.004 TIME LEFT:  2.00D  GRAD.:     0.738 HEAT:  61.32258
 CYCLE:    77 TIME:   0.008 TIME LEFT:  2.00D  GRAD.:     4.048 HEAT:  61.30688
 CYCLE:    78 TIME:   0.004 TIME LEFT:  2.00D  GRAD.:    10.863 HEAT:  61.30389
 CYCLE:    79 TIME:   0.004 TIME LEFT:  2.00D  GRAD.:     2.357 HEAT:  61.27279
 CYCLE:    80 TIME:   0.004 TIME LEFT:  2.00D  GRAD.:     2.070 HEAT:  61.26360
 CYCLE:    81 TIME:   0.004 TIME LEFT:  2.00D  GRAD.:     2.103 HEAT:  61.23605
 CYCLE:    82 TIME:   0.012 TIME LEFT:  2.00D  GRAD.:     6.944 HEAT:  61.21224
 CYCLE:    83 TIME:   0.004 TIME LEFT:  2.00D  GRAD.:     7.764 HEAT:  61.19248
 CYCLE:    84 TIME:   0.004 TIME LEFT:  2.00D  GRAD.:     3.947 HEAT:  61.13635
 CYCLE:    85 TIME:   0.008 TIME LEFT:  2.00D  GRAD.:    10.727 HEAT:  61.13184
 CYCLE:    86 TIME:   0.004 TIME LEFT:  2.00D  GRAD.:     4.962 HEAT:  61.10297
 CYCLE:    87 TIME:   0.004 TIME LEFT:  2.00D  GRAD.:     2.361 HEAT:  61.08697
 CYCLE:    88 TIME:   0.004 TIME LEFT:  2.00D  GRAD.:     3.198 HEAT:  61.07768
 CYCLE:    89 TIME:   0.004 TIME LEFT:  2.00D  GRAD.:     5.013 HEAT:  61.06235
 CYCLE:    90 TIME:   0.004 TIME LEFT:  2.00D  GRAD.:     5.409 HEAT:  61.03317
 CYCLE:    91 TIME:   0.008 TIME LEFT:  2.00D  GRAD.:     3.315 HEAT:  61.01456
 CYCLE:    92 TIME:   0.004 TIME LEFT:  2.00D  GRAD.:     2.089 HEAT:  60.99870
 CYCLE:    93 TIME:   0.004 TIME LEFT:  2.00D  GRAD.:     3.797 HEAT:  60.96911
 CYCLE:    94 TIME:   0.012 TIME LEFT:  2.00D  GRAD.:     6.045 HEAT:  60.95698
 CYCLE:    95 TIME:   0.008 TIME LEFT:  2.00D  GRAD.:     3.260 HEAT:  60.94613
 CYCLE:    96 TIME:   0.004 TIME LEFT:  2.00D  GRAD.:     2.019 HEAT:  60.93099
 CYCLE:    97 TIME:   0.004 TIME LEFT:  2.00D  GRAD.:     2.162 HEAT:  60.92361
 CYCLE:    98 TIME:   0.008 TIME LEFT:  2.00D  GRAD.:     0.894 HEAT:  60.91757
 CYCLE:    99 TIME:   0.004 TIME LEFT:  2.00D  GRAD.:     0.802 HEAT:  60.91519
 CYCLE:   100 TIME:   0.004 TIME LEFT:  2.00D  GRAD.:     0.754 HEAT:  60.91337
 CYCLE:   101 TIME:   0.004 TIME LEFT:  2.00D  GRAD.:     1.347 HEAT:  60.90810
 CYCLE:   102 TIME:   0.004 TIME LEFT:  2.00D  GRAD.:     1.230 HEAT:  60.90595
 CYCLE:   103 TIME:   0.008 TIME LEFT:  2.00D  GRAD.:     1.076 HEAT:  60.90444
 CYCLE:   104 TIME:   0.004 TIME LEFT:  2.00D  GRAD.:     1.845 HEAT:  60.90109
 CYCLE:   105 TIME:   0.004 TIME LEFT:  2.00D  GRAD.:     0.899 HEAT:  60.89829
 CYCLE:   106 TIME:   0.004 TIME LEFT:  2.00D  GRAD.:     0.958 HEAT:  60.89665
 CYCLE:   107 TIME:   0.008 TIME LEFT:  2.00D  GRAD.:     0.993 HEAT:  60.89569
 CYCLE:   108 TIME:   0.004 TIME LEFT:  2.00D  GRAD.:     1.279 HEAT:  60.89258
 CYCLE:   109 TIME:   0.004 TIME LEFT:  2.00D  GRAD.:     2.026 HEAT:  60.88613
 CYCLE:   110 TIME:   0.004 TIME LEFT:  2.00D  GRAD.:     2.499 HEAT:  60.87962
 CYCLE:   111 TIME:   0.004 TIME LEFT:  2.00D  GRAD.:     2.143 HEAT:  60.87402
 CYCLE:   112 TIME:   0.008 TIME LEFT:  2.00D  GRAD.:     1.206 HEAT:  60.86360
 CYCLE:   113 TIME:   0.004 TIME LEFT:  2.00D  GRAD.:     2.241 HEAT:  60.85875
 CYCLE:   114 TIME:   0.004 TIME LEFT:  2.00D  GRAD.:     1.147 HEAT:  60.85641
 CYCLE:   115 TIME:   0.004 TIME LEFT:  2.00D  GRAD.:     0.850 HEAT:  60.85461
 CYCLE:   116 TIME:   0.008 TIME LEFT:  2.00D  GRAD.:     1.493 HEAT:  60.85133
 CYCLE:   117 TIME:   0.004 TIME LEFT:  2.00D  GRAD.:     0.817 HEAT:  60.85029
 CYCLE:   118 TIME:   0.004 TIME LEFT:  2.00D  GRAD.:     0.323 HEAT:  60.84972
 CYCLE:   119 TIME:   0.004 TIME LEFT:  2.00D  GRAD.:     0.412 HEAT:  60.84925
 CYCLE:   120 TIME:   0.004 TIME LEFT:  2.00D  GRAD.:     0.444 HEAT:  60.84889
 CYCLE:   121 TIME:   0.008 TIME LEFT:  2.00D  GRAD.:     0.384 HEAT:  60.84843
 CYCLE:   122 TIME:   0.004 TIME LEFT:  2.00D  GRAD.:     0.348 HEAT:  60.84817
 CYCLE:   123 TIME:   0.004 TIME LEFT:  2.00D  GRAD.:     0.330 HEAT:  60.84785
 CYCLE:   124 TIME:   0.004 TIME LEFT:  2.00D  GRAD.:     0.314 HEAT:  60.84761
 CYCLE:   125 TIME:   0.008 TIME LEFT:  2.00D  GRAD.:     0.336 HEAT:  60.84737
 CYCLE:   126 TIME:   0.004 TIME LEFT:  2.00D  GRAD.:     0.339 HEAT:  60.84718
 CYCLE:   127 TIME:   0.004 TIME LEFT:  2.00D  GRAD.:     0.466 HEAT:  60.84682
 CYCLE:   128 TIME:   0.004 TIME LEFT:  2.00D  GRAD.:     0.486 HEAT:  60.84648
 CYCLE:   129 TIME:   0.004 TIME LEFT:  2.00D  GRAD.:     0.510 HEAT:  60.84584
 CYCLE:   130 TIME:   0.004 TIME LEFT:  2.00D  GRAD.:     0.635 HEAT:  60.84425
 CYCLE:   131 TIME:   0.008 TIME LEFT:  2.00D  GRAD.:     0.925 HEAT:  60.84260
 CYCLE:   132 TIME:   0.004 TIME LEFT:  2.00D  GRAD.:     1.057 HEAT:  60.84128
 CYCLE:   133 TIME:   0.004 TIME LEFT:  2.00D  GRAD.:     1.146 HEAT:  60.83897
 CYCLE:   134 TIME:   0.008 TIME LEFT:  2.00D  GRAD.:     3.694 HEAT:  60.83761
 CYCLE:   135 TIME:   0.004 TIME LEFT:  2.00D  GRAD.:     2.790 HEAT:  60.83187
 CYCLE:   136 TIME:   0.004 TIME LEFT:  2.00D  GRAD.:     1.748 HEAT:  60.82770
 CYCLE:   137 TIME:   0.004 TIME LEFT:  2.00D  GRAD.:     1.242 HEAT:  60.82297
 CYCLE:   138 TIME:   0.004 TIME LEFT:  2.00D  GRAD.:     5.333 HEAT:  60.81528
 CYCLE:   139 TIME:   0.008 TIME LEFT:  2.00D  GRAD.:     1.318 HEAT:  60.80840
 CYCLE:   140 TIME:   0.004 TIME LEFT:  2.00D  GRAD.:     1.561 HEAT:  60.80257
 CYCLE:   141 TIME:   0.004 TIME LEFT:  2.00D  GRAD.:     3.709 HEAT:  60.79670
 CYCLE:   142 TIME:   0.008 TIME LEFT:  2.00D  GRAD.:     1.994 HEAT:  60.79148
 CYCLE:   143 TIME:   0.004 TIME LEFT:  2.00D  GRAD.:     1.430 HEAT:  60.78793
 CYCLE:   144 TIME:   0.004 TIME LEFT:  2.00D  GRAD.:     2.804 HEAT:  60.78318
 CYCLE:   145 TIME:   0.004 TIME LEFT:  2.00D  GRAD.:     2.065 HEAT:  60.78259
 CYCLE:   146 TIME:   0.004 TIME LEFT:  2.00D  GRAD.:     1.437 HEAT:  60.77821
 CYCLE:   147 TIME:   0.004 TIME LEFT:  2.00D  GRAD.:     1.464 HEAT:  60.77652
 CYCLE:   148 TIME:   0.008 TIME LEFT:  2.00D  GRAD.:     1.348 HEAT:  60.77425
 CYCLE:   149 TIME:   0.004 TIME LEFT:  2.00D  GRAD.:     1.045 HEAT:  60.77097
 CYCLE:   150 TIME:   0.004 TIME LEFT:  2.00D  GRAD.:     5.961 HEAT:  60.77716
 CYCLE:   151 TIME:   0.008 TIME LEFT:  2.00D  GRAD.:     2.390 HEAT:  60.76964
 CYCLE:   152 TIME:   0.004 TIME LEFT:  2.00D  GRAD.:     2.018 HEAT:  60.76638
 CYCLE:   153 TIME:   0.004 TIME LEFT:  2.00D  GRAD.:     1.026 HEAT:  60.76465
 CYCLE:   154 TIME:   0.004 TIME LEFT:  2.00D  GRAD.:     2.344 HEAT:  60.76304
 CYCLE:   155 TIME:   0.004 TIME LEFT:  2.00D  GRAD.:     0.783 HEAT:  60.76181
 CYCLE:   156 TIME:   0.008 TIME LEFT:  2.00D  GRAD.:     0.567 HEAT:  60.76099
 CYCLE:   157 TIME:   0.004 TIME LEFT:  2.00D  GRAD.:     0.472 HEAT:  60.76039
 CYCLE:   158 TIME:   0.004 TIME LEFT:  2.00D  GRAD.:     0.645 HEAT:  60.76003
 CYCLE:   159 TIME:   0.008 TIME LEFT:  2.00D  GRAD.:     0.607 HEAT:  60.75970
 CYCLE:   160 TIME:   0.004 TIME LEFT:  2.00D  GRAD.:     0.306 HEAT:  60.75952
 CYCLE:   161 TIME:   0.004 TIME LEFT:  2.00D  GRAD.:     0.408 HEAT:  60.75927
 CYCLE:   162 TIME:   0.004 TIME LEFT:  2.00D  GRAD.:     0.279 HEAT:  60.75906
 CYCLE:   163 TIME:   0.004 TIME LEFT:  2.00D  GRAD.:     0.278 HEAT:  60.75893
 CYCLE:   164 TIME:   0.008 TIME LEFT:  2.00D  GRAD.:     0.235 HEAT:  60.75884
 CYCLE:   165 TIME:   0.004 TIME LEFT:  2.00D  GRAD.:     0.216 HEAT:  60.75870
 CYCLE:   166 TIME:   0.004 TIME LEFT:  2.00D  GRAD.:     0.269 HEAT:  60.75855
 CYCLE:   167 TIME:   0.004 TIME LEFT:  2.00D  GRAD.:     0.196 HEAT:  60.75846
 CYCLE:   168 TIME:   0.008 TIME LEFT:  2.00D  GRAD.:     0.282 HEAT:  60.75839
 CYCLE:   169 TIME:   0.004 TIME LEFT:  2.00D  GRAD.:     0.149 HEAT:  60.75832
 CYCLE:   170 TIME:   0.004 TIME LEFT:  2.00D  GRAD.:     0.119 HEAT:  60.75828
 CYCLE:   171 TIME:   0.004 TIME LEFT:  2.00D  GRAD.:     0.168 HEAT:  60.75822
 CYCLE:   172 TIME:   0.008 TIME LEFT:  2.00D  GRAD.:     0.112 HEAT:  60.75819
 CYCLE:   173 TIME:   0.004 TIME LEFT:  2.00D  GRAD.:     0.106 HEAT:  60.75816
 CYCLE:   174 TIME:   0.004 TIME LEFT:  2.00D  GRAD.:     0.065 HEAT:  60.75814
 CYCLE:   175 TIME:   0.004 TIME LEFT:  2.00D  GRAD.:     0.054 HEAT:  60.75812
 CYCLE:   176 TIME:   0.008 TIME LEFT:  2.00D  GRAD.:     0.056 HEAT:  60.75811
 CYCLE:   177 TIME:   0.004 TIME LEFT:  2.00D  GRAD.:     0.039 HEAT:  60.75811
 CYCLE:   178 TIME:   0.004 TIME LEFT:  2.00D  GRAD.:     0.044 HEAT:  60.75811
 CYCLE:   179 TIME:   0.004 TIME LEFT:  2.00D  GRAD.:     0.026 HEAT:  60.75810
 CYCLE:   180 TIME:   0.004 TIME LEFT:  2.00D  GRAD.:     0.014 HEAT:  60.75810
 CYCLE:   181 TIME:   0.004 TIME LEFT:  2.00D  GRAD.:     0.010 HEAT:  60.75810

     GRADIENT =  0.00971  IS LESS THAN CUTOFF =  0.01000



 -------------------------------------------------------------------------------
 pm3  precise nosym gnorm=0.0 nonr THREADS=1
 InChI=1S/C10H12/c1-2-3-4-7-10-8-5-6-9-10/h2,5-9H,1,3-4H2



     GEOMETRY OPTIMISED USING EIGENVECTOR FOLLOWING (EF).     
     SCF FIELD WAS ACHIEVED                                   


                              PM3 CALCULATION
                                                       MOPAC2016 (Version: 18.184L)
                                                       Sat Jun 15 10:09:38 2019
                                                       No. of days remaining =  18




          FINAL HEAT OF FORMATION =         60.75810 KCAL/MOL =     254.21190 KJ/MOL


          TOTAL ENERGY            =      -1367.76158 EV
          ELECTRONIC ENERGY       =      -6983.43866 EV  POINT GROUP:     C1  
          CORE-CORE REPULSION     =       5615.67708 EV
          COSMO AREA              =        196.25 SQUARE ANGSTROMS
          COSMO VOLUME            =        191.86 CUBIC ANGSTROMS

          GRADIENT NORM           =          0.00971 = 0.00207 PER ATOM
          IONIZATION POTENTIAL    =          9.127837 EV
          HOMO LUMO ENERGIES (EV) =         -9.128 -0.633
          NO. OF FILLED LEVELS    =         26
          MOLECULAR WEIGHT        =        132.2048

          MOLECULAR DIMENSIONS (Angstroms)

            Atom       Atom       Distance
            H    21    H    19    10.27526
            H    20    H    18     4.28988
            H    14    H    11     3.04736


          SCF CALCULATIONS        =        192
 
          WALL-CLOCK TIME         =          0.914 SECONDS
          COMPUTATION TIME        =          0.842 SECONDS




   ATOM   CHEMICAL          X               Y               Z
  NUMBER   SYMBOL      (ANGSTROMS)     (ANGSTROMS)     (ANGSTROMS)
 
     1       C          0.72824906  *  -0.19385451  *  -0.70456936  *
     2       C          1.96636373  *   0.00024932  *   0.16206966  *
     3       C         -1.59739192  *   0.58006251  *  -0.23903117  *
     4       C         -0.29640566  *   0.84015189  *  -0.41347184  *
     5       C          2.99213221  *  -1.03500741  *  -0.14000505  *
     6       C         -2.29431011  *  -0.72069327  *  -0.26713019  *
     7       C         -2.64952564  *   1.58331180  *   0.02528056  *
     8       C         -3.83627730  *   0.93786781  *   0.13685165  *
     9       C         -3.61393226  *  -0.50264712  *  -0.04565039  *
    10       C          4.25970351  *  -0.74445255  *  -0.40734532  *
    11       H          0.99792556  *  -0.12099155  *  -1.77802487  *
    12       H          0.31823581  *  -1.21623407  *  -0.56681666  *
    13       H          2.37433668  *   1.02213350  *   0.02343036  *
    14       H          1.69581621  *  -0.07294621  *   1.23461593  *
    15       H          0.05921227  *   1.87748747  *  -0.35151871  *
    16       H          2.64157781  *  -2.07434710  *  -0.12193899  *
    17       H         -1.78923194  *  -1.66989593  *  -0.43781795  *
    18       H         -2.45303049  *   2.65000974  *   0.10659866  *
    19       H         -4.81373595  *   1.37409727  *   0.32982372  *
    20       H         -4.40989269  *  -1.24257765  *  -0.00085155  *
    21       H          5.00397764  *  -1.50773480  *  -0.61275569  *
    22       H          4.64546981  *   0.27110384  *  -0.43837209  *

                             CARTESIAN COORDINATES

   1    C        0.728249061    -0.193854505    -0.704569362
   2    C        1.966363725     0.000249323     0.162069660
   3    C       -1.597391921     0.580062512    -0.239031175
   4    C       -0.296405663     0.840151886    -0.413471844
   5    C        2.992132212    -1.035007405    -0.140005054
   6    C       -2.294310111    -0.720693268    -0.267130193
   7    C       -2.649525640     1.583311805     0.025280565
   8    C       -3.836277301     0.937867805     0.136851646
   9    C       -3.613932262    -0.502647122    -0.045650386
  10    C        4.259703513    -0.744452549    -0.407345321
  11    H        0.997925563    -0.120991545    -1.778024875
  12    H        0.318235812    -1.216234074    -0.566816660
  13    H        2.374336681     1.022133495     0.023430364
  14    H        1.695816212    -0.072946214     1.234615932
  15    H        0.059212269     1.877487472    -0.351518714
  16    H        2.641577809    -2.074347098    -0.121938990
  17    H       -1.789231938    -1.669895928    -0.437817955
  18    H       -2.453030493     2.650009737     0.106598664
  19    H       -4.813735955     1.374097271     0.329823720
  20    H       -4.409892690    -1.242577648    -0.000851548
  21    H        5.003977635    -1.507734800    -0.612755691
  22    H        4.645469808     0.271103836    -0.438372089


           Empirical Formula: C10 H12  =    22 atoms



      MOLECULAR POINT GROUP   :   C1  


                  EIGENVALUES  
 -40.10550 -37.23024 -32.20392 -27.81435 -27.19839 -23.43997 -21.35313 -19.99410
 -18.89269 -18.35432 -17.39267 -16.65497 -15.44500 -15.17300 -14.24038 -14.07939
 -13.95730 -13.79644 -12.98888 -12.84841 -12.40796 -12.16021 -11.98713 -10.33621
  -9.56547  -9.12784  -0.63296   1.01843   2.04717   2.18957   2.96329   3.28403
   3.38086   3.41358   3.53544   3.70398   3.75936   3.83482   3.97319   4.02699
   4.31861   4.37763   4.42522   4.51778   4.64391   5.01271   5.16629   5.46505
   5.72332   6.02667   6.21109   6.22844


              NET ATOMIC CHARGES AND DIPOLE CONTRIBUTIONS

  ATOM NO.   TYPE          CHARGE      No. of ELECS.   s-Pop       p-Pop       
    1          C          -0.079882        4.0799     1.14991     2.92997
    2          C          -0.064370        4.0644     1.14953     2.91484
    3          C          -0.092484        4.0925     1.18510     2.90738
    4          C          -0.041910        4.0419     1.19222     2.84969
    5          C          -0.142524        4.1425     1.19545     2.94707
    6          C          -0.126794        4.1268     1.19024     2.93655
    7          C          -0.126625        4.1266     1.19274     2.93389
    8          C          -0.117555        4.1176     1.19366     2.92389
    9          C          -0.113439        4.1134     1.19365     2.91979
   10          C          -0.160380        4.1604     1.18259     2.97779
   11          H           0.066525        0.9335     0.93347
   12          H           0.065049        0.9350     0.93495
   13          H           0.054894        0.9451     0.94511
   14          H           0.060435        0.9396     0.93956
   15          H           0.098852        0.9011     0.90115
   16          H           0.098464        0.9015     0.90154
   17          H           0.117447        0.8826     0.88255
   18          H           0.115592        0.8844     0.88441
   19          H           0.113529        0.8865     0.88647
   20          H           0.113161        0.8868     0.88684
   21          H           0.080177        0.9198     0.91982
   22          H           0.081837        0.9182     0.91816
 DIPOLE           X         Y         Z       TOTAL
 POINT-CHG.     0.870     0.019    -0.108     0.877
 HYBRID         0.050     0.040    -0.017     0.066
 SUM            0.920     0.059    -0.125     0.930


          ATOMIC ORBITAL ELECTRON POPULATIONS

     Atom    s        px        py        pz   
    1  C   1.14991   0.94737   0.98514   0.99747
    2  C   1.14953   0.94446   0.97743   0.99295
    3  C   1.18510   0.94121   0.94706   1.01911
    4  C   1.19222   0.93987   0.98512   0.92470
    5  C   1.19545   0.95935   0.98776   0.99997
    6  C   1.19024   0.95322   0.95346   1.02987
    7  C   1.19274   0.94203   0.96635   1.02550
    8  C   1.19366   0.97161   0.94437   1.00791
    9  C   1.19365   0.96161   0.95458   1.00361
   10  C   1.18259   0.96013   1.01026   1.00741
   11  H   0.93347
   12  H   0.93495
   13  H   0.94511
   14  H   0.93956
   15  H   0.90115
   16  H   0.90154
   17  H   0.88255
   18  H   0.88441
   19  H   0.88647
   20  H   0.88684
   21  H   0.91982
   22  H   0.91816
 *******************************************************************************
 ** Site#: 14399        For non-commercial use only    Version 18.184L 64BITS **
 *******************************************************************************
 ** Cite this program as: MOPAC2016, Version: 18.184L, James J. P. Stewart,   **
 ** Stewart Computational Chemistry, web: HTTP://OpenMOPAC.net. Days left:  18**
 *******************************************************************************
 **                                                                           **
 **                                MOPAC2016                                  **
 **                                                                           **
 *******************************************************************************

                              PM3 CALCULATION RESULTS

 *******************************************************************************
 *  CALCULATION DONE:                                Sat Jun 15 10:09:38 2019  *
 *  PM3        - The PM3 Hamiltonian to be used
 *  OLDGEO     - PREVIOUS GEOMETRY TO BE USED
 *  PRECISE    - CRITERIA TO BE INCREASED BY 100 TIMES
 *  NOSYM      - POINT-GROUP SYMMETRY SET TO C1
 *  THREADS=1  - MULTI-THREADING NOT USED
 *  T=         - A TIME OF 172800.0 SECONDS REQUESTED
 *  DUMP=N     - RESTART FILE WRITTEN EVERY  7200.000 SECONDS
 *  THERMO     - THERMODYNAMIC QUANTITIES TO BE CALCULATED
 *******************************************************************************
oldgeo thermo nosym precise THREADS=1  pm3
 InChI=1S/C10H12/c1-2-3-4-7-10-8-5-6-9-10/h2,5-9H,1,3-4H2

   ATOM   CHEMICAL          X               Y               Z
  NUMBER   SYMBOL      (ANGSTROMS)     (ANGSTROMS)     (ANGSTROMS)
 
     1       C          0.72824906  *  -0.19385451  *  -0.70456936  *
     2       C          1.96636373  *   0.00024932  *   0.16206966  *
     3       C         -1.59739192  *   0.58006251  *  -0.23903117  *
     4       C         -0.29640566  *   0.84015189  *  -0.41347184  *
     5       C          2.99213221  *  -1.03500741  *  -0.14000505  *
     6       C         -2.29431011  *  -0.72069327  *  -0.26713019  *
     7       C         -2.64952564  *   1.58331180  *   0.02528056  *
     8       C         -3.83627730  *   0.93786781  *   0.13685165  *
     9       C         -3.61393226  *  -0.50264712  *  -0.04565039  *
    10       C          4.25970351  *  -0.74445255  *  -0.40734532  *
    11       H          0.99792556  *  -0.12099155  *  -1.77802487  *
    12       H          0.31823581  *  -1.21623407  *  -0.56681666  *
    13       H          2.37433668  *   1.02213350  *   0.02343036  *
    14       H          1.69581621  *  -0.07294621  *   1.23461593  *
    15       H          0.05921227  *   1.87748747  *  -0.35151871  *
    16       H          2.64157781  *  -2.07434710  *  -0.12193899  *
    17       H         -1.78923194  *  -1.66989593  *  -0.43781795  *
    18       H         -2.45303049  *   2.65000974  *   0.10659866  *
    19       H         -4.81373595  *   1.37409727  *   0.32982372  *
    20       H         -4.40989269  *  -1.24257765  *  -0.00085155  *
    21       H          5.00397764  *  -1.50773480  *  -0.61275569  *
    22       H          4.64546981  *   0.27110384  *  -0.43837209  *
 


          CARTESIAN COORDINATES 

    NO.       ATOM           X           Y           Z

     1         C          0.7282     -0.1939     -0.7046
     2         C          1.9664      0.0002      0.1621
     3         C         -1.5974      0.5801     -0.2390
     4         C         -0.2964      0.8402     -0.4135
     5         C          2.9921     -1.0350     -0.1400
     6         C         -2.2943     -0.7207     -0.2671
     7         C         -2.6495      1.5833      0.0253
     8         C         -3.8363      0.9379      0.1369
     9         C         -3.6139     -0.5026     -0.0457
    10         C          4.2597     -0.7445     -0.4073
    11         H          0.9979     -0.1210     -1.7780
    12         H          0.3182     -1.2162     -0.5668
    13         H          2.3743      1.0221      0.0234
    14         H          1.6958     -0.0729      1.2346
    15         H          0.0592      1.8775     -0.3515
    16         H          2.6416     -2.0743     -0.1219
    17         H         -1.7892     -1.6699     -0.4378
    18         H         -2.4530      2.6500      0.1066
    19         H         -4.8137      1.3741      0.3298
    20         H         -4.4099     -1.2426     -0.0009
    21         H          5.0040     -1.5077     -0.6128
    22         H          4.6455      0.2711     -0.4384

  H: (PM3): J. J. P. STEWART, J. COMP. CHEM. 10, 209 (1989).
  C: (PM3): J. J. P. STEWART, J. COMP. CHEM. 10, 209 (1989).

           Empirical Formula: C10 H12  =    22 atoms



      MOLECULAR POINT GROUP   :   C1  


      RHF CALCULATION, NO. OF DOUBLY OCCUPIED LEVELS = 26



          HEAT OF FORMATION =      60.758104 KCALS/MOLE


          CARTESIAN COORDINATE DERIVATIVES

   NUMBER  ATOM         X            Y            Z

     1       C      0.001483     0.002749    -0.002331
     2       C     -0.000613    -0.000990    -0.000703
     3       C     -0.011894     0.002039     0.003775
     4       C      0.005232    -0.002400     0.001029
     5       C      0.003976     0.000507     0.000217
     6       C      0.008040    -0.001140    -0.003138
     7       C      0.004579    -0.005415    -0.003985
     8       C     -0.003275    -0.006410     0.012365
     9       C     -0.003384     0.010440    -0.011231
    10       C     -0.003546     0.000046    -0.000168
    11       H     -0.002144    -0.000504     0.001147
    12       H     -0.001548    -0.000500     0.000187
    13       H      0.000344     0.000449     0.000287
    14       H      0.001975     0.002019     0.000856
    15       H      0.001805     0.000671    -0.001411
    16       H     -0.000106    -0.000340     0.002155
    17       H     -0.000478     0.000381    -0.000456
    18       H     -0.000273    -0.000020     0.000946
    19       H      0.001299    -0.000436     0.000498
    20       H     -0.001437    -0.000194     0.001834
    21       H      0.000553    -0.000205     0.000468
    22       H     -0.000591    -0.000746    -0.002343
 


          GRADIENT NORM =   0.02962


          TIME FOR SCF CALCULATION =    0.00

          TIME FOR DERIVATIVES     =    0.00

          MOLECULAR WEIGHT =  132.20



          ROTATIONAL CONSTANTS IN CM(-1)

          A =    0.17937170   B =    0.01637475   C =    0.01533241



           PRINCIPAL MOMENTS OF INERTIA IN UNITS OF 10**(-40)*GRAM-CM**2

          A =      156.0602   B =     1709.5081   C =     1825.7251


          ORIENTATION OF MOLECULE IN FORCE CALCULATION

    NO.       ATOM         X         Y         Z

     1          C       0.5616   -1.0717   -0.2300
     2          C       2.0853   -1.0717   -0.2300
     3          C      -0.9648    0.9017   -0.2300
     4          C       0.0263    0.1960   -0.7870
     5          C       2.6151   -2.3480    0.3228
     6          C      -1.7128    0.6278    1.0126
     7          C      -1.5416    2.1513   -0.7677
     8          C      -2.5247    2.5627    0.0700
     9          C      -2.6313    1.6102    1.1832
    10          C       3.5300   -3.0832   -0.2976
    11          H       0.1794   -1.9097   -0.8480
    12          H       0.1765   -1.2548    0.7950
    13          H       2.4681   -0.8883   -1.2545
    14          H       2.4662   -0.2340    0.3882
    15          H       0.4826    0.5513   -1.7207
    16          H       2.2081   -2.6530    1.2948
    17          H      -1.5204   -0.2311    1.6533
    18          H      -1.1998    2.6216   -1.6870
    19          H      -3.1536    3.4448   -0.0270
    20          H      -3.3469    1.7152    1.9956
    21          H       3.9208   -4.0059    0.1204
    22          H       3.9552   -2.8180   -1.2620


    FIRST DERIVATIVES WILL BE USED IN THE CALCULATION OF SECOND DERIVATIVES

          ESTIMATED TIME TO COMPLETE CALCULATION =        1.03 SECONDS

    FOR POINT-GROUP C1   THERE ARE   1 UNIQUE SYMMETRY FUNCTIONS.

 STEP:   1 TIME =     0.02 SECS, INTEGRAL =      0.02 TIME LEFT: 172799.98
 STEP:   2 TIME =     0.02 SECS, INTEGRAL =      0.04 TIME LEFT: 172799.96
 STEP:   3 TIME =     0.02 SECS, INTEGRAL =      0.06 TIME LEFT: 172799.93
 STEP:   4 TIME =     0.02 SECS, INTEGRAL =      0.08 TIME LEFT: 172799.91
 STEP:   5 TIME =     0.02 SECS, INTEGRAL =      0.11 TIME LEFT: 172799.89
 STEP:   6 TIME =     0.02 SECS, INTEGRAL =      0.12 TIME LEFT: 172799.87
 STEP:   7 TIME =     0.02 SECS, INTEGRAL =      0.14 TIME LEFT: 172799.85
 STEP:   8 TIME =     0.02 SECS, INTEGRAL =      0.17 TIME LEFT: 172799.83
 STEP:   9 TIME =     0.02 SECS, INTEGRAL =      0.19 TIME LEFT: 172799.81
 STEP:  10 TIME =     0.02 SECS, INTEGRAL =      0.21 TIME LEFT: 172799.79
 STEP:  11 TIME =     0.02 SECS, INTEGRAL =      0.23 TIME LEFT: 172799.77
 STEP:  12 TIME =     0.02 SECS, INTEGRAL =      0.25 TIME LEFT: 172799.74
 STEP:  13 TIME =     0.02 SECS, INTEGRAL =      0.27 TIME LEFT: 172799.72
 STEP:  14 TIME =     0.02 SECS, INTEGRAL =      0.29 TIME LEFT: 172799.70
 STEP:  15 TIME =     0.02 SECS, INTEGRAL =      0.31 TIME LEFT: 172799.68
 STEP:  16 TIME =     0.02 SECS, INTEGRAL =      0.33 TIME LEFT: 172799.66
 STEP:  17 TIME =     0.02 SECS, INTEGRAL =      0.36 TIME LEFT: 172799.64
 STEP:  18 TIME =     0.02 SECS, INTEGRAL =      0.38 TIME LEFT: 172799.62
 STEP:  19 TIME =     0.02 SECS, INTEGRAL =      0.40 TIME LEFT: 172799.60
 STEP:  20 TIME =     0.02 SECS, INTEGRAL =      0.42 TIME LEFT: 172799.58
 STEP:  21 TIME =     0.02 SECS, INTEGRAL =      0.44 TIME LEFT: 172799.56
 STEP:  22 TIME =     0.02 SECS, INTEGRAL =      0.46 TIME LEFT: 172799.54
 STEP:  23 TIME =     0.02 SECS, INTEGRAL =      0.48 TIME LEFT: 172799.52
 STEP:  24 TIME =     0.02 SECS, INTEGRAL =      0.50 TIME LEFT: 172799.49
 STEP:  25 TIME =     0.02 SECS, INTEGRAL =      0.52 TIME LEFT: 172799.47
 STEP:  26 TIME =     0.02 SECS, INTEGRAL =      0.55 TIME LEFT: 172799.45
 STEP:  27 TIME =     0.02 SECS, INTEGRAL =      0.57 TIME LEFT: 172799.43
 STEP:  28 TIME =     0.02 SECS, INTEGRAL =      0.59 TIME LEFT: 172799.41
 STEP:  29 TIME =     0.02 SECS, INTEGRAL =      0.61 TIME LEFT: 172799.39
 STEP:  30 TIME =     0.02 SECS, INTEGRAL =      0.63 TIME LEFT: 172799.37
 STEP:  31 TIME =     0.02 SECS, INTEGRAL =      0.65 TIME LEFT: 172799.34
 STEP:  32 TIME =     0.02 SECS, INTEGRAL =      0.67 TIME LEFT: 172799.32
 STEP:  33 TIME =     0.02 SECS, INTEGRAL =      0.69 TIME LEFT: 172799.30
 STEP:  34 TIME =     0.02 SECS, INTEGRAL =      0.71 TIME LEFT: 172799.29
 STEP:  35 TIME =     0.02 SECS, INTEGRAL =      0.73 TIME LEFT: 172799.27
 STEP:  36 TIME =     0.02 SECS, INTEGRAL =      0.75 TIME LEFT: 172799.24
 STEP:  37 TIME =     0.02 SECS, INTEGRAL =      0.77 TIME LEFT: 172799.22
 STEP:  38 TIME =     0.02 SECS, INTEGRAL =      0.80 TIME LEFT: 172799.20
 STEP:  39 TIME =     0.02 SECS, INTEGRAL =      0.82 TIME LEFT: 172799.18
 STEP:  40 TIME =     0.02 SECS, INTEGRAL =      0.84 TIME LEFT: 172799.16
 STEP:  41 TIME =     0.02 SECS, INTEGRAL =      0.86 TIME LEFT: 172799.14
 STEP:  42 TIME =     0.02 SECS, INTEGRAL =      0.88 TIME LEFT: 172799.12
 STEP:  43 TIME =     0.02 SECS, INTEGRAL =      0.90 TIME LEFT: 172799.10
 STEP:  44 TIME =     0.02 SECS, INTEGRAL =      0.92 TIME LEFT: 172799.08
 STEP:  45 TIME =     0.02 SECS, INTEGRAL =      0.94 TIME LEFT: 172799.06
 STEP:  46 TIME =     0.02 SECS, INTEGRAL =      0.96 TIME LEFT: 172799.04
 STEP:  47 TIME =     0.02 SECS, INTEGRAL =      0.98 TIME LEFT: 172799.02
 STEP:  48 TIME =     0.02 SECS, INTEGRAL =      1.00 TIME LEFT: 172799.00
 STEP:  49 TIME =     0.02 SECS, INTEGRAL =      1.02 TIME LEFT: 172798.98
 STEP:  50 TIME =     0.02 SECS, INTEGRAL =      1.04 TIME LEFT: 172798.95
 STEP:  51 TIME =     0.02 SECS, INTEGRAL =      1.06 TIME LEFT: 172798.93
 STEP:  52 TIME =     0.02 SECS, INTEGRAL =      1.09 TIME LEFT: 172798.91
 STEP:  53 TIME =     0.02 SECS, INTEGRAL =      1.11 TIME LEFT: 172798.89
 STEP:  54 TIME =     0.02 SECS, INTEGRAL =      1.13 TIME LEFT: 172798.87
 STEP:  55 TIME =     0.02 SECS, INTEGRAL =      1.15 TIME LEFT: 172798.85
 STEP:  56 TIME =     0.02 SECS, INTEGRAL =      1.17 TIME LEFT: 172798.83
 STEP:  57 TIME =     0.02 SECS, INTEGRAL =      1.19 TIME LEFT: 172798.80
 STEP:  58 TIME =     0.02 SECS, INTEGRAL =      1.21 TIME LEFT: 172798.79
 STEP:  59 TIME =     0.02 SECS, INTEGRAL =      1.23 TIME LEFT: 172798.76
 STEP:  60 TIME =     0.02 SECS, INTEGRAL =      1.25 TIME LEFT: 172798.74
 STEP:  61 TIME =     0.02 SECS, INTEGRAL =      1.28 TIME LEFT: 172798.72
 STEP:  62 TIME =     0.02 SECS, INTEGRAL =      1.30 TIME LEFT: 172798.70
 STEP:  63 TIME =     0.02 SECS, INTEGRAL =      1.32 TIME LEFT: 172798.68
 STEP:  64 TIME =     0.02 SECS, INTEGRAL =      1.34 TIME LEFT: 172798.66
 STEP:  65 TIME =     0.02 SECS, INTEGRAL =      1.36 TIME LEFT: 172798.63
 STEP:  66 TIME =     0.02 SECS, INTEGRAL =      1.38 TIME LEFT: 172798.61

(To convert to Hartree/Bohr^2, multiply by (10^(-21) x N x a0^2)/(4.184 x 627.51) =  0.0642)


           FORCE MATRIX IN MILLIDYNES/ANGSTROM


                  C  1       C  2       C  3       C  4       C  5       C  6
 ------------------------------------------------------------------------------
     C    1  14.616268
     C    2   4.046737  14.647382
     C    3   0.814366   0.048306  19.492464
     C    4   5.019344   0.706882  10.095544  18.009877
     C    5   0.702996   4.965077   0.012267   0.053877  18.195392
     C    6   0.095854   0.014415   4.764857   0.821492   0.004847  18.117620
     C    7   0.143905   0.020280   4.720743   0.897564   0.004796   1.142767
     C    8   0.029523   0.007181   1.499675   0.144998   0.004133   1.563443
     C    9   0.024598   0.006895   1.515214   0.139499   0.005050   9.485983
     C   10   0.041752   0.835744   0.004754   0.008438  11.090829   0.002733
     H   11   4.411729   0.448507   0.039300   0.402119   0.020153   0.014254
     H   12   4.393364   0.439548   0.040481   0.460463   0.033756   0.036336
     H   13   0.442880   4.429638   0.003902   0.036929   0.459063   0.002220
     H   14   0.448140   4.438306   0.003578   0.021249   0.411155   0.002212
     H   15   0.432219   0.030471   0.451796   4.750958   0.002564   0.116465
     H   16   0.026540   0.431850   0.001952   0.001608   4.786051   0.001292
     H   17   0.025212   0.002261   0.419733   0.014093   0.000937   5.037542
     H   18   0.004037   0.000903   0.420110   0.020636   0.000620   0.038286
     H   19   0.008582   0.001249   0.107189   0.008596   0.000568   0.048991
     H   20   0.004131   0.000613   0.109313   0.009725   0.000650   0.444648
     H   21   0.017773   0.136302   0.001597   0.003108   0.461943   0.000988
     H   22   0.009754   0.096542   0.001569   0.002642   0.490126   0.000884


                  C  7       C  8       C  9       C 10       H 11       H 12
 ------------------------------------------------------------------------------
     C    7  18.129177
     C    8   9.495867  18.139471
     C    9   1.568620   5.007971  18.139368
     C   10   0.002530   0.002958   0.003016  18.048918
     H   11   0.021234   0.007452   0.007081   0.002345   5.008180
     H   12   0.006580   0.004594   0.003768   0.001970   0.558232   4.976596
     H   13   0.002008   0.001691   0.001498   0.047635   0.023574   0.043703
     H   14   0.001739   0.001653   0.001468   0.034078   0.046459   0.023627
     H   15   0.086037   0.020791   0.022420   0.001173   0.016018   0.038750
     H   16   0.001346   0.001296   0.001420   0.454531   0.002526   0.023034
     H   17   0.039013   0.098245   0.444900   0.000785   0.001911   0.074545
     H   18   5.076782   0.444153   0.098137   0.000434   0.000776   0.000594
     H   19   0.445436   5.085685   0.418751   0.000639   0.001276   0.000409
     H   20   0.049037   0.418861   5.084383   0.000571   0.000529   0.000545
     H   21   0.000982   0.001122   0.001129   5.108840   0.000627   0.000499
     H   22   0.000677   0.000865   0.000928   5.071045   0.000652   0.000493


                  H 13       H 14       H 15       H 16       H 17       H 18
 ------------------------------------------------------------------------------
     H   13   5.044233
     H   14   0.560890   5.030869
     H   15   0.024594   0.002525   5.113314
     H   16   0.038995   0.018769   0.000709   5.159386
     H   17   0.000693   0.000581   0.003859   0.000750   5.427635
     H   18   0.000212   0.000178   0.011170   0.000175   0.009516   5.478925
     H   19   0.000117   0.000171   0.003452   0.000164   0.005290   0.039969
     H   20   0.000113   0.000142   0.007407   0.000127   0.040245   0.005438
     H   21   0.002977   0.017488   0.000297   0.077905   0.000265   0.000159
     H   22   0.029165   0.011523   0.000662   0.115735   0.000273   0.000156


                  H 19       H 20       H 21       H 22
 ------------------------------------------------------
     H   19   5.477065
     H   20   0.008713   5.475030
     H   21   0.000267   0.000123   5.495792
     H   22   0.000113   0.000153   0.422615   5.465992


          HEAT OF FORMATION =      60.758104 KCALS/MOLE

          ZERO POINT ENERGY     117.245 KCAL/MOL


           NORMAL COORDINATE ANALYSIS (Total motion = 1 Angstrom)


   Root No.       1         2         3         4         5         6         7         8

                 1 A       2 A       3 A       4 A       5 A       6 A       7 A       8 A   

                  47.7      72.3      81.5     122.7     173.6     211.5     306.1     347.7
  
           1    0.0161   -0.0133   -0.0170    0.0083    0.0032    0.0281    0.0187   -0.0132
           2    0.0123   -0.0233   -0.0210   -0.0139    0.0297    0.0089    0.0120    0.0007
           3    0.0545   -0.0006    0.0028   -0.0028    0.0502   -0.0302    0.0097    0.0045
           4    0.0162   -0.0131   -0.0165    0.0096    0.0024    0.0295    0.0181   -0.0226
           5   -0.0067    0.0139   -0.0262    0.0203    0.0001    0.0053    0.0376    0.0025
           6    0.0100    0.0571   -0.0340   -0.0091    0.0090    0.0018   -0.0111   -0.0187
           7   -0.0006   -0.0050   -0.0119   -0.0150   -0.0233   -0.0278    0.0038    0.0082
           8    0.0034   -0.0141   -0.0084   -0.0236   -0.0096   -0.0189   -0.0151   -0.0171
           9    0.0190   -0.0052    0.0110    0.0014   -0.0435    0.0008    0.0150    0.0127
          10    0.0134   -0.0149   -0.0170   -0.0109    0.0014    0.0066   -0.0187    0.0413
          11    0.0052   -0.0265   -0.0167   -0.0197    0.0019    0.0177   -0.0217    0.0246
          12    0.0416   -0.0065    0.0125    0.0043   -0.0143    0.0127   -0.0136    0.0308
          13    0.0174   -0.0013    0.0044    0.0327   -0.0078   -0.0003   -0.0336   -0.0356
          14   -0.0196   -0.0058   -0.0098    0.0429   -0.0098   -0.0140    0.0111    0.0151
          15   -0.0209   -0.0003   -0.0170    0.0201   -0.0034   -0.0093   -0.0263    0.0058
          16   -0.0228    0.0005   -0.0319   -0.0374   -0.0098   -0.0292    0.0019   -0.0034
          17    0.0152    0.0040    0.0016   -0.0209   -0.0292   -0.0001   -0.0020   -0.0229
          18    0.0081    0.0020    0.0010   -0.0118   -0.0396    0.0048    0.0171    0.0027
          19    0.0026    0.0067    0.0197    0.0218   -0.0202   -0.0285    0.0231    0.0122
          20   -0.0062   -0.0107    0.0067   -0.0024    0.0034   -0.0232   -0.0119   -0.0337
          21   -0.0076   -0.0102    0.0104    0.0099   -0.0130   -0.0129    0.0081   -0.0141
          22   -0.0151    0.0191    0.0204    0.0306    0.0204    0.0012    0.0137    0.0200
          23   -0.0004    0.0084    0.0248    0.0187    0.0153    0.0132   -0.0069   -0.0182
          24   -0.0314   -0.0053    0.0021    0.0093    0.0298    0.0036   -0.0067   -0.0149
          25   -0.0310    0.0149   -0.0129   -0.0088    0.0236    0.0047   -0.0075    0.0230
          26    0.0129    0.0174    0.0207    0.0053   -0.0078    0.0304   -0.0060    0.0014
          27   -0.0216    0.0020   -0.0048   -0.0061    0.0107    0.0180   -0.0076    0.0038
          28    0.0011    0.0066    0.0582   -0.0324    0.0045    0.0082   -0.0165   -0.0259
          29   -0.0152    0.0330    0.0268   -0.0104    0.0027   -0.0209    0.0018    0.0387
          30   -0.0504   -0.0347    0.0185   -0.0125   -0.0004    0.0116    0.0131   -0.0048
          31   -0.0111    0.0294   -0.0360    0.0237   -0.0284    0.0468    0.0280   -0.0365
          32    0.0042   -0.0235   -0.0197   -0.0193   -0.0051    0.0327   -0.0194    0.0238
          33    0.0819   -0.0264    0.0129   -0.0047    0.1169   -0.0751    0.0463   -0.0126
          34    0.0443   -0.0476    0.0068    0.0177    0.0262    0.0140    0.0417   -0.0131
          35    0.0363   -0.0451   -0.0175   -0.0263    0.1046   -0.0425    0.0383   -0.0130
          36    0.0688   -0.0176    0.0116   -0.0024    0.0736   -0.0456    0.0236    0.0023
          37   -0.0109    0.0203   -0.0414    0.0011   -0.0215    0.0561    0.0179   -0.0384
          38   -0.0004    0.0836   -0.0494    0.0020   -0.0114    0.0248    0.0473   -0.0304
          39    0.0008    0.0819   -0.0475   -0.0156   -0.0021    0.0158   -0.0086   -0.0317
          40    0.0447   -0.0570   -0.0013   -0.0055    0.0369    0.0208    0.0258   -0.0085
          41   -0.0181   -0.0127   -0.0120    0.0441   -0.0060   -0.0123    0.0247    0.0208
          42    0.0079    0.1201   -0.0622   -0.0325   -0.0042    0.0306    0.0008   -0.0521
          43    0.0229   -0.0200   -0.0139   -0.0084    0.0197    0.0152   -0.0594    0.0909
          44    0.0025   -0.0365   -0.0131   -0.0083   -0.0144    0.0569   -0.0415    0.0693
          45    0.0449   -0.0130    0.0149    0.0094   -0.0106    0.0312   -0.0410    0.0720
          46    0.0336    0.0002   -0.0224    0.1007   -0.0242   -0.0349   -0.1093   -0.0449
          47   -0.0328   -0.0546   -0.0274    0.1028   -0.0270   -0.0259   -0.0167    0.0113
          48   -0.0183   -0.0151   -0.0337    0.0673   -0.0157   -0.0270   -0.0659   -0.0000
          49   -0.0331   -0.0067   -0.0622   -0.0760   -0.0135   -0.0527   -0.0043   -0.0180
          50    0.0252    0.0052   -0.0046   -0.0359   -0.0566   -0.0010    0.0058   -0.0272
          51    0.0241    0.0059    0.0010   -0.0210   -0.0739    0.0096    0.0291    0.0013
          52    0.0174    0.0058    0.0399    0.0423   -0.0407   -0.0456    0.0454    0.0051
          53   -0.0161   -0.0219    0.0036   -0.0019    0.0103   -0.0493   -0.0124   -0.0616
          54   -0.0072   -0.0163    0.0164    0.0177   -0.0170   -0.0327    0.0161   -0.0312
          55   -0.0177    0.0302    0.0412    0.0600    0.0440    0.0177    0.0224    0.0182
          56   -0.0048    0.0162    0.0394    0.0406    0.0366    0.0250   -0.0017   -0.0215
          57   -0.0544   -0.0064    0.0001    0.0176    0.0702    0.0035   -0.0152   -0.0303
          58   -0.0466    0.0221   -0.0202   -0.0137    0.0478    0.0275   -0.0260    0.0382
          59    0.0195    0.0324    0.0316    0.0149   -0.0083    0.0597   -0.0057    0.0301
          60   -0.0362    0.0065   -0.0126   -0.0117    0.0320    0.0343   -0.0239    0.0133
          61    0.0030    0.0174    0.0778   -0.0236   -0.0005   -0.0225   -0.0849   -0.0100
          62   -0.0246    0.0182    0.0417    0.0007   -0.0035   -0.0332   -0.0285    0.0372
          63   -0.0729   -0.0776    0.0329    0.0039   -0.0096    0.0135    0.0103   -0.0249
          64   -0.0154    0.0035    0.0869   -0.1000    0.0206    0.0465    0.0670   -0.0317
          65   -0.0022    0.0826    0.0453   -0.0699    0.0206   -0.0156    0.0220    0.0674
          66   -0.0541   -0.0225    0.0363   -0.0587    0.0116    0.0301    0.0559    0.0001


   Root No.       9        10        11        12        13        14        15        16

                 9 A      10 A      11 A      12 A      13 A      14 A      15 A      16 A   

                 461.7     497.5     516.0     591.4     635.9     711.2     794.7     806.9
  
           1    0.0247   -0.0122   -0.0172    0.0011    0.0237    0.0009   -0.0001    0.0005
           2    0.0215    0.0016    0.0417    0.0008   -0.0063   -0.0270    0.0059   -0.0088
           3   -0.0172    0.0019   -0.0076   -0.0031    0.0050   -0.0084    0.0135   -0.0153
           4    0.0198   -0.0136   -0.0201    0.0014    0.0132   -0.0044   -0.0050    0.0022
           5   -0.0266    0.0040   -0.0040   -0.0008    0.0062   -0.0021    0.0036   -0.0080
           6   -0.0033    0.0024    0.0135    0.0007   -0.0082   -0.0039    0.0106   -0.0161
           7   -0.0036    0.0070   -0.0066    0.0688    0.0004    0.0351    0.0181    0.0085
           8   -0.0094    0.0052   -0.0164    0.0518    0.0016   -0.0262    0.0014    0.0154
           9    0.0053    0.0082    0.0148    0.0523   -0.0052   -0.0156    0.0005    0.0177
          10   -0.0083    0.0091   -0.0055   -0.0063    0.0004    0.0529    0.0175   -0.0050
          11    0.0036    0.0114    0.0290   -0.0048   -0.0157   -0.0099    0.0024    0.0032
          12   -0.0258    0.0090   -0.0360   -0.0125    0.0171   -0.0423   -0.0051    0.0112
          13   -0.0139    0.0037    0.0084   -0.0006   -0.0460   -0.0032   -0.0018    0.0024
          14   -0.0245    0.0060   -0.0063   -0.0026   -0.0172    0.0078    0.0013    0.0010
          15    0.0467   -0.0148   -0.0124    0.0019   -0.0223   -0.0048   -0.0059    0.0064
          16   -0.0004    0.0207   -0.0098   -0.0262    0.0031   -0.0145   -0.0032   -0.0051
          17    0.0078    0.0114   -0.0124   -0.0183    0.0025    0.0318    0.0095   -0.0154
          18    0.0147    0.0168    0.0183   -0.0183   -0.0069   -0.0129   -0.0056   -0.0019
          19   -0.0020   -0.0247    0.0219   -0.0158   -0.0031   -0.0107   -0.0148   -0.0116
          20   -0.0097   -0.0265   -0.0178   -0.0131    0.0068   -0.0226   -0.0211   -0.0000
          21    0.0037   -0.0251    0.0069   -0.0092   -0.0005    0.0370   -0.0042   -0.0121
          22    0.0083    0.0382    0.0103    0.0040   -0.0043   -0.0189   -0.0139   -0.0088
          23    0.0076    0.0235   -0.0144    0.0049    0.0026    0.0101   -0.0126   -0.0015
          24    0.0064    0.0234   -0.0128    0.0052    0.0019    0.0190   -0.0051   -0.0101
          25   -0.0171   -0.0270    0.0026    0.0125    0.0014   -0.0297   -0.0084    0.0009
          26   -0.0026   -0.0263    0.0032    0.0131   -0.0007    0.0223    0.0047   -0.0095
          27   -0.0057   -0.0246    0.0035    0.0122   -0.0013    0.0113    0.0055   -0.0127
          28   -0.0113    0.0050    0.0147    0.0004   -0.0064   -0.0043    0.0005   -0.0015
          29    0.0271   -0.0075   -0.0136   -0.0001    0.0136    0.0050    0.0007    0.0005
          30   -0.0117    0.0030    0.0021    0.0000    0.0067    0.0009   -0.0025    0.0036
          31    0.0151   -0.0173   -0.0433    0.0025    0.0398   -0.0350    0.0393   -0.0651
          32    0.0119    0.0168    0.0295   -0.0119   -0.0081   -0.0862    0.0392   -0.0327
          33    0.0009   -0.0157    0.0266    0.0137   -0.0038    0.0979   -0.0597    0.0618
          34    0.0301   -0.0224   -0.0279    0.0080    0.0426    0.0257   -0.0549    0.0700
          35    0.0427   -0.0115    0.0968    0.0162   -0.0323    0.0885   -0.0565    0.0563
          36   -0.0111   -0.0042   -0.0002    0.0021    0.0071    0.0237   -0.0205    0.0249
          37    0.0246   -0.0133   -0.0063    0.0048    0.0433    0.0247   -0.0526    0.0658
          38   -0.0907    0.0280    0.0327    0.0017    0.0634    0.0371   -0.0429    0.0646
          39   -0.0144    0.0072    0.0261    0.0027    0.0143    0.0148   -0.0173    0.0233
          40    0.0542   -0.0239   -0.0212    0.0001    0.0281   -0.0498    0.0393   -0.0647
          41   -0.0095   -0.0045   -0.0308   -0.0030   -0.0477   -0.0073    0.0200   -0.0320
          42   -0.0492    0.0212    0.0524    0.0044    0.0581    0.0337   -0.0415    0.0617
          43   -0.0510    0.0008   -0.0282   -0.1012   -0.0014    0.1217   -0.0419   -0.0291
          44   -0.0031    0.0038    0.0461   -0.0793   -0.0273    0.0148   -0.0700    0.0049
          45   -0.0488    0.0021   -0.0396   -0.0870    0.0113    0.0002   -0.0622    0.0005
          46   -0.0042    0.0142    0.0554    0.0021    0.0058   -0.0076   -0.0009    0.0044
          47   -0.0301    0.0138    0.0159   -0.0015    0.0374    0.0122   -0.0095    0.0194
          48    0.0465   -0.0072    0.0147    0.0033    0.0169   -0.0049   -0.0088    0.0131
          49   -0.0001    0.0457   -0.0189   -0.1822    0.0031   -0.0328   -0.0348    0.0349
          50    0.0203    0.0295   -0.0094   -0.1364    0.0018    0.0579   -0.0090    0.0162
          51    0.0310    0.0338    0.0255   -0.1303   -0.0083    0.0266   -0.0214    0.0287
          52    0.0027   -0.0754    0.0524   -0.1297   -0.0035   -0.0477    0.0960    0.0421
          53   -0.0140   -0.0725   -0.0245   -0.1031    0.0164   -0.0176    0.0781    0.0325
          54    0.0031   -0.0675    0.0145   -0.0975    0.0043    0.0262    0.0878    0.0244
          55    0.0351    0.1175    0.0091   -0.0524   -0.0072   -0.0032    0.1012    0.0755
          56    0.0278    0.0865   -0.0183   -0.0404    0.0014    0.0180    0.0773    0.0681
          57    0.0164    0.0842   -0.0368   -0.0420    0.0081   -0.0169    0.0666    0.0747
          58   -0.0432   -0.1103    0.0073   -0.0224    0.0054   -0.0246    0.0352    0.0875
          59   -0.0154   -0.0895    0.0329   -0.0151   -0.0073    0.0068    0.0341    0.0630
          60   -0.0270   -0.0898    0.0038   -0.0149    0.0029    0.0189    0.0404    0.0540
          61    0.0505    0.0036    0.0653    0.0085    0.1955   -0.0130   -0.0013   -0.0087
          62    0.0209    0.0069    0.0339    0.0031    0.1566    0.0068    0.0109   -0.0169
          63   -0.0868    0.0374    0.0616   -0.0007    0.1323    0.0125    0.0229   -0.0296
          64   -0.0673    0.0072   -0.0281   -0.0060   -0.1451    0.0018    0.0073   -0.0043
          65    0.1023   -0.0415   -0.0740    0.0012   -0.0762   -0.0039   -0.0225    0.0308
          66   -0.0175   -0.0047   -0.0328   -0.0025   -0.0791    0.0015   -0.0054    0.0103


   Root No.      17        18        19        20        21        22        23        24

                17 A      18 A      19 A      20 A      21 A      22 A      23 A      24 A   

                 813.6     833.1     890.8     932.7     936.5     964.0     973.2     988.1
  
           1   -0.0004    0.0005   -0.0040    0.0037    0.0155   -0.0015   -0.0001    0.0002
           2    0.0045    0.0020   -0.0100    0.0050   -0.0057   -0.0097    0.0085   -0.0048
           3    0.0069    0.0072   -0.0113    0.0050   -0.0140   -0.0070   -0.0053   -0.0087
           4    0.0005   -0.0053    0.0068   -0.0003   -0.0023    0.0003    0.0030   -0.0009
           5    0.0055    0.0032    0.0153   -0.0031   -0.0253    0.0117   -0.0049    0.0091
           6    0.0094    0.0112    0.0180    0.0016    0.0169    0.0073   -0.0013    0.0069
           7    0.0139    0.0030    0.0061    0.0044   -0.0042    0.0096    0.0006   -0.0052
           8    0.0091   -0.0323    0.0136    0.0037    0.0006    0.0094    0.0078   -0.0012
           9    0.0061    0.0278    0.0125    0.0039   -0.0004    0.0094    0.0120   -0.0003
          10   -0.0004    0.0068   -0.0214   -0.0138    0.0051    0.0048   -0.0223    0.0011
          11   -0.0021    0.0001   -0.0086   -0.0105    0.0031    0.0048   -0.0078    0.0037
          12   -0.0060   -0.0078   -0.0139   -0.0110    0.0078   -0.0003    0.0130    0.0076
          13   -0.0012   -0.0011    0.0036   -0.0235   -0.0073   -0.0061    0.0010   -0.0024
          14   -0.0014    0.0007   -0.0025   -0.0136    0.0065   -0.0071    0.0006   -0.0046
          15   -0.0029   -0.0037    0.0024   -0.0157    0.0025   -0.0057    0.0037   -0.0014
          16   -0.0260    0.0287    0.0016    0.0047   -0.0042   -0.0237    0.0022    0.0231
          17   -0.0138   -0.0448   -0.0020    0.0038   -0.0053   -0.0214    0.0124    0.0203
          18   -0.0200    0.0053    0.0104    0.0033    0.0050   -0.0083   -0.0408    0.0107
          19    0.0144   -0.0341   -0.0025    0.0039   -0.0023   -0.0218    0.0002   -0.0151
          20    0.0066   -0.0053    0.0055    0.0026    0.0084   -0.0094   -0.0332   -0.0166
          21    0.0099    0.0535   -0.0102    0.0033   -0.0105   -0.0220    0.0197   -0.0098
          22    0.0100   -0.0499   -0.0052   -0.0067    0.0056    0.0148   -0.0078    0.0264
          23    0.0018    0.0804   -0.0081   -0.0050   -0.0005    0.0096    0.0132    0.0245
          24    0.0080   -0.0148   -0.0086   -0.0052    0.0021    0.0097   -0.0050    0.0201
          25   -0.0239    0.0543    0.0009   -0.0024    0.0020    0.0152   -0.0011   -0.0321
          26   -0.0132    0.0021   -0.0024   -0.0018   -0.0010    0.0107    0.0074   -0.0246
          27   -0.0089   -0.0756    0.0004   -0.0019    0.0007    0.0103    0.0168   -0.0207
          28    0.0011    0.0004    0.0030   -0.0075   -0.0092   -0.0023    0.0009   -0.0037
          29   -0.0008    0.0009   -0.0032    0.0005    0.0376   -0.0107    0.0072   -0.0084
          30   -0.0019   -0.0027   -0.0038   -0.0049   -0.0273    0.0001   -0.0034   -0.0035
          31    0.0407    0.0268    0.0549    0.0612   -0.0166    0.0348   -0.0121   -0.0029
          32    0.0116    0.0047   -0.0824   -0.0140   -0.0194   -0.0554    0.0145   -0.0252
          33   -0.0301   -0.0143    0.0519   -0.0064    0.0256    0.0329   -0.0050    0.0219
          34   -0.0402   -0.0266   -0.0231   -0.0225    0.0511   -0.0139   -0.0089    0.0086
          35   -0.0258   -0.0168    0.0533   -0.0079    0.0306    0.0279    0.0255    0.0250
          36   -0.0144   -0.0072   -0.0059   -0.0079    0.0067   -0.0042   -0.0029    0.0010
          37   -0.0354   -0.0411   -0.0222   -0.0220    0.0411   -0.0220    0.0204   -0.0005
          38   -0.0371   -0.0357   -0.0655    0.0052   -0.0857   -0.0132   -0.0068   -0.0220
          39   -0.0131   -0.0104   -0.0092   -0.0054    0.0223   -0.0064    0.0052    0.0009
          40    0.0395    0.0257    0.0325    0.0643   -0.0029    0.0059    0.0089   -0.0253
          41    0.0195    0.0192    0.0610   -0.0433   -0.0133    0.0349   -0.0157    0.0468
          42   -0.0361   -0.0315   -0.0633    0.0155    0.0005   -0.0288    0.0096   -0.0295
          43   -0.0161   -0.0134    0.0996    0.0649   -0.0386   -0.0128   -0.0152   -0.0163
          44   -0.0239    0.0111    0.1160    0.0568   -0.0153    0.0034    0.0548    0.0159
          45   -0.0221   -0.0126    0.0932    0.0531   -0.0202   -0.0093    0.0411    0.0041
          46   -0.0047   -0.0011   -0.0519    0.1840    0.0493    0.0392   -0.0005    0.0201
          47   -0.0134   -0.0144   -0.0677    0.1394   -0.0559    0.0289   -0.0136   -0.0024
          48   -0.0082   -0.0084   -0.0417    0.1193    0.0074    0.0242   -0.0013    0.0084
          49    0.1417   -0.0335   -0.0159   -0.0204   -0.0022    0.0859    0.1734   -0.0455
          50    0.1117   -0.0057   -0.0270   -0.0197    0.0091    0.0703   -0.0101   -0.0695
          51    0.0985    0.0773   -0.0170   -0.0205    0.0235    0.0826   -0.1202   -0.0888
          52   -0.0977    0.0106   -0.0020   -0.0227   -0.0002    0.0811    0.0938    0.0697
          53   -0.0766   -0.0723    0.0068   -0.0201    0.0288    0.0879   -0.0876    0.0249
          54   -0.0743    0.0371   -0.0097   -0.0182    0.0004    0.0657    0.0271    0.0429
          55   -0.0059   -0.0716    0.0514    0.0371   -0.0249   -0.0696    0.0479   -0.0934
          56   -0.0121    0.0689    0.0390    0.0298   -0.0215   -0.0551    0.0417   -0.0742
          57   -0.0146    0.0032    0.0524    0.0281    0.0070   -0.0333   -0.0997   -0.0997
          58    0.1150    0.0789    0.0056    0.0154   -0.0099   -0.0726   -0.0050    0.1183
          59    0.1002   -0.0298    0.0186    0.0125    0.0074   -0.0341   -0.1106    0.0736
          60    0.0991   -0.0519    0.0020    0.0119   -0.0107   -0.0610    0.0274    0.0989
          61    0.0087   -0.0031    0.0317   -0.0207   -0.1506    0.0464   -0.0312    0.0400
          62    0.0099    0.0097    0.0212    0.0023    0.0591    0.0060    0.0024    0.0154
          63    0.0154    0.0213    0.0251    0.0113    0.1588   -0.0086    0.0171    0.0092
          64   -0.0005    0.0075   -0.0280    0.1296    0.1197    0.0254    0.0074    0.0287
          65   -0.0170   -0.0221   -0.0456    0.0792   -0.1427    0.0435   -0.0292    0.0216
          66   -0.0069   -0.0054   -0.0292    0.0776   -0.0152    0.0264   -0.0099    0.0187


   Root No.      25        26        27        28        29        30        31        32

                25 A      26 A      27 A      28 A      29 A      30 A      31 A      32 A   

                 994.9    1024.3    1045.6    1065.6    1086.9    1101.1    1110.0    1135.0
  
           1    0.0016   -0.0041    0.0066   -0.0027   -0.0034   -0.0407    0.0011    0.0112
           2   -0.0092    0.0164    0.0051    0.0026    0.0005   -0.0172    0.0028   -0.0132
           3   -0.0149    0.0096   -0.0076    0.0051    0.0010   -0.0114    0.0199   -0.0088
           4   -0.0029    0.0036   -0.0109    0.0080    0.0054    0.0423   -0.0007   -0.0160
           5    0.0186    0.0050    0.0187    0.0077    0.0016    0.0152   -0.0070    0.0062
           6    0.0134   -0.0019    0.0118   -0.0013   -0.0003    0.0108   -0.0185    0.0138
           7   -0.0125    0.0123    0.0021    0.0033    0.0007   -0.0056   -0.0055   -0.0015
           8   -0.0078    0.0057   -0.0004    0.0016   -0.0026    0.0040    0.0099    0.0079
           9   -0.0063    0.0020   -0.0004   -0.0019    0.0022   -0.0040   -0.0031   -0.0050
          10    0.0145   -0.0184   -0.0037    0.0003    0.0029    0.0055    0.0049    0.0032
          11    0.0132   -0.0169   -0.0033   -0.0064   -0.0026    0.0056    0.0130    0.0111
          12    0.0176   -0.0125    0.0049   -0.0066   -0.0031    0.0019   -0.0165   -0.0190
          13   -0.0034    0.0056   -0.0253   -0.0102   -0.0020   -0.0062   -0.0023    0.0029
          14   -0.0083   -0.0001   -0.0227   -0.0099   -0.0016   -0.0029   -0.0054    0.0058
          15   -0.0016    0.0085   -0.0142   -0.0034   -0.0012   -0.0052    0.0042   -0.0013
          16    0.0022   -0.0012    0.0020   -0.0011   -0.0044   -0.0028   -0.0075   -0.0025
          17    0.0035    0.0011    0.0071   -0.0140    0.0160   -0.0057   -0.0127   -0.0104
          18   -0.0037   -0.0099   -0.0115    0.0156   -0.0106    0.0120    0.0228    0.0135
          19    0.0142   -0.0030    0.0025   -0.0067    0.0051   -0.0003   -0.0029   -0.0048
          20    0.0089   -0.0085   -0.0021   -0.0040    0.0008    0.0058    0.0140    0.0101
          21    0.0117   -0.0010   -0.0018    0.0110   -0.0077   -0.0043   -0.0106   -0.0046
          22   -0.0127    0.0028    0.0013   -0.0021   -0.0039   -0.0019   -0.0044   -0.0043
          23   -0.0076   -0.0031   -0.0037    0.0028    0.0006    0.0069    0.0153    0.0102
          24   -0.0106    0.0055    0.0023    0.0004    0.0052   -0.0049   -0.0103   -0.0049
          25    0.0033    0.0036    0.0016   -0.0009   -0.0043   -0.0018   -0.0058   -0.0053
          26    0.0035    0.0011   -0.0008    0.0038    0.0059   -0.0051   -0.0094   -0.0078
          27    0.0062   -0.0022   -0.0005   -0.0028   -0.0007    0.0065    0.0170    0.0149
          28   -0.0097   -0.0127    0.0332    0.0095    0.0017    0.0045    0.0013   -0.0045
          29   -0.0190   -0.0102    0.0135    0.0047    0.0010    0.0049    0.0023   -0.0028
          30   -0.0085   -0.0120    0.0200    0.0031    0.0001   -0.0004   -0.0030    0.0062
          31   -0.0296   -0.1041   -0.0238   -0.0513   -0.0212   -0.1485    0.1223   -0.0477
          32   -0.0282    0.1099    0.0131    0.0474    0.0151    0.0164   -0.0436    0.0031
          33    0.0324   -0.0542    0.0014   -0.0243   -0.0074    0.0109    0.0064    0.0043
          34    0.0347    0.0718    0.0815    0.0017   -0.0193   -0.0614   -0.0374    0.1865
          35    0.0320   -0.0645   -0.0155   -0.0155    0.0068    0.0324   -0.0384   -0.0971
          36    0.0066    0.0210    0.0156    0.0050   -0.0034   -0.0103   -0.0022    0.0402
          37    0.0067    0.0613    0.0026    0.0628    0.0230    0.0704    0.0829   -0.1269
          38   -0.0450   -0.0200   -0.0381   -0.0242   -0.0086   -0.0385   -0.0004    0.0297
          39    0.0046    0.0157    0.0058    0.0131    0.0043    0.0114    0.0137   -0.0233
          40   -0.0745   -0.0626   -0.0586   -0.0532   -0.0043    0.1530   -0.1174    0.0872
          41    0.1074    0.0464    0.0873    0.0547    0.0100   -0.0203    0.0378   -0.0416
          42   -0.0627   -0.0152   -0.0508   -0.0259   -0.0055   -0.0106   -0.0063    0.0142
          43   -0.0819    0.0861   -0.0044    0.0593    0.0242    0.0453    0.0845    0.0379
          44   -0.0363    0.0041    0.0095   -0.0495   -0.0256   -0.0963   -0.0852   -0.0159
          45   -0.0480    0.0458    0.0094    0.0052   -0.0025   -0.0178   -0.0167   -0.0148
          46    0.0352   -0.0007    0.0963    0.0341    0.0025   -0.0017    0.0027    0.0296
          47   -0.0145   -0.0414    0.0061    0.0033    0.0083    0.0509   -0.0059   -0.0578
          48    0.0119   -0.0073    0.0452    0.0188    0.0036    0.0132    0.0058   -0.0097
          49    0.0178   -0.0532   -0.0615    0.1234    0.0286   -0.0254    0.0022    0.0335
          50   -0.0128    0.0460    0.0397   -0.0692    0.0018   -0.0015   -0.0178   -0.0241
          51   -0.0299    0.0628    0.0482   -0.0920   -0.0408    0.0260    0.0160   -0.0149
          52   -0.0365    0.0098    0.0059   -0.0431    0.2049    0.0284    0.0771    0.0659
          53   -0.0515    0.0154   -0.0036    0.0384   -0.2131   -0.0284   -0.0709   -0.0641
          54   -0.0381    0.0164   -0.0013    0.0202   -0.0440   -0.0120   -0.0265   -0.0179
          55    0.0489   -0.0050    0.0003    0.0101   -0.1766    0.0182    0.0228    0.0180
          56    0.0398   -0.0098   -0.0047    0.0095   -0.0878    0.0175    0.0302    0.0226
          57    0.0216   -0.0006    0.0038   -0.0240    0.3112   -0.0407   -0.0591   -0.0453
          58   -0.0132    0.0125    0.0294   -0.0753   -0.0290    0.0209    0.0171   -0.0191
          59   -0.0275   -0.0358   -0.0704    0.1823    0.0651   -0.0571   -0.0657    0.0230
          60   -0.0045    0.0100    0.0325   -0.0906   -0.0291    0.0336    0.0459    0.0003
          61    0.0921    0.0583   -0.0894   -0.0223   -0.0029   -0.0086   -0.0074    0.0051
          62    0.0384    0.0442   -0.0876   -0.0191   -0.0025   -0.0023    0.0011   -0.0007
          63    0.0250    0.0434   -0.0862   -0.0184   -0.0033   -0.0047    0.0035    0.0012
          64    0.0642    0.0630   -0.0923   -0.0161   -0.0022   -0.0069    0.0093   -0.0131
          65    0.0470    0.0205   -0.0698   -0.0262   -0.0043   -0.0112   -0.0145    0.0194
          66    0.0414    0.0297   -0.0589   -0.0171   -0.0032   -0.0104   -0.0042    0.0094


   Root No.      33        34        35        36        37        38        39        40

                33 A      34 A      35 A      36 A      37 A      38 A      39 A      40 A   

                1164.0    1176.0    1187.6    1210.9    1229.4    1295.2    1344.1    1383.4
  
           1    0.0342    0.0102   -0.0008   -0.0137   -0.0126    0.0063   -0.0259   -0.0063
           2    0.0178   -0.0239   -0.0007    0.0031    0.0071   -0.0091    0.0145   -0.0351
           3   -0.0232    0.0254   -0.0007    0.0032   -0.0097    0.0004   -0.0043    0.0139
           4   -0.0232    0.0176   -0.0037   -0.0119   -0.0007    0.0329   -0.0168   -0.0057
           5   -0.0171   -0.0121   -0.0158   -0.0044    0.0083   -0.0240    0.0084   -0.0149
           6    0.0237    0.0123    0.0192    0.0057    0.0001    0.0118   -0.0028    0.0062
           7    0.0052    0.0047   -0.0050   -0.0032   -0.0069   -0.0145    0.0120   -0.0047
           8   -0.0062   -0.0116    0.0173   -0.0077    0.0003    0.0156   -0.0162    0.0199
           9    0.0041    0.0090   -0.0118    0.0107    0.0071    0.0031    0.0001   -0.0146
          10    0.0021    0.0082   -0.0094   -0.0010   -0.0067   -0.0158    0.0113   -0.0011
          11   -0.0298    0.0038    0.0105    0.0130    0.0151    0.0232   -0.0175    0.0080
          12    0.0132   -0.0280    0.0033   -0.0067   -0.0001   -0.0059    0.0078   -0.0061
          13    0.0043   -0.0034    0.0025    0.0016    0.0017    0.0066    0.0140   -0.0023
          14    0.0162   -0.0032    0.0091    0.0223   -0.0241    0.0009   -0.0203    0.0060
          15   -0.0192   -0.0081   -0.0145   -0.0192    0.0246   -0.0222    0.0053   -0.0040
          16   -0.0087   -0.0091    0.0133   -0.0057   -0.0035   -0.0010    0.0034   -0.0114
          17   -0.0047   -0.0022   -0.0008    0.0053    0.0050    0.0035   -0.0013   -0.0029
          18    0.0148    0.0129   -0.0166    0.0024   -0.0000   -0.0024   -0.0028    0.0176
          19   -0.0003    0.0007   -0.0057    0.0074    0.0075    0.0047   -0.0016   -0.0010
          20    0.0111    0.0128   -0.0047   -0.0101   -0.0157   -0.0163    0.0093   -0.0063
          21   -0.0111   -0.0143    0.0122    0.0007    0.0062    0.0105   -0.0076    0.0076
          22   -0.0026    0.0001   -0.0019    0.0050    0.0053    0.0054   -0.0036    0.0017
          23    0.0118    0.0110   -0.0122    0.0008   -0.0032   -0.0118    0.0131   -0.0168
          24   -0.0089   -0.0114    0.0148   -0.0071   -0.0033    0.0053   -0.0087    0.0150
          25   -0.0044   -0.0069    0.0062   -0.0012    0.0013    0.0052   -0.0046    0.0043
          26   -0.0004    0.0009   -0.0076    0.0096    0.0096    0.0094   -0.0106    0.0179
          27    0.0063    0.0081    0.0001   -0.0085   -0.0118   -0.0162    0.0167   -0.0240
          28   -0.0000    0.0036    0.0036   -0.0046    0.0105   -0.0028    0.0135   -0.0041
          29   -0.0056    0.0038   -0.0020   -0.0048    0.0020    0.0006   -0.0092    0.0024
          30    0.0038   -0.0045   -0.0034    0.0104   -0.0189    0.0065   -0.0118    0.0037
          31   -0.0327   -0.0819    0.0346    0.0526    0.0374   -0.0220    0.0620    0.0803
          32    0.0612    0.0462   -0.0312   -0.0402   -0.0371   -0.0160    0.0085    0.0761
          33   -0.0381   -0.0130    0.0182    0.0196    0.0185    0.0247   -0.0427   -0.1628
          34   -0.0123   -0.0047    0.0517    0.0746    0.0810   -0.0257    0.0664    0.0813
          35    0.1212   -0.0699   -0.0328   -0.0728   -0.0428   -0.0169    0.0309    0.1680
          36   -0.0226    0.0143    0.0130    0.0238    0.0159   -0.0120    0.0284    0.0673
          37   -0.0523   -0.0095    0.0522    0.1300   -0.0637   -0.0842    0.0731    0.0458
          38   -0.0663   -0.0113   -0.0969   -0.1203    0.0613    0.0262    0.0428    0.0843
          39    0.0043    0.0039    0.0274    0.0388   -0.0136   -0.0231    0.0311    0.0348
          40   -0.0278   -0.0568   -0.0108    0.0483    0.0046   -0.0774    0.0581    0.0489
          41   -0.0038    0.0426   -0.0030   -0.0435    0.0154    0.0421    0.0217    0.0356
          42    0.0077   -0.0149    0.0051    0.0197   -0.0111   -0.0117   -0.0579   -0.0819
          43    0.0880   -0.0946   -0.0152    0.0108    0.0660    0.0545   -0.0321   -0.0092
          44   -0.1053    0.1594    0.0117   -0.0139   -0.0852   -0.0599    0.0281    0.0171
          45    0.0254   -0.0185    0.0014   -0.0109   -0.0038   -0.0041    0.0048   -0.0075
          46   -0.0619   -0.0787   -0.1044    0.0260   -0.1081    0.0386   -0.0252    0.0043
          47    0.0956    0.1280    0.1541   -0.0242    0.1202   -0.0244    0.0260   -0.0031
          48   -0.0217    0.0029   -0.0126   -0.0250    0.0274   -0.0187    0.0038   -0.0045
          49    0.0323    0.0511   -0.0656    0.0494    0.0318    0.0008   -0.0038    0.0177
          50   -0.0227   -0.0276    0.0355   -0.0182   -0.0096    0.0038    0.0010   -0.0152
          51   -0.0179   -0.0362    0.0516   -0.0459   -0.0316   -0.0048    0.0038   -0.0077
          52   -0.0073   -0.0111    0.0562   -0.0574   -0.0487   -0.0174    0.0007    0.0161
          53    0.0201    0.0275   -0.0720    0.0591    0.0442    0.0064    0.0079   -0.0254
          54   -0.0103   -0.0130    0.0015    0.0130    0.0176    0.0161   -0.0091    0.0055
          55   -0.0139   -0.0191    0.0439   -0.0319   -0.0233    0.0011   -0.0091    0.0147
          56    0.0073    0.0023    0.0101   -0.0183   -0.0186   -0.0159    0.0121   -0.0121
          57    0.0104    0.0221   -0.0657    0.0591    0.0485    0.0149   -0.0007   -0.0063
          58    0.0168    0.0158   -0.0370    0.0261    0.0233    0.0196   -0.0197    0.0296
          59   -0.0524   -0.0550    0.0959   -0.0550   -0.0415   -0.0230    0.0234   -0.0403
          60    0.0326    0.0364   -0.0519    0.0231    0.0128   -0.0016    0.0011    0.0036
          61    0.0154   -0.0116    0.0085    0.0233   -0.0063   -0.0934   -0.1045    0.0188
          62   -0.0071    0.0051   -0.0022   -0.0093    0.0046    0.0239    0.0177   -0.0027
          63   -0.0176    0.0097   -0.0115   -0.0278    0.0075    0.1240    0.1436   -0.0270
          64   -0.0216   -0.0059   -0.0061   -0.0262    0.0545   -0.1157   -0.0867    0.0136
          65    0.0345    0.0002    0.0122    0.0345   -0.0619    0.1486    0.1336   -0.0223
          66    0.0044   -0.0100   -0.0055    0.0105   -0.0181    0.0046   -0.0104    0.0039


   Root No.      41        42        43        44        45        46        47        48

                41 A      42 A      43 A      44 A      45 A      46 A      47 A      48 A   

                1394.4    1403.2    1407.8    1440.3    1710.1    1770.1    1861.9    1926.8
  
           1   -0.0303    0.0235   -0.0156   -0.0423    0.0007   -0.0005   -0.0015    0.0180
           2   -0.0031    0.0007    0.0043    0.0528   -0.0020    0.0015    0.0020   -0.0277
           3    0.0007   -0.0023   -0.0012   -0.0218    0.0008   -0.0009   -0.0011    0.0069
           4    0.0354   -0.0198    0.0188    0.0327   -0.0003    0.0001   -0.0199    0.0031
           5   -0.0042   -0.0231   -0.0402   -0.0347   -0.0000   -0.0002    0.0320   -0.0036
           6    0.0016    0.0101    0.0166    0.0151    0.0001    0.0001   -0.0067    0.0011
           7    0.0027   -0.0020   -0.0076    0.0234   -0.0139    0.0035    0.0050    0.2054
           8    0.0088    0.0291   -0.0444    0.0037    0.0103    0.0002   -0.0036   -0.1476
           9   -0.0134   -0.0264    0.0550   -0.0345    0.0073   -0.0047   -0.0028   -0.1137
          10   -0.0020   -0.0091   -0.0041    0.0175   -0.0016   -0.0015   -0.0029   -0.1718
          11    0.0005    0.0041    0.0113   -0.0381    0.0026   -0.0036    0.0021    0.1479
          12    0.0054    0.0041   -0.0068    0.0183   -0.0001    0.0056    0.0022    0.0682
          13   -0.0041   -0.0003   -0.0050   -0.0024    0.0001    0.0000    0.1563   -0.0049
          14    0.0058    0.0073    0.0167    0.0132    0.0000    0.0001   -0.1518    0.0049
          15   -0.0053   -0.0048   -0.0133   -0.0115   -0.0001    0.0000   -0.0746    0.0014
          16    0.0072    0.0019    0.0199   -0.0169    0.0984    0.0893   -0.0004   -0.0143
          17   -0.0040   -0.0069    0.0139   -0.0086   -0.1013   -0.0859   -0.0002   -0.0071
          18   -0.0048    0.0044   -0.0397    0.0309   -0.0225   -0.0265    0.0007    0.0258
          19    0.0122    0.0156   -0.0077   -0.0045    0.1040   -0.0947   -0.0003   -0.0055
          20   -0.0228   -0.0345    0.0276    0.0056   -0.0475    0.0498    0.0006    0.0206
          21    0.0073    0.0155   -0.0184   -0.0001   -0.0846    0.0704   -0.0004   -0.0141
          22    0.0014    0.0032   -0.0006   -0.0056   -0.0918    0.0984   -0.0004   -0.0173
          23    0.0306    0.0267    0.0009   -0.0086    0.0308   -0.0391    0.0002    0.0102
          24   -0.0330   -0.0315   -0.0002    0.0160    0.0859   -0.0861    0.0003    0.0118
          25   -0.0053   -0.0033   -0.0010   -0.0007   -0.0847   -0.0916   -0.0004   -0.0142
          26   -0.0237   -0.0180   -0.0141    0.0176    0.0988    0.1004    0.0003    0.0119
[...]
 RED. MASS   0.2968         C  2 -- C  5          +5.8% ( 31.3%)     81.0%
 EFF. MASS   4.6364

 VIBRATION   40   40A         ATOM PAIR      ENERGY CONTRIBUTION    RADIAL
 FREQ.      1383.41         C  1 -- H 12         +15.6% ( 49.9%)      4.6%
 T-DIPOLE    0.2009         C  1 -- H 11         +15.3% ( 49.4%)      4.7%
 TRAVEL      0.1029         C  8 -- C  9          +7.2% ( 33.9%)     99.9%
 RED. MASS   0.3927         C  1 -- C  4          +5.9% ( 30.6%)     78.7%
 EFF. MASS   4.6034

 VIBRATION   41   41A         ATOM PAIR      ENERGY CONTRIBUTION    RADIAL
 FREQ.      1394.40         C  8 -- C  9         +13.5% ( 54.6%)    100.0%
 T-DIPOLE    0.3784         C  7 -- C  8          +7.3% ( 40.1%)      0.0%
 TRAVEL      0.0830         C  1 -- C  2          +6.7% ( 38.5%)    100.0%
 RED. MASS   0.7396         C  2 -- H 13          +6.0% ( 36.6%)      2.3%
 EFF. MASS   7.0230

 VIBRATION   42   42A         ATOM PAIR      ENERGY CONTRIBUTION    RADIAL
 FREQ.      1403.21         C  3 -- C  7         +10.2% ( 46.5%)     94.3%
 T-DIPOLE    0.2847         C  8 -- C  9          +8.7% ( 42.8%)     99.9%
 TRAVEL      0.0839         C  7 -- C  8          +8.3% ( 41.9%)      0.0%
 RED. MASS   0.6480         C  2 -- H 14          +7.5% ( 39.7%)      5.1%
 EFF. MASS   6.8268

 VIBRATION   43   43A         ATOM PAIR      ENERGY CONTRIBUTION    RADIAL
 FREQ.      1407.82         C  3 -- C  6         +15.2% ( 61.9%)     83.2%
 T-DIPOLE    0.2300         C  3 -- C  7         +12.3% ( 55.7%)     72.7%
 TRAVEL      0.0732         C  3 -- C  9          +8.2% ( 45.4%)     15.3%
 RED. MASS   1.5477         C  3 -- C  4          +8.0% ( 44.8%)      0.0%
 EFF. MASS   8.9277

 VIBRATION   44   44A         ATOM PAIR      ENERGY CONTRIBUTION    RADIAL
 FREQ.      1440.27         C  1 -- C  4         +14.4% ( 61.0%)     97.0%
 T-DIPOLE    0.2151         C  1 -- C  2         +11.9% ( 55.5%)     38.4%
 TRAVEL      0.0705         C  1 -- H 12          +8.8% ( 47.8%)      1.3%
 RED. MASS   1.5216         C  1 -- H 11          +8.3% ( 46.3%)      1.3%
 EFF. MASS   9.4136

 VIBRATION   45   45A         ATOM PAIR      ENERGY CONTRIBUTION    RADIAL
 FREQ.      1710.12         C  6 -- C  9         +16.6% ( 73.0%)    100.0%
 T-DIPOLE    1.5307         C  7 -- C  8         +16.4% ( 72.6%)    100.0%
 TRAVEL      0.0572         C  7 -- C  9          +9.8% ( 56.1%)     27.0%
 RED. MASS   2.7220         C  6 -- C  8          +9.8% ( 56.1%)     27.4%
 EFF. MASS  12.0352

 VIBRATION   46   46A         ATOM PAIR      ENERGY CONTRIBUTION    RADIAL
 FREQ.      1770.11         C  7 -- C  8         +16.0% ( 70.2%)     99.8%
 T-DIPOLE    0.1639         C  6 -- C  9         +15.9% ( 70.0%)     99.9%
 TRAVEL      0.0568         C  8 -- C  9         +11.0% ( 58.3%)      0.0%
 RED. MASS   2.6816         C  7 -- C  9          +9.8% ( 55.0%)     64.8%
 EFF. MASS  11.8111

 VIBRATION   47   47A         ATOM PAIR      ENERGY CONTRIBUTION    RADIAL
 FREQ.      1861.88         C  5 -- C 10         +45.2% ( 99.2%)     98.9%
 T-DIPOLE    0.1320         C  2 -- C  5         +16.7% ( 60.3%)     54.8%
 TRAVEL      0.0554         C  5 -- H 16         +15.4% ( 57.9%)      3.9%
 RED. MASS   5.2924         C 10 -- H 22         +11.0% ( 48.8%)     10.9%
 EFF. MASS  11.7909         C 10 -- H 21         +10.7% ( 48.4%)     12.9%

 VIBRATION   48   48A         ATOM PAIR      ENERGY CONTRIBUTION    RADIAL
 FREQ.      1926.80         C  3 -- C  4         +32.1% ( 97.4%)     99.4%
 T-DIPOLE    2.5371         C  3 -- C  6         +12.8% ( 61.5%)     47.0%
 TRAVEL      0.0542         C  3 -- C  7         +12.6% ( 61.2%)     42.9%
 RED. MASS   5.6510         C  3 -- C  8         +12.5% ( 60.9%)     87.8%
 EFF. MASS  11.9208         C  3 -- C  9         +12.5% ( 60.8%)     90.5%

 VIBRATION   49   49A         ATOM PAIR      ENERGY CONTRIBUTION    RADIAL
 FREQ.      2931.17         C  1 -- H 12         +46.9% ( 71.3%)     97.2%
 T-DIPOLE    0.0750         C  1 -- H 11         +35.5% ( 62.0%)     95.4%
 TRAVEL      0.1217         C  2 -- H 13          +7.5% ( 28.5%)     96.3%
 RED. MASS   0.3895         C  2 -- H 14          +7.4% ( 28.3%)     96.0%
 EFF. MASS   1.5522

 VIBRATION   50   50A         ATOM PAIR      ENERGY CONTRIBUTION    RADIAL
 FREQ.      2949.20         C  2 -- H 13         +42.0% ( 67.1%)     96.6%
 T-DIPOLE    0.0766         C  2 -- H 14         +40.9% ( 66.3%)     96.4%
 TRAVEL      0.1220         C  1 -- H 12          +8.7% ( 30.6%)     97.7%
 RED. MASS   0.3840         C  1 -- H 11          +6.0% ( 25.3%)     95.5%
 EFF. MASS   1.5363

 VIBRATION   51   51A         ATOM PAIR      ENERGY CONTRIBUTION    RADIAL
 FREQ.      3012.44         C  1 -- H 11         +55.9% ( 73.8%)     98.5%
 T-DIPOLE    0.1212         C  1 -- H 12         +39.6% ( 62.1%)     96.6%
 TRAVEL      0.1323         C  2 -- H 13          +1.1% ( 10.4%)     98.4%
 RED. MASS   0.4664         C  2 -- H 14          +0.9% (  9.4%)     97.2%
 EFF. MASS   1.2798

 VIBRATION   52   52A         ATOM PAIR      ENERGY CONTRIBUTION    RADIAL
 FREQ.      3024.14         C  2 -- H 14         +49.1% ( 69.1%)     97.8%
 T-DIPOLE    0.0729         C  2 -- H 13         +46.9% ( 67.4%)     97.6%
 TRAVEL      0.1323         C  1 -- H 11          +1.2% ( 10.9%)     98.0%
 RED. MASS   0.4579         C  1 -- H 12          +0.9% (  9.4%)     96.2%
 EFF. MASS   1.2746

 VIBRATION   53   53A         ATOM PAIR      ENERGY CONTRIBUTION    RADIAL
 FREQ.      3028.68         C  4 -- H 15         +96.1% ( 99.4%)    100.0%
 T-DIPOLE    0.2832         C  3 -- C  4          +1.5% ( 12.2%)     36.4%
 TRAVEL      0.1216         C  1 -- C  4          +1.3% ( 11.5%)     14.3%
 RED. MASS   0.9078         C  1 -- H 12          +0.7% (  8.5%)     99.4%
 EFF. MASS   1.5056

 VIBRATION   54   54A         ATOM PAIR      ENERGY CONTRIBUTION    RADIAL
 FREQ.      3041.55         C  5 -- H 16         +95.7% ( 99.2%)    100.0%
 T-DIPOLE    0.2363         C  5 -- C 10          +1.4% ( 12.0%)     30.6%
 TRAVEL      0.1216         C  2 -- C  5          +1.3% ( 11.6%)     13.8%
 RED. MASS   0.9004         C 10 -- H 21          +0.9% (  9.6%)     95.5%
 EFF. MASS   1.4991

 VIBRATION   55   55A         ATOM PAIR      ENERGY CONTRIBUTION    RADIAL
 FREQ.      3128.41         C  6 -- H 17         +74.2% ( 88.4%)    100.0%
 T-DIPOLE    0.3803         C  9 -- H 20         +20.6% ( 46.6%)    100.0%
 TRAVEL      0.1201         C  6 -- C  9          +1.3% ( 11.7%)      8.4%
 RED. MASS   0.6080         C  6 -- C  8          +1.3% ( 11.5%)     94.6%
 EFF. MASS   1.4939

 VIBRATION   56   56A         ATOM PAIR      ENERGY CONTRIBUTION    RADIAL
 FREQ.      3134.92         C 10 -- H 22         +91.5% ( 97.4%)     99.9%
 T-DIPOLE    0.1967         C 10 -- H 21          +7.1% ( 27.1%)     72.3%
 TRAVEL      0.1182         C  5 -- C 10          +1.3% ( 11.7%)     21.7%
 RED. MASS   0.8495
 EFF. MASS   1.5398

 VIBRATION   57   57A         ATOM PAIR      ENERGY CONTRIBUTION    RADIAL
 FREQ.      3136.35         C  8 -- H 19         +50.7% ( 73.2%)    100.0%
 T-DIPOLE    0.3539         C  7 -- H 18         +43.1% ( 67.5%)    100.0%
 TRAVEL      0.1205         C  7 -- C  8          +1.2% ( 11.2%)      0.1%
 RED. MASS   0.4558         C  8 -- C  9          +0.8% (  9.3%)     22.7%
 EFF. MASS   1.4808

 VIBRATION   58   58A         ATOM PAIR      ENERGY CONTRIBUTION    RADIAL
 FREQ.      3145.19         C  9 -- H 20         +51.7% ( 74.3%)    100.0%
 T-DIPOLE    0.4930         C  7 -- H 18         +20.1% ( 46.4%)    100.0%
 TRAVEL      0.1159         C  6 -- H 17         +12.4% ( 36.4%)     99.9%
 RED. MASS   0.3544         C  8 -- H 19          +9.0% ( 31.1%)     99.8%
 EFF. MASS   1.5958

 VIBRATION   59   59A         ATOM PAIR      ENERGY CONTRIBUTION    RADIAL
 FREQ.      3147.30         C 10 -- H 21         +91.5% ( 96.3%)     99.7%
 T-DIPOLE    0.2743         C 10 -- H 22          +6.1% ( 24.8%)     43.2%
 TRAVEL      0.1209         C  5 -- C 10          +1.6% ( 12.7%)     73.9%
 RED. MASS   0.8140         C  5 -- H 16          +0.8% (  8.9%)     94.7%
 EFF. MASS   1.4651

 VIBRATION   60   60A         ATOM PAIR      ENERGY CONTRIBUTION    RADIAL
 FREQ.      3156.64         C  8 -- H 19         +34.1% ( 60.5%)    100.0%
 T-DIPOLE    0.3628         C  7 -- H 18         +30.3% ( 57.0%)     99.9%
 TRAVEL      0.1123         C  9 -- H 20         +20.9% ( 47.4%)    100.0%
 RED. MASS   0.2824         C  6 -- H 17          +6.9% ( 27.3%)     99.9%
 EFF. MASS   1.6944

      SYMMETRY NUMBER FOR POINT-GROUP C1  =  1


          SYSTEM IS A GROUND STATE



 InChI=1S/C10H12/c1-2-3-4-7-10-8-5-6-9-10/h2,5-9H,1,3-4H2


          MOLECULE IS NOT LINEAR

          THERE ARE 60 GENUINE VIBRATIONS IN THIS SYSTEM
          THIS THERMODYNAMICS CALCULATION IS LIMITED TO
          MOLECULES WHICH HAVE NO INTERNAL ROTATIONS




                    CALCULATED THERMODYNAMIC PROPERTIES
                                          *
   TEMP. (K)   PARTITION FUNCTION   H.O.F.    ENTHALPY  HEAT CAPACITY ENTROPY
                                   KCAL/MOL   CAL/MOLE    CAL/K/MOL  CAL/K/MOL


 298.00  VIB.     0.9543D+03                  4431.8723    30.9582    28.5063
         ROT.     0.7873D+06                   888.2813     2.9808    29.9598
         INT.     0.7513D+09                  5320.1536    33.9390    58.4661
         TRA.     0.1470D+28                  1480.4688     4.9680    40.5480
         TOT.                       60.758    6800.6225    38.9070    99.0141

 200.00  VIB.     0.8286D+02                  1986.4198    19.2972    18.7099
         ROT.     0.4329D+06                   596.1620     2.9808    28.7712
         INT.     0.3587D+08                  2582.5817    22.2780    47.4811
         TRA.     0.8080D+27                   993.6033     4.9680    38.5668
         TOT.                       57.534    3576.1850    27.2460    86.0479

 210.00  VIB.     0.1064D+03                  2184.7264    20.3703    19.6773
         ROT.     0.4657D+06                   625.9700     2.9808    28.9166
         INT.     0.4953D+08                  2810.6965    23.3511    48.5939
         TRA.     0.8694D+27                  1043.2834     4.9680    38.8092
         TOT.                       57.811    3853.9799    28.3191    87.4031

 220.00  VIB.     0.1364D+03                  2393.9430    21.4788    20.6503
         ROT.     0.4994D+06                   655.7781     2.9808    29.0553
         INT.     0.6813D+08                  3049.7212    24.4596    49.7056
         TRA.     0.9322D+27                  1092.9636     4.9680    39.0403
         TOT.                       58.100    4142.6847    29.4276    88.7459

 230.00  VIB.     0.1750D+03                  2614.4106    22.6199    21.6302
         ROT.     0.5338D+06                   685.5862     2.9808    29.1878
         INT.     0.9341D+08                  3299.9969    25.6008    50.8179
         TRA.     0.9965D+27                  1142.6437     4.9680    39.2612
         TOT.                       58.400    4442.6406    30.5688    90.0791

 240.00  VIB.     0.2244D+03                  2846.4397    23.7905    22.6175
         ROT.     0.5690D+06                   715.3943     2.9808    29.3146
         INT.     0.1277D+09                  3561.8340    26.7713    51.9321
         TRA.     0.1062D+28                  1192.3239     4.9680    39.4726
         TOT.                       58.712    4754.1579    31.7393    91.4047

 250.00  VIB.     0.2877D+03                  3090.3052    24.9866    23.6128
         ROT.     0.6050D+06                   745.2024     2.9808    29.4363
         INT.     0.1741D+09                  3835.5076    27.9674    53.0492
         TRA.     0.1129D+28                  1242.0041     4.9680    39.6754
         TOT.                       59.035    5077.5117    32.9354    92.7246

 260.00  VIB.     0.3691D+03                  3346.2433    26.2043    24.6165
         ROT.     0.6416D+06                   775.0105     2.9808    29.5532
         INT.     0.2368D+09                  4121.2539    29.1851    54.1697
         TRA.     0.1198D+28                  1291.6842     4.9680    39.8703
         TOT.                       59.370    5412.9381    34.1532    94.0400

 270.00  VIB.     0.4736D+03                  3614.4503    27.4397    25.6286
         ROT.     0.6790D+06                   804.8186     2.9808    29.6657
         INT.     0.3215D+09                  4419.2690    30.4205    55.2943
         TRA.     0.1267D+28                  1341.3644     4.9680    40.0578
         TOT.                       59.718    5760.6334    35.3885    95.3520

 280.00  VIB.     0.6079D+03                  3895.0818    28.6885    26.6490
         ROT.     0.7171D+06                   834.6267     2.9808    29.7741
         INT.     0.4359D+09                  4729.7085    31.6694    56.4231
         TRA.     0.1338D+28                  1391.0445     4.9680    40.2384
         TOT.                       60.078    6120.7530    36.6374    96.6616

 290.00  VIB.     0.7808D+03                  4188.2532    29.9470    27.6777
         ROT.     0.7558D+06                   864.4348     2.9808    29.8787
         INT.     0.5901D+09                  5052.6881    32.9278    57.5564
         TRA.     0.1411D+28                  1440.7247     4.9680    40.4128
         TOT.                       60.451    6493.4128    37.8959    97.9692

 300.00  VIB.     0.1003D+04                  4494.0419    31.2114    28.7142
         ROT.     0.7952D+06                   894.2429     2.9808    29.9798
         INT.     0.7980D+09                  5388.2848    34.1922    58.6940
         TRA.     0.1484D+28                  1490.4049     4.9680    40.5812
         TOT.                       60.836    6878.6897    39.1602    99.2752

 310.00  VIB.     0.1291D+04                  4812.4886    32.4781    29.7583
         ROT.     0.8353D+06                   924.0510     2.9808    30.0775
         INT.     0.1078D+10                  5736.5396    35.4589    59.8358
         TRA.     0.1559D+28                  1540.0850     4.9680    40.7441
         TOT.                       61.234    7276.6246    40.4269   100.5799

 320.00  VIB.     0.1661D+04                  5143.5999    33.7438    30.8094
         ROT.     0.8761D+06                   953.8591     2.9808    30.1722
         INT.     0.1455D+10                  6097.4590    36.7246    60.9816
         TRA.     0.1635D+28                  1589.7652     4.9680    40.9018
         TOT.                       61.645    7687.2242    41.6926   101.8834

 330.00  VIB.     0.2140D+04                  5487.3515    35.0056    31.8671
         ROT.     0.9175D+06                   983.6672     2.9808    30.2639
         INT.     0.1963D+10                  6471.0187    37.9864    62.1310
         TRA.     0.1713D+28                  1639.4454     4.9680    41.0547
         TOT.                       62.068    8110.4641    42.9545   103.1857

 340.00  VIB.     0.2758D+04                  5843.6904    36.2608    32.9308
         ROT.     0.9595D+06                  1013.4753     2.9808    30.3529
         INT.     0.2647D+10                  6857.1657    39.2416    63.2836
         TRA.     0.1791D+28                  1689.1255     4.9680    41.2030
         TOT.                       62.504    8546.2912    44.2097   104.4867

 350.00  VIB.     0.3559D+04                  6212.5382    37.5070    33.9999
         ROT.     0.1002D+07                  1043.2834     2.9808    30.4393
         INT.     0.3566D+10                  7255.8216    40.4878    64.4392
         TRA.     0.1871D+28                  1738.8057     4.9680    41.3470
         TOT.                       62.952    8994.6273    45.4559   105.7862

 360.00  VIB.     0.4595D+04                  6593.7940    38.7421    35.0738
         ROT.     0.1045D+07                  1073.0915     2.9808    30.5233
         INT.     0.4804D+10                  7666.8856    41.7229    65.5971
         TRA.     0.1951D+28                  1788.4859     4.9680    41.4870
         TOT.                       63.413    9455.3714    46.6909   107.0841

 370.00  VIB.     0.5939D+04                  6987.3372    39.9642    36.1520
         ROT.     0.1089D+07                  1102.8996     2.9808    30.6049
         INT.     0.6469D+10                  8090.2368    42.9450    66.7570
         TRA.     0.2033D+28                  1838.1660     4.9680    41.6231
         TOT.                       63.886    9928.4029    47.9131   108.3800

 380.00  VIB.     0.7681D+04                  7393.0301    41.1718    37.2339
         ROT.     0.1134D+07                  1132.7077     2.9808    30.6844
         INT.     0.8708D+10                  8525.7378    44.1526    67.9183
         TRA.     0.2116D+28                  1887.8462     4.9680    41.7556
         TOT.                       64.371   10413.5839    49.1206   109.6739

 390.00  VIB.     0.9942D+04                  7810.7202    42.3635    38.3188
         ROT.     0.1179D+07                  1162.5158     2.9808    30.7618
         INT.     0.1172D+11                  8973.2360    45.3443    69.0806
         TRA.     0.2200D+28                  1937.5263     4.9680    41.8846
         TOT.                       64.868   10910.7624    50.3123   110.9652

 400.00  VIB.     0.1288D+05                  8240.2434    43.5382    39.4062
         ROT.     0.1224D+07                  1192.3239     2.9808    30.8373
         INT.     0.1577D+11                  9432.5673    46.5190    70.2435
         TRA.     0.2285D+28                  1987.2065     4.9680    42.0104
         TOT.                       65.377   11419.7738    51.4870   112.2539

   *: NOTE: HEATS OF FORMATION ARE RELATIVE TO THE
            ELEMENTS IN THEIR STANDARD STATE AT 298K
              (=  Standard Enthalpy of Formation).

            Hvib:  Zero-point energy is not included.
                   frequencies of less than zero cm-1 are not included.
            Hrot = (3/2)RT
            Htra = (3/2)RT + pV = (5/2)RT

            Heat capacity is Cp, not Cv

          For more information, see: HTTP://OpenMOPAC.net/Manual/thermochemistry.html


           FORCE CONSTANT IN CARTESIAN COORDINATES (Millidynes/A)

    ATOM   CHEMICAL       X               Y               Z
   NUMBER   SYMBOL  FORCE CONSTANT  FORCE CONSTANT  FORCE CONSTANT

      1       C        8.201286        8.713341        8.348259
      2       C        8.147987        8.786615        8.387798
      3       C       10.546177        9.383874        8.450534
      4       C        9.621445        9.170248        8.255671
      5       C        8.829745        9.341509        9.000075
      6       C        7.739345       11.348866        7.962154
      7       C        8.316648        7.603862       11.134509
      8       C        9.226080        9.624255        8.266655
      9       C        9.337899        8.833628        8.955040
     10       C        8.416572        9.286864        8.837820
     11       H        1.158911        3.009271        2.075889
     12       H        1.170529        0.786300        4.328031
     13       H        1.220257        0.815576        4.371200
     14       H        1.166895        3.027002        2.095297
     15       H        1.314238        1.109548        3.746711
     16       H        1.143527        1.009381        4.074725
     17       H        0.631045        3.487488        2.232471
     18       H        0.996674        1.490075        3.972676
     19       H        2.117932        3.710256        0.640886
     20       H        2.582562        0.640440        3.242896
     21       H        1.111991        4.025182        1.345904
     22       H        1.232444        0.901065        4.334745

 **********************
 *                    *
 * JOB ENDED NORMALLY *
 *                    *
 **********************



 TOTAL JOB TIME:             3.25 SECONDS

 == MOPAC DONE ==
