 *******************************************************************************
 ** Site#: 14399        For non-commercial use only    Version 18.184L 64BITS **
 *******************************************************************************
 ** Cite this program as: MOPAC2016, Version: 18.184L, James J. P. Stewart,   **
 ** Stewart Computational Chemistry, web: HTTP://OpenMOPAC.net. Days left:  18**
 *******************************************************************************
 **                                                                           **
 **                                MOPAC2016                                  **
 **                                                                           **
 *******************************************************************************

                              PM3 CALCULATION RESULTS

 *******************************************************************************
 *  CALCULATION DONE:                                Sat Jun 15 10:17:24 2019  *
 *  PM3        - The PM3 Hamiltonian to be used
 *  PRECISE    - CRITERIA TO BE INCREASED BY 100 TIMES
 *  NOSYM      - POINT-GROUP SYMMETRY SET TO C1
 *  THREADS=1  - MULTI-THREADING NOT USED
 *  T=         - A TIME OF 172800.0 SECONDS REQUESTED
 *  DUMP=N     - RESTART FILE WRITTEN EVERY  7200.000 SECONDS
 *******************************************************************************
pm3  precise nosym THREADS=1
 InChI=1S/C10H12/c1-2-6-9(5-1)10-7-3-4-8-10/h1,3,5-7,10H,2,4,8H2

   ATOM   CHEMICAL          X               Y               Z
  NUMBER   SYMBOL      (ANGSTROMS)     (ANGSTROMS)     (ANGSTROMS)
 
     1       C         -0.61120000  *  -0.31380000  *  -0.83110000  *
     2       C         -1.36540000  *  -1.28180000  *   0.09920000  *
     3       C         -2.55650000  *  -0.49570000  *   0.65730000  *
     4       C          3.07700000  *   0.17820000  *  -0.18500000  *
     5       C          0.77540000  *  -0.00700000  *  -0.32890000  *
     6       C         -1.44720000  *   0.91820000  *  -0.83380000  *
     7       C          1.89630000  *  -0.25120000  *  -0.99220000  *
     8       C         -2.49210000  *   0.81940000  *  -0.03100000  *
     9       C          2.41760000  *   0.70460000  *   1.04810000  *
    10       C          1.10330000  *   0.59370000  *   0.95520000  *
    11       H         -0.57170000  *  -0.72880000  *  -1.86290000  *
    12       H         -0.72830000  *  -1.66260000  *   0.92840000  *
    13       H         -1.73150000  *  -2.15540000  *  -0.48380000  *
    14       H         -2.45940000  *  -0.35050000  *   1.75460000  *
    15       H         -3.51650000  *  -1.00350000  *   0.42250000  *
    16       H          3.64180000  *   0.98000000  *  -0.70520000  *
    17       H          3.72920000  *  -0.68790000  *   0.05390000  *
    18       H          1.94620000  *  -0.69890000  *  -1.97640000  *
    19       H          2.93480000  *   1.11970000  *   1.90290000  *
    20       H         -1.22620000  *   1.80470000  *  -1.41990000  *
    21       H         -3.21320000  *   1.61730000  *   0.11250000  *
    22       H          0.39740000  *   0.90130000  *   1.71560000  *
 


          CARTESIAN COORDINATES 

    NO.       ATOM           X           Y           Z

     1         C         -0.6112     -0.3138     -0.8311
     2         C         -1.3654     -1.2818      0.0992
     3         C         -2.5565     -0.4957      0.6573
     4         C          3.0770      0.1782     -0.1850
     5         C          0.7754     -0.0070     -0.3289
     6         C         -1.4472      0.9182     -0.8338
     7         C          1.8963     -0.2512     -0.9922
     8         C         -2.4921      0.8194     -0.0310
     9         C          2.4176      0.7046      1.0481
    10         C          1.1033      0.5937      0.9552
    11         H         -0.5717     -0.7288     -1.8629
    12         H         -0.7283     -1.6626      0.9284
    13         H         -1.7315     -2.1554     -0.4838
    14         H         -2.4594     -0.3505      1.7546
    15         H         -3.5165     -1.0035      0.4225
    16         H          3.6418      0.9800     -0.7052
    17         H          3.7292     -0.6879      0.0539
    18         H          1.9462     -0.6989     -1.9764
    19         H          2.9348      1.1197      1.9029
    20         H         -1.2262      1.8047     -1.4199
    21         H         -3.2132      1.6173      0.1125
    22         H          0.3974      0.9013      1.7156

  H: (PM3): J. J. P. STEWART, J. COMP. CHEM. 10, 209 (1989).
  C: (PM3): J. J. P. STEWART, J. COMP. CHEM. 10, 209 (1989).

           Empirical Formula: C10 H12  =    22 atoms



      MOLECULAR POINT GROUP   :   C1  


      RHF CALCULATION, NO. OF DOUBLY OCCUPIED LEVELS = 26


          Geometry optimization using EF

          DIAGONAL MATRIX USED AS START HESSIAN

 CYCLE:     1 TIME:   0.004 TIME LEFT:  2.00D  GRAD.:   117.681 HEAT:  43.80743
 CYCLE:     2 TIME:   0.016 TIME LEFT:  2.00D  GRAD.:    68.338 HEAT:  42.05084
 CYCLE:     3 TIME:   0.004 TIME LEFT:  2.00D  GRAD.:    50.085 HEAT:  41.25945
 CYCLE:     4 TIME:   0.004 TIME LEFT:  2.00D  GRAD.:    64.049 HEAT:  40.96932
 CYCLE:     5 TIME:   0.004 TIME LEFT:  2.00D  GRAD.:    66.389 HEAT:  40.88668
 CYCLE:     6 TIME:   0.008 TIME LEFT:  2.00D  GRAD.:    63.536 HEAT:  40.53824
 CYCLE:     7 TIME:   0.008 TIME LEFT:  2.00D  GRAD.:    27.961 HEAT:  39.85801
 CYCLE:     8 TIME:   0.008 TIME LEFT:  2.00D  GRAD.:    24.525 HEAT:  39.74824
 CYCLE:     9 TIME:   0.004 TIME LEFT:  2.00D  GRAD.:    19.873 HEAT:  39.62472
 CYCLE:    10 TIME:   0.008 TIME LEFT:  2.00D  GRAD.:    26.461 HEAT:  39.57588
 CYCLE:    11 TIME:   0.004 TIME LEFT:  2.00D  GRAD.:    28.726 HEAT:  39.57012
 CYCLE:    12 TIME:   0.004 TIME LEFT:  2.00D  GRAD.:    31.357 HEAT:  39.54402
 CYCLE:    13 TIME:   0.004 TIME LEFT:  2.00D  GRAD.:    18.159 HEAT:  39.43295
 CYCLE:    14 TIME:   0.008 TIME LEFT:  2.00D  GRAD.:    10.429 HEAT:  39.35619
 CYCLE:    15 TIME:   0.008 TIME LEFT:  2.00D  GRAD.:     6.543 HEAT:  39.33406
 CYCLE:    16 TIME:   0.012 TIME LEFT:  2.00D  GRAD.:     6.750 HEAT:  39.32511
 CYCLE:    17 TIME:   0.004 TIME LEFT:  2.00D  GRAD.:     3.922 HEAT:  39.30981
 CYCLE:    18 TIME:   0.004 TIME LEFT:  2.00D  GRAD.:     6.109 HEAT:  39.30225
 CYCLE:    19 TIME:   0.004 TIME LEFT:  2.00D  GRAD.:     6.827 HEAT:  39.29257
 CYCLE:    20 TIME:   0.004 TIME LEFT:  2.00D  GRAD.:     7.410 HEAT:  39.28284
 CYCLE:    21 TIME:   0.008 TIME LEFT:  2.00D  GRAD.:     6.924 HEAT:  39.26952
 CYCLE:    22 TIME:   0.008 TIME LEFT:  2.00D  GRAD.:     5.993 HEAT:  39.26298
 CYCLE:    23 TIME:   0.004 TIME LEFT:  2.00D  GRAD.:     4.920 HEAT:  39.25363
 CYCLE:    24 TIME:   0.004 TIME LEFT:  2.00D  GRAD.:     4.088 HEAT:  39.24685
 CYCLE:    25 TIME:   0.004 TIME LEFT:  2.00D  GRAD.:     4.182 HEAT:  39.24271
 CYCLE:    26 TIME:   0.008 TIME LEFT:  2.00D  GRAD.:     3.541 HEAT:  39.23844
 CYCLE:    27 TIME:   0.004 TIME LEFT:  2.00D  GRAD.:     3.190 HEAT:  39.23537
 CYCLE:    28 TIME:   0.004 TIME LEFT:  2.00D  GRAD.:     2.943 HEAT:  39.23270
 CYCLE:    29 TIME:   0.004 TIME LEFT:  2.00D  GRAD.:     2.926 HEAT:  39.23006
 CYCLE:    30 TIME:   0.004 TIME LEFT:  2.00D  GRAD.:     1.418 HEAT:  39.22682
 CYCLE:    31 TIME:   0.004 TIME LEFT:  2.00D  GRAD.:     2.445 HEAT:  39.22495
 CYCLE:    32 TIME:   0.008 TIME LEFT:  2.00D  GRAD.:     1.829 HEAT:  39.22190
 CYCLE:    33 TIME:   0.004 TIME LEFT:  2.00D  GRAD.:     1.785 HEAT:  39.21935
 CYCLE:    34 TIME:   0.004 TIME LEFT:  2.00D  GRAD.:     1.786 HEAT:  39.21572
 CYCLE:    35 TIME:   0.004 TIME LEFT:  2.00D  GRAD.:     2.174 HEAT:  39.20911
 CYCLE:    36 TIME:   0.008 TIME LEFT:  2.00D  GRAD.:     2.375 HEAT:  39.20220
 CYCLE:    37 TIME:   0.004 TIME LEFT:  2.00D  GRAD.:     1.981 HEAT:  39.19523
 CYCLE:    38 TIME:   0.004 TIME LEFT:  2.00D  GRAD.:     1.870 HEAT:  39.18787
 CYCLE:    39 TIME:   0.004 TIME LEFT:  2.00D  GRAD.:     1.992 HEAT:  39.18142
 CYCLE:    40 TIME:   0.004 TIME LEFT:  2.00D  GRAD.:     1.859 HEAT:  39.17456
 CYCLE:    41 TIME:   0.008 TIME LEFT:  2.00D  GRAD.:     1.664 HEAT:  39.16855
 CYCLE:    42 TIME:   0.004 TIME LEFT:  2.00D  GRAD.:     1.694 HEAT:  39.16289
 CYCLE:    43 TIME:   0.004 TIME LEFT:  2.00D  GRAD.:     2.117 HEAT:  39.15693
 CYCLE:    44 TIME:   0.004 TIME LEFT:  2.00D  GRAD.:     2.046 HEAT:  39.15017
 CYCLE:    45 TIME:   0.004 TIME LEFT:  2.00D  GRAD.:     1.874 HEAT:  39.14202
 CYCLE:    46 TIME:   0.008 TIME LEFT:  2.00D  GRAD.:     1.566 HEAT:  39.13518
 CYCLE:    47 TIME:   0.004 TIME LEFT:  2.00D  GRAD.:     1.774 HEAT:  39.12979
 CYCLE:    48 TIME:   0.004 TIME LEFT:  2.00D  GRAD.:     1.646 HEAT:  39.12380
 CYCLE:    49 TIME:   0.004 TIME LEFT:  2.00D  GRAD.:     1.607 HEAT:  39.11665
 CYCLE:    50 TIME:   0.008 TIME LEFT:  2.00D  GRAD.:     1.450 HEAT:  39.11051
 CYCLE:    51 TIME:   0.004 TIME LEFT:  2.00D  GRAD.:     1.374 HEAT:  39.10626
 CYCLE:    52 TIME:   0.004 TIME LEFT:  2.00D  GRAD.:     1.386 HEAT:  39.10230
 CYCLE:    53 TIME:   0.004 TIME LEFT:  2.00D  GRAD.:     1.516 HEAT:  39.09765
 CYCLE:    54 TIME:   0.004 TIME LEFT:  2.00D  GRAD.:     1.672 HEAT:  39.09159
 CYCLE:    55 TIME:   0.008 TIME LEFT:  2.00D  GRAD.:     1.724 HEAT:  39.08516
 CYCLE:    56 TIME:   0.004 TIME LEFT:  2.00D  GRAD.:     1.386 HEAT:  39.08006
 CYCLE:    57 TIME:   0.004 TIME LEFT:  2.00D  GRAD.:     1.037 HEAT:  39.07620
 CYCLE:    58 TIME:   0.004 TIME LEFT:  2.00D  GRAD.:     0.761 HEAT:  39.07412
 CYCLE:    59 TIME:   0.008 TIME LEFT:  2.00D  GRAD.:     0.610 HEAT:  39.07293
 CYCLE:    60 TIME:   0.004 TIME LEFT:  2.00D  GRAD.:     0.561 HEAT:  39.07214
 CYCLE:    61 TIME:   0.004 TIME LEFT:  2.00D  GRAD.:     0.604 HEAT:  39.07130
 CYCLE:    62 TIME:   0.004 TIME LEFT:  2.00D  GRAD.:     0.691 HEAT:  39.07022
 CYCLE:    63 TIME:   0.004 TIME LEFT:  2.00D  GRAD.:     0.744 HEAT:  39.06872
 CYCLE:    64 TIME:   0.004 TIME LEFT:  2.00D  GRAD.:     0.715 HEAT:  39.06725
 CYCLE:    65 TIME:   0.008 TIME LEFT:  2.00D  GRAD.:     0.653 HEAT:  39.06573
 CYCLE:    66 TIME:   0.004 TIME LEFT:  2.00D  GRAD.:     0.581 HEAT:  39.06460
 CYCLE:    67 TIME:   0.004 TIME LEFT:  2.00D  GRAD.:     0.507 HEAT:  39.06380
 CYCLE:    68 TIME:   0.008 TIME LEFT:  2.00D  GRAD.:     0.430 HEAT:  39.06328
 CYCLE:    69 TIME:   0.004 TIME LEFT:  2.00D  GRAD.:     0.382 HEAT:  39.06286
 CYCLE:    70 TIME:   0.004 TIME LEFT:  2.00D  GRAD.:     0.359 HEAT:  39.06253
 CYCLE:    71 TIME:   0.004 TIME LEFT:  2.00D  GRAD.:     0.332 HEAT:  39.06221
 CYCLE:    72 TIME:   0.004 TIME LEFT:  2.00D  GRAD.:     0.310 HEAT:  39.06196
 CYCLE:    73 TIME:   0.004 TIME LEFT:  2.00D  GRAD.:     0.291 HEAT:  39.06173
 CYCLE:    74 TIME:   0.008 TIME LEFT:  2.00D  GRAD.:     0.311 HEAT:  39.06154
 CYCLE:    75 TIME:   0.004 TIME LEFT:  2.00D  GRAD.:     0.264 HEAT:  39.06133
 CYCLE:    76 TIME:   0.004 TIME LEFT:  2.00D  GRAD.:     0.221 HEAT:  39.06117
 CYCLE:    77 TIME:   0.004 TIME LEFT:  2.00D  GRAD.:     0.185 HEAT:  39.06104
 CYCLE:    78 TIME:   0.004 TIME LEFT:  2.00D  GRAD.:     0.166 HEAT:  39.06096
 CYCLE:    79 TIME:   0.008 TIME LEFT:  2.00D  GRAD.:     0.147 HEAT:  39.06089
 CYCLE:    80 TIME:   0.004 TIME LEFT:  2.00D  GRAD.:     0.135 HEAT:  39.06084
 CYCLE:    81 TIME:   0.004 TIME LEFT:  2.00D  GRAD.:     0.134 HEAT:  39.06079
 CYCLE:    82 TIME:   0.004 TIME LEFT:  2.00D  GRAD.:     0.125 HEAT:  39.06075
 CYCLE:    83 TIME:   0.004 TIME LEFT:  2.00D  GRAD.:     0.088 HEAT:  39.06072
 CYCLE:    84 TIME:   0.004 TIME LEFT:  2.00D  GRAD.:     0.086 HEAT:  39.06071
 CYCLE:    85 TIME:   0.008 TIME LEFT:  2.00D  GRAD.:     0.055 HEAT:  39.06070
 CYCLE:    86 TIME:   0.004 TIME LEFT:  2.00D  GRAD.:     0.064 HEAT:  39.06070
 CYCLE:    87 TIME:   0.004 TIME LEFT:  2.00D  GRAD.:     0.051 HEAT:  39.06069
 CYCLE:    88 TIME:   0.004 TIME LEFT:  2.00D  GRAD.:     0.035 HEAT:  39.06068

     GRADIENT =  0.03502  IS LESS THAN CUTOFF =  0.05000



 -------------------------------------------------------------------------------
 pm3  precise nosym THREADS=1
 InChI=1S/C10H12/c1-2-6-9(5-1)10-7-3-4-8-10/h1,3,5-7,10H,2,4,8H2



     GEOMETRY OPTIMISED USING EIGENVECTOR FOLLOWING (EF).     
     SCF FIELD WAS ACHIEVED                                   


                              PM3 CALCULATION
                                                       MOPAC2016 (Version: 18.184L)
                                                       Sat Jun 15 10:17:25 2019
                                                       No. of days remaining =  18




          FINAL HEAT OF FORMATION =         39.06068 KCAL/MOL =     163.42990 KJ/MOL


          TOTAL ENERGY            =      -1368.70247 EV
          ELECTRONIC ENERGY       =      -7435.90317 EV  POINT GROUP:     C1  
          CORE-CORE REPULSION     =       6067.20070 EV
          COSMO AREA              =        179.85 SQUARE ANGSTROMS
          COSMO VOLUME            =        182.83 CUBIC ANGSTROMS

          GRADIENT NORM           =          0.03502 = 0.00747 PER ATOM
          IONIZATION POTENTIAL    =          9.134501 EV
          HOMO LUMO ENERGIES (EV) =         -9.135  0.320
          NO. OF FILLED LEVELS    =         26
          MOLECULAR WEIGHT        =        132.2048

          MOLECULAR DIMENSIONS (Angstroms)

            Atom       Atom       Distance
            H    16    H    15     7.58416
            H    19    H    18     4.29467
            H    21    H    17     4.10951


          SCF CALCULATIONS        =         97
 
          WALL-CLOCK TIME         =          0.457 SECONDS
          COMPUTATION TIME        =          0.424 SECONDS




   ATOM   CHEMICAL          X               Y               Z
  NUMBER   SYMBOL      (ANGSTROMS)     (ANGSTROMS)     (ANGSTROMS)
 
     1       C         -0.60850020  *  -0.30018699  *  -0.75791573  *
     2       C         -1.36250949  *  -1.23570172  *   0.21485182  *
     3       C         -2.66852094  *  -0.51283291  *   0.57597091  *
     4       C          3.10626754  *   0.19657330  *  -0.23693175  *
     5       C          0.78323528  *  -0.01866693  *  -0.32316137  *
     6       C         -1.44836421  *   0.94755743  *  -0.80554541  *
     7       C          1.91267795  *  -0.22033442  *  -1.04618453  *
     8       C         -2.57011728  *   0.82263817  *  -0.08852876  *
     9       C          2.49220127  *   0.66481973  *   1.05142201  *
    10       C          1.14832682  *   0.53424093  *   0.98746318  *
    11       H         -0.57801027  *  -0.74778540  *  -1.78042627  *
    12       H         -0.75857418  *  -1.44103115  *   1.11815530  *
    13       H         -1.55679710  *  -2.21831923  *  -0.24931717  *
    14       H         -2.79461929  *  -0.40135911  *   1.66844907  *
    15       H         -3.55973189  *  -1.06104371  *   0.21858740  *
    16       H          3.67585860  *   1.00216894  *  -0.73478723  *
    17       H          3.80443496  *  -0.64472828  *  -0.07547507  *
    18       H          1.99373886  *  -0.61853548  *  -2.05544239  *
    19       H          3.08593877  *   1.04388869  *   1.87988372  *
    20       H         -1.12908358  *   1.81911314  *  -1.37593380  *
    21       H         -3.35276923  *   1.57156935  *   0.02869808  *
    22       H          0.41537663  *   0.78483646  *   1.75272072  *

                             CARTESIAN COORDINATES

   1    C       -0.608500204    -0.300186990    -0.757915729
   2    C       -1.362509487    -1.235701723     0.214851822
   3    C       -2.668520944    -0.512832914     0.575970906
   4    C        3.106267542     0.196573299    -0.236931750
   5    C        0.783235275    -0.018666928    -0.323161375
   6    C       -1.448364207     0.947557433    -0.805545409
   7    C        1.912677945    -0.220334424    -1.046184527
   8    C       -2.570117282     0.822638168    -0.088528763
   9    C        2.492201273     0.664819727     1.051422015
  10    C        1.148326823     0.534240926     0.987463178
  11    H       -0.578010273    -0.747785400    -1.780426266
  12    H       -0.758574178    -1.441031145     1.118155297
  13    H       -1.556797097    -2.218319234    -0.249317170
  14    H       -2.794619291    -0.401359114     1.668449066
  15    H       -3.559731888    -1.061043713     0.218587401
  16    H        3.675858598     1.002168938    -0.734787233
  17    H        3.804434961    -0.644728276    -0.075475068
  18    H        1.993738860    -0.618535478    -2.055442388
  19    H        3.085938768     1.043888693     1.879883717
  20    H       -1.129083581     1.819113143    -1.375933803
  21    H       -3.352769233     1.571569355     0.028698085
  22    H        0.415376629     0.784836460     1.752720718


           Empirical Formula: C10 H12  =    22 atoms



      MOLECULAR POINT GROUP   :   C1  


                  EIGENVALUES  
 -41.34369 -37.81640 -29.57016 -27.99052 -27.28963 -24.81157 -20.32250 -19.45908
 -18.67921 -18.20839 -17.75363 -16.70896 -15.28307 -14.93827 -14.07994 -13.82257
 -13.45933 -13.12036 -12.93000 -12.78492 -12.76882 -12.32762 -12.00778 -10.62756
  -9.61651  -9.13450   0.31990   1.14552   1.92746   3.24137   3.38674   3.47991
   3.64493   3.73892   3.82172   3.94023   3.96259   4.04040   4.21702   4.25829
   4.33241   4.38642   4.42109   4.46275   4.75197   5.03893   5.14665   5.60774
   5.80996   5.87586   6.06602   6.24099


              NET ATOMIC CHARGES AND DIPOLE CONTRIBUTIONS

  ATOM NO.   TYPE          CHARGE      No. of ELECS.   s-Pop       p-Pop       
    1          C           0.014602        3.9854     1.15261     2.83279
    2          C          -0.100678        4.1007     1.16910     2.93158
    3          C          -0.065552        4.0656     1.15404     2.91151
    4          C          -0.048332        4.0483     1.14481     2.90353
    5          C          -0.093609        4.0936     1.19524     2.89837
    6          C          -0.145975        4.1460     1.20385     2.94213
    7          C          -0.163501        4.1635     1.20672     2.95678
    8          C          -0.155208        4.1552     1.20236     2.95284
    9          C          -0.166515        4.1665     1.20707     2.95945
   10          C          -0.105148        4.1051     1.19012     2.91503
   11          H           0.069378        0.9306     0.93062
   12          H           0.060431        0.9396     0.93957
   13          H           0.051208        0.9488     0.94879
   14          H           0.054721        0.9453     0.94528
   15          H           0.055207        0.9448     0.94479
   16          H           0.080890        0.9191     0.91911
   17          H           0.080681        0.9193     0.91932
   18          H           0.117429        0.8826     0.88257
   19          H           0.115396        0.8846     0.88460
   20          H           0.114744        0.8853     0.88526
   21          H           0.110646        0.8894     0.88935
   22          H           0.119186        0.8808     0.88081
 DIPOLE           X         Y         Z       TOTAL
 POINT-CHG.     0.336    -0.149    -0.031     0.369
 HYBRID         0.047     0.026    -0.013     0.055
 SUM            0.383    -0.123    -0.044     0.405


          ATOMIC ORBITAL ELECTRON POPULATIONS

     Atom    s        px        py        pz   
    1  C   1.15261   0.91015   0.94208   0.98056
    2  C   1.16910   0.96170   0.97390   0.99598
    3  C   1.15404   0.97049   0.94647   0.99455
    4  C   1.14481   0.96580   0.99610   0.94162
    5  C   1.19524   0.94491   1.00062   0.95284
    6  C   1.20385   0.96371   0.97977   0.99865
    7  C   1.20672   0.95025   1.02079   0.98574
    8  C   1.20236   0.98258   0.97790   0.99236
    9  C   1.20707   0.96441   1.01632   0.97872
   10  C   1.19012   0.95642   0.99820   0.96041
   11  H   0.93062
   12  H   0.93957
   13  H   0.94879
   14  H   0.94528
   15  H   0.94479
   16  H   0.91911
   17  H   0.91932
   18  H   0.88257
   19  H   0.88460
   20  H   0.88526
   21  H   0.88935
   22  H   0.88081
 *******************************************************************************
 ** Site#: 14399        For non-commercial use only    Version 18.184L 64BITS **
 *******************************************************************************
 ** Cite this program as: MOPAC2016, Version: 18.184L, James J. P. Stewart,   **
 ** Stewart Computational Chemistry, web: HTTP://OpenMOPAC.net. Days left:  18**
 *******************************************************************************
 **                                                                           **
 **                                MOPAC2016                                  **
 **                                                                           **
 *******************************************************************************

                              PM3 CALCULATION RESULTS

 *******************************************************************************
 *  CALCULATION DONE:                                Sat Jun 15 10:17:25 2019  *
 *  PM3        - The PM3 Hamiltonian to be used
 *  OLDGEO     - PREVIOUS GEOMETRY TO BE USED
 *  PRECISE    - CRITERIA TO BE INCREASED BY 100 TIMES
 *  NOSYM      - POINT-GROUP SYMMETRY SET TO C1
 *  THREADS=1  - MULTI-THREADING NOT USED
 *  T=         - A TIME OF 172800.0 SECONDS REQUESTED
 *  DUMP=N     - RESTART FILE WRITTEN EVERY  7200.000 SECONDS
 *  THERMO     - THERMODYNAMIC QUANTITIES TO BE CALCULATED
 *******************************************************************************
oldgeo thermo nosym precise THREADS=1  pm3
 InChI=1S/C10H12/c1-2-6-9(5-1)10-7-3-4-8-10/h1,3,5-7,10H,2,4,8H2

   ATOM   CHEMICAL          X               Y               Z
  NUMBER   SYMBOL      (ANGSTROMS)     (ANGSTROMS)     (ANGSTROMS)
 
     1       C         -0.60850020  *  -0.30018699  *  -0.75791573  *
     2       C         -1.36250949  *  -1.23570172  *   0.21485182  *
     3       C         -2.66852094  *  -0.51283291  *   0.57597091  *
     4       C          3.10626754  *   0.19657330  *  -0.23693175  *
     5       C          0.78323528  *  -0.01866693  *  -0.32316137  *
     6       C         -1.44836421  *   0.94755743  *  -0.80554541  *
     7       C          1.91267795  *  -0.22033442  *  -1.04618453  *
     8       C         -2.57011728  *   0.82263817  *  -0.08852876  *
     9       C          2.49220127  *   0.66481973  *   1.05142201  *
    10       C          1.14832682  *   0.53424093  *   0.98746318  *
    11       H         -0.57801027  *  -0.74778540  *  -1.78042627  *
    12       H         -0.75857418  *  -1.44103115  *   1.11815530  *
    13       H         -1.55679710  *  -2.21831923  *  -0.24931717  *
    14       H         -2.79461929  *  -0.40135911  *   1.66844907  *
    15       H         -3.55973189  *  -1.06104371  *   0.21858740  *
    16       H          3.67585860  *   1.00216894  *  -0.73478723  *
    17       H          3.80443496  *  -0.64472828  *  -0.07547507  *
    18       H          1.99373886  *  -0.61853548  *  -2.05544239  *
    19       H          3.08593877  *   1.04388869  *   1.87988372  *
    20       H         -1.12908358  *   1.81911314  *  -1.37593380  *
    21       H         -3.35276923  *   1.57156935  *   0.02869808  *
    22       H          0.41537663  *   0.78483646  *   1.75272072  *
 


          CARTESIAN COORDINATES 

    NO.       ATOM           X           Y           Z

     1         C         -0.6085     -0.3002     -0.7579
     2         C         -1.3625     -1.2357      0.2149
     3         C         -2.6685     -0.5128      0.5760
     4         C          3.1063      0.1966     -0.2369
     5         C          0.7832     -0.0187     -0.3232
     6         C         -1.4484      0.9476     -0.8055
     7         C          1.9127     -0.2203     -1.0462
     8         C         -2.5701      0.8226     -0.0885
     9         C          2.4922      0.6648      1.0514
    10         C          1.1483      0.5342      0.9875
    11         H         -0.5780     -0.7478     -1.7804
    12         H         -0.7586     -1.4410      1.1182
    13         H         -1.5568     -2.2183     -0.2493
    14         H         -2.7946     -0.4014      1.6684
    15         H         -3.5597     -1.0610      0.2186
    16         H          3.6759      1.0022     -0.7348
    17         H          3.8044     -0.6447     -0.0755
    18         H          1.9937     -0.6185     -2.0554
    19         H          3.0859      1.0439      1.8799
    20         H         -1.1291      1.8191     -1.3759
    21         H         -3.3528      1.5716      0.0287
    22         H          0.4154      0.7848      1.7527

  H: (PM3): J. J. P. STEWART, J. COMP. CHEM. 10, 209 (1989).
  C: (PM3): J. J. P. STEWART, J. COMP. CHEM. 10, 209 (1989).

           Empirical Formula: C10 H12  =    22 atoms



      MOLECULAR POINT GROUP   :   C1  


      RHF CALCULATION, NO. OF DOUBLY OCCUPIED LEVELS = 26



          HEAT OF FORMATION =      39.060684 KCALS/MOLE


          CARTESIAN COORDINATE DERIVATIVES

   NUMBER  ATOM         X            Y            Z

     1       C      0.001137     0.001828     0.001408
     2       C      0.004521    -0.007211     0.008433
     3       C      0.004765    -0.008455    -0.001909
     4       C      0.002203    -0.000935     0.001320
     5       C     -0.001631     0.009091    -0.013106
     6       C      0.003549     0.006172     0.000332
     7       C     -0.003641    -0.002069    -0.004380
     8       C      0.002112    -0.005228    -0.004007
     9       C     -0.006453    -0.003372    -0.003597
    10       C     -0.008986     0.003541     0.008851
    11       H     -0.002685     0.005351     0.000395
    12       H     -0.001747     0.007158     0.008420
    13       H      0.001299    -0.005332    -0.005709
    14       H      0.001114     0.002705     0.010603
    15       H     -0.003490     0.003463    -0.001851
    16       H      0.004662    -0.005051     0.002749
    17       H      0.006811    -0.004209     0.004572
    18       H      0.002968    -0.003389     0.000465
    19       H     -0.003094     0.006540    -0.000932
    20       H     -0.001100    -0.000863    -0.007673
    21       H      0.004454    -0.003315    -0.002306
    22       H     -0.006766     0.003580    -0.002078
 


          GRADIENT NORM =   0.04039


          TIME FOR SCF CALCULATION =    0.00

          TIME FOR DERIVATIVES     =    0.00

          MOLECULAR WEIGHT =  132.20



          ROTATIONAL CONSTANTS IN CM(-1)

          A =    0.11494696   B =    0.02717157   C =    0.02652460



           PRINCIPAL MOMENTS OF INERTIA IN UNITS OF 10**(-40)*GRAM-CM**2

          A =      243.5278   B =     1030.2231   C =     1055.3515


          ORIENTATION OF MOLECULE IN FORCE CALCULATION

    NO.       ATOM         X         Y         Z

     1          C       0.1002    0.2082    1.0302
     2          C       1.6461    0.2082    1.0302
     3          C       2.0729    1.6835    1.0302
     4          C      -1.6844   -2.1931   -1.2863
     5          C      -0.4754   -0.6130   -0.0650
     6          C      -0.2752    1.6600    0.9044
     7          C      -1.3592   -1.6329    0.0678
     8          C       0.7986    2.4567    0.9156
     9          C      -0.8576   -1.3439   -2.2090
    10          C      -0.1634   -0.4347   -1.4890
    11          H      -0.2872   -0.1763    2.0043
    12          H       2.0442   -0.3211    0.1447
    13          H       2.0434   -0.3298    1.9085
    14          H       2.7544    1.9200    0.1927
    15          H       2.6144    1.9597    1.9538
    16          H      -2.7630   -2.1125   -1.5132
    17          H      -1.4142   -3.2620   -1.3619
    18          H      -1.7928   -2.0214    0.9870
    19          H      -0.8553   -1.4817   -3.2877
    20          H      -1.3173    1.9663    0.8191
    21          H       0.8009    3.5446    0.8543
    22          H       0.5240    0.3254   -1.8569


    FIRST DERIVATIVES WILL BE USED IN THE CALCULATION OF SECOND DERIVATIVES

          ESTIMATED TIME TO COMPLETE CALCULATION =        2.06 SECONDS

    FOR POINT-GROUP C1   THERE ARE   1 UNIQUE SYMMETRY FUNCTIONS.

 STEP:   1 TIME =     0.02 SECS, INTEGRAL =      0.02 TIME LEFT: 172799.97
 STEP:   2 TIME =     0.02 SECS, INTEGRAL =      0.04 TIME LEFT: 172799.95
 STEP:   3 TIME =     0.02 SECS, INTEGRAL =      0.07 TIME LEFT: 172799.93
 STEP:   4 TIME =     0.02 SECS, INTEGRAL =      0.09 TIME LEFT: 172799.91
 STEP:   5 TIME =     0.02 SECS, INTEGRAL =      0.11 TIME LEFT: 172799.89
 STEP:   6 TIME =     0.02 SECS, INTEGRAL =      0.12 TIME LEFT: 172799.87
 STEP:   7 TIME =     0.02 SECS, INTEGRAL =      0.14 TIME LEFT: 172799.85
 STEP:   8 TIME =     0.02 SECS, INTEGRAL =      0.16 TIME LEFT: 172799.83
 STEP:   9 TIME =     0.02 SECS, INTEGRAL =      0.19 TIME LEFT: 172799.80
 STEP:  10 TIME =     0.02 SECS, INTEGRAL =      0.21 TIME LEFT: 172799.79
 STEP:  11 TIME =     0.02 SECS, INTEGRAL =      0.23 TIME LEFT: 172799.76
 STEP:  12 TIME =     0.02 SECS, INTEGRAL =      0.25 TIME LEFT: 172799.74
 STEP:  13 TIME =     0.02 SECS, INTEGRAL =      0.27 TIME LEFT: 172799.72
 STEP:  14 TIME =     0.02 SECS, INTEGRAL =      0.29 TIME LEFT: 172799.70
 STEP:  15 TIME =     0.02 SECS, INTEGRAL =      0.31 TIME LEFT: 172799.68
 STEP:  16 TIME =     0.02 SECS, INTEGRAL =      0.33 TIME LEFT: 172799.66
 STEP:  17 TIME =     0.02 SECS, INTEGRAL =      0.35 TIME LEFT: 172799.64
 STEP:  18 TIME =     0.02 SECS, INTEGRAL =      0.38 TIME LEFT: 172799.62
 STEP:  19 TIME =     0.02 SECS, INTEGRAL =      0.39 TIME LEFT: 172799.60
 STEP:  20 TIME =     0.02 SECS, INTEGRAL =      0.41 TIME LEFT: 172799.58
 STEP:  21 TIME =     0.02 SECS, INTEGRAL =      0.43 TIME LEFT: 172799.56
 STEP:  22 TIME =     0.02 SECS, INTEGRAL =      0.45 TIME LEFT: 172799.54
 STEP:  23 TIME =     0.02 SECS, INTEGRAL =      0.48 TIME LEFT: 172799.52
 STEP:  24 TIME =     0.02 SECS, INTEGRAL =      0.50 TIME LEFT: 172799.50
 STEP:  25 TIME =     0.02 SECS, INTEGRAL =      0.52 TIME LEFT: 172799.47
 STEP:  26 TIME =     0.02 SECS, INTEGRAL =      0.54 TIME LEFT: 172799.45
 STEP:  27 TIME =     0.02 SECS, INTEGRAL =      0.56 TIME LEFT: 172799.43
 STEP:  28 TIME =     0.02 SECS, INTEGRAL =      0.58 TIME LEFT: 172799.41
 STEP:  29 TIME =     0.02 SECS, INTEGRAL =      0.60 TIME LEFT: 172799.39
 STEP:  30 TIME =     0.02 SECS, INTEGRAL =      0.62 TIME LEFT: 172799.37
 STEP:  31 TIME =     0.02 SECS, INTEGRAL =      0.64 TIME LEFT: 172799.35
 STEP:  32 TIME =     0.02 SECS, INTEGRAL =      0.67 TIME LEFT: 172799.32
 STEP:  33 TIME =     0.02 SECS, INTEGRAL =      0.69 TIME LEFT: 172799.30
 STEP:  34 TIME =     0.02 SECS, INTEGRAL =      0.71 TIME LEFT: 172799.28
 STEP:  35 TIME =     0.02 SECS, INTEGRAL =      0.73 TIME LEFT: 172799.26
 STEP:  36 TIME =     0.02 SECS, INTEGRAL =      0.75 TIME LEFT: 172799.24
 STEP:  37 TIME =     0.02 SECS, INTEGRAL =      0.77 TIME LEFT: 172799.22
 STEP:  38 TIME =     0.02 SECS, INTEGRAL =      0.80 TIME LEFT: 172799.20
 STEP:  39 TIME =     0.02 SECS, INTEGRAL =      0.82 TIME LEFT: 172799.18
 STEP:  40 TIME =     0.02 SECS, INTEGRAL =      0.84 TIME LEFT: 172799.16
 STEP:  41 TIME =     0.02 SECS, INTEGRAL =      0.86 TIME LEFT: 172799.13
 STEP:  42 TIME =     0.02 SECS, INTEGRAL =      0.88 TIME LEFT: 172799.11
 STEP:  43 TIME =     0.02 SECS, INTEGRAL =      0.90 TIME LEFT: 172799.09
 STEP:  44 TIME =     0.02 SECS, INTEGRAL =      0.92 TIME LEFT: 172799.07
 STEP:  45 TIME =     0.02 SECS, INTEGRAL =      0.94 TIME LEFT: 172799.05
 STEP:  46 TIME =     0.02 SECS, INTEGRAL =      0.96 TIME LEFT: 172799.03
 STEP:  47 TIME =     0.02 SECS, INTEGRAL =      0.98 TIME LEFT: 172799.01
 STEP:  48 TIME =     0.02 SECS, INTEGRAL =      1.00 TIME LEFT: 172798.99
 STEP:  49 TIME =     0.02 SECS, INTEGRAL =      1.02 TIME LEFT: 172798.97
 STEP:  50 TIME =     0.02 SECS, INTEGRAL =      1.04 TIME LEFT: 172798.95
 STEP:  51 TIME =     0.02 SECS, INTEGRAL =      1.07 TIME LEFT: 172798.93
 STEP:  52 TIME =     0.02 SECS, INTEGRAL =      1.09 TIME LEFT: 172798.91
 STEP:  53 TIME =     0.02 SECS, INTEGRAL =      1.11 TIME LEFT: 172798.88
 STEP:  54 TIME =     0.02 SECS, INTEGRAL =      1.13 TIME LEFT: 172798.86
 STEP:  55 TIME =     0.02 SECS, INTEGRAL =      1.15 TIME LEFT: 172798.84
 STEP:  56 TIME =     0.02 SECS, INTEGRAL =      1.17 TIME LEFT: 172798.82
 STEP:  57 TIME =     0.02 SECS, INTEGRAL =      1.19 TIME LEFT: 172798.80
 STEP:  58 TIME =     0.02 SECS, INTEGRAL =      1.21 TIME LEFT: 172798.78
 STEP:  59 TIME =     0.02 SECS, INTEGRAL =      1.23 TIME LEFT: 172798.76
 STEP:  60 TIME =     0.02 SECS, INTEGRAL =      1.26 TIME LEFT: 172798.73
 STEP:  61 TIME =     0.02 SECS, INTEGRAL =      1.28 TIME LEFT: 172798.71
 STEP:  62 TIME =     0.02 SECS, INTEGRAL =      1.30 TIME LEFT: 172798.69
 STEP:  63 TIME =     0.02 SECS, INTEGRAL =      1.32 TIME LEFT: 172798.67
 STEP:  64 TIME =     0.02 SECS, INTEGRAL =      1.34 TIME LEFT: 172798.65
 STEP:  65 TIME =     0.02 SECS, INTEGRAL =      1.36 TIME LEFT: 172798.63
 STEP:  66 TIME =     0.02 SECS, INTEGRAL =      1.39 TIME LEFT: 172798.61

(To convert to Hartree/Bohr^2, multiply by (10^(-21) x N x a0^2)/(4.184 x 627.51) =  0.0642)


           FORCE MATRIX IN MILLIDYNES/ANGSTROM


                  C  1       C  2       C  3       C  4       C  5       C  6
 ------------------------------------------------------------------------------
     C    1  15.115013
     C    2   3.435878  14.167032
     C    3   0.724913   3.765679  14.669060
     C    4   0.121541   0.017159   0.002060  14.916806
     C    5   5.019437   0.612988   0.039260   1.235289  18.804275
     C    6   4.390927   0.861282   1.178864   0.017902   0.691936  18.325045
     C    7   0.667169   0.030426   0.003599   4.436055   9.408744   0.028258
     C    8   1.141965   0.884290   4.737117   0.003246   0.045434  10.597028
     C    9   0.053456   0.003277   0.001053   4.415917   1.579691   0.004241
     C   10   0.496986   0.045398   0.003937   1.252816   4.987936   0.028680
     H   11   4.231000   0.421237   0.023201   0.002614   0.436848   0.401889
     H   12   0.453732   4.539152   0.439917   0.001512   0.063664   0.022110
     H   13   0.440198   4.592344   0.440036   0.001643   0.024635   0.031544
     H   14   0.032661   0.436098   4.526370   0.000512   0.002527   0.039093
     H   15   0.024827   0.436161   4.514835   0.000513   0.005762   0.037313
     H   16   0.017275   0.002129   0.000552   4.515144   0.042217   0.003225
     H   17   0.017182   0.002955   0.000700   4.513801   0.043505   0.002373
     H   18   0.047984   0.005286   0.001274   0.399998   0.453526   0.006792
     H   19   0.006359   0.000945   0.000439   0.402800   0.100339   0.001296
     H   20   0.415954   0.041040   0.115350   0.001562   0.008520   5.028881
     H   21   0.114671   0.043025   0.412899   0.001118   0.017301   0.448752
     H   22   0.007808   0.007973   0.001727   0.111627   0.427179   0.004530


                  C  7       C  8       C  9       C 10       H 11       H 12
 ------------------------------------------------------------------------------
     C    7  17.861834
     C    8   0.004630  18.375670
     C    9   1.125739   0.002493  17.928406
     C   10   1.540824   0.006301   9.719199  18.299668
     H   11   0.041521   0.036689   0.007711   0.040643   4.679442
     H   12   0.002692   0.025077   0.001879   0.013385   0.028717   5.151665
     H   13   0.002273   0.031039   0.000519   0.002881   0.029607   0.574998
     H   14   0.000576   0.431127   0.000488   0.000931   0.003681   0.029595
     H   15   0.000537   0.429143   0.000591   0.000557   0.001405   0.029127
     H   16   0.414940   0.001015   0.415877   0.044248   0.000607   0.000345
     H   17   0.414529   0.000626   0.415597   0.044716   0.000470   0.000499
     H   18   5.069602   0.001491   0.042072   0.090856   0.015473   0.000613
     H   19   0.042975   0.000570   5.086110   0.442966   0.001402   0.000509
     H   20   0.002860   0.447358   0.000905   0.002207   0.013520   0.002225
     H   21   0.001484   5.019330   0.000747   0.000675   0.014993   0.002608
     H   22   0.047623   0.003659   0.443656   5.051624   0.001800   0.013824


                  H 13       H 14       H 15       H 16       H 17       H 18
 ------------------------------------------------------------------------------
     H   13   5.195734
     H   14   0.024977   5.132239
     H   15   0.029491   0.573107   5.121925
     H   16   0.000253   0.000114   0.000106   5.121305
     H   17   0.000362   0.000095   0.000144   0.547270   5.121217
     H   18   0.000728   0.000211   0.000201   0.010913   0.011062   5.474368
     H   19   0.000116   0.000226   0.000163   0.011236   0.011439   0.010598
     H   20   0.003513   0.015588   0.016083   0.000699   0.000265   0.001140
     H   21   0.003511   0.015392   0.013817   0.000291   0.000219   0.000553
     H   22   0.000981   0.001280   0.000689   0.015054   0.014820   0.005105


                  H 19       H 20       H 21       H 22
 ------------------------------------------------------
     H   19   5.486237
     H   20   0.000415   5.422607
     H   21   0.000267   0.048060   5.416141
     H   22   0.040956   0.002029   0.001129   5.444740


          HEAT OF FORMATION =      39.060684 KCALS/MOLE

          ZERO POINT ENERGY     119.181 KCAL/MOL


           NORMAL COORDINATE ANALYSIS (Total motion = 1 Angstrom)


   Root No.       1         2         3         4         5         6         7         8

                 1 A       2 A       3 A       4 A       5 A       6 A       7 A       8 A   

                  61.6      70.6     133.3     212.0     303.3     344.4     382.0     406.5
  
           1    0.0158    0.0119   -0.0166   -0.0002    0.0179   -0.0097   -0.0152   -0.0098
           2   -0.0145    0.0056    0.0147    0.0047   -0.0181    0.0015    0.0083    0.0093
           3    0.0043   -0.0248   -0.0054   -0.0151    0.0065    0.0082    0.0006    0.0092
           4    0.0156    0.0116   -0.0157   -0.0016    0.0183   -0.0131   -0.0216   -0.0054
           5    0.0107    0.0118   -0.0079    0.0049   -0.0031   -0.0126   -0.0163    0.0201
           6   -0.0157   -0.0303   -0.0325    0.0444    0.0179   -0.0082   -0.0198    0.0061
           7   -0.0077    0.0028    0.0068    0.0031   -0.0012   -0.0110   -0.0153    0.0135
           8    0.0175    0.0144   -0.0151    0.0040    0.0034   -0.0159   -0.0226    0.0164
           9   -0.0227    0.0583   -0.0207   -0.0103    0.0123    0.0063   -0.0052    0.0089
          10   -0.0279   -0.0159    0.0269   -0.0114    0.0182   -0.0074    0.0181   -0.0080
          11    0.0264   -0.0079   -0.0259   -0.0045   -0.0128    0.0189    0.0038   -0.0186
          12   -0.0044    0.0121    0.0032    0.0092    0.0118    0.0160    0.0201   -0.0241
          13    0.0092    0.0037   -0.0289    0.0193    0.0005    0.0097    0.0275   -0.0056
          14   -0.0062   -0.0014    0.0252    0.0053    0.0211    0.0238    0.0003   -0.0131
          15    0.0012   -0.0149   -0.0069   -0.0281   -0.0147   -0.0157   -0.0050    0.0032
          16   -0.0099    0.0072    0.0025    0.0016   -0.0004   -0.0128   -0.0169    0.0123
          17   -0.0191    0.0050    0.0224    0.0066   -0.0248    0.0011    0.0076    0.0238
          18    0.0273   -0.0179    0.0359    0.0103    0.0147    0.0283   -0.0034    0.0561
          19   -0.0301   -0.0029   -0.0169    0.0207   -0.0241    0.0389    0.0134   -0.0048
          20    0.0271    0.0064    0.0152    0.0060    0.0442    0.0037    0.0182   -0.0217
          21   -0.0042    0.0029   -0.0033   -0.0044   -0.0037    0.0072    0.0110   -0.0183
          22   -0.0225    0.0027    0.0147    0.0012   -0.0087   -0.0052   -0.0077    0.0203
          23   -0.0020    0.0105    0.0064    0.0069   -0.0145   -0.0090   -0.0055    0.0176
          24    0.0116    0.0307    0.0365    0.0336   -0.0278   -0.0267    0.0026   -0.0300
          25    0.0203   -0.0157    0.0276   -0.0242   -0.0097    0.0152   -0.0286   -0.0236
          26   -0.0140   -0.0250   -0.0288   -0.0175   -0.0028   -0.0182    0.0330    0.0010
          27    0.0018   -0.0034    0.0011   -0.0139   -0.0043    0.0010    0.0029   -0.0157
          28    0.0402   -0.0044   -0.0091   -0.0026   -0.0147    0.0012    0.0471    0.0079
          29   -0.0315   -0.0210    0.0044   -0.0149    0.0144    0.0108   -0.0202   -0.0344
          30    0.0048   -0.0190   -0.0053   -0.0357   -0.0195   -0.0204   -0.0032    0.0005
          31    0.0351    0.0198   -0.0058   -0.0288    0.0206   -0.0098   -0.0226   -0.0041
          32   -0.0337    0.0077    0.0028   -0.0072   -0.0447   -0.0227    0.0130   -0.0111
          33    0.0044   -0.0203   -0.0056   -0.0299   -0.0029   -0.0015   -0.0005    0.0033
          34    0.0142    0.0089   -0.0378    0.0345    0.0301   -0.0282   -0.0403   -0.0096
          35    0.0149    0.0704   -0.0029   -0.0454   -0.0048    0.0007   -0.0039    0.0238
          36   -0.0189   -0.0668   -0.0456    0.0916    0.0248   -0.0238   -0.0373    0.0022
          37    0.0348    0.0194   -0.0092   -0.0413    0.0178   -0.0034   -0.0125   -0.0032
          38    0.0190   -0.0424   -0.0254    0.0533    0.0089   -0.0320   -0.0410    0.0166
          39   -0.0192   -0.0672   -0.0461    0.0926    0.0256   -0.0246   -0.0393    0.0029
          40   -0.0334    0.0453   -0.0205   -0.0465    0.0262    0.0273   -0.0140    0.0631
          41    0.0306    0.0568   -0.0101   -0.0174    0.0024   -0.0176   -0.0193    0.0026
          42   -0.0399    0.1052   -0.0416   -0.0573    0.0349    0.0379   -0.0031    0.0465
          43    0.0121   -0.0476    0.0452    0.0599   -0.0393   -0.0523   -0.0131   -0.0350
          44    0.0234   -0.0241   -0.0405    0.0230    0.0231   -0.0184   -0.0382    0.0206
          45   -0.0361    0.0996   -0.0357   -0.0499    0.0292    0.0319   -0.0019    0.0374
          46   -0.0208   -0.0167    0.0306   -0.0161    0.0180   -0.0075    0.0090   -0.0122
          47    0.0665   -0.0027   -0.0622    0.0025   -0.1012    0.1024   -0.0798   -0.0469
          48   -0.0242    0.0181   -0.0262    0.0331   -0.0130    0.0400    0.0416   -0.0126
          49   -0.0685   -0.0242    0.0586   -0.0222    0.0980   -0.0900    0.1000    0.0198
          50    0.0151   -0.0108   -0.0206   -0.0073    0.0025    0.0002    0.0231   -0.0111
          51    0.0107    0.0234    0.0392    0.0117    0.0628    0.0047    0.0197   -0.0400
          52   -0.0597    0.0002   -0.0259    0.0369   -0.0473    0.0818   -0.0024   -0.0149
          53    0.0514    0.0207    0.0251    0.0170    0.0801   -0.0100    0.0500   -0.0317
          54   -0.0079    0.0105   -0.0033    0.0081    0.0007    0.0218    0.0171   -0.0272
          55    0.0341   -0.0238    0.0542   -0.0464   -0.0199    0.0299   -0.0970   -0.0439
          56   -0.0246   -0.0380   -0.0543   -0.0284   -0.0129   -0.0565    0.0728    0.0340
          57    0.0031   -0.0017    0.0044   -0.0127   -0.0031    0.0059   -0.0023   -0.0201
          58   -0.0166    0.0082    0.0054    0.0017   -0.0061   -0.0146   -0.0152    0.0121
          59   -0.0350    0.0005    0.0408    0.0095   -0.0398    0.0050    0.0125    0.0460
          60    0.0518   -0.0461    0.0671    0.0186    0.0290    0.0648   -0.0047    0.1383
          61   -0.0414   -0.0008    0.0292    0.0001   -0.0210    0.0054    0.0082    0.0262
          62   -0.0014    0.0116    0.0083    0.0090   -0.0170   -0.0115   -0.0052    0.0147
          63    0.0211    0.0506    0.0700    0.0706   -0.0719   -0.0702    0.0109   -0.0864
          64    0.0725   -0.0019   -0.0208   -0.0009   -0.0308   -0.0086    0.0904    0.0385
          65   -0.0590   -0.0304    0.0130   -0.0273    0.0216    0.0107   -0.0613   -0.0606
          66    0.0081   -0.0337   -0.0094   -0.0573   -0.0342   -0.0386   -0.0076    0.0035


   Root No.       9        10        11        12        13        14        15        16

                 9 A      10 A      11 A      12 A      13 A      14 A      15 A      16 A   

                 630.4     642.9     718.6     765.7     775.1     785.9     805.1     816.4
  
           1   -0.0085   -0.0149   -0.0440   -0.0047   -0.0015   -0.0050   -0.0009    0.0022
           2    0.0042   -0.0092   -0.0209   -0.0054   -0.0477   -0.0133   -0.0001    0.0026
           3    0.0159    0.0608   -0.0213    0.0052   -0.0136    0.0293   -0.0020   -0.0081
           4   -0.0165   -0.0103   -0.0350   -0.0119   -0.0398   -0.0107    0.0021    0.0003
           5    0.0031    0.0141    0.0502    0.0045   -0.0163   -0.0013   -0.0001    0.0014
           6   -0.0008    0.0083   -0.0067    0.0011   -0.0037    0.0045   -0.0028    0.0073
           7   -0.0034    0.0124    0.0528   -0.0002   -0.0405   -0.0041   -0.0001    0.0004
           8   -0.0043    0.0112    0.0270    0.0014    0.0132    0.0062   -0.0011   -0.0019
           9   -0.0019    0.0045    0.0012   -0.0049    0.0042   -0.0210   -0.0023    0.0095
          10    0.0036   -0.0039    0.0078   -0.0251    0.0028    0.0040   -0.0665   -0.0202
          11   -0.0055   -0.0039    0.0060    0.0239    0.0051   -0.0033   -0.0773    0.0168
          12   -0.0029   -0.0092    0.0208   -0.0014    0.0172   -0.0014   -0.0126   -0.0014
          13    0.0720    0.0005   -0.0091    0.0271   -0.0105   -0.0056    0.0222    0.0079
          14   -0.0548    0.0202   -0.0149   -0.0236   -0.0164    0.0137    0.0202   -0.0096
          15    0.0096    0.0051   -0.0223    0.0021   -0.0231    0.0035   -0.0234   -0.0010
          16   -0.0013    0.0091   -0.0016    0.0055    0.0756    0.0227   -0.0021   -0.0059
          17    0.0136   -0.0107   -0.0312   -0.0011   -0.0185   -0.0145    0.0022    0.0046
          18    0.0047   -0.0048   -0.0014   -0.0058    0.0151   -0.0232   -0.0016   -0.0023
          19   -0.0058    0.0111   -0.0083    0.0049   -0.0124    0.0011    0.0127   -0.0172
          20    0.0108    0.0089   -0.0083   -0.0035   -0.0106    0.0093    0.0039    0.0114
          21   -0.0065   -0.0162    0.0176    0.0015    0.0150   -0.0065   -0.0762   -0.0001
          22    0.0046    0.0060    0.0176    0.0032    0.0083    0.0030    0.0000   -0.0002
          23    0.0085   -0.0049   -0.0493    0.0037    0.0738    0.0112   -0.0006   -0.0026
          24   -0.0008    0.0102   -0.0004   -0.0050    0.0034   -0.0142   -0.0001   -0.0036
          25    0.0073   -0.0095    0.0092   -0.0094    0.0090    0.0018   -0.0067    0.0164
          26   -0.0125   -0.0099    0.0112    0.0085    0.0090   -0.0070    0.0067   -0.0123
          27   -0.0036   -0.0122    0.0117   -0.0022    0.0103   -0.0030    0.1095    0.0030
          28   -0.0158   -0.0045    0.0176   -0.0164    0.0166    0.0034    0.0434    0.0104
          29    0.0081   -0.0103    0.0160    0.0152    0.0155   -0.0066    0.0538   -0.0066
          30   -0.0057   -0.0108   -0.0070   -0.0040   -0.0095   -0.0025    0.0166    0.0010
          31   -0.0283   -0.0181   -0.0592   -0.0214   -0.0374   -0.0234   -0.0124   -0.0073
          32    0.0238   -0.0120   -0.0609    0.0082   -0.0905    0.0140   -0.0219    0.0086
          33    0.0153    0.0566   -0.0424    0.0040   -0.0436    0.0328   -0.0162   -0.0096
          34   -0.0468   -0.0846   -0.0307   -0.0240   -0.0139   -0.0447    0.0061   -0.0077
          35    0.0244    0.0706    0.0538    0.0121    0.0044   -0.0152   -0.0025    0.0381
          36   -0.0293   -0.0617   -0.0052   -0.0096   -0.0050   -0.0023    0.0003   -0.0199
          37    0.0091    0.0678   -0.0662    0.0013   -0.0320    0.0316    0.0004    0.0065
          38   -0.0238   -0.0357    0.0498   -0.0020   -0.0107    0.0220    0.0029   -0.0365
          39   -0.0299   -0.0606    0.0050   -0.0094   -0.0042   -0.0006   -0.0002   -0.0199
          40   -0.0029   -0.0430    0.0671    0.0212   -0.0641    0.0781    0.0059   -0.0309
          41   -0.0172   -0.0040    0.0247   -0.0088   -0.0221    0.0012    0.0046   -0.0235
          42   -0.0054   -0.0476    0.0108    0.0102   -0.0243    0.0481    0.0043   -0.0239
          43    0.0036    0.0803    0.0557   -0.0184   -0.0007   -0.0945   -0.0075    0.0369
          44   -0.0090    0.0197    0.0259   -0.0001   -0.0189    0.0031   -0.0047    0.0197
          45   -0.0049   -0.0400    0.0012    0.0068   -0.0124    0.0356    0.0034   -0.0198
          46    0.0110   -0.0074    0.0098   -0.0322    0.0058    0.0059   -0.0671   -0.0075
          47    0.0470   -0.0153    0.0279   -0.1227    0.0096    0.0176   -0.1040   -0.0703
          48   -0.0265    0.0037    0.0181   -0.0010    0.0056   -0.0058   -0.0326   -0.0810
          49   -0.0518    0.0018   -0.0064    0.1173    0.0044   -0.0197   -0.0796    0.0574
          50   -0.0199   -0.0034    0.0039    0.0546    0.0059   -0.0098   -0.0822    0.0277
          51    0.0217   -0.0022    0.0119    0.0157    0.0149    0.0128   -0.0340    0.0846
          52   -0.1432    0.0290   -0.0137    0.0165    0.0084    0.0369    0.0470    0.1612
          53    0.1265   -0.0099    0.0223   -0.0118   -0.0053   -0.0218    0.0523   -0.1399
          54   -0.0224   -0.0157    0.0285    0.0035    0.0277   -0.0029   -0.0406    0.0202
          55   -0.0404   -0.0034   -0.0256    0.2007   -0.0200   -0.0588    0.0240   -0.0634
          56    0.0264   -0.0191    0.0130   -0.1742    0.0031    0.0412    0.0292    0.0547
          57   -0.0088   -0.0115    0.0119    0.0214    0.0113   -0.0095    0.1085   -0.0056
          58    0.0014    0.0203    0.0116    0.0036    0.0708    0.0129   -0.0008   -0.0078
          59    0.0275   -0.0110    0.0226    0.0077   -0.0567   -0.0165    0.0043    0.0107
          60    0.0235   -0.1457    0.0266    0.0505   -0.0566    0.0912   -0.0096    0.0426
          61    0.0177   -0.0061   -0.0309   -0.0026   -0.0252   -0.0327    0.0033    0.0089
          62    0.0089   -0.0091   -0.0485    0.0076    0.0682    0.0248   -0.0001   -0.0031
          63    0.0011   -0.0665    0.0156    0.0634   -0.1039    0.2278    0.0080   -0.0127
          64   -0.1612    0.0111    0.0050    0.0613    0.0123   -0.0182    0.0323   -0.0777
          65    0.1285   -0.0360    0.0358   -0.0513    0.0287    0.0060    0.0326    0.0701
          66   -0.0282   -0.0345    0.0096    0.0034    0.0087   -0.0166   -0.0505   -0.0053


   Root No.      17        18        19        20        21        22        23        24

                17 A      18 A      19 A      20 A      21 A      22 A      23 A      24 A   

                 828.9     935.1     944.2     974.3     985.1     997.8    1008.4    1025.8
  
           1    0.0044    0.0034    0.0087   -0.0177    0.0035    0.0002   -0.0127    0.0184
           2    0.0007   -0.0014    0.0051   -0.0063   -0.0010    0.0211   -0.0093   -0.0006
           3   -0.0122    0.0004    0.0016    0.0189   -0.0011   -0.0173   -0.0041   -0.0078
           4    0.0072   -0.0096   -0.0264    0.0228   -0.0034    0.0041    0.0104   -0.0136
           5   -0.0052    0.0066    0.0043   -0.0134    0.0046   -0.0272   -0.0051    0.0269
           6    0.0235   -0.0043   -0.0215   -0.0021    0.0006    0.0155    0.0044    0.0186
           7   -0.0039   -0.0003    0.0062   -0.0043   -0.0011    0.0262   -0.0094   -0.0035
           8    0.0005   -0.0027    0.0038    0.0071   -0.0028    0.0162    0.0033   -0.0180
           9    0.0217    0.0009    0.0177   -0.0036   -0.0008   -0.0217   -0.0078   -0.0212
          10    0.0077    0.0253   -0.0025    0.0038    0.0323   -0.0005   -0.0097   -0.0026
          11   -0.0076   -0.0218   -0.0006    0.0028   -0.0281   -0.0037   -0.0116   -0.0000
          12    0.0029    0.0017   -0.0094    0.0067    0.0034   -0.0021    0.0021   -0.0032
          13   -0.0103    0.0275    0.0075   -0.0075    0.0081    0.0021    0.0027   -0.0011
          14    0.0028   -0.0206    0.0174   -0.0085   -0.0065   -0.0015    0.0021    0.0013
          15   -0.0055    0.0048    0.0146   -0.0047    0.0008   -0.0011   -0.0067   -0.0020
          16    0.0019   -0.0019    0.0150    0.0019   -0.0021    0.0066    0.0032   -0.0051
          17   -0.0014    0.0015   -0.0219    0.0036    0.0018   -0.0140    0.0020    0.0001
          18   -0.0152   -0.0026   -0.0246   -0.0266    0.0011    0.0143   -0.0066   -0.0201
          19   -0.0000   -0.0219    0.0177   -0.0119   -0.0376   -0.0014    0.0082   -0.0035
          20   -0.0064    0.0219    0.0156   -0.0100    0.0326    0.0021    0.0091    0.0023
          21    0.0034   -0.0042   -0.0121    0.0033   -0.0043    0.0030   -0.0050    0.0069
          22   -0.0017    0.0008   -0.0032    0.0016    0.0004   -0.0125    0.0053   -0.0026
          23    0.0012    0.0001    0.0016   -0.0024    0.0002    0.0057   -0.0056    0.0041
          24   -0.0168    0.0028    0.0063    0.0226    0.0001    0.0176    0.0097    0.0330
          25   -0.0030   -0.0046   -0.0040   -0.0004   -0.0360   -0.0018    0.0056    0.0081
          26    0.0061    0.0031   -0.0054    0.0031    0.0305    0.0025    0.0049   -0.0074
          27    0.0026   -0.0002   -0.0040    0.0051   -0.0042   -0.0002   -0.0209    0.0033
          28    0.0005   -0.0365   -0.0103    0.0145    0.0252   -0.0014   -0.0097   -0.0058
          29    0.0053    0.0287   -0.0166    0.0125   -0.0222   -0.0013   -0.0092    0.0020
          30   -0.0011   -0.0019    0.0193   -0.0214    0.0035    0.0026    0.0174    0.0011
          31   -0.0193    0.0025    0.0183   -0.0496    0.0091   -0.1223   -0.0605    0.0458
          32    0.0164    0.0077    0.0485    0.0658   -0.0108    0.1485   -0.0424   -0.0424
          33   -0.0156    0.0039    0.0248    0.0334   -0.0028   -0.0152   -0.0370   -0.0137
          34   -0.0203    0.0005    0.0142   -0.0005   -0.0050   -0.0619    0.0062   -0.0720
          35    0.0984    0.0012   -0.0407   -0.0482    0.0062   -0.0168    0.0120    0.0431
          36   -0.0548    0.0033    0.0259    0.0098   -0.0013   -0.0226   -0.0079   -0.0199
          37    0.0430   -0.0205   -0.1135    0.0788   -0.0020   -0.0037    0.0525    0.0711
          38   -0.1043    0.0095    0.0215    0.0422    0.0052   -0.0986    0.0066    0.0348
          39   -0.0568    0.0028    0.0301    0.0070    0.0004   -0.0271   -0.0087   -0.0153
          40   -0.0735   -0.0012   -0.0420   -0.0304    0.0049    0.0925   -0.0123    0.0849
          41   -0.0612   -0.0028    0.0270    0.1112   -0.0132   -0.0084    0.0440   -0.1075
          42   -0.0562    0.0000   -0.0155    0.0056    0.0011    0.0275    0.0019    0.0262
          43    0.0715    0.0101    0.0819   -0.0131   -0.0018   -0.0422   -0.0430   -0.0546
          44    0.0702   -0.0234   -0.0743   -0.0259   -0.0046    0.0483    0.0284   -0.0200
          45   -0.0471    0.0011   -0.0049    0.0124    0.0003    0.0091    0.0048    0.0116
          46    0.0052    0.0550   -0.0103    0.0070    0.0184    0.0034   -0.0251   -0.0088
          47    0.0295    0.0923   -0.0123    0.0104    0.0821    0.0024   -0.0244   -0.0104
          48    0.0235   -0.1112    0.0248   -0.0073    0.0941   -0.0192    0.0724    0.0237
          49   -0.0245   -0.0970    0.0020    0.0050   -0.0661   -0.0078   -0.0324    0.0202
          50   -0.0123   -0.0575   -0.0001    0.0045   -0.0425   -0.0056   -0.0225    0.0113
          51   -0.0298    0.1073   -0.0011   -0.0149   -0.0986    0.0002    0.0793   -0.0842
          52   -0.0439    0.0896    0.0130   -0.0168    0.1220    0.0158    0.0502    0.0087
          53    0.0341   -0.0733    0.0283   -0.0330   -0.1031    0.0036    0.0617    0.0130
          54   -0.0001    0.0080   -0.0103   -0.0080    0.0136    0.0116    0.0369    0.0172
          55    0.0100   -0.0238    0.0325   -0.0416    0.1400    0.0197    0.0808   -0.0125
          56   -0.0077    0.0265    0.0310   -0.0585   -0.1156    0.0093    0.0890    0.0304
          57    0.0045   -0.0032   -0.0084    0.0124    0.0148   -0.0009   -0.0308   -0.0016
          58   -0.0100   -0.0034   -0.0112    0.0086   -0.0022   -0.0106    0.0213   -0.0291
          59    0.0008    0.0026   -0.0624    0.0687   -0.0012   -0.0792    0.0685   -0.0596
          60    0.1368    0.0213    0.1499    0.1253   -0.0078   -0.0286    0.0176    0.0600
          61   -0.0057    0.0113   -0.0566    0.0140    0.0131   -0.1414    0.0276    0.0700
          62    0.0048   -0.0013   -0.0042   -0.0092    0.0003    0.0004   -0.0075   -0.0038
          63    0.0473   -0.0211   -0.0817   -0.1102    0.0020   -0.0663   -0.0308   -0.0974
          64    0.0332    0.1886   -0.0330    0.0067   -0.1030    0.0003    0.0076    0.0096
          65   -0.0201   -0.1652   -0.0011    0.0087    0.0883   -0.0014    0.0208   -0.0161
          66    0.0068    0.0180    0.0109   -0.0446   -0.0073    0.0056    0.1102   -0.0075


   Root No.      25        26        27        28        29        30        31        32

                25 A      26 A      27 A      28 A      29 A      30 A      31 A      32 A   

                1035.6    1040.8    1054.9    1071.5    1081.3    1088.3    1109.2    1114.9
  
           1   -0.0040    0.0065   -0.0045    0.0010   -0.0045   -0.0004   -0.0064    0.0030
           2   -0.0002    0.0032   -0.0041    0.0006   -0.0064    0.0003    0.0050    0.0004
           3    0.0016    0.0003   -0.0138    0.0032    0.0121    0.0013   -0.0106    0.0063
           4    0.0024   -0.0024   -0.0013   -0.0076   -0.0007   -0.0004    0.0074   -0.0101
           5   -0.0072    0.0050   -0.0037    0.0126   -0.0214    0.0014    0.0042   -0.0245
           6   -0.0051    0.0023   -0.0005   -0.0173   -0.0146    0.0005   -0.0268   -0.0077
           7    0.0016    0.0070   -0.0126   -0.0242    0.0156   -0.0010   -0.0042    0.0173
           8    0.0051   -0.0042    0.0042   -0.0046    0.0129   -0.0008   -0.0057    0.0250
           9    0.0044   -0.0019   -0.0103    0.0020    0.0075   -0.0035    0.0333    0.0069
          10   -0.0015    0.0019    0.0185   -0.0055   -0.0021    0.0014    0.0043   -0.0011
          11    0.0015    0.0045    0.0213   -0.0063   -0.0029    0.0013    0.0050   -0.0014
          12    0.0020    0.0162   -0.0032   -0.0002   -0.0000   -0.0033   -0.0003    0.0005
          13    0.0143   -0.0062    0.0103   -0.0050    0.0013    0.0040    0.0043    0.0018
          14   -0.0132   -0.0033    0.0130   -0.0023   -0.0036    0.0047    0.0013   -0.0022
          15    0.0021    0.0032    0.0113    0.0025    0.0009   -0.0015   -0.0024   -0.0004
          16    0.0005   -0.0050    0.0096    0.0158   -0.0084    0.0010    0.0038   -0.0105
          17    0.0007    0.0020   -0.0060   -0.0157    0.0118   -0.0012   -0.0046    0.0097
          18    0.0082   -0.0021   -0.0043    0.0082   -0.0164   -0.0011    0.0085   -0.0068
          19   -0.0224   -0.0010    0.0111   -0.0008   -0.0017    0.0094    0.0027   -0.0017
          20    0.0185   -0.0094    0.0109   -0.0021    0.0004    0.0091    0.0041   -0.0005
          21   -0.0069   -0.0317   -0.0193    0.0012    0.0019   -0.0156   -0.0049    0.0020
          22    0.0006   -0.0050    0.0079    0.0123   -0.0070    0.0005    0.0000    0.0028
          23   -0.0012    0.0069   -0.0122   -0.0197    0.0096   -0.0007   -0.0007    0.0025
          24   -0.0090    0.0045    0.0129    0.0113    0.0136    0.0017   -0.0080    0.0020
          25    0.0293    0.0034   -0.0125    0.0034    0.0020   -0.0059   -0.0033    0.0011
          26   -0.0235    0.0060   -0.0116    0.0041    0.0008   -0.0075   -0.0037    0.0004
          27    0.0012   -0.0099    0.0232   -0.0075   -0.0037   -0.0025    0.0064   -0.0014
          28   -0.0181    0.0114   -0.0139    0.0073    0.0015   -0.0032   -0.0060    0.0002
          29    0.0179    0.0099   -0.0132    0.0058    0.0027   -0.0022   -0.0044    0.0013
          30   -0.0030   -0.0064    0.0239   -0.0109   -0.0044    0.0097    0.0091   -0.0016
          31   -0.0252    0.0327   -0.0644    0.0354    0.1252   -0.0171   -0.1069    0.0085
          32    0.0308    0.0131   -0.0674    0.1857   -0.0966   -0.0056    0.0303   -0.0710
          33    0.0055    0.0142   -0.0629    0.0914    0.0284   -0.0075   -0.0425   -0.0190
          34    0.0219   -0.0121    0.0356    0.0757   -0.0017    0.0190   -0.0877   -0.0895
          35   -0.0077    0.0013    0.0403    0.0416   -0.0735    0.0191   -0.1263   -0.1033
          36    0.0045   -0.0005   -0.0102    0.0046    0.0153   -0.0015    0.0073    0.0035
          37   -0.0259   -0.0009   -0.0322   -0.0645   -0.0400   -0.0128    0.1616   -0.0479
          38   -0.0157   -0.0021   -0.0299    0.0263   -0.0242   -0.0138    0.1786   -0.0384
          39    0.0025   -0.0022   -0.0047    0.0154    0.0030   -0.0034    0.0094    0.0004
          40   -0.0204    0.0361   -0.0073   -0.0241    0.0572    0.0024   -0.0207   -0.0195
          41    0.0322   -0.0532    0.0074   -0.0798   -0.1252    0.0050   -0.1267    0.0910
          42   -0.0059    0.0076   -0.0043   -0.0190    0.0023    0.0009   -0.0145   -0.0046
          43    0.0138    0.0098   -0.0750   -0.0886   -0.0030   -0.0077    0.0417   -0.0188
          44    0.0017   -0.0126    0.0934    0.1661    0.1274   -0.0040    0.0682    0.1518
          45   -0.0023   -0.0005   -0.0012   -0.0128   -0.0165    0.0013   -0.0152   -0.0098
          46   -0.0509   -0.0295    0.0209   -0.0082   -0.0021    0.0169    0.0062   -0.0012
          47   -0.0320   -0.0111    0.0403   -0.0143   -0.0052    0.0097    0.0127   -0.0030
          48    0.2258    0.1577   -0.0047    0.0080   -0.0014   -0.0768   -0.0048    0.0001
          49    0.0434   -0.0323    0.0375   -0.0151   -0.0032    0.0171    0.0128   -0.0022
          50    0.0252   -0.0165    0.0269   -0.0100   -0.0026    0.0099    0.0080   -0.0015
          51   -0.1772    0.1840   -0.0041    0.0136   -0.0096   -0.0770   -0.0072   -0.0037
          52    0.0359   -0.0888   -0.0572    0.0197    0.0193    0.0552   -0.0032    0.0008
          53   -0.0472   -0.1093   -0.0808    0.0291    0.0196    0.0682   -0.0106   -0.0014
          54   -0.0072   -0.1149   -0.0919    0.0241    0.0201    0.0291   -0.0144    0.0032
          55   -0.0697   -0.0382   -0.0256   -0.0012   -0.0054   -0.1902   -0.0032    0.0002
          56    0.0520   -0.0522   -0.0273   -0.0044   -0.0051   -0.2198   -0.0019    0.0009
          57   -0.0086   -0.0022    0.0261   -0.0070   -0.0032    0.0231    0.0066   -0.0016
          58    0.0083   -0.0207    0.0318    0.0235    0.0226   -0.0010   -0.0037   -0.0627
          59    0.0195   -0.0472    0.0679    0.0002    0.1289   -0.0070   -0.0337   -0.1573
          60   -0.0217    0.0067    0.0040   -0.0098    0.0235    0.0022   -0.0099    0.0182
          61   -0.0200   -0.0039    0.0160    0.0821   -0.1266    0.0073   -0.0267    0.1931
          62    0.0009    0.0058   -0.0146   -0.0220    0.0079   -0.0010    0.0001    0.0047
          63    0.0249   -0.0138   -0.0289   -0.0127   -0.0308   -0.0036    0.0173    0.0091
          64    0.0576    0.0209   -0.0295    0.0052    0.0063    0.0467   -0.0015    0.0047
          65   -0.0416    0.0386   -0.0401    0.0104    0.0027    0.0865   -0.0052    0.0010
          66    0.0149    0.0674   -0.0542   -0.0073    0.0040    0.2840    0.0177    0.0057


   Root No.      33        34        35        36        37        38        39        40

                33 A      34 A      35 A      36 A      37 A      38 A      39 A      40 A   

                1127.1    1194.6    1220.4    1231.7    1274.6    1299.3    1348.1    1351.1
  
           1   -0.0310   -0.0076    0.0060    0.0367   -0.0151    0.0546    0.0034   -0.0009
           2   -0.0166   -0.0141   -0.0272   -0.0086    0.0159   -0.0191    0.0390   -0.0059
           3    0.0246   -0.0148   -0.0050    0.0052    0.0103    0.0231    0.0082   -0.0086
           4    0.0304   -0.0016   -0.0077    0.0010    0.0502   -0.0208   -0.0078    0.0015
           5    0.0002   -0.0068   -0.0101    0.0078    0.0423    0.0022   -0.0165    0.0013
           6   -0.0212    0.0076    0.0031   -0.0061   -0.0013   -0.0075   -0.0012    0.0017
           7    0.0133    0.0052    0.0054   -0.0034   -0.0062    0.0073   -0.0269    0.0029
           8   -0.0048    0.0080    0.0228    0.0133   -0.0209   -0.0160    0.0572   -0.0066
           9   -0.0009   -0.0007   -0.0005    0.0011    0.0012    0.0015   -0.0036    0.0004
          10    0.0013    0.0162    0.0041   -0.0049    0.0030   -0.0004   -0.0133   -0.0174
          11    0.0019    0.0175    0.0065   -0.0075    0.0052    0.0006   -0.0137   -0.0034
          12    0.0013   -0.0112    0.0130   -0.0109    0.0110    0.0121    0.0120    0.1303
          13    0.0001   -0.0119    0.0001   -0.0043   -0.0037   -0.0112   -0.0006   -0.0025
          14   -0.0002   -0.0129    0.0035    0.0058   -0.0080   -0.0038   -0.0037   -0.0009
          15   -0.0007    0.0030   -0.0178    0.0143   -0.0098   -0.0048    0.0121    0.0114
          16   -0.0119   -0.0055   -0.0116   -0.0070    0.0121   -0.0152    0.0072   -0.0007
          17    0.0087    0.0016   -0.0057   -0.0103   -0.0168    0.0341   -0.0062    0.0007
          18   -0.0085    0.0043    0.0041    0.0006   -0.0006   -0.0040   -0.0015    0.0013
          19   -0.0007   -0.0059    0.0064   -0.0003   -0.0080   -0.0105   -0.0078    0.0007
          20   -0.0000   -0.0117    0.0048   -0.0016   -0.0106   -0.0178   -0.0094   -0.0081
          21    0.0005   -0.0354   -0.0072    0.0116   -0.0170   -0.0180   -0.0103   -0.0672
          22   -0.0127   -0.0044   -0.0155   -0.0152   -0.0088    0.0122    0.0197   -0.0023
          23    0.0255    0.0063    0.0078   -0.0007    0.0080   -0.0062   -0.0309    0.0038
          24    0.0047   -0.0023   -0.0026   -0.0012   -0.0001    0.0015    0.0032   -0.0007
          25   -0.0007    0.0024   -0.0128    0.0102   -0.0077   -0.0066    0.0022    0.0330
          26   -0.0006    0.0041   -0.0129    0.0108   -0.0081   -0.0066    0.0016    0.0317
          27   -0.0002    0.0082    0.0141   -0.0126    0.0091    0.0062   -0.0066   -0.0554
          28   -0.0013   -0.0060   -0.0051    0.0054   -0.0014    0.0026    0.0041   -0.0089
          29   -0.0016   -0.0039   -0.0078    0.0051   -0.0018   -0.0004    0.0040   -0.0064
          30    0.0007    0.0263   -0.0044    0.0031   -0.0079   -0.0134   -0.0116    0.0316
          31   -0.1388    0.0500    0.0273   -0.1262   -0.0008   -0.1087   -0.0070    0.0044
          32   -0.0277    0.0431    0.0996    0.0032   -0.0201    0.0103   -0.0592    0.0086
          33   -0.0219    0.0308    0.0536   -0.0548    0.0013   -0.0303   -0.0347   -0.0013
          34    0.1925   -0.0119   -0.0092   -0.0586   -0.1320    0.0063    0.0618   -0.0172
          35    0.0656   -0.0023   -0.0162   -0.0418   -0.0997    0.0400   -0.0250    0.0059
          36    0.0139    0.0002    0.0052   -0.0043    0.0007   -0.0164    0.0318   -0.0085
          37   -0.0528    0.0377    0.0133   -0.0706   -0.1339   -0.0399    0.0406   -0.0030
          38   -0.0113    0.0009   -0.0133   -0.0285   -0.0950    0.0405   -0.0340    0.0084
          39    0.0094   -0.0048   -0.0071    0.0034   -0.0020    0.0225   -0.0299    0.0070
          40    0.0772    0.0208    0.0522    0.0231   -0.0441   -0.0266   -0.0032    0.0017
          41   -0.1186    0.0035   -0.0314   -0.0505   -0.0289    0.0408   -0.1157    0.0148
          42    0.0150    0.0097    0.0199    0.0045   -0.0280   -0.0092   -0.0280    0.0047
          43    0.0439    0.0252    0.0559    0.0251   -0.0477   -0.0277   -0.0101    0.0032
          44   -0.0111   -0.0194   -0.0415   -0.0375   -0.0172    0.0480   -0.1090    0.0119
          45   -0.0153   -0.0029   -0.0086   -0.0003    0.0209    0.0019    0.0316   -0.0046
          46    0.0032    0.0031    0.0185   -0.0160    0.0140    0.0132    0.0045    0.0313
          47    0.0060    0.0527    0.0443   -0.0497    0.0739    0.0960    0.1005   -0.0771
          48   -0.0049    0.0776   -0.0329    0.0159    0.0021    0.0070   -0.0010   -0.1576
          49    0.0061    0.0413    0.0446   -0.0492    0.0708    0.0906    0.0987   -0.0602
          50    0.0038    0.0203    0.0216   -0.0227    0.0265    0.0289    0.0213    0.0005
          51   -0.0046    0.0819   -0.0291    0.0131    0.0086    0.0153    0.0098   -0.1681
          52    0.0133    0.1119   -0.0262   -0.0021    0.0246    0.0232    0.0144    0.0139
          53    0.0145    0.1425   -0.0299    0.0086    0.0271    0.0406    0.0143    0.0094
          54    0.0135    0.0831   -0.0389    0.0165    0.0139    0.0229    0.0114   -0.0558
          55    0.0111   -0.0551    0.0601   -0.0473    0.0362    0.0341    0.0100   -0.0064
          56    0.0120   -0.0630    0.0717   -0.0559    0.0432    0.0408    0.0103   -0.0141
          57   -0.0018    0.0175    0.0049   -0.0055    0.0037    0.0009   -0.0083   -0.0504
          58   -0.0492   -0.0035    0.0156    0.0316    0.0210   -0.0263    0.0001    0.0002
          59   -0.1014    0.0064    0.0840    0.1165    0.0126   -0.0013   -0.0325    0.0032
          60    0.0199   -0.0087   -0.0108   -0.0054    0.0047    0.0017    0.0054   -0.0022
          61    0.0594    0.0382    0.1056    0.0785    0.0126   -0.0901    0.0199   -0.0016
          62    0.0261    0.0073    0.0095   -0.0004    0.0076   -0.0066   -0.0328    0.0040
          63   -0.0062    0.0015    0.0050    0.0048    0.0005   -0.0029    0.0048   -0.0012
          64   -0.0077   -0.0318    0.0068   -0.0055    0.0075    0.0075    0.0069   -0.0320
          65   -0.0071   -0.0493    0.0201   -0.0103    0.0094    0.0146    0.0080   -0.0488
          66   -0.0215   -0.1084    0.0768   -0.0512    0.0325    0.0261   -0.0010   -0.0946


   Root No.      41        42        43        44        45        46        47        48

                41 A      42 A      43 A      44 A      45 A      46 A      47 A      48 A   

                1368.7    1393.3    1410.0    1418.7    1497.2    1745.2    1828.2    1832.9
  
           1   -0.0024    0.0087    0.0081   -0.0068   -0.0319    0.0093    0.0158   -0.0139
           2    0.0296    0.0331    0.0231    0.0077   -0.0650    0.0147    0.0270   -0.0174
           3   -0.0006    0.0106    0.0044   -0.0018   -0.0674    0.0176    0.0142   -0.0208
           4   -0.0059    0.0002   -0.0297    0.0158    0.0114    0.0001    0.0030    0.0017
           5   -0.0112   -0.0128    0.0074   -0.0393    0.0102   -0.0002   -0.0038   -0.0025
           6   -0.0003   -0.0015   -0.0017    0.0008    0.0086   -0.0005   -0.0001    0.0004
           7    0.0025   -0.0196    0.0449    0.0325    0.0014   -0.0008   -0.0126   -0.0065
           8   -0.0254    0.0025   -0.0154    0.0154   -0.0019   -0.0001   -0.0009   -0.0003
           9    0.0007   -0.0015    0.0035    0.0021   -0.0001   -0.0000   -0.0006   -0.0003
          10   -0.0206    0.0279    0.0076    0.0002   -0.0068   -0.0071   -0.0000    0.0002
          11   -0.0238    0.0337    0.0095    0.0003   -0.0081   -0.0086   -0.0001    0.0002
          12    0.0008    0.0067    0.0039   -0.0005    0.0005   -0.0026   -0.0001    0.0003
          13    0.0024   -0.0065   -0.0034    0.0008   -0.0267   -0.0440   -0.0609    0.0915
          14    0.0011   -0.0093   -0.0029   -0.0014   -0.0054   -0.0535   -0.0711    0.1128
          15    0.0125    0.0076    0.0089    0.0032    0.1778   -0.0141   -0.0172    0.0254
          16    0.0095    0.0076    0.0015   -0.0027   -0.0070   -0.0008   -0.1046   -0.0668
          17   -0.0294   -0.0121   -0.0259   -0.0084    0.0163   -0.0014   -0.0965   -0.0610
          18    0.0011   -0.0007    0.0006    0.0003    0.0051    0.0001   -0.0002   -0.0008
          19   -0.0006   -0.0127   -0.0059    0.0005    0.0351    0.0421    0.0476   -0.0735
          20    0.0005   -0.0169   -0.0079    0.0011    0.0379    0.0483    0.0559   -0.0866
          21    0.0023   -0.0198   -0.0089   -0.0005   -0.0221   -0.0092    0.0009   -0.0014
          22   -0.0252   -0.0020   -0.0284   -0.0131    0.0097    0.0011    0.1234    0.0786
          23    0.0136   -0.0070    0.0169    0.0079    0.0069   -0.0002    0.0710    0.0471
          24   -0.0018    0.0008   -0.0022   -0.0012   -0.0016    0.0003    0.0028    0.0014
          25    0.0059   -0.0152   -0.0052   -0.0009   -0.0171    0.1047   -0.0168    0.0243
          26    0.0055   -0.0158   -0.0055   -0.0011   -0.0200    0.1354   -0.0209    0.0303
          27   -0.0097    0.0165    0.0045    0.0007    0.0017    0.0947   -0.0096    0.0134
          28    0.0039    0.0016    0.0021    0.0004    0.0251   -0.0928    0.0168   -0.0245
          29    0.0045   -0.0006    0.0009    0.0006    0.0171   -0.1225    0.0228   -0.0334
          30   -0.0048   -0.0226   -0.0119   -0.0027   -0.0939   -0.1039    0.0234   -0.0340
          31    0.0072   -0.0102   -0.0174    0.0205   -0.0117   -0.0098   -0.0242    0.0100
          32   -0.0325   -0.0413   -0.0210   -0.0094   -0.0039   -0.0105   -0.0025    0.0284
          33   -0.0210   -0.0262   -0.0223    0.0025   -0.0335    0.0027   -0.0091    0.0079
          34    0.0077   -0.0059    0.1137   -0.0910   -0.0489    0.0085    0.0074   -0.0104
          35    0.0567    0.0412   -0.0398    0.1606   -0.0231    0.0024    0.0007   -0.0033
          36   -0.0303   -0.0316    0.0799   -0.1454   -0.0003    0.0031   -0.0008   -0.0062
          37    0.0079   -0.0204    0.0995   -0.0825    0.0166   -0.0027   -0.0008    0.0024
          38    0.0577    0.0379   -0.0394    0.1605   -0.0184   -0.0004   -0.0022   -0.0003
          39    0.0310    0.0338   -0.0766    0.1455   -0.0113    0.0016    0.0043    0.0005
          40    0.0705    0.0656   -0.0855   -0.0958   -0.0046   -0.0001   -0.0152   -0.0097
          41    0.0754    0.0170    0.0018   -0.0703    0.0071   -0.0007    0.0151    0.0110
          42    0.0738    0.0631   -0.0852   -0.1100   -0.0029    0.0005   -0.0014   -0.0021
          43    0.0815    0.0741   -0.0990   -0.1120   -0.0029   -0.0001   -0.0130   -0.0082
          44    0.0717    0.0172    0.0050   -0.0665   -0.0019    0.0001    0.0151    0.0100
          45   -0.0650   -0.0529    0.0702    0.0961    0.0030   -0.0005   -0.0021   -0.0002
          46   -0.0027    0.0103    0.0039    0.0001    0.0011   -0.0068    0.0039   -0.0058
          47    0.1186   -0.1129   -0.0253   -0.0005    0.0181   -0.0154   -0.0011    0.0019
          48    0.0057   -0.0037   -0.0013   -0.0003   -0.0248    0.0189   -0.0134    0.0204
          49    0.1166   -0.1117   -0.0252   -0.0003    0.0205   -0.0164   -0.0000    0.0000
          50    0.0179   -0.0087   -0.0004    0.0001    0.0011   -0.0070    0.0021   -0.0032
          51    0.0194   -0.0171   -0.0044   -0.0002   -0.0230    0.0179   -0.0138    0.0208
          52   -0.0031    0.0369    0.0159    0.0020    0.0521    0.0104    0.0096   -0.0158
          53   -0.0069    0.0449    0.0196    0.0007    0.0618    0.0043    0.0045   -0.0065
          54   -0.0007    0.0294    0.0133   -0.0000   -0.0073   -0.0582   -0.0559    0.0861
          55   -0.0076    0.0395    0.0154    0.0022    0.0474   -0.0364    0.0041   -0.0060
          56   -0.0103    0.0476    0.0182    0.0026    0.0547   -0.0239    0.0028   -0.0040
          57   -0.0089    0.0100    0.0018    0.0002   -0.0114    0.1487   -0.0167    0.0236
          58    0.0339    0.0149    0.0247    0.0036   -0.0189    0.0002   -0.0857   -0.0565
          59    0.0505    0.0095    0.0528    0.0164   -0.0223    0.0022    0.0608    0.0357
          60   -0.0002    0.0031   -0.0004   -0.0008   -0.0099    0.0010   -0.0069   -0.0057
          61    0.0470    0.0133    0.0486    0.0320   -0.0165   -0.0007   -0.0341   -0.0206
          62    0.0137   -0.0082    0.0177    0.0092    0.0085   -0.0003    0.0968    0.0645
          63    0.0016    0.0023    0.0019    0.0013   -0.0072    0.0009   -0.0075   -0.0059
          64    0.0052    0.0126    0.0048    0.0041    0.0496   -0.0870    0.0088   -0.0124
          65    0.0033    0.0177    0.0089    0.0019    0.0602   -0.0919    0.0051   -0.0069
          66   -0.0086    0.0362    0.0094    0.0057    0.0246    0.0735   -0.0377    0.0563


   Root No.      49        50        51        52        53        54        55        56

                49 A      50 A      51 A      52 A      53 A      54 A      55 A      56 A   

                2878.6    2972.6    2984.4    2990.6    3052.8    3054.9    3067.5    3116.3
  
           1    0.0242   -0.0004   -0.0000    0.0007   -0.0000    0.0004   -0.0006   -0.0000
           2    0.0243   -0.0003    0.0000    0.0005   -0.0000    0.0002    0.0003    0.0004
           3   -0.0611    0.0009   -0.0000   -0.0016   -0.0001    0.0000   -0.0003    0.0000
           4    0.0010   -0.0008   -0.0000    0.0018   -0.0000    0.0031   -0.0217   -0.0000
           5   -0.0001    0.0009    0.0000   -0.0021    0.0000   -0.0051    0.0291    0.0002
           6    0.0041    0.0204    0.0002   -0.0398   -0.0000    0.0009   -0.0051   -0.0000
           7   -0.0002    0.0027   -0.0000    0.0012   -0.0003   -0.0338   -0.0051   -0.0003
           8   -0.0001   -0.0011    0.0000   -0.0006   -0.0001   -0.0140   -0.0016   -0.0003
           9   -0.0002   -0.0403    0.0001   -0.0199   -0.0000   -0.0012   -0.0005    0.0001
          10    0.0000   -0.0000   -0.0460   -0.0001   -0.0257    0.0001    0.0000    0.0000
          11    0.0000    0.0000    0.0393    0.0001   -0.0313    0.0002    0.0001    0.0000
          12    0.0001   -0.0000   -0.0052   -0.0000   -0.0096    0.0001    0.0000    0.0000
          13    0.0002   -0.0002   -0.0001    0.0004    0.0005    0.0000   -0.0001   -0.0001
          14    0.0003   -0.0001    0.0001    0.0001    0.0007   -0.0000    0.0000    0.0001
          15   -0.0003   -0.0000   -0.0000    0.0001    0.0003   -0.0000   -0.0000   -0.0000
          16   -0.0002    0.0000    0.0000   -0.0000    0.0000   -0.0002   -0.0004   -0.0340
          17    0.0010    0.0000   -0.0000    0.0000   -0.0000    0.0003    0.0000    0.0103
          18   -0.0001   -0.0002    0.0000   -0.0002    0.0000   -0.0000   -0.0000   -0.0028
          19   -0.0002    0.0000   -0.0002   -0.0000    0.0001   -0.0000   -0.0000   -0.0000
          20   -0.0003    0.0000    0.0002   -0.0000   -0.0001   -0.0000   -0.0000    0.0000
          21   -0.0005    0.0000   -0.0000   -0.0000   -0.0014    0.0000    0.0000    0.0000
          22   -0.0004   -0.0000   -0.0000   -0.0000   -0.0000   -0.0005    0.0001   -0.0002
          23   -0.0004   -0.0000    0.0000   -0.0000   -0.0000    0.0016    0.0006   -0.0403
          24   -0.0003   -0.0000    0.0000   -0.0001    0.0000   -0.0001   -0.0000    0.0023
          25   -0.0000    0.0000   -0.0002   -0.0000   -0.0005   -0.0000    0.0000   -0.0000
          26   -0.0001    0.0000    0.0002   -0.0000   -0.0004    0.0000    0.0000   -0.0000
          27    0.0000    0.0000   -0.0000   -0.0000    0.0012   -0.0000   -0.0000   -0.0000
          28    0.0001   -0.0000   -0.0002    0.0002   -0.0002    0.0000   -0.0003    0.0001
          29    0.0002   -0.0000    0.0001    0.0001   -0.0002   -0.0000   -0.0003    0.0002
          30    0.0005   -0.0000   -0.0000   -0.0000    0.0005    0.0000    0.0001   -0.0001
          31   -0.2939    0.0055    0.0000   -0.0098    0.0000    0.0004   -0.0028   -0.0006
          32   -0.2920    0.0039    0.0000   -0.0071    0.0000   -0.0000   -0.0013    0.0011
          33    0.7368   -0.0098   -0.0000    0.0172    0.0001   -0.0002    0.0044   -0.0006
          34    0.0068    0.0632    0.0005   -0.1231   -0.0000   -0.0186    0.1181    0.0005
          35   -0.0136   -0.0786   -0.0007    0.1628   -0.0000    0.0226   -0.1545   -0.0003
          36   -0.0228   -0.1341   -0.0011    0.2654   -0.0000    0.0459   -0.3024   -0.0008
          37   -0.0064   -0.0528   -0.0005    0.0997    0.0002   -0.0233    0.1449    0.0005
          38    0.0168    0.0677    0.0006   -0.1368   -0.0002    0.0297   -0.1969   -0.0003
          39   -0.0266   -0.1101   -0.0010    0.2101    0.0004   -0.0562    0.3634    0.0009
[...]
 RED. MASS   1.3102         C  2 -- C  3         +10.5% ( 46.6%)     74.0%
 EFF. MASS   7.5349

 VIBRATION   40   40A         ATOM PAIR      ENERGY CONTRIBUTION    RADIAL
 FREQ.      1351.07         C  4 -- C  7         +20.7% ( 73.3%)     78.8%
 T-DIPOLE    0.1792         C  4 -- C  9         +20.4% ( 72.7%)     68.3%
 TRAVEL      0.0711         C  4 -- H 17         +15.0% ( 62.2%)      0.2%
 RED. MASS   3.3341         C  4 -- H 16         +15.0% ( 62.2%)      0.3%
 EFF. MASS   9.8701

 VIBRATION   41   41A         ATOM PAIR      ENERGY CONTRIBUTION    RADIAL
 FREQ.      1368.73         C  1 -- C  6         +10.3% ( 40.5%)     99.4%
 T-DIPOLE    0.2628         C  4 -- H 17          +8.7% ( 37.1%)      5.9%
 TRAVEL      0.0947         C  4 -- H 16          +8.6% ( 36.9%)      6.2%
 RED. MASS   0.4158         C  3 -- H 14          +7.7% ( 34.9%)      1.0%
 EFF. MASS   5.4972

 VIBRATION   42   42A         ATOM PAIR      ENERGY CONTRIBUTION    RADIAL
 FREQ.      1393.30         C  4 -- C  7         +10.7% ( 46.5%)     54.1%
 T-DIPOLE    0.0568         C  4 -- C  9         +10.5% ( 46.0%)     75.7%
 TRAVEL      0.0836         C  4 -- H 16          +9.2% ( 43.0%)      8.7%
 RED. MASS   0.6875         C  4 -- H 17          +9.2% ( 43.0%)      8.8%
 EFF. MASS   6.9218

 VIBRATION   43   43A         ATOM PAIR      ENERGY CONTRIBUTION    RADIAL
 FREQ.      1410.02         C  3 -- C  8         +14.6% ( 50.2%)     98.3%
 T-DIPOLE    0.0479         C  3 -- H 15         +11.0% ( 43.7%)      5.3%
 TRAVEL      0.0884         C  3 -- H 14         +10.9% ( 43.5%)      5.6%
 RED. MASS   0.6503         C  2 -- C  3         +10.2% ( 42.0%)      0.0%
 EFF. MASS   6.1229

 VIBRATION   44   44A         ATOM PAIR      ENERGY CONTRIBUTION    RADIAL
 FREQ.      1418.73         C  2 -- H 12         +23.2% ( 50.8%)      4.4%
 T-DIPOLE    0.0668         C  2 -- H 13         +22.3% ( 49.8%)      5.0%
 TRAVEL      0.1249         C  3 -- H 15         +12.5% ( 37.3%)      5.9%
 RED. MASS   0.3754         C  3 -- H 14         +12.5% ( 37.3%)      6.0%
 EFF. MASS   3.0471         C  2 -- C  3         +11.8% ( 36.3%)     99.9%

 VIBRATION   45   45A         ATOM PAIR      ENERGY CONTRIBUTION    RADIAL
 FREQ.      1497.16         C  5 -- C 10         +22.5% ( 80.5%)     99.8%
 T-DIPOLE    0.4935         C  1 -- C  5         +20.4% ( 76.6%)     73.1%
 TRAVEL      0.0620         C  5 -- C  7         +16.0% ( 67.9%)     18.7%
 RED. MASS   4.3191         C  5 -- C  9         +13.3% ( 61.8%)     89.5%
 EFF. MASS  11.7070

 VIBRATION   46   46A         ATOM PAIR      ENERGY CONTRIBUTION    RADIAL
 FREQ.      1745.25         C  9 -- C 10         +31.9% ( 95.9%)    100.0%
 T-DIPOLE    0.5639         C  5 -- C  9         +11.6% ( 57.7%)     49.9%
 TRAVEL      0.0568         C  4 -- C  9         +10.2% ( 54.2%)     16.2%
 RED. MASS   4.2865         C  7 -- C 10         +10.2% ( 54.1%)     16.0%
 EFF. MASS  11.9760

 VIBRATION   47   47A         ATOM PAIR      ENERGY CONTRIBUTION    RADIAL
 FREQ.      1828.24         C  6 -- C  8         +29.7% ( 84.0%)    100.0%
 T-DIPOLE    0.2389         C  5 -- C  7          +9.9% ( 48.4%)     95.8%
 TRAVEL      0.0557         C  1 -- C  6          +9.6% ( 47.8%)     25.8%
 RED. MASS   3.0307         C  3 -- C  8          +9.0% ( 46.3%)     26.3%
 EFF. MASS  11.8715

 VIBRATION   48   48A         ATOM PAIR      ENERGY CONTRIBUTION    RADIAL
 FREQ.      1832.90         C  5 -- C  7         +22.4% ( 76.2%)     96.0%
 T-DIPOLE    0.2053         C  6 -- C  8         +11.5% ( 54.6%)    100.0%
 TRAVEL      0.0557         C  5 -- C 10         +10.8% ( 53.0%)      0.6%
 RED. MASS   2.7490         C  1 -- C  5         +10.4% ( 51.9%)     71.5%
 EFF. MASS  11.8530

 VIBRATION   49   49A         ATOM PAIR      ENERGY CONTRIBUTION    RADIAL
 FREQ.      2878.59         C  1 -- H 11         +96.5% ( 99.9%)    100.0%
 T-DIPOLE    0.0700         C  1 -- C  2          +1.1% ( 10.6%)     10.0%
 TRAVEL      0.1271         C  1 -- C  5          +1.1% ( 10.5%)     10.2%
 RED. MASS   0.9249         C  1 -- C  6          +1.1% ( 10.5%)      9.5%
 EFF. MASS   1.4507

 VIBRATION   50   50A         ATOM PAIR      ENERGY CONTRIBUTION    RADIAL
 FREQ.      2972.56         C  3 -- H 15         +40.4% ( 66.1%)     96.7%
 T-DIPOLE    0.0166         C  3 -- H 14         +37.5% ( 63.7%)     96.3%
 TRAVEL      0.1209         C  2 -- H 12         +11.5% ( 35.3%)     97.2%
 RED. MASS   0.3527         C  2 -- H 13          +8.2% ( 29.8%)     95.0%
 EFF. MASS   1.5509

 VIBRATION   51   51A         ATOM PAIR      ENERGY CONTRIBUTION    RADIAL
 FREQ.      2984.42         C  4 -- H 17         +49.0% ( 72.5%)     96.8%
 T-DIPOLE    0.1530         C  4 -- H 16         +48.9% ( 72.4%)     96.8%
 TRAVEL      0.1215         C  4 -- C  9          +1.1% ( 10.7%)      0.0%
 RED. MASS   0.5172         C  4 -- C  7          +1.1% ( 10.7%)      0.0%
 EFF. MASS   1.5318

 VIBRATION   52   52A         ATOM PAIR      ENERGY CONTRIBUTION    RADIAL
 FREQ.      2990.58         C  2 -- H 12         +46.7% ( 70.7%)     97.6%
 T-DIPOLE    0.0746         C  2 -- H 13         +31.4% ( 58.0%)     95.2%
 TRAVEL      0.1214         C  3 -- H 15         +10.2% ( 33.1%)     97.1%
 RED. MASS   0.3620         C  3 -- H 14          +9.4% ( 31.7%)     96.6%
 EFF. MASS   1.5310

 VIBRATION   53   53A         ATOM PAIR      ENERGY CONTRIBUTION    RADIAL
 FREQ.      3052.76         C  4 -- H 16         +49.3% ( 69.4%)     97.3%
 T-DIPOLE    0.2918         C  4 -- H 17         +49.1% ( 69.3%)     97.3%
 TRAVEL      0.1309         C  4 -- C  9          +0.7% (  8.5%)     35.8%
 RED. MASS   0.4830         C  4 -- C  7          +0.7% (  8.5%)     35.4%
 EFF. MASS   1.2885

 VIBRATION   54   54A         ATOM PAIR      ENERGY CONTRIBUTION    RADIAL
 FREQ.      3054.88         C  3 -- H 14         +50.2% ( 69.9%)     97.8%
 T-DIPOLE    0.0746         C  3 -- H 15         +46.0% ( 66.9%)     97.3%
 TRAVEL      0.1311         C  2 -- H 13          +1.4% ( 11.7%)     98.4%
 RED. MASS   0.4620         C  2 -- H 12          +0.9% (  9.3%)     95.4%
 EFF. MASS   1.2838

 VIBRATION   55   55A         ATOM PAIR      ENERGY CONTRIBUTION    RADIAL
 FREQ.      3067.49         C  2 -- H 13         +58.1% ( 75.2%)     98.6%
 T-DIPOLE    0.0796         C  2 -- H 12         +38.2% ( 61.0%)     96.0%
 TRAVEL      0.1310         C  3 -- H 15          +1.2% ( 10.6%)     98.0%
 RED. MASS   0.4783         C  3 -- H 14          +1.1% ( 10.2%)     97.7%
 EFF. MASS   1.2815

 VIBRATION   56   56A         ATOM PAIR      ENERGY CONTRIBUTION    RADIAL
 FREQ.      3116.33         C  8 -- H 21         +54.1% ( 74.7%)    100.0%
 T-DIPOLE    0.3693         C  6 -- H 20         +43.3% ( 66.8%)    100.0%
 TRAVEL      0.1217         C  6 -- C  8          +1.1% ( 10.7%)      0.2%
 RED. MASS   0.4705         C  3 -- C  8          +0.8% (  9.1%)     27.3%
 EFF. MASS   1.4619

 VIBRATION   57   57A         ATOM PAIR      ENERGY CONTRIBUTION    RADIAL
 FREQ.      3130.48         C 10 -- H 22         +74.7% ( 88.6%)    100.0%
 T-DIPOLE    0.3900         C  9 -- H 19         +20.1% ( 45.9%)    100.0%
 TRAVEL      0.1201         C  9 -- C 10          +1.3% ( 11.7%)      8.8%
 RED. MASS   0.6108         C  5 -- C 10          +1.3% ( 11.6%)     28.5%
 EFF. MASS   1.4934

 VIBRATION   58   58A         ATOM PAIR      ENERGY CONTRIBUTION    RADIAL
 FREQ.      3135.42         C  6 -- H 20         +53.1% ( 74.3%)     99.9%
 T-DIPOLE    0.3528         C  8 -- H 21         +42.3% ( 66.2%)     99.9%
 TRAVEL      0.1141         C  6 -- C  8          +2.5% ( 16.0%)     99.7%
 RED. MASS   0.4714         C  1 -- C  6          +1.0% ( 10.3%)     18.3%
 EFF. MASS   1.6507

 VIBRATION   59   59A         ATOM PAIR      ENERGY CONTRIBUTION    RADIAL
 FREQ.      3141.78         C  7 -- H 18         +86.0% ( 95.1%)    100.0%
 T-DIPOLE    0.4986         C  9 -- H 19          +8.6% ( 30.1%)    100.0%
 TRAVEL      0.1180         C  5 -- C  7          +1.6% ( 12.9%)     49.0%
 RED. MASS   0.7704         C  4 -- C  7          +1.5% ( 12.4%)     25.9%
 EFF. MASS   1.5422

 VIBRATION   60   60A         ATOM PAIR      ENERGY CONTRIBUTION    RADIAL
 FREQ.      3152.06         C  9 -- H 19         +66.0% ( 83.5%)    100.0%
 T-DIPOLE    0.2848         C 10 -- H 22         +19.8% ( 45.8%)     99.9%
 TRAVEL      0.1139         C  7 -- H 18          +8.0% ( 29.2%)    100.0%
 RED. MASS   0.5075         C  9 -- C 10          +2.1% ( 15.0%)     92.3%
 EFF. MASS   1.6479

      SYMMETRY NUMBER FOR POINT-GROUP C1  =  1


          SYSTEM IS A GROUND STATE



 InChI=1S/C10H12/c1-2-6-9(5-1)10-7-3-4-8-10/h1,3,5-7,10H,2,4,8H2


          MOLECULE IS NOT LINEAR

          THERE ARE 60 GENUINE VIBRATIONS IN THIS SYSTEM
          THIS THERMODYNAMICS CALCULATION IS LIMITED TO
          MOLECULES WHICH HAVE NO INTERNAL ROTATIONS




                    CALCULATED THERMODYNAMIC PROPERTIES
                                          *
   TEMP. (K)   PARTITION FUNCTION   H.O.F.    ENTHALPY  HEAT CAPACITY ENTROPY
                                   KCAL/MOL   CAL/MOLE    CAL/K/MOL  CAL/K/MOL


 298.00  VIB.     0.1449D+03                  3603.5707    27.7388    21.9808
         ROT.     0.5805D+06                   888.2813     2.9808    29.3542
         INT.     0.8410D+08                  4491.8520    30.7196    51.3350
         TRA.     0.1470D+28                  1480.4688     4.9680    40.5480
         TOT.                       39.061    5972.3208    35.6876    91.8830

 200.00  VIB.     0.2137D+02                  1494.7048    15.7784    13.5580
         ROT.     0.3192D+06                   596.1620     2.9808    28.1655
         INT.     0.6819D+07                  2090.8667    18.7592    41.7236
         TRA.     0.8080D+27                   993.6033     4.9680    38.5668
         TOT.                       36.173    3084.4700    23.7272    80.2904

 210.00  VIB.     0.2580D+02                  1657.7632    16.8413    14.3534
         ROT.     0.3434D+06                   625.9700     2.9808    28.3110
         INT.     0.8860D+07                  2283.7333    19.8221    42.6644
         TRA.     0.8694D+27                  1043.2834     4.9680    38.8092
         TOT.                       36.415    3327.0167    24.7902    81.4736

 220.00  VIB.     0.3119D+02                  1831.6869    17.9509    15.1623
         ROT.     0.3682D+06                   655.7781     2.9808    28.4496
         INT.     0.1149D+08                  2487.4650    20.9317    43.6119
         TRA.     0.9322D+27                  1092.9636     4.9680    39.0403
         TOT.                       36.669    3580.4286    25.8997    82.6523

 230.00  VIB.     0.3776D+02                  2016.9257    19.1038    15.9855
         ROT.     0.3936D+06                   685.5862     2.9808    28.5821
         INT.     0.1486D+08                  2702.5120    22.0846    44.5677
         TRA.     0.9965D+27                  1142.6437     4.9680    39.2612
         TOT.                       36.934    3845.1557    27.0526    83.8288

 240.00  VIB.     0.4579D+02                  2213.8928    20.2958    16.8236
         ROT.     0.4195D+06                   715.3943     2.9808    28.7090
         INT.     0.1921D+08                  2929.2872    23.2766    45.5326
         TRA.     0.1062D+28                  1192.3239     4.9680    39.4726
         TOT.                       37.210    4121.6111    28.2447    85.0052

 250.00  VIB.     0.5560D+02                  2422.9579    21.5226    17.6769
         ROT.     0.4460D+06                   745.2024     2.9808    28.8307
         INT.     0.2480D+08                  3168.1603    24.5034    46.5076
         TRA.     0.1129D+28                  1242.0041     4.9680    39.6754
         TOT.                       37.499    4410.1644    29.4714    86.1830

 260.00  VIB.     0.6764D+02                  2644.4434    22.7791    18.5454
         ROT.     0.4731D+06                   775.0105     2.9808    28.9476
         INT.     0.3200D+08                  3419.4539    25.7599    47.4930
         TRA.     0.1198D+28                  1291.6842     4.9680    39.8703
         TOT.                       37.800    4711.1382    30.7279    87.3633

 270.00  VIB.     0.8243D+02                  2878.6226    24.0605    19.4291
         ROT.     0.5006D+06                   804.8186     2.9808    29.0601
         INT.     0.4127D+08                  3683.4412    27.0413    48.4892
         TRA.     0.1267D+28                  1341.3644     4.9680    40.0578
         TOT.                       38.113    5024.8056    32.0093    88.5469

 280.00  VIB.     0.1006D+03                  3125.7189    25.3617    20.3276
         ROT.     0.5287D+06                   834.6267     2.9808    29.1685
         INT.     0.5321D+08                  3960.3456    28.3425    49.4960
         TRA.     0.1338D+28                  1391.0445     4.9680    40.2384
         TOT.                       38.440    5351.3902    33.3105    89.7345

 290.00  VIB.     0.1231D+03                  3385.9070    26.6780    21.2405
         ROT.     0.5573D+06                   864.4348     2.9808    29.2731
         INT.     0.6861D+08                  4250.3418    29.6588    50.5135
         TRA.     0.1411D+28                  1440.7247     4.9680    40.4128
         TOT.                       38.779    5691.0665    34.6268    90.9263

 300.00  VIB.     0.1509D+03                  3659.3142    28.0048    22.1672
         ROT.     0.5863D+06                   894.2429     2.9808    29.3741
         INT.     0.8850D+08                  4553.5572    30.9856    51.5414
         TRA.     0.1484D+28                  1490.4049     4.9680    40.5812
         TOT.                       39.132    6043.9620    35.9536    92.1226

 310.00  VIB.     0.1854D+03                  3946.0236    29.3377    23.1072
         ROT.     0.6159D+06                   924.0510     2.9808    29.4719
         INT.     0.1142D+09                  4870.0746    32.3185    52.5791
         TRA.     0.1559D+28                  1540.0850     4.9680    40.7441
         TOT.                       39.499    6410.1596    37.2866    93.3232

 320.00  VIB.     0.2282D+03                  4246.0762    30.6728    24.0597
         ROT.     0.6459D+06                   953.8591     2.9808    29.5665
         INT.     0.1474D+09                  5199.9353    33.6536    53.6263
         TRA.     0.1635D+28                  1589.7652     4.9680    40.9018
         TOT.                       39.878    6789.7005    38.6217    94.5281

 330.00  VIB.     0.2814D+03                  4559.4750    32.0064    25.0240
         ROT.     0.6764D+06                   983.6672     2.9808    29.6582
         INT.     0.1904D+09                  5543.1422    34.9872    54.6823
         TRA.     0.1713D+28                  1639.4454     4.9680    41.0547
         TOT.                       40.271    7182.5876    39.9552    95.7370

 340.00  VIB.     0.3477D+03                  4886.1883    33.3352    25.9992
         ROT.     0.7074D+06                  1013.4753     2.9808    29.7472
         INT.     0.2460D+09                  5899.6636    36.3160    55.7465
         TRA.     0.1791D+28                  1689.1255     4.9680    41.2030
         TOT.                       40.677    7588.7891    41.2840    96.9495

 350.00  VIB.     0.4306D+03                  5226.1530    34.6562    26.9846
         ROT.     0.7389D+06                  1043.2834     2.9808    29.8336
         INT.     0.3181D+09                  6269.4364    37.6370    56.8183
         TRA.     0.1871D+28                  1738.8057     4.9680    41.3470
         TOT.                       41.097    8008.2421    42.6051    98.1653

 360.00  VIB.     0.5342D+03                  5579.2783    35.9669    27.9793
         ROT.     0.7707D+06                  1073.0915     2.9808    29.9176
         INT.     0.4118D+09                  6652.3698    38.9477    57.8969
         TRA.     0.1951D+28                  1788.4859     4.9680    41.4870
         TOT.                       41.529    8440.8556    43.9157    99.3839

 370.00  VIB.     0.6641D+03                  5945.4490    37.2650    28.9825
         ROT.     0.8031D+06                  1102.8996     2.9808    29.9993
         INT.     0.5333D+09                  7048.3486    40.2458    58.9818
         TRA.     0.2033D+28                  1838.1660     4.9680    41.6231
         TOT.                       41.975    8886.5146    45.2138   100.6049

 380.00  VIB.     0.8271D+03                  6324.5291    38.5485    29.9934
         ROT.     0.8359D+06                  1132.7077     2.9808    30.0788
         INT.     0.6913D+09                  7457.2368    41.5293    60.0722
         TRA.     0.2116D+28                  1887.8462     4.9680    41.7556
         TOT.                       42.433    9345.0830    46.4973   101.8277

 390.00  VIB.     0.1032D+04                  6716.3642    39.8157    31.0111
         ROT.     0.8691D+06                  1162.5158     2.9808    30.1562
         INT.     0.8968D+09                  7878.8800    42.7965    61.1673
         TRA.     0.2200D+28                  1937.5263     4.9680    41.8846
         TOT.                       42.905    9816.4064    47.7646   103.0519

 400.00  VIB.     0.1290D+04                  7120.7850    41.0654    32.0350
         ROT.     0.9027D+06                  1192.3239     2.9808    30.2317
         INT.     0.1164D+10                  8313.1089    44.0462    62.2666
         TRA.     0.2285D+28                  1987.2065     4.9680    42.0104
         TOT.                       43.389   10300.3154    49.0142   104.2770

   *: NOTE: HEATS OF FORMATION ARE RELATIVE TO THE
            ELEMENTS IN THEIR STANDARD STATE AT 298K
              (=  Standard Enthalpy of Formation).

            Hvib:  Zero-point energy is not included.
                   frequencies of less than zero cm-1 are not included.
            Hrot = (3/2)RT
            Htra = (3/2)RT + pV = (5/2)RT

            Heat capacity is Cp, not Cv

          For more information, see: HTTP://OpenMOPAC.net/Manual/thermochemistry.html


           FORCE CONSTANT IN CARTESIAN COORDINATES (Millidynes/A)

    ATOM   CHEMICAL       X               Y               Z
   NUMBER   SYMBOL  FORCE CONSTANT  FORCE CONSTANT  FORCE CONSTANT

      1       C        7.820692        9.424884        8.717091
      2       C        7.535567        8.417174        8.434602
      3       C        9.625211        7.566768        8.070556
      4       C        8.672836        9.104025        7.849371
      5       C        7.811289        9.968554       10.837934
      6       C       14.581773       10.308455        2.463705
      7       C        7.393305        8.859652       10.542005
      8       C       11.981499       13.076801        2.388369
      9       C        5.971888        7.870438       12.981591
     10       C        7.588054        9.773662       10.024304
     11       H        1.175017        1.122718        3.650370
     12       H        1.294779        1.641947        3.571147
     13       H        1.242390        1.687524        3.582179
     14       H        2.234248        0.886464        3.275792
     15       H        1.625403        0.953381        3.804154
     16       H        4.830171        0.649749        0.790382
     17       H        0.915675        4.729598        0.626545
     18       H        1.241867        1.150973        4.067423
     19       H        0.489857        0.620398        5.355994
     20       H        4.956979        1.084173        0.381882
     21       H        0.710282        5.341750        0.369673
     22       H        2.364547        2.834046        1.244262

 **********************
 *                    *
 * JOB ENDED NORMALLY *
 *                    *
 **********************



 TOTAL JOB TIME:             2.33 SECONDS

 == MOPAC DONE ==
