 *******************************************************************************
 ** Site#: 14399        For non-commercial use only    Version 18.184L 64BITS **
 *******************************************************************************
 ** Cite this program as: MOPAC2016, Version: 18.184L, James J. P. Stewart,   **
 ** Stewart Computational Chemistry, web: HTTP://OpenMOPAC.net. Days left:  18**
 *******************************************************************************
 **                                                                           **
 **                                MOPAC2016                                  **
 **                                                                           **
 *******************************************************************************

                              PM3 CALCULATION RESULTS

 *******************************************************************************
 *  CALCULATION DONE:                                Sat Jun 15 10:11:24 2019  *
 *  PM3        - The PM3 Hamiltonian to be used
 *  PRECISE    - CRITERIA TO BE INCREASED BY 100 TIMES
 *  NOSYM      - POINT-GROUP SYMMETRY SET TO C1
 *  THREADS=1  - MULTI-THREADING NOT USED
 *  T=         - A TIME OF 172800.0 SECONDS REQUESTED
 *  DUMP=N     - RESTART FILE WRITTEN EVERY  7200.000 SECONDS
 *******************************************************************************
pm3  precise nosym THREADS=1
 InChI=1S/C7H10/c1-6-3-4-7(2)5-6/h3-4,7H,1,5H2,2H3

   ATOM   CHEMICAL          X               Y               Z
  NUMBER   SYMBOL      (ANGSTROMS)     (ANGSTROMS)     (ANGSTROMS)
 
     1       C          1.00330000  *  -0.18550000  *  -0.44530000  *
     2       C         -0.36350000  *  -0.89880000  *  -0.35220000  *
     3       C          1.99710000  *  -0.69490000  *   0.60100000  *
     4       C         -1.31170000  *   0.21870000  *  -0.08810000  *
     5       C          0.68830000  *   1.26410000  *  -0.21800000  *
     6       C         -0.59840000  *   1.47630000  *  -0.02100000  *
     7       C         -2.62640000  *   0.08320000  *   0.06270000  *
     8       H          1.43570000  *  -0.31190000  *  -1.46200000  *
     9       H         -0.61490000  *  -1.39550000  *  -1.31440000  *
    10       H         -0.40580000  *  -1.63900000  *   0.47710000  *
    11       H          2.95720000  *  -0.14310000  *   0.51300000  *
    12       H          1.59450000  *  -0.55500000  *   1.62780000  *
    13       H          2.19730000  *  -1.77490000  *   0.43620000  *
    14       H          1.42680000  *   2.05550000  *  -0.22390000  *
    15       H         -1.04040000  *   2.44830000  *   0.15710000  *
    16       H         -3.08750000  *  -0.89400000  *  -0.00230000  *
    17       H         -3.25170000  *   0.94660000  *   0.25210000  *
 


          CARTESIAN COORDINATES 

    NO.       ATOM           X           Y           Z

     1         C          1.0033     -0.1855     -0.4453
     2         C         -0.3635     -0.8988     -0.3522
     3         C          1.9971     -0.6949      0.6010
     4         C         -1.3117      0.2187     -0.0881
     5         C          0.6883      1.2641     -0.2180
     6         C         -0.5984      1.4763     -0.0210
     7         C         -2.6264      0.0832      0.0627
     8         H          1.4357     -0.3119     -1.4620
     9         H         -0.6149     -1.3955     -1.3144
    10         H         -0.4058     -1.6390      0.4771
    11         H          2.9572     -0.1431      0.5130
    12         H          1.5945     -0.5550      1.6278
    13         H          2.1973     -1.7749      0.4362
    14         H          1.4268      2.0555     -0.2239
    15         H         -1.0404      2.4483      0.1571
    16         H         -3.0875     -0.8940     -0.0023
    17         H         -3.2517      0.9466      0.2521

  H: (PM3): J. J. P. STEWART, J. COMP. CHEM. 10, 209 (1989).
  C: (PM3): J. J. P. STEWART, J. COMP. CHEM. 10, 209 (1989).

           Empirical Formula: C7 H10  =    17 atoms



      MOLECULAR POINT GROUP   :   C1  


      RHF CALCULATION, NO. OF DOUBLY OCCUPIED LEVELS = 19


          Geometry optimization using EF

          DIAGONAL MATRIX USED AS START HESSIAN

 CYCLE:     1 TIME:   0.008 TIME LEFT:  2.00D  GRAD.:    68.499 HEAT:  20.92664
 CYCLE:     2 TIME:   0.008 TIME LEFT:  2.00D  GRAD.:    49.930 HEAT:  20.01980
 CYCLE:     3 TIME:   0.000 TIME LEFT:  2.00D  GRAD.:    26.322 HEAT:  19.27847
 CYCLE:     4 TIME:   0.008 TIME LEFT:  2.00D  GRAD.:    24.692 HEAT:  18.99089
 CYCLE:     5 TIME:   0.000 TIME LEFT:  2.00D  GRAD.:    23.470 HEAT:  18.73858
 CYCLE:     6 TIME:   0.008 TIME LEFT:  2.00D  GRAD.:    26.970 HEAT:  18.61331
 CYCLE:     7 TIME:   0.004 TIME LEFT:  2.00D  GRAD.:    15.063 HEAT:  18.39367
 CYCLE:     8 TIME:   0.004 TIME LEFT:  2.00D  GRAD.:    13.583 HEAT:  18.33960
 CYCLE:     9 TIME:   0.004 TIME LEFT:  2.00D  GRAD.:    12.950 HEAT:  18.30000
 CYCLE:    10 TIME:   0.000 TIME LEFT:  2.00D  GRAD.:    13.513 HEAT:  18.27983
 CYCLE:    11 TIME:   0.004 TIME LEFT:  2.00D  GRAD.:     9.994 HEAT:  18.24979
 CYCLE:    12 TIME:   0.004 TIME LEFT:  2.00D  GRAD.:     7.827 HEAT:  18.23611
 CYCLE:    13 TIME:   0.004 TIME LEFT:  2.00D  GRAD.:     2.811 HEAT:  18.21822
 CYCLE:    14 TIME:   0.004 TIME LEFT:  2.00D  GRAD.:     3.472 HEAT:  18.21710
 CYCLE:    15 TIME:   0.004 TIME LEFT:  2.00D  GRAD.:     2.831 HEAT:  18.21436
 CYCLE:    16 TIME:   0.004 TIME LEFT:  2.00D  GRAD.:     3.424 HEAT:  18.21488
 CYCLE:    17 TIME:   0.000 TIME LEFT:  2.00D  GRAD.:     1.586 HEAT:  18.21107
 CYCLE:    18 TIME:   0.004 TIME LEFT:  2.00D  GRAD.:     2.581 HEAT:  18.21139
 CYCLE:    19 TIME:   0.004 TIME LEFT:  2.00D  GRAD.:     1.089 HEAT:  18.20922
 CYCLE:    20 TIME:   0.000 TIME LEFT:  2.00D  GRAD.:     2.697 HEAT:  18.20970
 CYCLE:    21 TIME:   0.004 TIME LEFT:  2.00D  GRAD.:     0.892 HEAT:  18.20755
 CYCLE:    22 TIME:   0.004 TIME LEFT:  2.00D  GRAD.:     1.211 HEAT:  18.20672
 CYCLE:    23 TIME:   0.004 TIME LEFT:  2.00D  GRAD.:     1.245 HEAT:  18.20536
 CYCLE:    24 TIME:   0.004 TIME LEFT:  2.00D  GRAD.:     1.423 HEAT:  18.20440
 CYCLE:    25 TIME:   0.000 TIME LEFT:  2.00D  GRAD.:     0.714 HEAT:  18.20337
 CYCLE:    26 TIME:   0.004 TIME LEFT:  2.00D  GRAD.:     0.731 HEAT:  18.20258
 CYCLE:    27 TIME:   0.004 TIME LEFT:  2.00D  GRAD.:     1.089 HEAT:  18.20140
 CYCLE:    28 TIME:   0.000 TIME LEFT:  2.00D  GRAD.:     0.840 HEAT:  18.20046
 CYCLE:    29 TIME:   0.004 TIME LEFT:  2.00D  GRAD.:     0.585 HEAT:  18.19975
 CYCLE:    30 TIME:   0.004 TIME LEFT:  2.00D  GRAD.:     0.621 HEAT:  18.19915
 CYCLE:    31 TIME:   0.000 TIME LEFT:  2.00D  GRAD.:     0.678 HEAT:  18.19833
 CYCLE:    32 TIME:   0.004 TIME LEFT:  2.00D  GRAD.:     0.672 HEAT:  18.19741
 CYCLE:    33 TIME:   0.004 TIME LEFT:  2.00D  GRAD.:     0.805 HEAT:  18.19595
 CYCLE:    34 TIME:   0.004 TIME LEFT:  2.00D  GRAD.:     0.983 HEAT:  18.19437
 CYCLE:    35 TIME:   0.000 TIME LEFT:  2.00D  GRAD.:     1.040 HEAT:  18.19265
 CYCLE:    36 TIME:   0.004 TIME LEFT:  2.00D  GRAD.:     0.994 HEAT:  18.19043
 CYCLE:    37 TIME:   0.004 TIME LEFT:  2.00D  GRAD.:     0.711 HEAT:  18.18923
 CYCLE:    38 TIME:   0.004 TIME LEFT:  2.00D  GRAD.:     0.469 HEAT:  18.18812
 CYCLE:    39 TIME:   0.004 TIME LEFT:  2.00D  GRAD.:     0.373 HEAT:  18.18775
 CYCLE:    40 TIME:   0.000 TIME LEFT:  2.00D  GRAD.:     0.301 HEAT:  18.18733
 CYCLE:    41 TIME:   0.004 TIME LEFT:  2.00D  GRAD.:     0.266 HEAT:  18.18713
 CYCLE:    42 TIME:   0.004 TIME LEFT:  2.00D  GRAD.:     0.204 HEAT:  18.18702
 CYCLE:    43 TIME:   0.000 TIME LEFT:  2.00D  GRAD.:     0.202 HEAT:  18.18688
 CYCLE:    44 TIME:   0.004 TIME LEFT:  2.00D  GRAD.:     0.213 HEAT:  18.18678
 CYCLE:    45 TIME:   0.004 TIME LEFT:  2.00D  GRAD.:     0.164 HEAT:  18.18668
 CYCLE:    46 TIME:   0.000 TIME LEFT:  2.00D  GRAD.:     0.104 HEAT:  18.18664
 CYCLE:    47 TIME:   0.004 TIME LEFT:  2.00D  GRAD.:     0.085 HEAT:  18.18662
 CYCLE:    48 TIME:   0.004 TIME LEFT:  2.00D  GRAD.:     0.114 HEAT:  18.18660
 CYCLE:    49 TIME:   0.004 TIME LEFT:  2.00D  GRAD.:     0.087 HEAT:  18.18659
 CYCLE:    50 TIME:   0.000 TIME LEFT:  2.00D  GRAD.:     0.118 HEAT:  18.18657
 CYCLE:    51 TIME:   0.004 TIME LEFT:  2.00D  GRAD.:     0.078 HEAT:  18.18656
 CYCLE:    52 TIME:   0.004 TIME LEFT:  2.00D  GRAD.:     0.057 HEAT:  18.18655
 CYCLE:    53 TIME:   0.000 TIME LEFT:  2.00D  GRAD.:     0.066 HEAT:  18.18652
 CYCLE:    54 TIME:   0.004 TIME LEFT:  2.00D  GRAD.:     0.053 HEAT:  18.18651
 CYCLE:    55 TIME:   0.004 TIME LEFT:  2.00D  GRAD.:     0.072 HEAT:  18.18649
 CYCLE:    56 TIME:   0.004 TIME LEFT:  2.00D  GRAD.:     0.070 HEAT:  18.18649
 CYCLE:    57 TIME:   0.000 TIME LEFT:  2.00D  GRAD.:     0.090 HEAT:  18.18645
 CYCLE:    58 TIME:   0.004 TIME LEFT:  2.00D  GRAD.:     0.075 HEAT:  18.18643
 CYCLE:    59 TIME:   0.004 TIME LEFT:  2.00D  GRAD.:     0.063 HEAT:  18.18640
 CYCLE:    60 TIME:   0.004 TIME LEFT:  2.00D  GRAD.:     0.050 HEAT:  18.18640

     GRADIENT =  0.04956  IS LESS THAN CUTOFF =  0.05000



 -------------------------------------------------------------------------------
 pm3  precise nosym THREADS=1
 InChI=1S/C7H10/c1-6-3-4-7(2)5-6/h3-4,7H,1,5H2,2H3



     GEOMETRY OPTIMISED USING EIGENVECTOR FOLLOWING (EF).     
     SCF FIELD WAS ACHIEVED                                   


                              PM3 CALCULATION
                                                       MOPAC2016 (Version: 18.184L)
                                                       Sat Jun 15 10:11:24 2019
                                                       No. of days remaining =  18




          FINAL HEAT OF FORMATION =         18.18640 KCAL/MOL =      76.09190 KJ/MOL


          TOTAL ENERGY            =       -983.02106 EV
          ELECTRONIC ENERGY       =      -4545.08957 EV  POINT GROUP:     C1  
          CORE-CORE REPULSION     =       3562.06851 EV
          COSMO AREA              =        146.09 SQUARE ANGSTROMS
          COSMO VOLUME            =        139.66 CUBIC ANGSTROMS

          GRADIENT NORM           =          0.04956 = 0.01202 PER ATOM
          IONIZATION POTENTIAL    =          9.084552 EV
          HOMO LUMO ENERGIES (EV) =         -9.085  0.318
          NO. OF FILLED LEVELS    =         19
          MOLECULAR WEIGHT        =         94.1560

          MOLECULAR DIMENSIONS (Angstroms)

            Atom       Atom       Distance
            H    17    H    11     6.40125
            H    15    H     9     4.01909
            H    12    H     8     2.93516


          SCF CALCULATIONS        =         67
 
          WALL-CLOCK TIME         =          0.191 SECONDS
          COMPUTATION TIME        =          0.175 SECONDS




   ATOM   CHEMICAL          X               Y               Z
  NUMBER   SYMBOL      (ANGSTROMS)     (ANGSTROMS)     (ANGSTROMS)
 
     1       C          1.01701310  *  -0.18190686  *  -0.43264276  *
     2       C         -0.35708531  *  -0.88373356  *  -0.31878722  *
     3       C          2.02471527  *  -0.70479168  *   0.57011492  *
     4       C         -1.34697662  *   0.22323711  *  -0.08689835  *
     5       C          0.70916138  *   1.27350930  *  -0.20441735  *
     6       C         -0.60304872  *   1.48618257  *  -0.02070524  *
     7       C         -2.66401483  *   0.08512205  *   0.03522465  *
     8       H          1.42802097  *  -0.30462876  *  -1.46228621  *
     9       H         -0.60306208  *  -1.45126673  *  -1.23421899  *
    10       H         -0.37963060  *  -1.61216733  *   0.51331563  *
    11       H          2.97566621  *  -0.16169036  *   0.49580372  *
    12       H          1.66564382  *  -0.59889492  *   1.60238439  *
    13       H          2.23460006  *  -1.76894643  *   0.40210738  *
    14       H          1.50046811  *   2.02250677  *  -0.19846705  *
    15       H         -1.09625147  *   2.44210720  *   0.15498945  *
    16       H         -3.15848106  *  -0.87919897  *  -0.02391185  *
    17       H         -3.32492715  *   0.93001739  *   0.20135688  *

                             CARTESIAN COORDINATES

   1    C        1.017013098    -0.181906858    -0.432642759
   2    C       -0.357085306    -0.883733556    -0.318787224
   3    C        2.024715272    -0.704791678     0.570114918
   4    C       -1.346976616     0.223237108    -0.086898349
   5    C        0.709161383     1.273509302    -0.204417350
   6    C       -0.603048719     1.486182567    -0.020705238
   7    C       -2.664014829     0.085122054     0.035224650
   8    H        1.428020968    -0.304628765    -1.462286206
   9    H       -0.603062082    -1.451266731    -1.234218994
  10    H       -0.379630598    -1.612167329     0.513315631
  11    H        2.975666209    -0.161690362     0.495803724
  12    H        1.665643823    -0.598894915     1.602384393
  13    H        2.234600064    -1.768946427     0.402107380
  14    H        1.500468106     2.022506772    -0.198467050
  15    H       -1.096251472     2.442107202     0.154989454
  16    H       -3.158481059    -0.879198971    -0.023911845
  17    H       -3.324927151     0.930017389     0.201356878


           Empirical Formula: C7 H10  =    17 atoms



      MOLECULAR POINT GROUP   :   C1  


                  EIGENVALUES  
 -40.54073 -32.48696 -29.07141 -26.25864 -22.15663 -19.45412 -18.38610 -17.12752
 -15.88105 -14.83408 -14.46051 -13.88529 -13.58929 -12.94614 -12.51032 -12.02941
 -12.00099 -11.26816  -9.08455   0.31826   2.03085   3.25969   3.36107   3.53348
   3.75995   3.90923   3.95397   3.98121   4.21519   4.34951   4.41370   4.54652
   4.83742   4.99993   5.03107   5.67659   5.89463   6.20718


              NET ATOMIC CHARGES AND DIPOLE CONTRIBUTIONS

  ATOM NO.   TYPE          CHARGE      No. of ELECS.   s-Pop       p-Pop       
    1          C          -0.050334        4.0503     1.17153     2.87880
    2          C          -0.062937        4.0629     1.15632     2.90662
    3          C          -0.103176        4.1032     1.13884     2.96434
    4          C          -0.086104        4.0861     1.19224     2.89387
    5          C          -0.136565        4.1366     1.20701     2.92956
    6          C          -0.111439        4.1114     1.18823     2.92321
    7          C          -0.161157        4.1612     1.17631     2.98485
    8          H           0.069477        0.9305     0.93052
    9          H           0.059287        0.9407     0.94071
   10          H           0.064253        0.9357     0.93575
   11          H           0.039539        0.9605     0.96046
   12          H           0.044187        0.9558     0.95581
   13          H           0.039109        0.9609     0.96089
   14          H           0.112585        0.8874     0.88741
   15          H           0.114465        0.8855     0.88553
   16          H           0.083716        0.9163     0.91628
   17          H           0.085093        0.9149     0.91491
 DIPOLE           X         Y         Z       TOTAL
 POINT-CHG.     0.441    -0.168    -0.048     0.475
 HYBRID        -0.021     0.012     0.013     0.028
 SUM            0.420    -0.156    -0.035     0.450


          ATOMIC ORBITAL ELECTRON POPULATIONS

     Atom    s        px        py        pz   
    1  C   1.17153   0.95392   0.93439   0.99049
    2  C   1.15632   0.93398   0.95819   1.01445
    3  C   1.13884   0.97938   0.99892   0.98603
    4  C   1.19224   0.95283   0.94665   0.99438
    5  C   1.20701   0.96849   0.96850   0.99256
    6  C   1.18823   0.95062   0.96200   1.01059
    7  C   1.17631   0.94643   1.01208   1.02633
    8  H   0.93052
    9  H   0.94071
   10  H   0.93575
   11  H   0.96046
   12  H   0.95581
   13  H   0.96089
   14  H   0.88741
   15  H   0.88553
   16  H   0.91628
   17  H   0.91491
 *******************************************************************************
 ** Site#: 14399        For non-commercial use only    Version 18.184L 64BITS **
 *******************************************************************************
 ** Cite this program as: MOPAC2016, Version: 18.184L, James J. P. Stewart,   **
 ** Stewart Computational Chemistry, web: HTTP://OpenMOPAC.net. Days left:  18**
 *******************************************************************************
 **                                                                           **
 **                                MOPAC2016                                  **
 **                                                                           **
 *******************************************************************************

                              PM3 CALCULATION RESULTS

 *******************************************************************************
 *  CALCULATION DONE:                                Sat Jun 15 10:11:24 2019  *
 *  PM3        - The PM3 Hamiltonian to be used
 *  OLDGEO     - PREVIOUS GEOMETRY TO BE USED
 *  PRECISE    - CRITERIA TO BE INCREASED BY 100 TIMES
 *  NOSYM      - POINT-GROUP SYMMETRY SET TO C1
 *  THREADS=1  - MULTI-THREADING NOT USED
 *  T=         - A TIME OF 172800.0 SECONDS REQUESTED
 *  DUMP=N     - RESTART FILE WRITTEN EVERY  7200.000 SECONDS
 *  THERMO     - THERMODYNAMIC QUANTITIES TO BE CALCULATED
 *******************************************************************************
oldgeo thermo nosym precise THREADS=1  pm3
 InChI=1S/C7H10/c1-6-3-4-7(2)5-6/h3-4,7H,1,5H2,2H3

   ATOM   CHEMICAL          X               Y               Z
  NUMBER   SYMBOL      (ANGSTROMS)     (ANGSTROMS)     (ANGSTROMS)
 
     1       C          1.01701310  *  -0.18190686  *  -0.43264276  *
     2       C         -0.35708531  *  -0.88373356  *  -0.31878722  *
     3       C          2.02471527  *  -0.70479168  *   0.57011492  *
     4       C         -1.34697662  *   0.22323711  *  -0.08689835  *
     5       C          0.70916138  *   1.27350930  *  -0.20441735  *
     6       C         -0.60304872  *   1.48618257  *  -0.02070524  *
     7       C         -2.66401483  *   0.08512205  *   0.03522465  *
     8       H          1.42802097  *  -0.30462876  *  -1.46228621  *
     9       H         -0.60306208  *  -1.45126673  *  -1.23421899  *
    10       H         -0.37963060  *  -1.61216733  *   0.51331563  *
    11       H          2.97566621  *  -0.16169036  *   0.49580372  *
    12       H          1.66564382  *  -0.59889492  *   1.60238439  *
    13       H          2.23460006  *  -1.76894643  *   0.40210738  *
    14       H          1.50046811  *   2.02250677  *  -0.19846705  *
    15       H         -1.09625147  *   2.44210720  *   0.15498945  *
    16       H         -3.15848106  *  -0.87919897  *  -0.02391185  *
    17       H         -3.32492715  *   0.93001739  *   0.20135688  *
 


          CARTESIAN COORDINATES 

    NO.       ATOM           X           Y           Z

     1         C          1.0170     -0.1819     -0.4326
     2         C         -0.3571     -0.8837     -0.3188
     3         C          2.0247     -0.7048      0.5701
     4         C         -1.3470      0.2232     -0.0869
     5         C          0.7092      1.2735     -0.2044
     6         C         -0.6030      1.4862     -0.0207
     7         C         -2.6640      0.0851      0.0352
     8         H          1.4280     -0.3046     -1.4623
     9         H         -0.6031     -1.4513     -1.2342
    10         H         -0.3796     -1.6122      0.5133
    11         H          2.9757     -0.1617      0.4958
    12         H          1.6656     -0.5989      1.6024
    13         H          2.2346     -1.7689      0.4021
    14         H          1.5005      2.0225     -0.1985
    15         H         -1.0963      2.4421      0.1550
    16         H         -3.1585     -0.8792     -0.0239
    17         H         -3.3249      0.9300      0.2014

  H: (PM3): J. J. P. STEWART, J. COMP. CHEM. 10, 209 (1989).
  C: (PM3): J. J. P. STEWART, J. COMP. CHEM. 10, 209 (1989).

           Empirical Formula: C7 H10  =    17 atoms



      MOLECULAR POINT GROUP   :   C1  


      RHF CALCULATION, NO. OF DOUBLY OCCUPIED LEVELS = 19



          HEAT OF FORMATION =      18.186401 KCALS/MOLE


          CARTESIAN COORDINATE DERIVATIVES

   NUMBER  ATOM         X            Y            Z

     1       C     -0.003548     0.004812    -0.001855
     2       C     -0.004390     0.006798    -0.004419
     3       C      0.004608     0.000699     0.001262
     4       C     -0.004211     0.003826    -0.002001
     5       C      0.004929    -0.000397    -0.000709
     6       C      0.003667    -0.000561    -0.002645
     7       C     -0.006032     0.004095    -0.001285
     8       H      0.001639    -0.007545     0.006508
     9       H     -0.000778     0.000396    -0.000297
    10       H     -0.011203     0.006582    -0.005611
    11       H      0.011472    -0.006566     0.008578
    12       H      0.003892    -0.001482    -0.001649
    13       H     -0.006545     0.004542    -0.002668
    14       H      0.002668    -0.000968    -0.001778
    15       H      0.005624    -0.006480    -0.000382
    16       H      0.019447    -0.018003     0.010414
    17       H     -0.021236     0.010252    -0.001463
 


          GRADIENT NORM =   0.04879


          TIME FOR SCF CALCULATION =    0.00

          TIME FOR DERIVATIVES     =    0.00

          MOLECULAR WEIGHT =   94.16



          ROTATIONAL CONSTANTS IN CM(-1)

          A =    0.18588317   B =    0.06982054   C =    0.05549038



           PRINCIPAL MOMENTS OF INERTIA IN UNITS OF 10**(-40)*GRAM-CM**2

          A =      150.5934   B =      400.9246   C =      504.4617


          ORIENTATION OF MOLECULE IN FORCE CALCULATION

    NO.       ATOM         X         Y         Z

     1          C      -0.9067    0.3096   -0.8249
     2          C       0.6405    0.3096   -0.8249
     3          C      -1.4907    1.7072   -0.8249
     4          C       1.0345   -0.4873    0.3870
     5          C      -1.2767   -0.4478    0.4219
     6          C      -0.1942   -0.8893    1.0808
     7          C       2.2759   -0.7789    0.7646
     8          H      -1.2918   -0.2479   -1.7110
     9          H       1.0490   -0.1415   -1.7470
    10          H       1.0521    1.3349   -0.7724
    11          H      -2.5871    1.6782   -0.7824
    12          H      -1.1439    2.2942    0.0358
    13          H      -1.2067    2.2547   -1.7328
    14          H      -2.3188   -0.5886    0.7071
    15          H      -0.1769   -1.4693    2.0034
    16          H       3.1482   -0.4526    0.2072
    17          H       2.4919   -1.3621    1.6542


    FIRST DERIVATIVES WILL BE USED IN THE CALCULATION OF SECOND DERIVATIVES

          ESTIMATED TIME TO COMPLETE CALCULATION =        0.80 SECONDS

    FOR POINT-GROUP C1   THERE ARE   1 UNIQUE SYMMETRY FUNCTIONS.

 STEP:   1 TIME =     0.02 SECS, INTEGRAL =      0.02 TIME LEFT: 172799.98
 STEP:   2 TIME =     0.01 SECS, INTEGRAL =      0.03 TIME LEFT: 172799.97
 STEP:   3 TIME =     0.01 SECS, INTEGRAL =      0.04 TIME LEFT: 172799.96
 STEP:   4 TIME =     0.01 SECS, INTEGRAL =      0.05 TIME LEFT: 172799.95
 STEP:   5 TIME =     0.01 SECS, INTEGRAL =      0.06 TIME LEFT: 172799.93
 STEP:   6 TIME =     0.01 SECS, INTEGRAL =      0.07 TIME LEFT: 172799.92
 STEP:   7 TIME =     0.01 SECS, INTEGRAL =      0.09 TIME LEFT: 172799.91
 STEP:   8 TIME =     0.01 SECS, INTEGRAL =      0.10 TIME LEFT: 172799.90
 STEP:   9 TIME =     0.01 SECS, INTEGRAL =      0.11 TIME LEFT: 172799.89
 STEP:  10 TIME =     0.01 SECS, INTEGRAL =      0.12 TIME LEFT: 172799.88
 STEP:  11 TIME =     0.01 SECS, INTEGRAL =      0.13 TIME LEFT: 172799.86
 STEP:  12 TIME =     0.02 SECS, INTEGRAL =      0.15 TIME LEFT: 172799.85
 STEP:  13 TIME =     0.01 SECS, INTEGRAL =      0.16 TIME LEFT: 172799.84
 STEP:  14 TIME =     0.01 SECS, INTEGRAL =      0.17 TIME LEFT: 172799.82
 STEP:  15 TIME =     0.01 SECS, INTEGRAL =      0.18 TIME LEFT: 172799.81
 STEP:  16 TIME =     0.01 SECS, INTEGRAL =      0.20 TIME LEFT: 172799.80
 STEP:  17 TIME =     0.01 SECS, INTEGRAL =      0.21 TIME LEFT: 172799.79
 STEP:  18 TIME =     0.01 SECS, INTEGRAL =      0.22 TIME LEFT: 172799.78
 STEP:  19 TIME =     0.01 SECS, INTEGRAL =      0.23 TIME LEFT: 172799.77
 STEP:  20 TIME =     0.01 SECS, INTEGRAL =      0.24 TIME LEFT: 172799.75
 STEP:  21 TIME =     0.01 SECS, INTEGRAL =      0.25 TIME LEFT: 172799.75
 STEP:  22 TIME =     0.01 SECS, INTEGRAL =      0.26 TIME LEFT: 172799.73
 STEP:  23 TIME =     0.01 SECS, INTEGRAL =      0.27 TIME LEFT: 172799.72
 STEP:  24 TIME =     0.01 SECS, INTEGRAL =      0.29 TIME LEFT: 172799.71
 STEP:  25 TIME =     0.01 SECS, INTEGRAL =      0.30 TIME LEFT: 172799.70
 STEP:  26 TIME =     0.01 SECS, INTEGRAL =      0.31 TIME LEFT: 172799.69
 STEP:  27 TIME =     0.01 SECS, INTEGRAL =      0.32 TIME LEFT: 172799.68
 STEP:  28 TIME =     0.01 SECS, INTEGRAL =      0.33 TIME LEFT: 172799.66
 STEP:  29 TIME =     0.02 SECS, INTEGRAL =      0.35 TIME LEFT: 172799.65
 STEP:  30 TIME =     0.01 SECS, INTEGRAL =      0.36 TIME LEFT: 172799.64
 STEP:  31 TIME =     0.01 SECS, INTEGRAL =      0.37 TIME LEFT: 172799.62
 STEP:  32 TIME =     0.01 SECS, INTEGRAL =      0.38 TIME LEFT: 172799.61
 STEP:  33 TIME =     0.01 SECS, INTEGRAL =      0.39 TIME LEFT: 172799.60
 STEP:  34 TIME =     0.01 SECS, INTEGRAL =      0.41 TIME LEFT: 172799.59
 STEP:  35 TIME =     0.01 SECS, INTEGRAL =      0.42 TIME LEFT: 172799.58
 STEP:  36 TIME =     0.01 SECS, INTEGRAL =      0.43 TIME LEFT: 172799.57
 STEP:  37 TIME =     0.01 SECS, INTEGRAL =      0.44 TIME LEFT: 172799.55
 STEP:  38 TIME =     0.01 SECS, INTEGRAL =      0.45 TIME LEFT: 172799.54
 STEP:  39 TIME =     0.01 SECS, INTEGRAL =      0.46 TIME LEFT: 172799.53
 STEP:  40 TIME =     0.01 SECS, INTEGRAL =      0.48 TIME LEFT: 172799.52
 STEP:  41 TIME =     0.01 SECS, INTEGRAL =      0.49 TIME LEFT: 172799.51
 STEP:  42 TIME =     0.01 SECS, INTEGRAL =      0.50 TIME LEFT: 172799.50
 STEP:  43 TIME =     0.01 SECS, INTEGRAL =      0.51 TIME LEFT: 172799.48
 STEP:  44 TIME =     0.01 SECS, INTEGRAL =      0.52 TIME LEFT: 172799.47
 STEP:  45 TIME =     0.01 SECS, INTEGRAL =      0.54 TIME LEFT: 172799.46
 STEP:  46 TIME =     0.01 SECS, INTEGRAL =      0.55 TIME LEFT: 172799.45
 STEP:  47 TIME =     0.01 SECS, INTEGRAL =      0.56 TIME LEFT: 172799.44
 STEP:  48 TIME =     0.01 SECS, INTEGRAL =      0.57 TIME LEFT: 172799.43
 STEP:  49 TIME =     0.01 SECS, INTEGRAL =      0.58 TIME LEFT: 172799.41
 STEP:  50 TIME =     0.01 SECS, INTEGRAL =      0.59 TIME LEFT: 172799.40
 STEP:  51 TIME =     0.01 SECS, INTEGRAL =      0.61 TIME LEFT: 172799.39

(To convert to Hartree/Bohr^2, multiply by (10^(-21) x N x a0^2)/(4.184 x 627.51) =  0.0642)


           FORCE MATRIX IN MILLIDYNES/ANGSTROM


                  C  1       C  2       C  3       C  4       C  5       C  6
 ------------------------------------------------------------------------------
     C    1  14.673976
     C    2   3.430112  14.500809
     C    3   4.331173   0.582205  14.408903
     C    4   0.820134   4.436968   0.040066  19.406493
     C    5   4.391111   0.872855   0.664271   1.437142  18.208238
     C    6   1.130979   0.892589   0.043225   5.188567  10.308475  18.626320
     C    7   0.057382   0.692907   0.008008  10.735739   0.100255   0.906387
     H    8   4.267805   0.420965   0.428661   0.027511   0.402362   0.037349
     H    9   0.436679   4.552418   0.025680   0.435880   0.029284   0.029374
     H   10   0.450894   4.509005   0.058046   0.433174   0.024457   0.027296
     H   11   0.452784   0.046766   4.746374   0.006103   0.022338   0.002622
     H   12   0.465685   0.020805   4.735677   0.002493   0.015239   0.002891
     H   13   0.453832   0.017140   4.744178   0.003625   0.049858   0.006911
     H   14   0.414723   0.040876   0.010879   0.115994   5.023050   0.444977
     H   15   0.111068   0.040124   0.015943   0.432370   0.446313   5.013565
     H   16   0.006185   0.081840   0.001420   0.476742   0.010752   0.126996
     H   17   0.007036   0.116313   0.002343   0.477283   0.009219   0.089569


                  C  7       H  8       H  9       H 10       H 11       H 12
 ------------------------------------------------------------------------------
     C    7  18.009739
     H    8   0.004601   4.734203
     H    9   0.020898   0.030603   5.151991
     H   10   0.020248   0.026085   0.564724   5.122814
     H   11   0.001867   0.030020   0.004176   0.002688   5.477802
     H   12   0.001043   0.046186   0.001493   0.023122   0.571994   5.472152
     H   13   0.001354   0.028510   0.001539   0.014579   0.566837   0.570243
     H   14   0.010009   0.013742   0.003295   0.003000   0.007830   0.002420
     H   15   0.014269   0.014311   0.002966   0.002624   0.000597   0.000764
     H   16   5.116261   0.000986   0.009857   0.010435   0.000253   0.000231
     H   17   5.111629   0.001790   0.011368   0.012280   0.000377   0.000336


                  H 13       H 14       H 15       H 16       H 17
 ------------------------------------------------------------------
     H   13   5.476761
     H   14   0.001611   5.416659
     H   15   0.002816   0.045608   5.406487
     H   16   0.000220   0.008174   0.002007   5.492441
     H   17   0.000297   0.004964   0.009774   0.404780   5.489154


          HEAT OF FORMATION =      18.186401 KCALS/MOLE

          ZERO POINT ENERGY      93.275 KCAL/MOL


           NORMAL COORDINATE ANALYSIS (Total motion = 1 Angstrom)


   Root No.       1         2         3         4         5         6         7         8

                 1 A       2 A       3 A       4 A       5 A       6 A       7 A       8 A   

                  84.5     195.3     233.1     320.4     408.9     446.1     548.5     624.7
  
           1   -0.0093    0.0051    0.0091    0.0054   -0.0281   -0.0003    0.0184    0.0408
           2   -0.0033    0.0055   -0.0133    0.0164   -0.0106   -0.0354   -0.0163    0.0155
           3   -0.0064   -0.0008   -0.0284   -0.0031    0.0150   -0.0197   -0.0008    0.0317
           4   -0.0093    0.0054    0.0101    0.0113   -0.0237   -0.0019    0.0127    0.0268
           5   -0.0468    0.0087    0.0009   -0.0084    0.0245    0.0229    0.0138    0.0129
           6   -0.0369    0.0061   -0.0117   -0.0316   -0.0109   -0.0031   -0.0108   -0.0229
           7    0.0361   -0.0059   -0.0066   -0.0481    0.0247    0.0289    0.0153    0.0062
           8    0.0164    0.0008   -0.0184   -0.0053    0.0114   -0.0284   -0.0308   -0.0073
           9    0.0419   -0.0045    0.0419    0.0131   -0.0148    0.0182    0.0085    0.0012
          10   -0.0064    0.0005    0.0011    0.0182    0.0087   -0.0097   -0.0143   -0.0338
          11    0.0005   -0.0016    0.0326   -0.0096    0.0370   -0.0245    0.0580   -0.0001
          12   -0.0069    0.0017    0.0126   -0.0304   -0.0162   -0.0361    0.0209   -0.0239
          13   -0.0069    0.0011   -0.0001    0.0178    0.0041   -0.0064   -0.0048    0.0061
          14   -0.0144   -0.0004   -0.0206    0.0328   -0.0357    0.0205    0.0266   -0.0155
          15   -0.0123   -0.0057   -0.0359    0.0082    0.0108    0.0131    0.0192    0.0135
          16   -0.0056   -0.0020   -0.0030    0.0203    0.0277   -0.0031   -0.0086   -0.0033
          17   -0.0103   -0.0086    0.0620    0.0012    0.0017    0.0098   -0.0234   -0.0120
          18   -0.0118   -0.0069    0.0224   -0.0218   -0.0048   -0.0031   -0.0138    0.0230
          19   -0.0038   -0.0023   -0.0083   -0.0082   -0.0160   -0.0150   -0.0214   -0.0432
          20    0.0536   -0.0041   -0.0320   -0.0209   -0.0199    0.0127   -0.0020    0.0128
          21    0.0255    0.0092   -0.0066    0.0501    0.0206    0.0048   -0.0135   -0.0137
          22   -0.0457    0.0083    0.0185   -0.0052   -0.0429    0.0032    0.0218    0.0450
          23    0.0304    0.0019    0.0161    0.0079   -0.0137   -0.0480   -0.0457    0.0029
          24   -0.0113   -0.0003   -0.0495    0.0063    0.0235   -0.0107    0.0164    0.0360
          25   -0.0425    0.0108    0.0240   -0.0180   -0.0313    0.0521    0.0132    0.0103
          26   -0.1099    0.0172   -0.0214   -0.0266    0.0336    0.1403   -0.0725    0.0216
          27   -0.0211    0.0044    0.0053   -0.0356   -0.0184   -0.0345    0.0293   -0.0355
          28    0.0227    0.0041    0.0013    0.0246   -0.0452   -0.0531    0.0165    0.0586
          29   -0.0565    0.0087    0.0054   -0.0139    0.0342    0.0404    0.0163    0.0002
          30   -0.1023    0.0164   -0.0352   -0.0518   -0.0218    0.1129   -0.1092   -0.0091
          31    0.0365    0.0046   -0.0050   -0.0479    0.0237    0.0296    0.0159    0.0063
          32    0.0518   -0.0063   -0.0346   -0.0608    0.0736    0.0017   -0.0416   -0.0608
          33    0.0761    0.2708    0.0758    0.0031   -0.0270    0.0404    0.0163   -0.0177
          34    0.0830    0.1998    0.0126   -0.0851    0.0482    0.0623    0.0175   -0.0360
          35   -0.0136    0.0969   -0.0517   -0.0068    0.0179   -0.0682   -0.0465    0.0379
          36    0.0435   -0.1524    0.0572    0.0285   -0.0284    0.0336    0.0190   -0.0140
          37    0.0253   -0.2364   -0.0422   -0.0682    0.0656    0.0286    0.0066   -0.0058
          38    0.0267   -0.0928    0.0248    0.0271   -0.0291   -0.0061   -0.0137   -0.0263
          39    0.0446   -0.1325    0.0573    0.0272   -0.0278    0.0322    0.0170   -0.0143
          40   -0.0065   -0.0002   -0.0040    0.0215    0.0135   -0.0047   -0.0083   -0.0039
          41   -0.0211   -0.0002   -0.0634    0.0683   -0.0954    0.0920    0.0794   -0.0558
          42   -0.0143   -0.0094   -0.0712    0.0394    0.0138    0.0544    0.0319   -0.0453
          43   -0.0041   -0.0055   -0.0078    0.0268    0.0650    0.0092    0.0004    0.0300
          44   -0.0118   -0.0181    0.1183   -0.0066   -0.0098    0.0523   -0.1047   -0.0377
          45   -0.0128   -0.0128    0.0579   -0.0265   -0.0121    0.0232   -0.0653    0.0061
          46   -0.0041    0.0025    0.0010    0.0435    0.0334   -0.0029   -0.0183   -0.0477
          47    0.0681    0.0004   -0.0980   -0.0470   -0.0698    0.0317    0.0367   -0.1121
          48    0.0335    0.0195   -0.0304    0.1178    0.0713    0.0357    0.0146   -0.0920
          49   -0.0012   -0.0100   -0.0270   -0.0917   -0.0998   -0.0347   -0.0338   -0.0522
          50    0.0863   -0.0112   -0.0282   -0.0150   -0.0423    0.0323   -0.1155    0.1546
          51    0.0463    0.0065    0.0006    0.0757    0.0280    0.0227   -0.0853    0.0803


   Root No.       9        10        11        12        13        14        15        16

                 9 A      10 A      11 A      12 A      13 A      14 A      15 A      16 A   

                 648.6     739.2     813.7     910.5     916.6     935.3     963.9     970.3
  
           1    0.0179   -0.0081    0.0017   -0.0029   -0.0130   -0.0077   -0.0086    0.0048
           2    0.0114    0.0016    0.0013   -0.0073   -0.0021   -0.0050   -0.0060    0.0010
           3    0.0166   -0.0600    0.0084    0.0038   -0.0028   -0.0131    0.0058    0.0025
           4    0.0113   -0.0265    0.0035    0.0338    0.0177    0.0315    0.0281    0.0002
           5    0.0040   -0.0045    0.0153   -0.0325    0.0358   -0.0088    0.0053    0.0079
           6   -0.0108   -0.0044    0.0108   -0.0405   -0.0075    0.0186   -0.0170   -0.0188
           7   -0.0002   -0.0103   -0.0012   -0.0091   -0.0141   -0.0165   -0.0330    0.0028
           8    0.0043    0.0269    0.0029    0.0220   -0.0057    0.0181   -0.0042    0.0076
           9   -0.0021   -0.0123    0.0024    0.0048   -0.0044   -0.0189    0.0139   -0.0157
          10   -0.0172   -0.0314    0.0011   -0.0005   -0.0026   -0.0047    0.0015    0.0060
          11   -0.0212    0.0045    0.0108    0.0219   -0.0151   -0.0005   -0.0021    0.0023
          12   -0.0232    0.0217    0.0030    0.0147   -0.0018   -0.0086    0.0042    0.0069
          13    0.0068    0.0857   -0.0082   -0.0166    0.0028   -0.0223    0.0104   -0.0053
          14   -0.0224    0.0023   -0.0355   -0.0182    0.0028   -0.0114    0.0023    0.0166
          15    0.0001   -0.0088   -0.0149    0.0090    0.0042    0.0234   -0.0115    0.0172
          16    0.0020    0.0289   -0.0010    0.0001    0.0067    0.0040   -0.0154   -0.0145
          17    0.0081   -0.0455   -0.0296    0.0013    0.0040    0.0037   -0.0085   -0.0389
          18    0.0253    0.0552   -0.0213   -0.0090   -0.0079   -0.0041    0.0209   -0.0044
          19   -0.0210   -0.0351    0.0002   -0.0071   -0.0132   -0.0038    0.0129    0.0155
          20    0.0053    0.0017    0.0017   -0.0010   -0.0249    0.0082    0.0092    0.0105
          21   -0.0060   -0.0004   -0.0014    0.0206    0.0282   -0.0179   -0.0132    0.0076
          22    0.0226   -0.0387    0.0295   -0.0560    0.0057    0.0584   -0.0258   -0.0248
          23    0.0207    0.0196    0.0354    0.0140   -0.0457   -0.0218   -0.0389   -0.0756
          24    0.0077   -0.0562   -0.0252    0.0160    0.0174   -0.0273    0.0349    0.0641
          25   -0.0145    0.0434   -0.0230    0.1438   -0.0322    0.0853    0.0388   -0.0103
          26   -0.0166    0.0071   -0.0529    0.1126   -0.0331   -0.0571    0.0214    0.0381
          27   -0.0136    0.0222    0.0305   -0.0591    0.0019    0.0653   -0.0202   -0.0387
          28    0.0437   -0.0484    0.0259   -0.0528    0.0567    0.0612    0.0322   -0.0231
          29   -0.0088    0.0032    0.0086   -0.0011    0.0227   -0.0220    0.0034    0.0189
          30   -0.0280    0.0322   -0.0633    0.1015   -0.0973    0.0169   -0.0079   -0.0273
          31   -0.0003   -0.0093   -0.0019   -0.0107   -0.0143   -0.0155   -0.0364    0.0048
          32   -0.0198    0.0420    0.0104    0.0120    0.0992    0.0711    0.1905   -0.0208
          33   -0.0163    0.0198   -0.0143   -0.0144    0.0109    0.0305   -0.0184    0.0288
          34   -0.0236    0.0188   -0.0088   -0.0395    0.0577    0.0440    0.0500    0.0166
          35    0.0362   -0.0340    0.0317    0.0661   -0.0663   -0.0790   -0.0030   -0.0628
          36   -0.0155    0.0189   -0.0151   -0.0141    0.0100    0.0260   -0.0194    0.0289
          37   -0.0023   -0.0314    0.0132   -0.0115    0.0310   -0.0326    0.0903   -0.0452
          38   -0.0142    0.0914   -0.0275    0.0006   -0.0026    0.1055   -0.1072    0.0972
          39   -0.0146    0.0205   -0.0127   -0.0099    0.0114    0.0303   -0.0126    0.0260
          40    0.0031    0.0885    0.0012   -0.0053    0.0123   -0.0034   -0.0072   -0.0216
          41   -0.0358    0.0683    0.2196    0.0233   -0.0488   -0.0559    0.0466   -0.0900
          42   -0.0212    0.0306    0.1460    0.0721    0.0125    0.0699   -0.0499   -0.0915
          43    0.0234    0.0151    0.0166    0.0389    0.0192    0.0802   -0.0963   -0.0482
          44    0.1067   -0.0380    0.1961    0.0026    0.0155   -0.0044   -0.0260    0.1347
          45    0.0868    0.0610    0.1202   -0.0084   -0.0008   -0.0094    0.0115    0.1058
          46   -0.0141   -0.0563    0.0033   -0.0674   -0.1220    0.0336    0.0668    0.0333
          47    0.2195   -0.0019   -0.0617    0.0052    0.0825   -0.0085   -0.0341   -0.0745
          48    0.1311   -0.0333   -0.0334   -0.0732   -0.0846    0.0334    0.0468   -0.0155
          49   -0.0336   -0.0192   -0.0078    0.0882    0.1730   -0.0786   -0.0630    0.0048
          50   -0.1653   -0.0036    0.0337   -0.0720    0.0394    0.0201   -0.0050   -0.0473
          51   -0.1152   -0.0087    0.0217   -0.0510    0.0219    0.0084   -0.0023   -0.0261


   Root No.      17        18        19        20        21        22        23        24

                17 A      18 A      19 A      20 A      21 A      22 A      23 A      24 A   

                 988.4    1007.6    1046.4    1072.3    1077.7    1115.7    1145.6    1217.9
  
           1    0.0071   -0.0034    0.0060    0.0064   -0.0205    0.0228    0.0107    0.0214
           2   -0.0047   -0.0079    0.0134    0.0073    0.0083   -0.0039    0.0321    0.0284
           3   -0.0016   -0.0037    0.0195   -0.0099   -0.0097    0.0169    0.0409   -0.0099
           4    0.0006    0.0056   -0.0045   -0.0096    0.0203   -0.0223   -0.0055   -0.0031
           5    0.0208   -0.0040   -0.0227   -0.0084    0.0121   -0.0200   -0.0118   -0.0023
           6   -0.0279   -0.0011    0.0038   -0.0154   -0.0083   -0.0049   -0.0019   -0.0036
           7    0.0063    0.0027   -0.0043   -0.0090    0.0121   -0.0094   -0.0043   -0.0037
           8    0.0170    0.0063   -0.0066   -0.0151   -0.0146    0.0143   -0.0322   -0.0104
           9   -0.0158    0.0112   -0.0125   -0.0013   -0.0027    0.0041   -0.0273    0.0043
          10    0.0096   -0.0005   -0.0013    0.0037   -0.0031    0.0012    0.0014   -0.0133
          11   -0.0033    0.0131    0.0267    0.0181    0.0022    0.0034   -0.0035   -0.0175
          12    0.0045    0.0085    0.0139    0.0115    0.0112   -0.0021   -0.0077    0.0257
          13   -0.0182    0.0026    0.0093   -0.0138    0.0048    0.0081    0.0053   -0.0034
          14   -0.0338    0.0165   -0.0055    0.0113    0.0028    0.0019   -0.0055    0.0100
          15    0.0037    0.0066   -0.0196    0.0267    0.0041   -0.0035   -0.0061   -0.0262
          16   -0.0193   -0.0002    0.0070   -0.0055   -0.0037    0.0070    0.0061   -0.0253
          17    0.0049   -0.0157    0.0042   -0.0214   -0.0024    0.0066    0.0081    0.0006
          18    0.0385   -0.0130   -0.0147    0.0067   -0.0020   -0.0126   -0.0046    0.0032
          19    0.0227   -0.0024   -0.0100    0.0079    0.0013   -0.0079   -0.0047    0.0085
          20   -0.0206   -0.0325   -0.0175   -0.0132    0.0004   -0.0012    0.0014    0.0040
          21   -0.0059   -0.0238   -0.0137   -0.0022   -0.0074    0.0003    0.0016   -0.0064
          22    0.0081   -0.0521   -0.0229    0.1249   -0.0795    0.2656   -0.0856   -0.0320
          23   -0.0109   -0.0029   -0.0905    0.1706    0.0915   -0.0975    0.1760   -0.0515
          24    0.0026    0.0151    0.0967   -0.1652   -0.0369   -0.0287   -0.0058    0.0632
          25   -0.0220    0.1150   -0.0956   -0.0763   -0.0416    0.0046    0.1169   -0.0256
          26    0.0440   -0.0250    0.0507    0.0666    0.0266    0.0217   -0.0154    0.0431
          27   -0.0514    0.0587   -0.0703   -0.0830   -0.0425   -0.0153    0.0561   -0.0366
          28   -0.0396   -0.0793    0.0815    0.0235    0.1105   -0.1254   -0.1390   -0.0916
          29    0.0415    0.0324   -0.0640   -0.0230   -0.0264    0.0240    0.0458    0.0388
          30   -0.0823   -0.0275    0.1262    0.0373    0.0286   -0.0298   -0.0287   -0.0649
          31    0.0079    0.0016   -0.0029   -0.0096    0.0125   -0.0083   -0.0027   -0.0025
          32   -0.0409   -0.0201    0.0178    0.0571   -0.0672    0.0589    0.0286    0.0123
          33    0.0187   -0.0153    0.0233   -0.0058   -0.0027    0.0030    0.0288   -0.0006
          34   -0.0074   -0.0376    0.0414    0.0363   -0.0085    0.0123    0.0818    0.0226
          35   -0.0224    0.0647   -0.0832   -0.0297   -0.0088    0.0121   -0.1586   -0.0254
          36    0.0178   -0.0138    0.0235   -0.0095   -0.0002   -0.0010    0.0266    0.0037
          37   -0.0581    0.0034   -0.0071    0.0352   -0.0064    0.0104    0.0099    0.0334
          38    0.1051   -0.0333    0.0429   -0.0410   -0.0103    0.0066    0.0293   -0.0490
          39    0.0186   -0.0134    0.0192   -0.0052   -0.0055    0.0052    0.0156   -0.0068
          40   -0.0294    0.0021    0.0046   -0.0293    0.0781    0.0510    0.0012    0.0619
          41    0.1047   -0.0594    0.0540   -0.0233   -0.1332   -0.0685    0.0278   -0.0887
          42    0.0371   -0.0330   -0.0088   -0.0464    0.2019    0.1112   -0.0059    0.1580
          43   -0.0501   -0.0076    0.0061    0.0869   -0.1913   -0.1695   -0.0633    0.2036
          44   -0.1048    0.0682    0.0246    0.0208    0.0094    0.0117    0.0037   -0.0032
          45   -0.0282    0.0395   -0.0032    0.0334    0.0088   -0.0082   -0.0074   -0.0016
          46    0.0478    0.0065   -0.0178    0.0149    0.0166   -0.0246   -0.0173    0.0521
          47    0.0556    0.1245    0.0838    0.0295    0.0028    0.0160    0.0044   -0.0288
          48    0.0750    0.0825    0.0348    0.0320    0.0186   -0.0142   -0.0154    0.0414
          49    0.0367   -0.0046   -0.0135    0.0300   -0.0237   -0.0109   -0.0077    0.0023
          50    0.0627    0.1400    0.0596    0.0280    0.0108    0.0004   -0.0049    0.0011
          51    0.0476    0.0896    0.0365    0.0206    0.0055    0.0006   -0.0028   -0.0037


   Root No.      25        26        27        28        29        30        31        32

                25 A      26 A      27 A      28 A      29 A      30 A      31 A      32 A   

                1239.6    1294.7    1325.5    1373.9    1387.8    1402.4    1410.6    1420.7
  
           1   -0.0080    0.0851   -0.0130   -0.0063    0.0141    0.0018   -0.0068    0.0197
           2    0.0372   -0.0202   -0.0245   -0.0300    0.0040   -0.0072    0.0084   -0.0601
           3   -0.0052   -0.0259    0.0241    0.0387   -0.0121    0.0012   -0.0025    0.0318
           4   -0.0403   -0.0339    0.0231   -0.0227   -0.0287   -0.0005    0.0090   -0.0114
           5    0.0131    0.0100   -0.0103    0.0157   -0.0128    0.0003   -0.0022    0.0225
           6   -0.0330    0.0014    0.0170   -0.0229    0.0217    0.0005    0.0016   -0.0261
           7    0.0045   -0.0166    0.0035    0.0117   -0.0079   -0.0286   -0.0227   -0.0270
           8   -0.0091   -0.0009    0.0005   -0.0240    0.0034   -0.0011   -0.0189    0.0624
           9    0.0042    0.0027   -0.0051   -0.0057    0.0045   -0.0336    0.0231   -0.0013
          10   -0.0023    0.0027   -0.0241   -0.0049   -0.0161    0.0004    0.0036   -0.0121
          11    0.0065    0.0079    0.0121   -0.0132   -0.0135    0.0003    0.0044   -0.0180
          12   -0.0091   -0.0132   -0.0173    0.0214    0.0221   -0.0006   -0.0074    0.0287
          13   -0.0047   -0.0162    0.0168    0.0125   -0.0034    0.0004   -0.0002    0.0086
          14   -0.0072   -0.0096    0.0111    0.0172   -0.0113    0.0011   -0.0000    0.0114
          15    0.0016    0.0209   -0.0150   -0.0252    0.0181   -0.0012   -0.0007   -0.0113
          16   -0.0062    0.0001   -0.0008   -0.0099    0.0295   -0.0012   -0.0042    0.0015
          17   -0.0046    0.0033    0.0016    0.0038    0.0127   -0.0001   -0.0028    0.0090
          18    0.0099   -0.0064   -0.0034   -0.0062   -0.0214    0.0001    0.0049   -0.0161
          19    0.0086   -0.0019   -0.0325    0.0106   -0.0113    0.0001    0.0002    0.0021
          20   -0.0048   -0.0022    0.0069   -0.0001    0.0049   -0.0001   -0.0008    0.0028
          21    0.0067    0.0038   -0.0088   -0.0006   -0.0070    0.0001    0.0012   -0.0044
          22    0.0745   -0.1524    0.0124    0.0283   -0.0312   -0.0057    0.0001   -0.0156
          23   -0.0692    0.0418    0.0341    0.0445   -0.0008    0.0051   -0.0125    0.0679
          24    0.0251    0.0392   -0.0229   -0.0231    0.0106   -0.0042    0.0077   -0.0329
          25    0.1592   -0.0489   -0.0471    0.0779    0.1182    0.0013   -0.0219   -0.0066
          26   -0.0704   -0.0750   -0.0099    0.0162    0.2093    0.0034   -0.0255   -0.0511
          27    0.0972    0.0401   -0.0119    0.0183   -0.0429   -0.0009    0.0026    0.0164
          28    0.1080    0.0119   -0.0380    0.0946    0.1344    0.0065   -0.0376    0.0315
          29   -0.0545   -0.0156    0.0125   -0.0306   -0.0479   -0.0016    0.0133   -0.0036
          30    0.1018    0.0823    0.0056   -0.0048   -0.2069   -0.0050    0.0241    0.0546
          31    0.0083   -0.0230    0.0006    0.0004   -0.0052    0.0066   -0.0113   -0.0090
          32   -0.0525    0.1440    0.0226    0.1088   -0.0211   -0.1177   -0.1132   -0.1592
          33   -0.0017   -0.0094    0.0080    0.0025   -0.0315    0.3429   -0.2094   -0.0422
          34    0.0256   -0.0171   -0.0239   -0.0600    0.0452   -0.0466    0.2835    0.1279
          35   -0.0305    0.0555    0.0176    0.0930    0.0010    0.1247    0.1161   -0.1234
          36    0.0080   -0.0303   -0.0029   -0.0445   -0.0184   -0.0799   -0.1929    0.0436
          37    0.0339   -0.0085   -0.0321   -0.0729    0.0161    0.3659    0.0415    0.0494
          38   -0.0542    0.0356    0.0498    0.1369   -0.0039    0.0675    0.1631   -0.0794
          39   -0.0112    0.0203    0.0122    0.0546    0.0055    0.1460    0.1253   -0.0510
          40   -0.0009   -0.0033    0.0226    0.0298   -0.0223    0.0011    0.0003    0.0168
          41    0.0000   -0.0383   -0.0008   -0.0144    0.0227   -0.0014   -0.0006   -0.0092
          42    0.0206    0.0503   -0.0054    0.0171   -0.0359    0.0010    0.0017    0.0031
          43   -0.0004   -0.0566   -0.0021    0.0650   -0.0388    0.0021   -0.0004    0.0316
          44   -0.0041    0.0029    0.0027    0.0032    0.0140   -0.0006   -0.0026    0.0076
          45    0.0110   -0.0069   -0.0050   -0.0088   -0.0215   -0.0004    0.0054   -0.0199
          46    0.0565    0.0137    0.1510   -0.0055    0.0361   -0.0006   -0.0051    0.0152
          47   -0.0358   -0.0136   -0.1250    0.0111   -0.0309    0.0003    0.0035   -0.0083
          48    0.0556    0.0184    0.1850   -0.0170    0.0459   -0.0007   -0.0049    0.0109
          49    0.1114    0.0545    0.2773   -0.0495    0.0309   -0.0000    0.0024   -0.0199
          50    0.0007    0.0021    0.0286   -0.0049    0.0076    0.0000   -0.0005    0.0011
          51   -0.0102   -0.0057   -0.0607    0.0108   -0.0135    0.0002    0.0005    0.0008


   Root No.      33        34        35        36        37        38        39        40

                33 A      34 A      35 A      36 A      37 A      38 A      39 A      40 A   

                1423.7    1809.8    1911.6    2894.9    2980.0    3056.0    3081.6    3084.9
  
           1   -0.0094    0.0083   -0.0055   -0.0230   -0.0012    0.0008   -0.0005   -0.0003
           2    0.0255   -0.0098    0.0061   -0.0326   -0.0017   -0.0002   -0.0007   -0.0001
           3   -0.0156    0.0145   -0.0060   -0.0528   -0.0025   -0.0005   -0.0013    0.0002
           4    0.0159    0.0025   -0.0176   -0.0010   -0.0020    0.0257    0.0004    0.0001
           5    0.0225    0.0055    0.0154    0.0039   -0.0501    0.0143   -0.0001   -0.0006
           6   -0.0390   -0.0083   -0.0229    0.0027   -0.0301   -0.0300   -0.0004    0.0000
           7    0.0092   -0.0011    0.0008    0.0014    0.0000    0.0002   -0.0243   -0.0450
           8   -0.0198   -0.0021   -0.0014   -0.0001    0.0002    0.0002   -0.0106   -0.0189
           9    0.0009    0.0019    0.0002    0.0019    0.0001    0.0008   -0.0427    0.0303
          10   -0.0351    0.0043    0.2601    0.0005    0.0001   -0.0002    0.0000    0.0000
          11   -0.0435   -0.0041   -0.0556   -0.0001   -0.0001    0.0004    0.0000    0.0000
          12    0.0695    0.0058    0.0712    0.0002    0.0000   -0.0006   -0.0000    0.0000
          13   -0.0049   -0.1822   -0.0065    0.0002    0.0000    0.0003   -0.0002   -0.0001
          14   -0.0215    0.0906   -0.0026    0.0005   -0.0000   -0.0000   -0.0002    0.0003
          15    0.0318   -0.1354    0.0042   -0.0008   -0.0001    0.0000    0.0001   -0.0002
          16    0.0507    0.2083   -0.0413    0.0004    0.0000   -0.0002   -0.0000    0.0000
          17    0.0217   -0.0695   -0.0050   -0.0004   -0.0001    0.0001    0.0000    0.0000
          18   -0.0360    0.1016    0.0100    0.0002   -0.0001   -0.0002   -0.0001   -0.0001
          19   -0.0079   -0.0214   -0.1911   -0.0001   -0.0000    0.0001    0.0000   -0.0000
          20    0.0096    0.0025    0.0446    0.0000   -0.0001   -0.0000   -0.0000    0.0000
          21   -0.0145   -0.0026   -0.0577   -0.0000   -0.0001    0.0000    0.0000   -0.0000
          22    0.0310   -0.0219    0.0002    0.2770    0.0172    0.0034    0.0040   -0.0010
          23   -0.0263   -0.0098   -0.0052    0.4008    0.0182    0.0033    0.0118   -0.0003
          24   -0.0004    0.0208   -0.0045    0.6372    0.0297    0.0044    0.0128    0.0009
          25   -0.0771    0.0050    0.0244    0.0091   -0.1564   -0.1675   -0.0024    0.0002
          26   -0.1017   -0.0054   -0.0077   -0.0156    0.1593    0.2248    0.0032   -0.0002
          27   -0.0054   -0.0029    0.0092   -0.0329    0.3434    0.4037    0.0057   -0.0001
          28   -0.1003    0.0050    0.0226   -0.0093    0.1835   -0.1445   -0.0003    0.0028
          29    0.0503    0.0049   -0.0050   -0.0303    0.4431   -0.3953   -0.0040    0.0035
          30    0.0924    0.0038    0.0085   -0.0015    0.0189   -0.0457   -0.0011    0.0006
          31    0.0053   -0.0019    0.0007   -0.0110   -0.0052    0.0003    0.2217    0.4531
          32    0.0358    0.0009   -0.0006   -0.0043   -0.0001    0.0002    0.0064    0.0149
          33    0.0119    0.0000   -0.0000    0.0005    0.0002    0.0004   -0.0308   -0.0028
          34   -0.0298    0.0014   -0.0011   -0.0081   -0.0012   -0.0026    0.1460   -0.0209
          35    0.0416    0.0003    0.0008   -0.0065   -0.0002   -0.0048    0.2428   -0.0063
          36   -0.0187   -0.0001   -0.0005   -0.0160   -0.0011   -0.0071    0.3604    0.0207
          37   -0.0039   -0.0012    0.0005    0.0050   -0.0002    0.0017   -0.0781    0.1053
          38    0.0228   -0.0018   -0.0015    0.0028    0.0001    0.0020   -0.1218    0.2167
          39    0.0182    0.0039   -0.0002   -0.0106   -0.0002   -0.0031    0.1812   -0.3801
          40   -0.0421   -0.1478   -0.0118   -0.0054   -0.0002   -0.0080    0.0023   -0.0000
          41    0.0467   -0.0545   -0.0033   -0.0010   -0.0001   -0.0013    0.0004    0.0006
          42   -0.0692    0.0924    0.0065   -0.0006   -0.0001    0.0025   -0.0009   -0.0004
          43   -0.0344   -0.0543    0.0376    0.0003    0.0000   -0.0002    0.0000    0.0000
          44    0.0236   -0.0890   -0.0095   -0.0028   -0.0002   -0.0048   -0.0006   -0.0005
          45   -0.0351    0.1461    0.0126    0.0031   -0.0000    0.0077    0.0010    0.0006
          46    0.0493   -0.0138   -0.0858   -0.0002   -0.0002    0.0010   -0.0001    0.0000
          47   -0.0350   -0.0080   -0.0668   -0.0001    0.0003    0.0008   -0.0000    0.0000
          48    0.0518    0.0131    0.1088    0.0000    0.0004   -0.0012    0.0001   -0.0000
          49   -0.0186    0.0067    0.0252    0.0000   -0.0001   -0.0000   -0.0000    0.0000
          50    0.0075    0.0058    0.0814    0.0001   -0.0005   -0.0004    0.0001   -0.0000
          51   -0.0107   -0.0090   -0.1278    0.0001   -0.0007    0.0006   -0.0001    0.0000


   Root No.      41        42        43        44        45

                41 A      42 A      43 A      44 A      45 A   

                3114.7    3133.2    3142.7    3147.6    3180.0
  
           1    0.0000   -0.0006   -0.0001   -0.0000   -0.0003
           2   -0.0002    0.0002    0.0001    0.0000    0.0005
           3    0.0003   -0.0008   -0.0001   -0.0000   -0.0001
           4    0.0000    0.0010    0.0001   -0.0004   -0.0000
           5   -0.0001    0.0007   -0.0001    0.0001   -0.0002
           6    0.0002   -0.0011    0.0000   -0.0002    0.0000
           7    0.0001   -0.0000   -0.0000    0.0000   -0.0098
           8    0.0001    0.0000    0.0000   -0.0000    0.0225
           9    0.0002    0.0002   -0.0000    0.0000   -0.0003
          10    0.0000    0.0013    0.0060    0.0008   -0.0000
          11   -0.0001   -0.0000   -0.0013   -0.0005   -0.0000
          12    0.0001   -0.0000    0.0017    0.0007    0.0000
          13   -0.0335   -0.0420   -0.0020   -0.0004    0.0002
          14   -0.0048   -0.0030   -0.0001    0.0000   -0.0000
          15    0.0095    0.0070    0.0002   -0.0000    0.0000
          16   -0.0006    0.0052    0.0004    0.0006   -0.0000
          17    0.0218   -0.0201   -0.0014   -0.0002    0.0000
          18   -0.0348    0.0319    0.0022    0.0003   -0.0000
          19   -0.0005    0.0017   -0.0388   -0.0295    0.0000
          20    0.0002   -0.0005    0.0142   -0.0306   -0.0000
          21   -0.0003    0.0006   -0.0197    0.0491    0.0000
          22   -0.0006    0.0006    0.0000    0.0000    0.0002
          23   -0.0001    0.0017    0.0001    0.0000    0.0018
          24    0.0013    0.0040    0.0002    0.0001    0.0014
          25    0.0005   -0.0026    0.0002   -0.0002    0.0002
          26   -0.0005    0.0037   -0.0001   -0.0001   -0.0005
          27   -0.0006    0.0065   -0.0003   -0.0007   -0.0007
          28    0.0004   -0.0023    0.0004   -0.0001    0.0003
          29    0.0007   -0.0065    0.0007    0.0007    0.0031
          30    0.0002   -0.0008    0.0001   -0.0002    0.0003
          31   -0.0007    0.0009    0.0004   -0.0001    0.3223
          32   -0.0003   -0.0004   -0.0000   -0.0000    0.0266
          33    0.0004    0.0003   -0.0000    0.0000   -0.0125
          34   -0.0011   -0.0009   -0.0001    0.0000   -0.1104
          35   -0.0017   -0.0013   -0.0000    0.0001   -0.1563
          36   -0.0026   -0.0020   -0.0001    0.0001   -0.2560
          37    0.0000   -0.0001   -0.0001    0.0000   -0.0922
          38   -0.0002   -0.0003   -0.0002    0.0000   -0.1457
          39    0.0003    0.0004    0.0003   -0.0001    0.2717
          40    0.4018    0.4315    0.0177    0.0028   -0.0023
          41    0.0564    0.0590    0.0024    0.0004   -0.0001
          42   -0.1127   -0.1187   -0.0048   -0.0008    0.0005
          43    0.0045   -0.0059   -0.0009    0.0007    0.0000
          44   -0.2557    0.2090    0.0145    0.0016   -0.0001
          45    0.4074   -0.3328   -0.0231   -0.0025    0.0002
          46    0.0045   -0.0178    0.3017    0.4284   -0.0001
          47    0.0017   -0.0070    0.1215    0.1571   -0.0000
          48   -0.0029    0.0119   -0.2063   -0.2688    0.0001
          49    0.0018   -0.0046    0.0905   -0.0870   -0.0001
          50   -0.0035    0.0123   -0.2745    0.2112    0.0002
          51    0.0053   -0.0188    0.4197   -0.3220   -0.0003


           MASS-WEIGHTED COORDINATE ANALYSIS (NORMAL COORDINATES)


   Root No.       1         2         3         4         5         6         7         8

                 1 A       2 A       3 A       4 A       5 A       6 A       7 A       8 A   

                  84.5     195.3     233.1     320.4     408.9     446.1     548.5     624.7
  
           1   -0.0709    0.0360    0.0698    0.0424   -0.2411   -0.0027    0.1499    0.3199
           2   -0.0252    0.0387   -0.1013    0.1284   -0.0909   -0.3019   -0.1332    0.1213
           3   -0.0487   -0.0057   -0.2173   -0.0239    0.1290   -0.1679   -0.0068    0.2487
           4   -0.0707    0.0381    0.0773    0.0888   -0.2033   -0.0160    0.1038    0.2105
           5   -0.3558    0.0620    0.0067   -0.0655    0.2098    0.1949    0.1124    0.1012
           6   -0.2805    0.0432   -0.0891   -0.2474   -0.0935   -0.0262   -0.0883   -0.1796
           7    0.2746   -0.0418   -0.0504   -0.3766    0.2122    0.2464    0.1248    0.0483
           8    0.1250    0.0054   -0.1403   -0.0414    0.0982   -0.2417   -0.2513   -0.0573
           9    0.3181   -0.0320    0.3200    0.1025   -0.1268    0.1546    0.0694    0.0092
          10   -0.0490    0.0037    0.0082    0.1424    0.0748   -0.0829   -0.1165   -0.2650
          11    0.0037   -0.0113    0.2490   -0.0754    0.3175   -0.2091    0.4727   -0.0006
          12   -0.0522    0.0120    0.0964   -0.2379   -0.1387   -0.3077    0.1703   -0.1874
          13   -0.0524    0.0075   -0.0004    0.1395    0.0355   -0.0546   -0.0389    0.0482
          14   -0.1094   -0.0025   -0.1576    0.2564   -0.3063    0.1743    0.2169   -0.1217
          15   -0.0935   -0.0403   -0.2741    0.0642    0.0930    0.1113    0.1566    0.1058
          16   -0.0428   -0.0139   -0.0227    0.1592    0.2374   -0.0265   -0.0700   -0.0259
          17   -0.0782   -0.0612    0.4734    0.0092    0.0145    0.0836   -0.1908   -0.0940
          18   -0.0895   -0.0490    0.1712   -0.1708   -0.0408   -0.0267   -0.1121    0.1802
          19   -0.0291   -0.0165   -0.0634   -0.0644   -0.1372   -0.1279   -0.1747   -0.3391
          20    0.4078   -0.0291   -0.2447   -0.1635   -0.1704    0.1079   -0.0162    0.1008
          21    0.1939    0.0656   -0.0506    0.3923    0.1772    0.0411   -0.1103   -0.1074
          22   -0.1006    0.0171    0.0410   -0.0118   -0.1065    0.0080    0.0515    0.1023
          23    0.0669    0.0040    0.0356    0.0180   -0.0340   -0.1185   -0.1079    0.0065
          24   -0.0249   -0.0005   -0.1095    0.0144    0.0584   -0.0263    0.0387    0.0819
          25   -0.0937    0.0223    0.0531   -0.0408   -0.0779    0.1286    0.0312    0.0235
          26   -0.2420    0.0354   -0.0473   -0.0604    0.0837    0.3463   -0.1711    0.0491
          27   -0.0464    0.0091    0.0117   -0.0808   -0.0459   -0.0850    0.0692   -0.0808
          28    0.0500    0.0084    0.0028    0.0559   -0.1124   -0.1310    0.0389    0.1332
          29   -0.1245    0.0179    0.0120   -0.0315    0.0851    0.0997    0.0384    0.0005
          30   -0.2254    0.0337   -0.0780   -0.1174   -0.0541    0.2785   -0.2578   -0.0206
          31    0.0805    0.0095   -0.0112   -0.1087    0.0590    0.0730    0.0375    0.0143
          32    0.1141   -0.0130   -0.0765   -0.1378    0.1830    0.0041   -0.0981   -0.1382
          33    0.1676    0.5570    0.1678    0.0071   -0.0671    0.0996    0.0385   -0.0401
          34    0.1828    0.4110    0.0280   -0.1929    0.1197    0.1536    0.0412   -0.0818
          35   -0.0300    0.1992   -0.1144   -0.0153    0.0446   -0.1683   -0.1098    0.0862
          36    0.0958   -0.3134    0.1267    0.0645   -0.0706    0.0830    0.0448   -0.0318
          37    0.0557   -0.4862   -0.0935   -0.1546    0.1632    0.0705    0.0155   -0.0132
          38    0.0589   -0.1908    0.0548    0.0614   -0.0723   -0.0150   -0.0323   -0.0597
          39    0.0983   -0.2726    0.1269    0.0616   -0.0692    0.0793    0.0400   -0.0325
          40   -0.0144   -0.0004   -0.0088    0.0487    0.0335   -0.0115   -0.0196   -0.0088
          41   -0.0464   -0.0004   -0.1404    0.1549   -0.2371    0.2270    0.1873   -0.1268
          42   -0.0315   -0.0194   -0.1577    0.0893    0.0342    0.1342    0.0752   -0.1029
          43   -0.0091   -0.0113   -0.0172    0.0609    0.1615    0.0228    0.0010    0.0683
          44   -0.0261   -0.0372    0.2619   -0.0149   -0.0244    0.1290   -0.2472   -0.0857
          45   -0.0281   -0.0263    0.1282   -0.0601   -0.0300    0.0572   -0.1541    0.0138
          46   -0.0091    0.0051    0.0022    0.0986    0.0830   -0.0072   -0.0432   -0.1084
          47    0.1499    0.0008   -0.2169   -0.1065   -0.1736    0.0782    0.0866   -0.2549
          48    0.0737    0.0401   -0.0673    0.2671    0.1772    0.0880    0.0345   -0.2092
          49   -0.0026   -0.0206   -0.0599   -0.2080   -0.2481   -0.0856   -0.0798   -0.1188
          50    0.1900   -0.0230   -0.0625   -0.0341   -0.1052    0.0798   -0.2726    0.3515
          51    0.1019    0.0134    0.0012    0.1717    0.0695    0.0559   -0.2012    0.1827


   Root No.       9        10        11        12        13        14        15        16

                 9 A      10 A      11 A      12 A      13 A      14 A      15 A      16 A   

                 648.6     739.2     813.7     910.5     916.6     935.3     963.9     970.3
  
           1    0.1436   -0.0508    0.0135   -0.0241   -0.1164   -0.0740   -0.0785    0.0447
           2    0.0920    0.0102    0.0106   -0.0608   -0.0191   -0.0483   -0.0548    0.0097
           3    0.1332   -0.3753    0.0674    0.0319   -0.0248   -0.1264    0.0535    0.0236
           4    0.0907   -0.1656    0.0280    0.2828    0.1585    0.3042    0.2574    0.0020
           5    0.0325   -0.0279    0.1225   -0.2719    0.3194   -0.0848    0.0482    0.0738
           6   -0.0864   -0.0275    0.0870   -0.3387   -0.0670    0.1799   -0.1558   -0.1765
           7   -0.0012   -0.0646   -0.0097   -0.0763   -0.1259   -0.1595   -0.3029    0.0262
           8    0.0349    0.1686    0.0232    0.1844   -0.0510    0.1750   -0.0389    0.0713
           9   -0.0168   -0.0768    0.0190    0.0400   -0.0394   -0.1823    0.1276   -0.1473
          10   -0.1380   -0.1966    0.0087   -0.0038   -0.0236   -0.0453    0.0135    0.0564
          11   -0.1703    0.0281    0.0867    0.1836   -0.1349   -0.0051   -0.0188    0.0214
          12   -0.1862    0.1356    0.0242    0.1229   -0.0157   -0.0833    0.0389    0.0650
          13    0.0544    0.5363   -0.0658   -0.1392    0.0252   -0.2155    0.0952   -0.0495
          14   -0.1800    0.0144   -0.2845   -0.1524    0.0251   -0.1102    0.0210    0.1564
          15    0.0006   -0.0551   -0.1198    0.0753    0.0379    0.2267   -0.1059    0.1619
          16    0.0165    0.1808   -0.0083    0.0009    0.0601    0.0386   -0.1414   -0.1358
          17    0.0652   -0.2850   -0.2373    0.0109    0.0354    0.0361   -0.0777   -0.3659
          18    0.2031    0.3453   -0.1706   -0.0753   -0.0703   -0.0392    0.1917   -0.0412
          19   -0.1690   -0.2199    0.0014   -0.0598   -0.1181   -0.0372    0.1187    0.1455
          20    0.0430    0.0106    0.0138   -0.0085   -0.2221    0.0793    0.0843    0.0982
          21   -0.0483   -0.0024   -0.0110    0.1724    0.2517   -0.1734   -0.1210    0.0716
          22    0.0526   -0.0702    0.0685   -0.1357    0.0148    0.1635   -0.0684   -0.0674
          23    0.0482    0.0355    0.0822    0.0340   -0.1182   -0.0612   -0.1033   -0.2059
          24    0.0179   -0.1019   -0.0587    0.0387    0.0451   -0.0766    0.0927    0.1746
          25   -0.0337    0.0787   -0.0536    0.3487   -0.0834    0.2390    0.1030   -0.0281
          26   -0.0387    0.0129   -0.1230    0.2731   -0.0856   -0.1599    0.0569    0.1037
          27   -0.0318    0.0403    0.0710   -0.1434    0.0048    0.1829   -0.0538   -0.1053
          28    0.1017   -0.0877    0.0602   -0.1281    0.1468    0.1714    0.0854   -0.0628
          29   -0.0205    0.0059    0.0199   -0.0027    0.0587   -0.0616    0.0091    0.0514
          30   -0.0652    0.0584   -0.1473    0.2463   -0.2517    0.0472   -0.0210   -0.0743
          31   -0.0007   -0.0168   -0.0045   -0.0260   -0.0369   -0.0433   -0.0966    0.0130
          32   -0.0462    0.0761    0.0243    0.0292    0.2567    0.1993    0.5060   -0.0566
          33   -0.0379    0.0360   -0.0332   -0.0348    0.0281    0.0854   -0.0490    0.0784
          34   -0.0549    0.0340   -0.0205   -0.0959    0.1492    0.1233    0.1327    0.0452
          35    0.0844   -0.0616    0.0738    0.1604   -0.1715   -0.2213   -0.0080   -0.1710
          36   -0.0361    0.0343   -0.0352   -0.0342    0.0260    0.0728   -0.0516    0.0788
          37   -0.0053   -0.0569    0.0307   -0.0278    0.0802   -0.0914    0.2399   -0.1230
          38   -0.0331    0.1656   -0.0639    0.0014   -0.0066    0.2955   -0.2847    0.2645
          39   -0.0339    0.0372   -0.0296   -0.0239    0.0295    0.0849   -0.0334    0.0708
          40    0.0072    0.1605    0.0027   -0.0128    0.0318   -0.0095   -0.0191   -0.0587
          41   -0.0834    0.1238    0.5106    0.0565   -0.1262   -0.1565    0.1239   -0.2451
          42   -0.0494    0.0555    0.3393    0.1748    0.0324    0.1958   -0.1327   -0.2491
          43    0.0545    0.0274    0.0385    0.0944    0.0497    0.2246   -0.2558   -0.1311
          44    0.2485   -0.0690    0.4559    0.0063    0.0402   -0.0123   -0.0691    0.3665
          45    0.2022    0.1105    0.2794   -0.0205   -0.0021   -0.0264    0.0305    0.2881
          46   -0.0329   -0.1021    0.0076   -0.1634   -0.3156    0.0941    0.1773    0.0907
          47    0.5111   -0.0034   -0.1434    0.0126    0.2135   -0.0237   -0.0905   -0.2028
          48    0.3054   -0.0604   -0.0777   -0.1776   -0.2188    0.0937    0.1244   -0.0421
          49   -0.0783   -0.0349   -0.0181    0.2139    0.4476   -0.2200   -0.1674    0.0130
          50   -0.3850   -0.0066    0.0785   -0.1747    0.1020    0.0564   -0.0133   -0.1288
          51   -0.2682   -0.0157    0.0504   -0.1238    0.0567    0.0235   -0.0060   -0.0712


   Root No.      17        18        19        20        21        22        23        24

                17 A      18 A      19 A      20 A      21 A      22 A      23 A      24 A   

                 988.4    1007.6    1046.4    1072.3    1077.7    1115.7    1145.6    1217.9
  
           1    0.0626   -0.0328    0.0560    0.0566   -0.1752    0.1847    0.0871    0.1823
           2   -0.0409   -0.0753    0.1265    0.0638    0.0708   -0.0313    0.2612    0.2413
           3   -0.0143   -0.0348    0.1835   -0.0864   -0.0828    0.1364    0.3332   -0.0845
           4    0.0055    0.0537   -0.0422   -0.0841    0.1732   -0.1805   -0.0446   -0.0263
           5    0.1823   -0.0378   -0.2140   -0.0741    0.1036   -0.1617   -0.0962   -0.0198
           6   -0.2454   -0.0105    0.0356   -0.1348   -0.0705   -0.0399   -0.0158   -0.0304
           7    0.0552    0.0260   -0.0409   -0.0792    0.1030   -0.0760   -0.0353   -0.0311
           8    0.1497    0.0598   -0.0619   -0.1325   -0.1247    0.1161   -0.2626   -0.0887
           9   -0.1388    0.1069   -0.1175   -0.0110   -0.0228    0.0332   -0.2229    0.0368
          10    0.0844   -0.0045   -0.0120    0.0321   -0.0269    0.0100    0.0115   -0.1134
          11   -0.0293    0.1243    0.2509    0.1586    0.0184    0.0271   -0.0284   -0.1491
          12    0.0391    0.0805    0.1312    0.1006    0.0955   -0.0171   -0.0625    0.2185
          13   -0.1595    0.0252    0.0877   -0.1207    0.0413    0.0652    0.0428   -0.0291
          14   -0.2971    0.1565   -0.0521    0.0994    0.0242    0.0153   -0.0448    0.0851
          15    0.0327    0.0625   -0.1848    0.2337    0.0348   -0.0285   -0.0498   -0.2226
          16   -0.1692   -0.0023    0.0660   -0.0479   -0.0312    0.0569    0.0497   -0.2153
          17    0.0433   -0.1492    0.0396   -0.1875   -0.0208    0.0537    0.0658    0.0050
          18    0.3379   -0.1239   -0.1380    0.0583   -0.0167   -0.1018   -0.0372    0.0276
          19    0.1993   -0.0233   -0.0939    0.0692    0.0111   -0.0638   -0.0387    0.0727
          20   -0.1812   -0.3090   -0.1646   -0.1157    0.0036   -0.0093    0.0115    0.0342
          21   -0.0521   -0.2262   -0.1293   -0.0193   -0.0632    0.0023    0.0133   -0.0541
          22    0.0206   -0.1437   -0.0625    0.3173   -0.1965    0.6226   -0.2021   -0.0789
          23   -0.0277   -0.0079   -0.2468    0.4335    0.2260   -0.2286    0.4155   -0.1269
          24    0.0066    0.0416    0.2636   -0.4196   -0.0911   -0.0673   -0.0137    0.1557
          25   -0.0560    0.3169   -0.2607   -0.1939   -0.1028    0.0108    0.2759   -0.0631
          26    0.1119   -0.0688    0.1383    0.1691    0.0657    0.0508   -0.0363    0.1063
          27   -0.1308    0.1617   -0.1917   -0.2107   -0.1050   -0.0359    0.1325   -0.0901
          28   -0.1008   -0.2184    0.2221    0.0597    0.2731   -0.2939   -0.3282   -0.2257
          29    0.1055    0.0892   -0.1746   -0.0585   -0.0653    0.0562    0.1081    0.0957
          30   -0.2093   -0.0758    0.3442    0.0947    0.0707   -0.0700   -0.0679   -0.1599
          31    0.0201    0.0043   -0.0078   -0.0244    0.0309   -0.0196   -0.0064   -0.0060
          32   -0.1040   -0.0555    0.0485    0.1451   -0.1661    0.1381    0.0676    0.0303
          33    0.0475   -0.0422    0.0635   -0.0148   -0.0067    0.0071    0.0679   -0.0014
          34   -0.0187   -0.1037    0.1128    0.0922   -0.0209    0.0289    0.1930    0.0557
          35   -0.0569    0.1783   -0.2269   -0.0755   -0.0217    0.0284   -0.3744   -0.0626
          36    0.0452   -0.0381    0.0641   -0.0241   -0.0006   -0.0023    0.0628    0.0092
          37   -0.1478    0.0095   -0.0194    0.0894   -0.0159    0.0243    0.0234    0.0824
          38    0.2673   -0.0917    0.1170   -0.1041   -0.0255    0.0155    0.0691   -0.1208
          39    0.0472   -0.0368    0.0523   -0.0132   -0.0137    0.0122    0.0368   -0.0168
          40   -0.0749    0.0057    0.0126   -0.0745    0.1931    0.1196    0.0028    0.1526
          41    0.2665   -0.1637    0.1473   -0.0592   -0.3291   -0.1607    0.0657   -0.2186
          42    0.0943   -0.0909   -0.0241   -0.1179    0.4989    0.2607   -0.0139    0.3895
          43   -0.1276   -0.0209    0.0167    0.2207   -0.4729   -0.3974   -0.1494    0.5019
          44   -0.2666    0.1878    0.0670    0.0527    0.0231    0.0273    0.0086   -0.0078
          45   -0.0718    0.1089   -0.0088    0.0848    0.0217   -0.0193   -0.0174   -0.0041
          46    0.1215    0.0179   -0.0485    0.0379    0.0411   -0.0576   -0.0409    0.1284
          47    0.1415    0.3429    0.2284    0.0750    0.0069    0.0374    0.0104   -0.0709
          48    0.1909    0.2273    0.0949    0.0813    0.0460   -0.0333   -0.0363    0.1021
          49    0.0934   -0.0127   -0.0369    0.0762   -0.0585   -0.0256   -0.0182    0.0056
          50    0.1596    0.3858    0.1626    0.0710    0.0266    0.0009   -0.0116    0.0027
          51    0.1211    0.2470    0.0995    0.0525    0.0136    0.0014   -0.0066   -0.0091


   Root No.      25        26        27        28        29        30        31        32

                25 A      26 A      27 A      28 A      29 A      30 A      31 A      32 A   

                1239.6    1294.7    1325.5    1373.9    1387.8    1402.4    1410.6    1420.7
  
           1   -0.0680    0.6375   -0.0940   -0.0545    0.1096    0.0109   -0.0465    0.1383
           2    0.3169   -0.1514   -0.1773   -0.2597    0.0310   -0.0426    0.0574   -0.4219
           3   -0.0440   -0.1937    0.1747    0.3350   -0.0943    0.0074   -0.0169    0.2231
           4   -0.3430   -0.2540    0.1672   -0.1964   -0.2226   -0.0032    0.0616   -0.0798
           5    0.1116    0.0748   -0.0746    0.1358   -0.0993    0.0021   -0.0149    0.1580
           6   -0.2810    0.0105    0.1228   -0.1980    0.1685    0.0028    0.0106   -0.1829
           7    0.0382   -0.1241    0.0256    0.1012   -0.0613   -0.1697   -0.1546   -0.1892
           8   -0.0777   -0.0065    0.0034   -0.2076    0.0264   -0.0065   -0.1288    0.4383
           9    0.0358    0.0204   -0.0371   -0.0495    0.0350   -0.1989    0.1573   -0.0092
          10   -0.0200    0.0204   -0.1742   -0.0423   -0.1250    0.0022    0.0242   -0.0852
          11    0.0552    0.0594    0.0874   -0.1142   -0.1046    0.0020    0.0303   -0.1262
          12   -0.0776   -0.0986   -0.1254    0.1856    0.1717   -0.0036   -0.0501    0.2018
          13   -0.0396   -0.1212    0.1215    0.1081   -0.0265    0.0022   -0.0015    0.0601
          14   -0.0613   -0.0717    0.0802    0.1494   -0.0877    0.0065   -0.0001    0.0798
          15    0.0136    0.1564   -0.1087   -0.2183    0.1406   -0.0071   -0.0050   -0.0792
          16   -0.0524    0.0006   -0.0056   -0.0861    0.2294   -0.0072   -0.0286    0.0108
          17   -0.0389    0.0245    0.0114    0.0326    0.0985   -0.0006   -0.0193    0.0633
          18    0.0844   -0.0480   -0.0245   -0.0533   -0.1664    0.0003    0.0332   -0.1128
          19    0.0733   -0.0146   -0.2356    0.0914   -0.0881    0.0005    0.0015    0.0147
          20   -0.0412   -0.0167    0.0498   -0.0006    0.0380   -0.0004   -0.0053    0.0193
          21    0.0572    0.0284   -0.0637   -0.0051   -0.0540    0.0007    0.0082   -0.0311
          22    0.1837   -0.3309    0.0260    0.0710   -0.0703   -0.0098    0.0003   -0.0318
          23   -0.1705    0.0907    0.0715    0.1116   -0.0018    0.0088   -0.0247    0.1381
          24    0.0618    0.0851   -0.0481   -0.0579    0.0239   -0.0072    0.0151   -0.0669
          25    0.3925   -0.1061   -0.0987    0.1956    0.2659    0.0022   -0.0432   -0.0135
          26   -0.1735   -0.1627   -0.0208    0.0406    0.4707    0.0058   -0.0504   -0.1039
          27    0.2397    0.0870   -0.0250    0.0458   -0.0965   -0.0015    0.0051    0.0334
          28    0.2662    0.0259   -0.0796    0.2373    0.3022    0.0111   -0.0743    0.0640
          29   -0.1344   -0.0339    0.0261   -0.0768   -0.1078   -0.0028    0.0263   -0.0072
          30    0.2508    0.1787    0.0117   -0.0122   -0.4654   -0.0085    0.0476    0.1110
          31    0.0204   -0.0500    0.0013    0.0009   -0.0118    0.0113   -0.0222   -0.0183
          32   -0.1294    0.3126    0.0475    0.2731   -0.0475   -0.2020   -0.2236   -0.3237
          33   -0.0041   -0.0203    0.0168    0.0063   -0.0709    0.5885   -0.4135   -0.0858
          34    0.0632   -0.0372   -0.0501   -0.1505    0.1016   -0.0800    0.5598    0.2600
          35   -0.0753    0.1206    0.0369    0.2333    0.0022    0.2141    0.2292   -0.2510
          36    0.0197   -0.0659   -0.0062   -0.1117   -0.0415   -0.1372   -0.3810    0.0886
          37    0.0836   -0.0185   -0.0672   -0.1829    0.0361    0.6281    0.0819    0.1004
          38   -0.1337    0.0772    0.1046    0.3436   -0.0087    0.1158    0.3222   -0.1614
          39   -0.0276    0.0440    0.0257    0.1371    0.0123    0.2505    0.2475   -0.1036
          40   -0.0022   -0.0072    0.0473    0.0749   -0.0501    0.0018    0.0005    0.0343
          41    0.0000   -0.0832   -0.0017   -0.0362    0.0510   -0.0024   -0.0013   -0.0187
          42    0.0507    0.1091   -0.0113    0.0429   -0.0808    0.0018    0.0033    0.0063
          43   -0.0009   -0.1229   -0.0044    0.1631   -0.0874    0.0036   -0.0009    0.0643
          44   -0.0102    0.0062    0.0058    0.0081    0.0315   -0.0010   -0.0052    0.0154
          45    0.0271   -0.0149   -0.0105   -0.0221   -0.0484   -0.0007    0.0107   -0.0404
          46    0.1392    0.0297    0.3168   -0.0139    0.0813   -0.0010   -0.0101    0.0310
          47   -0.0882   -0.0296   -0.2622    0.0278   -0.0696    0.0005    0.0070   -0.0170
          48    0.1371    0.0400    0.3880   -0.0426    0.1031   -0.0012   -0.0097    0.0222
          49    0.2747    0.1183    0.5817   -0.1241    0.0695   -0.0000    0.0047   -0.0404
          50    0.0018    0.0046    0.0601   -0.0122    0.0172    0.0001   -0.0010    0.0023
          51   -0.0251   -0.0124   -0.1272    0.0271   -0.0304    0.0003    0.0010    0.0017


   Root No.      33        34        35        36        37        38        39        40

                33 A      34 A      35 A      36 A      37 A      38 A      39 A      40 A   

                1423.7    1809.8    1911.6    2894.9    2980.0    3056.0    3081.6    3084.9
  
           1   -0.0619    0.0234   -0.0156   -0.0949   -0.0064    0.0039   -0.0032   -0.0014
           2    0.1676   -0.0278    0.0172   -0.1344   -0.0090   -0.0008   -0.0044   -0.0005
           3   -0.1025    0.0410   -0.0169   -0.2179   -0.0130   -0.0025   -0.0074    0.0009
           4    0.1042    0.0070   -0.0497   -0.0041   -0.0105    0.1332    0.0024    0.0006
           5    0.1475    0.0157    0.0435    0.0161   -0.2605    0.0741   -0.0004   -0.0029
           6   -0.2560   -0.0235   -0.0649    0.0112   -0.1566   -0.1556   -0.0026    0.0002
           7    0.0604   -0.0031    0.0023    0.0057    0.0002    0.0009   -0.1428   -0.2321
           8   -0.1299   -0.0061   -0.0040   -0.0003    0.0011    0.0010   -0.0623   -0.0974
           9    0.0057    0.0054    0.0007    0.0078    0.0004    0.0041   -0.2511    0.1562
          10   -0.2305    0.0122    0.7358    0.0019    0.0003   -0.0011    0.0001    0.0001
          11   -0.2859   -0.0117   -0.1572   -0.0005   -0.0007    0.0018    0.0000    0.0001
          12    0.4564    0.0165    0.2013    0.0009    0.0001   -0.0029   -0.0000    0.0000
          13   -0.0322   -0.5154   -0.0183    0.0010    0.0001    0.0014   -0.0012   -0.0007
          14   -0.1411    0.2564   -0.0074    0.0020   -0.0002   -0.0002   -0.0013    0.0017
          15    0.2091   -0.3831    0.0118   -0.0034   -0.0004    0.0002    0.0007   -0.0009
[...]
 EFF. MASS   5.0585         C  1 -- C  5         +10.5% ( 42.7%)      9.6%

 VIBRATION   24   24A         ATOM PAIR      ENERGY CONTRIBUTION    RADIAL
 FREQ.      1217.88         C  6 -- H 15         +20.6% ( 54.8%)      0.0%
 T-DIPOLE    0.0567         C  5 -- H 14         +19.3% ( 53.0%)      0.1%
 TRAVEL      0.1240         C  1 -- H  8          +8.8% ( 35.7%)      2.7%
 RED. MASS   0.3938         C  1 -- C  3          +6.5% ( 30.9%)     29.2%
 EFF. MASS   3.6015

 VIBRATION   25   25A         ATOM PAIR      ENERGY CONTRIBUTION    RADIAL
 FREQ.      1239.56         C  2 -- H  9         +24.3% ( 64.1%)      0.2%
 T-DIPOLE    0.0408         C  2 -- H 10         +19.5% ( 57.4%)      0.1%
 TRAVEL      0.1099         C  1 -- C  2         +12.5% ( 46.0%)     43.5%
 RED. MASS   0.7634         C  1 -- H  8          +9.6% ( 40.3%)      1.7%
 EFF. MASS   4.5079

 VIBRATION   26   26A         ATOM PAIR      ENERGY CONTRIBUTION    RADIAL
 FREQ.      1294.67         C  1 -- H  8         +23.2% ( 69.1%)      0.0%
 T-DIPOLE    0.0649         C  1 -- C  2         +21.0% ( 65.8%)     89.5%
 TRAVEL      0.0838         C  1 -- C  5         +18.6% ( 61.9%)     27.0%
 RED. MASS   2.7363         C  1 -- C  3         +16.4% ( 58.1%)     28.2%
 EFF. MASS   7.4218

 VIBRATION   27   27A         ATOM PAIR      ENERGY CONTRIBUTION    RADIAL
 FREQ.      1325.46         C  7 -- H 17         +25.6% ( 58.7%)      1.6%
 T-DIPOLE    0.0911         C  7 -- H 16         +23.1% ( 55.8%)      2.3%
 TRAVEL      0.1167         C  2 -- C  4          +9.2% ( 35.1%)     69.0%
 RED. MASS   0.4155         C  1 -- C  5          +7.7% ( 32.2%)     90.2%
 EFF. MASS   3.7341

 VIBRATION   28   28A         ATOM PAIR      ENERGY CONTRIBUTION    RADIAL
 FREQ.      1373.91         C  1 -- C  5         +14.9% ( 50.3%)     99.2%
 T-DIPOLE    0.0636         C  1 -- C  2         +11.2% ( 43.6%)      4.4%
 TRAVEL      0.0911         C  3 -- H 13         +10.3% ( 41.8%)      0.5%
 RED. MASS   0.7110         C  1 -- H  8          +8.7% ( 38.5%)      2.2%
 EFF. MASS   5.9125

 VIBRATION   29   29A         ATOM PAIR      ENERGY CONTRIBUTION    RADIAL
 FREQ.      1387.78         C  2 -- H 10         +22.9% ( 53.6%)      3.7%
 T-DIPOLE    0.0776         C  2 -- H  9         +21.2% ( 51.5%)      4.5%
 TRAVEL      0.1083         C  4 -- C  6         +12.3% ( 39.3%)     93.4%
 RED. MASS   0.4406         C  5 -- C  6          +7.1% ( 29.9%)      0.0%
 EFF. MASS   4.1444

 VIBRATION   30   30A         ATOM PAIR      ENERGY CONTRIBUTION    RADIAL
 FREQ.      1402.38         C  3 -- H 13         +46.7% ( 59.7%)      1.3%
 T-DIPOLE    0.0477         C  3 -- H 11         +38.5% ( 54.2%)      3.0%
 TRAVEL      0.1721         C  3 -- H 12          +8.4% ( 25.3%)     62.6%
 RED. MASS   0.4357         C  1 -- C  3          +5.7% ( 20.9%)     13.9%
 EFF. MASS   1.6225

 VIBRATION   31   31A         ATOM PAIR      ENERGY CONTRIBUTION    RADIAL
 FREQ.      1410.61         C  3 -- H 12         +49.2% ( 62.1%)      0.0%
 T-DIPOLE    0.0472         C  3 -- H 11         +22.0% ( 41.5%)      6.5%
 TRAVEL      0.1653         C  3 -- H 13         +17.2% ( 36.7%)     16.7%
 RED. MASS   0.3945         C  1 -- C  3          +5.7% ( 21.2%)     22.1%
 EFF. MASS   1.7495

 VIBRATION   32   32A         ATOM PAIR      ENERGY CONTRIBUTION    RADIAL
 FREQ.      1420.71         C  1 -- C  3         +19.9% ( 64.1%)     93.9%
 T-DIPOLE    0.0831         C  3 -- H 12         +12.5% ( 50.8%)      3.3%
 TRAVEL      0.0780         C  3 -- H 11         +11.3% ( 48.4%)      3.8%
 RED. MASS   1.4976         C  1 -- C  2         +10.6% ( 46.9%)      8.7%
 EFF. MASS   7.8012

 VIBRATION   33   33A         ATOM PAIR      ENERGY CONTRIBUTION    RADIAL
 FREQ.      1423.71         C  4 -- C  6         +24.4% ( 70.6%)     85.7%
 T-DIPOLE    0.0745         C  2 -- C  4         +17.5% ( 59.7%)     63.6%
 TRAVEL      0.0706         C  4 -- C  7         +11.5% ( 48.4%)      1.0%
 RED. MASS   2.0436         C  5 -- C  6          +8.8% ( 42.4%)      0.1%
 EFF. MASS   9.4953

 VIBRATION   34   34A         ATOM PAIR      ENERGY CONTRIBUTION    RADIAL
 FREQ.      1809.77         C  5 -- C  6         +45.8% (100.4%)    100.0%
 T-DIPOLE    0.2824         C  1 -- C  5         +14.1% ( 55.7%)     23.8%
 TRAVEL      0.0559         C  4 -- C  6         +13.5% ( 54.5%)     21.0%
 RED. MASS   5.3825         C  5 -- H 14         +13.1% ( 53.8%)     10.4%
 EFF. MASS  11.9192         C  6 -- H 15         +12.9% ( 53.3%)     10.7%

 VIBRATION   35   35A         ATOM PAIR      ENERGY CONTRIBUTION    RADIAL
 FREQ.      1911.65         C  4 -- C  7         +43.7% ( 98.4%)    100.0%
 T-DIPOLE    0.3417         C  4 -- C  6         +19.3% ( 65.4%)     45.2%
 TRAVEL      0.0544         C  2 -- C  4         +18.8% ( 64.6%)     38.1%
 RED. MASS   5.7707         C  7 -- H 17          +8.6% ( 43.5%)     11.4%
 EFF. MASS  11.8979

 VIBRATION   36   36A         ATOM PAIR      ENERGY CONTRIBUTION    RADIAL
 FREQ.      2894.91         C  1 -- H  8         +96.3% ( 99.8%)    100.0%
 T-DIPOLE    0.0803         C  1 -- C  2          +1.1% ( 10.5%)      9.9%
 TRAVEL      0.1269         C  1 -- C  3          +1.0% ( 10.4%)      9.1%
 RED. MASS   0.9207         C  1 -- C  5          +1.0% ( 10.3%)      9.9%
 EFF. MASS   1.4456

 VIBRATION   37   37A         ATOM PAIR      ENERGY CONTRIBUTION    RADIAL
 FREQ.      2979.98         C  2 -- H 10         +55.7% ( 77.4%)     97.4%
 T-DIPOLE    0.0746         C  2 -- H  9         +41.7% ( 66.9%)     95.7%
 TRAVEL      0.1213         C  2 -- C  4          +1.1% ( 11.0%)      0.1%
 RED. MASS   0.5245         C  1 -- C  2          +1.1% ( 10.9%)      0.0%
 EFF. MASS   1.5389

 VIBRATION   38   38A         ATOM PAIR      ENERGY CONTRIBUTION    RADIAL
 FREQ.      3055.99         C  2 -- H  9         +57.0% ( 74.5%)     98.3%
 T-DIPOLE    0.1084         C  2 -- H 10         +41.6% ( 63.6%)     96.4%
 TRAVEL      0.1312         C  2 -- C  4          +0.7% (  8.1%)     34.2%
 RED. MASS   0.4936         C  1 -- C  2          +0.7% (  8.1%)     36.5%
 EFF. MASS   1.2823

 VIBRATION   39   39A         ATOM PAIR      ENERGY CONTRIBUTION    RADIAL
 FREQ.      3081.59         C  3 -- H 12         +65.4% ( 83.4%)     98.9%
 T-DIPOLE    0.0236         C  3 -- H 13         +17.3% ( 43.0%)     84.9%
 TRAVEL      0.1206         C  3 -- H 11         +16.2% ( 41.5%)     83.7%
 RED. MASS   0.5124         C  1 -- C  3          +1.0% ( 10.3%)      0.0%
 EFF. MASS   1.5047

 VIBRATION   40   40A         ATOM PAIR      ENERGY CONTRIBUTION    RADIAL
 FREQ.      3084.94         C  3 -- H 11         +49.4% ( 72.5%)     97.1%
 T-DIPOLE    0.0194         C  3 -- H 13         +48.6% ( 71.9%)     97.0%
 TRAVEL      0.1204         C  1 -- C  3          +1.0% ( 10.5%)      0.0%
 RED. MASS   0.5100         C  3 -- H 12          +1.0% ( 10.2%)      0.2%
 EFF. MASS   1.5082

 VIBRATION   41   41A         ATOM PAIR      ENERGY CONTRIBUTION    RADIAL
 FREQ.      3114.72         C  6 -- H 15         +55.2% ( 75.5%)    100.0%
 T-DIPOLE    0.3803         C  5 -- H 14         +42.2% ( 66.0%)    100.0%
 TRAVEL      0.1214         C  5 -- C  6          +1.2% ( 10.9%)      0.4%
 RED. MASS   0.4731         C  4 -- C  6          +0.9% (  9.4%)     28.5%
 EFF. MASS   1.4687

 VIBRATION   42   42A         ATOM PAIR      ENERGY CONTRIBUTION    RADIAL
 FREQ.      3133.16         C  5 -- H 14         +54.2% ( 75.0%)     99.9%
 T-DIPOLE    0.3590         C  6 -- H 15         +41.2% ( 65.4%)     99.9%
 TRAVEL      0.1142         C  5 -- C  6          +2.5% ( 16.0%)     99.6%
 RED. MASS   0.4732         C  1 -- C  5          +1.0% ( 10.4%)     18.7%
 EFF. MASS   1.6498

 VIBRATION   43   43A         ATOM PAIR      ENERGY CONTRIBUTION    RADIAL
 FREQ.      3142.67         C  7 -- H 17         +62.8% ( 79.3%)     97.3%
 T-DIPOLE    0.3577         C  7 -- H 16         +35.3% ( 59.5%)     91.6%
 TRAVEL      0.1242         C  4 -- C  7          +1.5% ( 12.3%)     97.3%
 RED. MASS   0.5167         C  6 -- H 15          +0.2% (  4.3%)     99.8%
 EFF. MASS   1.3916

 VIBRATION   44   44A         ATOM PAIR      ENERGY CONTRIBUTION    RADIAL
 FREQ.      3147.56         C  7 -- H 16         +62.5% ( 80.9%)     98.3%
 T-DIPOLE    0.2020         C  7 -- H 17         +36.2% ( 61.7%)     95.0%
 TRAVEL      0.1156         C  4 -- C  7          +1.3% ( 11.7%)      1.5%
 RED. MASS   0.5665
 EFF. MASS   1.6023

 VIBRATION   45   45A         ATOM PAIR      ENERGY CONTRIBUTION    RADIAL
 FREQ.      3180.04         C  3 -- H 11         +33.7% ( 55.9%)     97.2%
 T-DIPOLE    0.0339         C  3 -- H 13         +33.3% ( 55.5%)     97.1%
 TRAVEL      0.1367         C  3 -- H 12         +32.8% ( 55.1%)     97.0%
 RED. MASS   0.3271         C  1 -- C  3          +0.3% (  5.1%)    100.0%
 EFF. MASS   1.1350

      SYMMETRY NUMBER FOR POINT-GROUP C1  =  1


          SYSTEM IS A GROUND STATE



 InChI=1S/C7H10/c1-6-3-4-7(2)5-6/h3-4,7H,1,5H2,2H3


          MOLECULE IS NOT LINEAR

          THERE ARE 45 GENUINE VIBRATIONS IN THIS SYSTEM
          THIS THERMODYNAMICS CALCULATION IS LIMITED TO
          MOLECULES WHICH HAVE NO INTERNAL ROTATIONS




                    CALCULATED THERMODYNAMIC PROPERTIES
                                          *
   TEMP. (K)   PARTITION FUNCTION   H.O.F.    ENTHALPY  HEAT CAPACITY ENTROPY
                                   KCAL/MOL   CAL/MOLE    CAL/K/MOL  CAL/K/MOL


 298.00  VIB.     0.1680D+02                  2499.0977    20.2567    13.9924
         ROT.     0.1969D+06                   888.2813     2.9808    27.2055
         INT.     0.3307D+07                  3387.3790    23.2375    41.1979
         TRA.     0.8833D+27                  1480.4688     4.9680    39.5363
         TOT.                       18.186    4867.8478    28.2055    80.7341

 200.00  VIB.     0.4635D+01                   958.8298    11.4337     7.8417
         ROT.     0.1082D+06                   596.1620     2.9808    26.0168
         INT.     0.5017D+06                  1554.9917    14.4145    33.8585
         TRA.     0.4856D+27                   993.6033     4.9680    37.5551
         TOT.                       15.867    2548.5950    19.3825    71.4136

 210.00  VIB.     0.5235D+01                  1077.2264    12.2499     8.4192
         ROT.     0.1165D+06                   625.9700     2.9808    26.1623
         INT.     0.6097D+06                  1703.1964    15.2307    34.5814
         TRA.     0.5225D+27                  1043.2834     4.9680    37.7975
         TOT.                       16.065    2746.4798    20.1987    72.3789

 220.00  VIB.     0.5926D+01                  1203.9095    13.0907     9.0083
         ROT.     0.1249D+06                   655.7781     2.9808    26.3009
         INT.     0.7401D+06                  1859.6876    16.0715    35.3093
         TRA.     0.5603D+27                  1092.9636     4.9680    38.0286
         TOT.                       16.271    2952.6512    21.0396    73.3379

 230.00  VIB.     0.6724D+01                  1339.1181    13.9547     9.6092
         ROT.     0.1335D+06                   685.5862     2.9808    26.4334
         INT.     0.8976D+06                  2024.7043    16.9355    36.0426
         TRA.     0.5989D+27                  1142.6437     4.9680    38.2495
         TOT.                       16.486    3167.3481    21.9035    74.2921

 240.00  VIB.     0.7646D+01                  1483.0731    14.8397    10.2218
         ROT.     0.1423D+06                   715.3943     2.9808    26.5603
         INT.     0.1088D+07                  2198.4675    17.8205    36.7820
         TRA.     0.6384D+27                  1192.3239     4.9680    38.4609
         TOT.                       16.709    3390.7914    22.7885    75.2430

 250.00  VIB.     0.8713D+01                  1635.9736    15.7433    10.8458
         ROT.     0.1513D+06                   745.2024     2.9808    26.6820
         INT.     0.1318D+07                  2381.1760    18.7241    37.5278
         TRA.     0.6787D+27                  1242.0041     4.9680    38.6637
         TOT.                       16.942    3623.1801    23.6922    76.1915

 260.00  VIB.     0.9950D+01                  1797.9934    16.6631    11.4811
         ROT.     0.1604D+06                   775.0105     2.9808    26.7989
         INT.     0.1596D+07                  2573.0040    19.6439    38.2800
         TRA.     0.7198D+27                  1291.6842     4.9680    38.8586
         TOT.                       17.183    3864.6882    24.6119    77.1386

 270.00  VIB.     0.1139D+02                  1969.2802    17.5963    12.1275
         ROT.     0.1698D+06                   804.8186     2.9808    26.9114
         INT.     0.1933D+07                  2774.0989    20.5771    39.0388
         TRA.     0.7618D+27                  1341.3644     4.9680    39.0461
         TOT.                       17.434    4115.4632    25.5451    78.0849

 280.00  VIB.     0.1306D+02                  2149.9538    18.5400    12.7844
         ROT.     0.1793D+06                   834.6267     2.9808    27.0198
         INT.     0.2342D+07                  2984.5805    21.5208    39.8042
         TRA.     0.8045D+27                  1391.0445     4.9680    39.2267
         TOT.                       17.694    4375.6251    26.4888    79.0310

 290.00  VIB.     0.1501D+02                  2340.1063    19.4916    13.4516
         ROT.     0.1890D+06                   864.4348     2.9808    27.1244
         INT.     0.2836D+07                  3204.5411    22.4724    40.5760
         TRA.     0.8479D+27                  1440.7247     4.9680    39.4011
         TOT.                       17.964    4645.2658    27.4404    79.9771

 300.00  VIB.     0.1728D+02                  2539.8027    20.4483    14.1285
         ROT.     0.1989D+06                   894.2429     2.9808    27.2254
         INT.     0.3436D+07                  3434.0456    23.4292    41.3539
         TRA.     0.8922D+27                  1490.4049     4.9680    39.5695
         TOT.                       18.243    4924.4505    28.3972    80.9234

 310.00  VIB.     0.1993D+02                  2749.0818    21.4077    14.8146
         ROT.     0.2089D+06                   924.0510     2.9808    27.3232
         INT.     0.4164D+07                  3673.1329    24.3885    42.1378
         TRA.     0.9372D+27                  1540.0850     4.9680    39.7324
         TOT.                       18.532    5213.2179    29.3565    81.8702

 320.00  VIB.     0.2304D+02                  2967.9577    22.3673    15.5095
         ROT.     0.2191D+06                   953.8591     2.9808    27.4178
         INT.     0.5048D+07                  3921.8168    25.3481    42.9273
         TRA.     0.9829D+27                  1589.7652     4.9680    39.8901
         TOT.                       18.830    5511.5820    30.3161    82.8174

 330.00  VIB.     0.2669D+02                  3196.4211    23.3249    16.2124
         ROT.     0.2294D+06                   983.6672     2.9808    27.5095
         INT.     0.6122D+07                  4180.0883    26.3057    43.7219
         TRA.     0.1029D+28                  1639.4454     4.9680    40.0430
         TOT.                       19.138    5819.5337    31.2737    83.7650

 340.00  VIB.     0.3096D+02                  3434.4417    24.2784    16.9229
         ROT.     0.2399D+06                  1013.4753     2.9808    27.5985
         INT.     0.7429D+07                  4447.9170    27.2592    44.5214
         TRA.     0.1076D+28                  1689.1255     4.9680    40.1913
         TOT.                       19.456    6137.0426    32.2272    84.7127

 350.00  VIB.     0.3599D+02                  3681.9698    25.2261    17.6404
         ROT.     0.2506D+06                  1043.2834     2.9808    27.6849
         INT.     0.9018D+07                  4725.2532    28.2069    45.3253
         TRA.     0.1124D+28                  1738.8057     4.9680    40.3353
         TOT.                       19.783    6464.0589    33.1749    85.6606

 360.00  VIB.     0.4190D+02                  3938.9381    26.1662    18.3642
         ROT.     0.2614D+06                  1073.0915     2.9808    27.7689
         INT.     0.1095D+08                  5012.0297    29.1470    46.1331
         TRA.     0.1173D+28                  1788.4859     4.9680    40.4753
         TOT.                       20.119    6800.5155    34.1151    86.6084

 370.00  VIB.     0.4886D+02                  4205.2645    27.0974    19.0939
         ROT.     0.2724D+06                  1102.8996     2.9808    27.8506
         INT.     0.1331D+08                  5308.1641    30.0782    46.9444
         TRA.     0.1222D+28                  1838.1660     4.9680    40.6114
         TOT.                       20.465    7146.3301    35.0463    87.5558

 380.00  VIB.     0.5708D+02                  4480.8528    28.0184    19.8287
         ROT.     0.2835D+06                  1132.7077     2.9808    27.9301
         INT.     0.1618D+08                  5613.5605    30.9993    47.7588
         TRA.     0.1272D+28                  1887.8462     4.9680    40.7439
         TOT.                       20.820    7501.4067    35.9673    88.5027

 390.00  VIB.     0.6677D+02                  4765.5958    28.9282    20.5683
         ROT.     0.2948D+06                  1162.5158     2.9808    28.0075
         INT.     0.1968D+08                  5928.1116    31.9090    48.5758
         TRA.     0.1322D+28                  1937.5263     4.9680    40.8729
         TOT.                       21.184    7865.6380    36.8770    89.4488

 400.00  VIB.     0.7823D+02                  5059.3762    29.8258    21.3121
         ROT.     0.3062D+06                  1192.3239     2.9808    28.0830
         INT.     0.2395D+08                  6251.7001    32.8066    49.3950
         TRA.     0.1374D+28                  1987.2065     4.9680    40.9987
         TOT.                       21.557    8238.9066    37.7746    90.3937

   *: NOTE: HEATS OF FORMATION ARE RELATIVE TO THE
            ELEMENTS IN THEIR STANDARD STATE AT 298K
              (=  Standard Enthalpy of Formation).

            Hvib:  Zero-point energy is not included.
                   frequencies of less than zero cm-1 are not included.
            Hrot = (3/2)RT
            Htra = (3/2)RT + pV = (5/2)RT

            Heat capacity is Cp, not Cv

          For more information, see: HTTP://OpenMOPAC.net/Manual/thermochemistry.html


           FORCE CONSTANT IN CARTESIAN COORDINATES (Millidynes/A)

    ATOM   CHEMICAL       X               Y               Z
   NUMBER   SYMBOL  FORCE CONSTANT  FORCE CONSTANT  FORCE CONSTANT

      1       C        7.807372        8.613186        8.868649
      2       C        7.746794        8.455965        8.789288
      3       C        8.398798        8.262749        8.293649
      4       C       16.276681        4.730853        7.499861
      5       C       14.609386        4.746429        7.872074
      6       C       12.220323        5.432778       10.204553
      7       C       14.591794        4.371667        7.532323
      8       H        1.179186        1.668477        3.159617
      9       H        1.268802        1.457609        3.691435
     10       H        1.329187        4.432246        0.666991
     11       H        5.372756        0.727972        0.670892
     12       H        1.194072        1.963939        3.621407
     13       H        1.017273        1.796903        3.958350
     14       H        4.950785        0.528032        0.936909
     15       H        0.706900        1.768963        3.937369
     16       H        3.733105        0.869322        1.844266
     17       H        0.857981        1.813372        3.782255

 **********************
 *                    *
 * JOB ENDED NORMALLY *
 *                    *
 **********************



 TOTAL JOB TIME:             1.02 SECONDS

 == MOPAC DONE ==
