 *******************************************************************************
 ** Site#: 14399        For non-commercial use only    Version 18.184L 64BITS **
 *******************************************************************************
 ** Cite this program as: MOPAC2016, Version: 18.184L, James J. P. Stewart,   **
 ** Stewart Computational Chemistry, web: HTTP://OpenMOPAC.net. Days left:  18**
 *******************************************************************************
 **                                                                           **
 **                                MOPAC2016                                  **
 **                                                                           **
 *******************************************************************************

                              PM3 CALCULATION RESULTS

 *******************************************************************************
 *  CALCULATION DONE:                                Sat Jun 15 10:22:57 2019  *
 *  PM3        - The PM3 Hamiltonian to be used
 *  PRECISE    - CRITERIA TO BE INCREASED BY 100 TIMES
 *  NOSYM      - POINT-GROUP SYMMETRY SET TO C1
 *  THREADS=1  - MULTI-THREADING NOT USED
 *  T=         - A TIME OF 172800.0 SECONDS REQUESTED
 *  DUMP=N     - RESTART FILE WRITTEN EVERY  7200.000 SECONDS
 *******************************************************************************
pm3  precise nosym THREADS=1
 InChI=1S/C7H12O2/c1-2-4-7-5-6(3-1)8-9-7/h6-7H,1-5H2

   ATOM   CHEMICAL          X               Y               Z
  NUMBER   SYMBOL      (ANGSTROMS)     (ANGSTROMS)     (ANGSTROMS)
 
     1       O         -0.67260000  *  -0.62000000  *   1.74600000  *
     2       O         -0.21720000  *  -1.75310000  *   1.20040000  *
     3       C         -1.34230000  *   0.13140000  *   0.75630000  *
     4       C         -0.20360000  *  -1.59040000  *  -0.19270000  *
     5       C         -1.35570000  *  -0.69240000  *  -0.49670000  *
     6       C         -0.62990000  *   1.49050000  *   0.57870000  *
     7       C          1.15530000  *  -1.02680000  *  -0.66510000  *
     8       C          0.67120000  *   1.46560000  *  -0.25580000  *
     9       C          1.59700000  *   0.27320000  *   0.03950000  *
    10       H         -2.38480000  *   0.31930000  *   1.09520000  *
    11       H         -0.36610000  *  -2.57750000  *  -0.67820000  *
    12       H          0.43060000  *   1.49530000  *  -1.34050000  *
    13       H          1.22870000  *   2.40280000  *  -0.03900000  *
    14       H         -0.40350000  *   1.90400000  *   1.58600000  *
    15       H         -1.33490000  *   2.20060000  *   0.09400000  *
    16       H          1.70050000  *   0.11850000  *   1.13470000  *
    17       H          2.61090000  *   0.52750000  *  -0.33890000  *
    18       H          1.93190000  *  -1.79940000  *  -0.47640000  *
    19       H         -2.29290000  *  -1.29060000  *  -0.54210000  *
    20       H         -1.24900000  *  -0.11540000  *  -1.44050000  *
    21       H          1.12620000  *  -0.86310000  *  -1.76470000  *
 


          CARTESIAN COORDINATES 

    NO.       ATOM           X           Y           Z

     1         O         -0.6726     -0.6200      1.7460
     2         O         -0.2172     -1.7531      1.2004
     3         C         -1.3423      0.1314      0.7563
     4         C         -0.2036     -1.5904     -0.1927
     5         C         -1.3557     -0.6924     -0.4967
     6         C         -0.6299      1.4905      0.5787
     7         C          1.1553     -1.0268     -0.6651
     8         C          0.6712      1.4656     -0.2558
     9         C          1.5970      0.2732      0.0395
    10         H         -2.3848      0.3193      1.0952
    11         H         -0.3661     -2.5775     -0.6782
    12         H          0.4306      1.4953     -1.3405
    13         H          1.2287      2.4028     -0.0390
    14         H         -0.4035      1.9040      1.5860
    15         H         -1.3349      2.2006      0.0940
    16         H          1.7005      0.1185      1.1347
    17         H          2.6109      0.5275     -0.3389
    18         H          1.9319     -1.7994     -0.4764
    19         H         -2.2929     -1.2906     -0.5421
    20         H         -1.2490     -0.1154     -1.4405
    21         H          1.1262     -0.8631     -1.7647

  H: (PM3): J. J. P. STEWART, J. COMP. CHEM. 10, 209 (1989).
  C: (PM3): J. J. P. STEWART, J. COMP. CHEM. 10, 209 (1989).
  O: (PM3): J. J. P. STEWART, J. COMP. CHEM. 10, 209 (1989).

           Empirical Formula: C7 H12 O2  =    21 atoms



      MOLECULAR POINT GROUP   :   C1  


      RHF CALCULATION, NO. OF DOUBLY OCCUPIED LEVELS = 26


          Geometry optimization using EF

          DIAGONAL MATRIX USED AS START HESSIAN

 CYCLE:     1 TIME:   0.008 TIME LEFT:  2.00D  GRAD.:   186.283 HEAT: -21.16825
 CYCLE:     2 TIME:   0.004 TIME LEFT:  2.00D  GRAD.:   116.560 HEAT: -31.17528
 CYCLE:     3 TIME:   0.008 TIME LEFT:  2.00D  GRAD.:    57.630 HEAT: -34.79618
 CYCLE:     4 TIME:   0.008 TIME LEFT:  2.00D  GRAD.:    42.407 HEAT: -35.72281
 CYCLE:     5 TIME:   0.004 TIME LEFT:  2.00D  GRAD.:    38.881 HEAT: -36.07057
 CYCLE:     6 TIME:   0.004 TIME LEFT:  2.00D  GRAD.:    37.552 HEAT: -36.35377
 CYCLE:     7 TIME:   0.008 TIME LEFT:  2.00D  GRAD.:    17.868 HEAT: -36.79565
 CYCLE:     8 TIME:   0.008 TIME LEFT:  2.00D  GRAD.:    15.612 HEAT: -36.92491
 CYCLE:     9 TIME:   0.004 TIME LEFT:  2.00D  GRAD.:    13.340 HEAT: -37.11954
 CYCLE:    10 TIME:   0.004 TIME LEFT:  2.00D  GRAD.:    22.511 HEAT: -37.27394
 CYCLE:    11 TIME:   0.008 TIME LEFT:  2.00D  GRAD.:    20.421 HEAT: -37.39388
 CYCLE:    12 TIME:   0.008 TIME LEFT:  2.00D  GRAD.:    13.037 HEAT: -37.49474
 CYCLE:    13 TIME:   0.008 TIME LEFT:  2.00D  GRAD.:     8.652 HEAT: -37.54983
 CYCLE:    14 TIME:   0.004 TIME LEFT:  2.00D  GRAD.:    11.672 HEAT: -37.57176
 CYCLE:    15 TIME:   0.004 TIME LEFT:  2.00D  GRAD.:     7.945 HEAT: -37.63366
 CYCLE:    16 TIME:   0.008 TIME LEFT:  2.00D  GRAD.:    13.662 HEAT: -37.63764
 CYCLE:    17 TIME:   0.004 TIME LEFT:  2.00D  GRAD.:    14.103 HEAT: -37.67128
 CYCLE:    18 TIME:   0.008 TIME LEFT:  2.00D  GRAD.:    13.169 HEAT: -37.69877
 CYCLE:    19 TIME:   0.004 TIME LEFT:  2.00D  GRAD.:     6.366 HEAT: -37.77272
 CYCLE:    20 TIME:   0.004 TIME LEFT:  2.00D  GRAD.:    15.359 HEAT: -37.77527
 CYCLE:    21 TIME:   0.004 TIME LEFT:  2.00D  GRAD.:     9.479 HEAT: -37.86546
 CYCLE:    22 TIME:   0.004 TIME LEFT:  2.00D  GRAD.:    10.113 HEAT: -37.91191
 CYCLE:    23 TIME:   0.004 TIME LEFT:  2.00D  GRAD.:    10.666 HEAT: -37.95715
 CYCLE:    24 TIME:   0.004 TIME LEFT:  2.00D  GRAD.:     5.256 HEAT: -38.02234
 CYCLE:    25 TIME:   0.004 TIME LEFT:  2.00D  GRAD.:     3.858 HEAT: -38.05190
 CYCLE:    26 TIME:   0.004 TIME LEFT:  2.00D  GRAD.:     3.798 HEAT: -38.07715
 CYCLE:    27 TIME:   0.004 TIME LEFT:  2.00D  GRAD.:     3.012 HEAT: -38.09054
 CYCLE:    28 TIME:   0.008 TIME LEFT:  2.00D  GRAD.:     3.430 HEAT: -38.10880
 CYCLE:    29 TIME:   0.004 TIME LEFT:  2.00D  GRAD.:     3.971 HEAT: -38.12260
 CYCLE:    30 TIME:   0.004 TIME LEFT:  2.00D  GRAD.:     3.294 HEAT: -38.13665
 CYCLE:    31 TIME:   0.004 TIME LEFT:  2.00D  GRAD.:     2.739 HEAT: -38.15203
 CYCLE:    32 TIME:   0.004 TIME LEFT:  2.00D  GRAD.:     3.113 HEAT: -38.16719
 CYCLE:    33 TIME:   0.004 TIME LEFT:  2.00D  GRAD.:     3.151 HEAT: -38.18598
 CYCLE:    34 TIME:   0.004 TIME LEFT:  2.00D  GRAD.:     2.777 HEAT: -38.20242
 CYCLE:    35 TIME:   0.004 TIME LEFT:  2.00D  GRAD.:     2.493 HEAT: -38.21715
 CYCLE:    36 TIME:   0.008 TIME LEFT:  2.00D  GRAD.:     2.698 HEAT: -38.22952
 CYCLE:    37 TIME:   0.004 TIME LEFT:  2.00D  GRAD.:     2.792 HEAT: -38.24367
 CYCLE:    38 TIME:   0.004 TIME LEFT:  2.00D  GRAD.:     2.732 HEAT: -38.26040
 CYCLE:    39 TIME:   0.004 TIME LEFT:  2.00D  GRAD.:     2.877 HEAT: -38.27685
 CYCLE:    40 TIME:   0.004 TIME LEFT:  2.00D  GRAD.:     3.321 HEAT: -38.29204
 CYCLE:    41 TIME:   0.004 TIME LEFT:  2.00D  GRAD.:     4.045 HEAT: -38.31479
 CYCLE:    42 TIME:   0.004 TIME LEFT:  2.00D  GRAD.:     6.134 HEAT: -38.34111
 CYCLE:    43 TIME:   0.004 TIME LEFT:  2.00D  GRAD.:     5.570 HEAT: -38.37468
 CYCLE:    44 TIME:   0.004 TIME LEFT:  2.00D  GRAD.:     3.691 HEAT: -38.40692
 CYCLE:    45 TIME:   0.008 TIME LEFT:  2.00D  GRAD.:     2.713 HEAT: -38.42975
 CYCLE:    46 TIME:   0.004 TIME LEFT:  2.00D  GRAD.:     2.506 HEAT: -38.44010
 CYCLE:    47 TIME:   0.004 TIME LEFT:  2.00D  GRAD.:     1.963 HEAT: -38.44982
 CYCLE:    48 TIME:   0.004 TIME LEFT:  2.00D  GRAD.:     1.769 HEAT: -38.46161
 CYCLE:    49 TIME:   0.004 TIME LEFT:  2.00D  GRAD.:     1.595 HEAT: -38.46698
 CYCLE:    50 TIME:   0.004 TIME LEFT:  2.00D  GRAD.:     1.366 HEAT: -38.47310
 CYCLE:    51 TIME:   0.004 TIME LEFT:  2.00D  GRAD.:     1.225 HEAT: -38.47695
 CYCLE:    52 TIME:   0.008 TIME LEFT:  2.00D  GRAD.:     0.888 HEAT: -38.47961
 CYCLE:    53 TIME:   0.004 TIME LEFT:  2.00D  GRAD.:     0.688 HEAT: -38.48116
 CYCLE:    54 TIME:   0.004 TIME LEFT:  2.00D  GRAD.:     0.577 HEAT: -38.48224
 CYCLE:    55 TIME:   0.004 TIME LEFT:  2.00D  GRAD.:     0.571 HEAT: -38.48300
 CYCLE:    56 TIME:   0.004 TIME LEFT:  2.00D  GRAD.:     0.516 HEAT: -38.48364
 CYCLE:    57 TIME:   0.004 TIME LEFT:  2.00D  GRAD.:     0.431 HEAT: -38.48412
 CYCLE:    58 TIME:   0.004 TIME LEFT:  2.00D  GRAD.:     0.406 HEAT: -38.48458
 CYCLE:    59 TIME:   0.004 TIME LEFT:  2.00D  GRAD.:     0.381 HEAT: -38.48495
 CYCLE:    60 TIME:   0.004 TIME LEFT:  2.00D  GRAD.:     0.311 HEAT: -38.48525
 CYCLE:    61 TIME:   0.004 TIME LEFT:  2.00D  GRAD.:     0.229 HEAT: -38.48543
 CYCLE:    62 TIME:   0.004 TIME LEFT:  2.00D  GRAD.:     0.173 HEAT: -38.48554
 CYCLE:    63 TIME:   0.004 TIME LEFT:  2.00D  GRAD.:     0.143 HEAT: -38.48560
 CYCLE:    64 TIME:   0.008 TIME LEFT:  2.00D  GRAD.:     0.105 HEAT: -38.48564
 CYCLE:    65 TIME:   0.004 TIME LEFT:  2.00D  GRAD.:     0.085 HEAT: -38.48566
 CYCLE:    66 TIME:   0.004 TIME LEFT:  2.00D  GRAD.:     0.077 HEAT: -38.48568
 CYCLE:    67 TIME:   0.004 TIME LEFT:  2.00D  GRAD.:     0.072 HEAT: -38.48570
 CYCLE:    68 TIME:   0.004 TIME LEFT:  2.00D  GRAD.:     0.058 HEAT: -38.48571
 CYCLE:    69 TIME:   0.004 TIME LEFT:  2.00D  GRAD.:     0.036 HEAT: -38.48572

     GRADIENT =  0.03562  IS LESS THAN CUTOFF =  0.05000



 -------------------------------------------------------------------------------
 pm3  precise nosym THREADS=1
 InChI=1S/C7H12O2/c1-2-4-7-5-6(3-1)8-9-7/h6-7H,1-5H2



     GEOMETRY OPTIMISED USING EIGENVECTOR FOLLOWING (EF).     
     SCF FIELD WAS ACHIEVED                                   


                              PM3 CALCULATION
                                                       MOPAC2016 (Version: 18.184L)
                                                       Sat Jun 15 10:22:58 2019
                                                       No. of days remaining =  18




          FINAL HEAT OF FORMATION =        -38.48572 KCAL/MOL =    -161.02424 KJ/MOL


          TOTAL ENERGY            =      -1599.99382 EV
          ELECTRONIC ENERGY       =      -8268.07868 EV  POINT GROUP:     C1  
          CORE-CORE REPULSION     =       6668.08486 EV
          COSMO AREA              =        153.30 SQUARE ANGSTROMS
          COSMO VOLUME            =        158.10 CUBIC ANGSTROMS

          GRADIENT NORM           =          0.03562 = 0.00777 PER ATOM
          IONIZATION POTENTIAL    =         10.659135 EV
          HOMO LUMO ENERGIES (EV) =        -10.659  0.587
          NO. OF FILLED LEVELS    =         26
          MOLECULAR WEIGHT        =        128.1706

          MOLECULAR DIMENSIONS (Angstroms)

            Atom       Atom       Distance
            H    18    H    15     5.27151
            H    17    H    19     4.94383
            H    12    O     1     3.46510


          SCF CALCULATIONS        =         78
 
          WALL-CLOCK TIME         =          0.336 SECONDS
          COMPUTATION TIME        =          0.310 SECONDS




   ATOM   CHEMICAL          X               Y               Z
  NUMBER   SYMBOL      (ANGSTROMS)     (ANGSTROMS)     (ANGSTROMS)
 
     1       O         -0.97874388  *  -0.62505402  *   1.83032187  *
     2       O         -0.15429939  *  -1.81998928  *   1.19758274  *
     3       C         -1.38645240  *   0.19500441  *   0.76526433  *
     4       C         -0.13224565  *  -1.59776561  *  -0.18690038  *
     5       C         -1.30525036  *  -0.65645904  *  -0.51058361  *
     6       C         -0.53994496  *   1.47924898  *   0.67698069  *
     7       C          1.21305633  *  -1.02883631  *  -0.66531861  *
     8       C          0.60355406  *   1.41838735  *  -0.32468289  *
     9       C          1.60081846  *   0.30359797  *  -0.04146518  *
    10       H         -2.43282550  *   0.44966478  *   1.04665098  *
    11       H         -0.27885598  *  -2.61910316  *  -0.60505106  *
    12       H          0.18665289  *   1.29743577  *  -1.34973535  *
    13       H          1.12766281  *   2.39368973  *  -0.32210033  *
    14       H         -0.14343111  *   1.73068180  *   1.68182190  *
    15       H         -1.20853209  *   2.31834454  *   0.40064512  *
    16       H          1.73625837  *   0.18596195  *   1.05248588  *
    17       H          2.59481122  *   0.59490173  *  -0.43541758  *
    18       H          2.01165425  *  -1.76711413  *  -0.45274619  *
    19       H         -2.24082868  *  -1.21409587  *  -0.69307279  *
    20       H         -1.11777624  *  -0.04100694  *  -1.41361566  *
    21       H          1.17431095  *  -0.93501973  *  -1.76926672  *

                             CARTESIAN COORDINATES

   1    O       -0.978743883    -0.625054022     1.830321872
   2    O       -0.154299388    -1.819989281     1.197582745
   3    C       -1.386452402     0.195004406     0.765264331
   4    C       -0.132245645    -1.597765614    -0.186900380
   5    C       -1.305250364    -0.656459040    -0.510583615
   6    C       -0.539944955     1.479248978     0.676980689
   7    C        1.213056327    -1.028836307    -0.665318610
   8    C        0.603554060     1.418387348    -0.324682894
   9    C        1.600818461     0.303597972    -0.041465176
  10    H       -2.432825499     0.449664785     1.046650983
  11    H       -0.278855984    -2.619103160    -0.605051058
  12    H        0.186652886     1.297435771    -1.349735354
  13    H        1.127662812     2.393689734    -0.322100331
  14    H       -0.143431107     1.730681799     1.681821901
  15    H       -1.208532094     2.318344542     0.400645120
  16    H        1.736258365     0.185961950     1.052485878
  17    H        2.594811217     0.594901731    -0.435417578
  18    H        2.011654254    -1.767114129    -0.452746186
  19    H       -2.240828680    -1.214095869    -0.693072785
  20    H       -1.117776244    -0.041006943    -1.413615656
  21    H        1.174310949    -0.935019727    -1.769266717


           Empirical Formula: C7 H12 O2  =    21 atoms



      MOLECULAR POINT GROUP   :   C1  


                  EIGENVALUES  
 -42.08125 -34.79339 -34.70588 -30.21046 -29.84815 -24.50130 -23.07614 -20.49488
 -19.37948 -18.32613 -16.75022 -16.15759 -15.89063 -15.56295 -15.07534 -14.95106
 -14.16379 -13.61222 -12.99971 -12.93812 -12.61726 -12.04536 -11.99116 -11.75091
 -11.40275 -10.65913   0.58717   2.84433   3.04275   3.21641   3.24633   3.32615
   3.41431   3.60556   3.64918   3.78511   3.94925   3.98670   4.14016   4.20888
   4.23863   4.39589   4.57000   4.72220   4.93116   5.00677   5.08228   5.36965


              NET ATOMIC CHARGES AND DIPOLE CONTRIBUTIONS

  ATOM NO.   TYPE          CHARGE      No. of ELECS.   s-Pop       p-Pop       
    1          O          -0.142835        6.1428     1.91488     4.22796
    2          O          -0.138912        6.1389     1.91393     4.22499
    3          C           0.051877        3.9481     1.18195     2.76617
    4          C           0.051432        3.9486     1.18143     2.76714
    5          C          -0.133827        4.1338     1.18329     2.95053
    6          C          -0.128088        4.1281     1.17251     2.95558
    7          C          -0.122528        4.1225     1.17051     2.95201
    8          C          -0.098898        4.0989     1.16235     2.93655
    9          C          -0.098368        4.0984     1.15991     2.93845
   10          H           0.076636        0.9234     0.92336
   11          H           0.076396        0.9236     0.92360
   12          H           0.051832        0.9482     0.94817
   13          H           0.051646        0.9484     0.94835
   14          H           0.071138        0.9289     0.92886
   15          H           0.051304        0.9487     0.94870
   16          H           0.072181        0.9278     0.92782
   17          H           0.048287        0.9517     0.95171
   18          H           0.059426        0.9406     0.94057
   19          H           0.066873        0.9331     0.93313
   20          H           0.081325        0.9187     0.91868
   21          H           0.053103        0.9469     0.94690
 DIPOLE           X         Y         Z       TOTAL
 POINT-CHG.    -0.287     0.935    -2.104     2.320
 HYBRID        -0.066     0.255    -0.549     0.609
 SUM           -0.353     1.190    -2.653     2.929


          ATOMIC ORBITAL ELECTRON POPULATIONS

     Atom    s        px        py        pz   
    1  O   1.91488   1.68610   1.32831   1.21355
    2  O   1.91393   1.72996   1.30589   1.18914
    3  C   1.18195   0.96667   0.91147   0.88803
    4  C   1.18143   0.94033   0.96849   0.85833
    5  C   1.18329   0.98570   0.97437   0.99046
    6  C   1.17251   0.97763   0.96728   1.01067
    7  C   1.17051   0.97292   0.98147   0.99763
    8  C   1.16235   0.96453   0.98623   0.98579
    9  C   1.15991   0.97579   0.93845   1.02421
   10  H   0.92336
   11  H   0.92360
   12  H   0.94817
   13  H   0.94835
   14  H   0.92886
   15  H   0.94870
   16  H   0.92782
   17  H   0.95171
   18  H   0.94057
   19  H   0.93313
   20  H   0.91868
   21  H   0.94690
 *******************************************************************************
 ** Site#: 14399        For non-commercial use only    Version 18.184L 64BITS **
 *******************************************************************************
 ** Cite this program as: MOPAC2016, Version: 18.184L, James J. P. Stewart,   **
 ** Stewart Computational Chemistry, web: HTTP://OpenMOPAC.net. Days left:  18**
 *******************************************************************************
 **                                                                           **
 **                                MOPAC2016                                  **
 **                                                                           **
 *******************************************************************************

                              PM3 CALCULATION RESULTS

 *******************************************************************************
 *  CALCULATION DONE:                                Sat Jun 15 10:22:58 2019  *
 *  PM3        - The PM3 Hamiltonian to be used
 *  OLDGEO     - PREVIOUS GEOMETRY TO BE USED
 *  PRECISE    - CRITERIA TO BE INCREASED BY 100 TIMES
 *  NOSYM      - POINT-GROUP SYMMETRY SET TO C1
 *  THREADS=1  - MULTI-THREADING NOT USED
 *  T=         - A TIME OF 172800.0 SECONDS REQUESTED
 *  DUMP=N     - RESTART FILE WRITTEN EVERY  7200.000 SECONDS
 *  THERMO     - THERMODYNAMIC QUANTITIES TO BE CALCULATED
 *******************************************************************************
oldgeo thermo nosym precise THREADS=1  pm3
 InChI=1S/C7H12O2/c1-2-4-7-5-6(3-1)8-9-7/h6-7H,1-5H2

   ATOM   CHEMICAL          X               Y               Z
  NUMBER   SYMBOL      (ANGSTROMS)     (ANGSTROMS)     (ANGSTROMS)
 
     1       O         -0.97874388  *  -0.62505402  *   1.83032187  *
     2       O         -0.15429939  *  -1.81998928  *   1.19758274  *
     3       C         -1.38645240  *   0.19500441  *   0.76526433  *
     4       C         -0.13224565  *  -1.59776561  *  -0.18690038  *
     5       C         -1.30525036  *  -0.65645904  *  -0.51058361  *
     6       C         -0.53994496  *   1.47924898  *   0.67698069  *
     7       C          1.21305633  *  -1.02883631  *  -0.66531861  *
     8       C          0.60355406  *   1.41838735  *  -0.32468289  *
     9       C          1.60081846  *   0.30359797  *  -0.04146518  *
    10       H         -2.43282550  *   0.44966478  *   1.04665098  *
    11       H         -0.27885598  *  -2.61910316  *  -0.60505106  *
    12       H          0.18665289  *   1.29743577  *  -1.34973535  *
    13       H          1.12766281  *   2.39368973  *  -0.32210033  *
    14       H         -0.14343111  *   1.73068180  *   1.68182190  *
    15       H         -1.20853209  *   2.31834454  *   0.40064512  *
    16       H          1.73625837  *   0.18596195  *   1.05248588  *
    17       H          2.59481122  *   0.59490173  *  -0.43541758  *
    18       H          2.01165425  *  -1.76711413  *  -0.45274619  *
    19       H         -2.24082868  *  -1.21409587  *  -0.69307279  *
    20       H         -1.11777624  *  -0.04100694  *  -1.41361566  *
    21       H          1.17431095  *  -0.93501973  *  -1.76926672  *
 


          CARTESIAN COORDINATES 

    NO.       ATOM           X           Y           Z

     1         O         -0.9787     -0.6251      1.8303
     2         O         -0.1543     -1.8200      1.1976
     3         C         -1.3865      0.1950      0.7653
     4         C         -0.1322     -1.5978     -0.1869
     5         C         -1.3053     -0.6565     -0.5106
     6         C         -0.5399      1.4792      0.6770
     7         C          1.2131     -1.0288     -0.6653
     8         C          0.6036      1.4184     -0.3247
     9         C          1.6008      0.3036     -0.0415
    10         H         -2.4328      0.4497      1.0467
    11         H         -0.2789     -2.6191     -0.6051
    12         H          0.1867      1.2974     -1.3497
    13         H          1.1277      2.3937     -0.3221
    14         H         -0.1434      1.7307      1.6818
    15         H         -1.2085      2.3183      0.4006
    16         H          1.7363      0.1860      1.0525
    17         H          2.5948      0.5949     -0.4354
    18         H          2.0117     -1.7671     -0.4527
    19         H         -2.2408     -1.2141     -0.6931
    20         H         -1.1178     -0.0410     -1.4136
    21         H          1.1743     -0.9350     -1.7693

  H: (PM3): J. J. P. STEWART, J. COMP. CHEM. 10, 209 (1989).
  C: (PM3): J. J. P. STEWART, J. COMP. CHEM. 10, 209 (1989).
  O: (PM3): J. J. P. STEWART, J. COMP. CHEM. 10, 209 (1989).

           Empirical Formula: C7 H12 O2  =    21 atoms



      MOLECULAR POINT GROUP   :   C1  


      RHF CALCULATION, NO. OF DOUBLY OCCUPIED LEVELS = 26



          HEAT OF FORMATION =     -38.485716 KCALS/MOLE


          CARTESIAN COORDINATE DERIVATIVES

   NUMBER  ATOM         X            Y            Z

     1       O      0.005246     0.004005    -0.001204
     2       O     -0.005259    -0.005607     0.011915
     3       C      0.001135    -0.001376    -0.004534
     4       C      0.002141    -0.005194    -0.000272
     5       C      0.007888    -0.003193     0.006998
     6       C     -0.005636    -0.001470    -0.001271
     7       C     -0.000536    -0.006046     0.007238
     8       C      0.001029     0.002247    -0.008102
     9       C      0.002325     0.002894    -0.000418
    10       H      0.004841     0.003702     0.002212
    11       H     -0.000884     0.004962     0.003015
    12       H     -0.009916     0.004916     0.001505
    13       H     -0.005263    -0.004886    -0.003203
    14       H      0.006666     0.008580    -0.002742
    15       H      0.005746    -0.000596     0.004252
    16       H      0.003978     0.000692    -0.009721
    17       H      0.001467     0.001225     0.004646
    18       H     -0.001077    -0.005398    -0.010741
    19       H     -0.005532    -0.000614     0.001134
    20       H     -0.004427    -0.000442     0.001871
    21       H     -0.003931     0.001597    -0.002578
 


          GRADIENT NORM =   0.03789


          TIME FOR SCF CALCULATION =    0.00

          TIME FOR DERIVATIVES     =    0.00

          MOLECULAR WEIGHT =  128.17



          ROTATIONAL CONSTANTS IN CM(-1)

          A =    0.07351993   B =    0.06515163   C =    0.04729469



           PRINCIPAL MOMENTS OF INERTIA IN UNITS OF 10**(-40)*GRAM-CM**2

          A =      380.7508   B =      429.6558   C =      591.8799


          ORIENTATION OF MOLECULE IN FORCE CALCULATION

    NO.       ATOM         X         Y         Z

     1          O      -0.7807   -1.3789   -0.7710
     2          O       0.8029   -1.3789   -0.7710
     3          C      -1.1862   -0.0341   -0.7710
     4          C       1.1999   -0.0340   -0.7567
     5          C       0.0083    0.7927   -1.2700
     6          C      -1.6793    0.4137    0.6183
     7          C       1.6621    0.4233    0.6360
     8          C      -0.6378    1.1371    1.4589
     9          C       0.6093    0.3068    1.7283
    10          H      -2.0355   -0.0405   -1.4904
    11          H       2.0613   -0.0215   -1.4619
    12          H      -0.3541    2.0871    0.9528
    13          H      -1.1019    1.4310    2.4202
    14          H      -2.0641   -0.4650    1.1751
    15          H      -2.5501    1.0843    0.4790
    16          H       0.3315   -0.7561    1.8765
    17          H       1.0644    0.6323    2.6848
    18          H       2.5500   -0.1696    0.9328
    19          H       0.0149    0.8828   -2.3707
    20          H       0.0023    1.8245   -0.8641
    21          H       2.0122    1.4721    0.5555


    FIRST DERIVATIVES WILL BE USED IN THE CALCULATION OF SECOND DERIVATIVES

          ESTIMATED TIME TO COMPLETE CALCULATION =        0.98 SECONDS

    FOR POINT-GROUP C1   THERE ARE   1 UNIQUE SYMMETRY FUNCTIONS.

 STEP:   1 TIME =     0.02 SECS, INTEGRAL =      0.02 TIME LEFT: 172799.98
 STEP:   2 TIME =     0.02 SECS, INTEGRAL =      0.03 TIME LEFT: 172799.96
 STEP:   3 TIME =     0.02 SECS, INTEGRAL =      0.05 TIME LEFT: 172799.95
 STEP:   4 TIME =     0.02 SECS, INTEGRAL =      0.07 TIME LEFT: 172799.93
 STEP:   5 TIME =     0.02 SECS, INTEGRAL =      0.09 TIME LEFT: 172799.91
 STEP:   6 TIME =     0.02 SECS, INTEGRAL =      0.11 TIME LEFT: 172799.89
 STEP:   7 TIME =     0.02 SECS, INTEGRAL =      0.12 TIME LEFT: 172799.87
 STEP:   8 TIME =     0.02 SECS, INTEGRAL =      0.14 TIME LEFT: 172799.85
 STEP:   9 TIME =     0.02 SECS, INTEGRAL =      0.16 TIME LEFT: 172799.83
 STEP:  10 TIME =     0.02 SECS, INTEGRAL =      0.18 TIME LEFT: 172799.81
 STEP:  11 TIME =     0.02 SECS, INTEGRAL =      0.20 TIME LEFT: 172799.80
 STEP:  12 TIME =     0.02 SECS, INTEGRAL =      0.22 TIME LEFT: 172799.78
 STEP:  13 TIME =     0.02 SECS, INTEGRAL =      0.24 TIME LEFT: 172799.76
 STEP:  14 TIME =     0.02 SECS, INTEGRAL =      0.25 TIME LEFT: 172799.74
 STEP:  15 TIME =     0.02 SECS, INTEGRAL =      0.27 TIME LEFT: 172799.73
 STEP:  16 TIME =     0.02 SECS, INTEGRAL =      0.29 TIME LEFT: 172799.71
 STEP:  17 TIME =     0.02 SECS, INTEGRAL =      0.31 TIME LEFT: 172799.69
 STEP:  18 TIME =     0.02 SECS, INTEGRAL =      0.32 TIME LEFT: 172799.67
 STEP:  19 TIME =     0.02 SECS, INTEGRAL =      0.34 TIME LEFT: 172799.65
 STEP:  20 TIME =     0.02 SECS, INTEGRAL =      0.36 TIME LEFT: 172799.63
 STEP:  21 TIME =     0.02 SECS, INTEGRAL =      0.38 TIME LEFT: 172799.61
 STEP:  22 TIME =     0.02 SECS, INTEGRAL =      0.40 TIME LEFT: 172799.60
 STEP:  23 TIME =     0.02 SECS, INTEGRAL =      0.42 TIME LEFT: 172799.58
 STEP:  24 TIME =     0.02 SECS, INTEGRAL =      0.43 TIME LEFT: 172799.56
 STEP:  25 TIME =     0.02 SECS, INTEGRAL =      0.45 TIME LEFT: 172799.55
 STEP:  26 TIME =     0.02 SECS, INTEGRAL =      0.47 TIME LEFT: 172799.53
 STEP:  27 TIME =     0.02 SECS, INTEGRAL =      0.48 TIME LEFT: 172799.51
 STEP:  28 TIME =     0.02 SECS, INTEGRAL =      0.50 TIME LEFT: 172799.49
 STEP:  29 TIME =     0.02 SECS, INTEGRAL =      0.52 TIME LEFT: 172799.47
 STEP:  30 TIME =     0.02 SECS, INTEGRAL =      0.54 TIME LEFT: 172799.45
 STEP:  31 TIME =     0.02 SECS, INTEGRAL =      0.56 TIME LEFT: 172799.44
 STEP:  32 TIME =     0.02 SECS, INTEGRAL =      0.57 TIME LEFT: 172799.42
 STEP:  33 TIME =     0.02 SECS, INTEGRAL =      0.59 TIME LEFT: 172799.40
 STEP:  34 TIME =     0.02 SECS, INTEGRAL =      0.61 TIME LEFT: 172799.38
 STEP:  35 TIME =     0.02 SECS, INTEGRAL =      0.63 TIME LEFT: 172799.37
 STEP:  36 TIME =     0.02 SECS, INTEGRAL =      0.65 TIME LEFT: 172799.35
 STEP:  37 TIME =     0.02 SECS, INTEGRAL =      0.67 TIME LEFT: 172799.33
 STEP:  38 TIME =     0.02 SECS, INTEGRAL =      0.68 TIME LEFT: 172799.31
 STEP:  39 TIME =     0.02 SECS, INTEGRAL =      0.70 TIME LEFT: 172799.30
 STEP:  40 TIME =     0.02 SECS, INTEGRAL =      0.72 TIME LEFT: 172799.28
 STEP:  41 TIME =     0.02 SECS, INTEGRAL =      0.73 TIME LEFT: 172799.26
 STEP:  42 TIME =     0.02 SECS, INTEGRAL =      0.75 TIME LEFT: 172799.25
 STEP:  43 TIME =     0.02 SECS, INTEGRAL =      0.77 TIME LEFT: 172799.23
 STEP:  44 TIME =     0.02 SECS, INTEGRAL =      0.79 TIME LEFT: 172799.21
 STEP:  45 TIME =     0.02 SECS, INTEGRAL =      0.80 TIME LEFT: 172799.19
 STEP:  46 TIME =     0.02 SECS, INTEGRAL =      0.82 TIME LEFT: 172799.18
 STEP:  47 TIME =     0.02 SECS, INTEGRAL =      0.84 TIME LEFT: 172799.16
 STEP:  48 TIME =     0.02 SECS, INTEGRAL =      0.86 TIME LEFT: 172799.14
 STEP:  49 TIME =     0.02 SECS, INTEGRAL =      0.88 TIME LEFT: 172799.12
 STEP:  50 TIME =     0.02 SECS, INTEGRAL =      0.89 TIME LEFT: 172799.10
 STEP:  51 TIME =     0.02 SECS, INTEGRAL =      0.91 TIME LEFT: 172799.08
 STEP:  52 TIME =     0.02 SECS, INTEGRAL =      0.93 TIME LEFT: 172799.06
 STEP:  53 TIME =     0.02 SECS, INTEGRAL =      0.95 TIME LEFT: 172799.05
 STEP:  54 TIME =     0.02 SECS, INTEGRAL =      0.97 TIME LEFT: 172799.03
 STEP:  55 TIME =     0.02 SECS, INTEGRAL =      0.99 TIME LEFT: 172799.01
 STEP:  56 TIME =     0.02 SECS, INTEGRAL =      1.01 TIME LEFT: 172798.99
 STEP:  57 TIME =     0.02 SECS, INTEGRAL =      1.02 TIME LEFT: 172798.97
 STEP:  58 TIME =     0.02 SECS, INTEGRAL =      1.04 TIME LEFT: 172798.95
 STEP:  59 TIME =     0.02 SECS, INTEGRAL =      1.06 TIME LEFT: 172798.93
 STEP:  60 TIME =     0.02 SECS, INTEGRAL =      1.08 TIME LEFT: 172798.91
 STEP:  61 TIME =     0.02 SECS, INTEGRAL =      1.10 TIME LEFT: 172798.90
 STEP:  62 TIME =     0.02 SECS, INTEGRAL =      1.12 TIME LEFT: 172798.88
 STEP:  63 TIME =     0.02 SECS, INTEGRAL =      1.13 TIME LEFT: 172798.86

(To convert to Hartree/Bohr^2, multiply by (10^(-21) x N x a0^2)/(4.184 x 627.51) =  0.0642)


           FORCE MATRIX IN MILLIDYNES/ANGSTROM


                  O  1       O  2       C  3       C  4       C  5       C  6
 ------------------------------------------------------------------------------
     O    1   8.218202
     O    2   2.161682   8.277131
     C    3   5.087091   1.119199  14.487194
     C    4   1.138291   5.168985   0.873943  14.548313
     C    5   1.000009   0.993306   3.583095   3.517813  14.295952
     C    6   0.838678   0.048846   3.496798   0.027152   0.557914  14.088004
     C    7   0.047136   0.841144   0.028799   3.573578   0.578382   0.020384
     C    8   0.025334   0.007018   0.564433   0.035604   0.106076   4.136706
     C    9   0.019680   0.046088   0.035381   0.574447   0.033340   0.606428
     H   10   0.451150   0.100245   4.289881   0.049683   0.421780   0.411594
     H   11   0.100482   0.436015   0.049094   4.280516   0.419253   0.002414
     H   12   0.002122   0.001604   0.014863   0.009622   0.092837   0.443815
     H   13   0.004115   0.001327   0.048588   0.004772   0.007956   0.430456
     H   14   0.078564   0.004142   0.466004   0.003486   0.040408   4.454215
     H   15   0.048521   0.005545   0.417117   0.004484   0.011698   4.474160
     H   16   0.007567   0.016662   0.009733   0.015761   0.002804   0.039414
     H   17   0.002004   0.004472   0.004607   0.052140   0.002172   0.045573
     H   18   0.002455   0.031912   0.003787   0.443852   0.047842   0.002126
     H   19   0.026443   0.026293   0.446399   0.445806   4.592552   0.043552
     H   20   0.058180   0.057674   0.436781   0.437778   4.441764   0.043027
     H   21   0.006151   0.059784   0.003614   0.409977   0.023396   0.001534


                  C  7       C  8       C  9       H 10       H 11       H 12
 ------------------------------------------------------------------------------
     C    7  14.152958
     C    8   0.609678  14.212363
     C    9   4.137083   4.119740  14.248339
     H   10   0.003095   0.041374   0.002772   4.789249
     H   11   0.412775   0.002908   0.047081   0.006353   4.781729
     H   12   0.044493   4.284244   0.446838   0.001938   0.000417   4.911752
     H   13   0.045822   4.492666   0.430473   0.007355   0.000460   0.550895
     H   14   0.001498   0.442050   0.018840   0.015576   0.000702   0.045875
     H   15   0.002197   0.429106   0.050191   0.033739   0.000891   0.034280
     H   16   0.443529   0.444657   4.463741   0.000719   0.002392   0.040807
     H   17   0.432922   0.432311   4.462097   0.000470   0.008335   0.014680
     H   18   4.476197   0.049758   0.427227   0.000838   0.036510   0.002826
     H   19   0.044088   0.007115   0.002231   0.032792   0.032959   0.000731
     H   20   0.042556   0.116083   0.010374   0.012621   0.012577   0.061908
     H   21   4.440862   0.021063   0.446198   0.000999   0.030368   0.027341


                  H 13       H 14       H 15       H 16       H 17       H 18
 ------------------------------------------------------------------------------
     H   13   5.076307
     H   14   0.034105   5.069742
     H   15   0.037798   0.566688   5.066338
     H   16   0.014836   0.023672   0.002977   5.071744
     H   17   0.033595   0.002068   0.007760   0.567526   5.057058
     H   18   0.007560   0.000440   0.000562   0.032581   0.038820   5.080003
     H   19   0.000638   0.006396   0.001103   0.000372   0.000389   0.007367
     H   20   0.001956   0.002660   0.002198   0.001079   0.000850   0.002972
     H   21   0.002093   0.000516   0.000397   0.046486   0.032176   0.563466


                  H 19       H 20       H 21
 ------------------------------------------
     H   19   5.193464
     H   20   0.533906   5.069509
     H   21   0.001868   0.027562   5.055275


          HEAT OF FORMATION =     -38.485716 KCALS/MOLE

          ZERO POINT ENERGY     113.819 KCAL/MOL


           NORMAL COORDINATE ANALYSIS (Total motion = 1 Angstrom)


   Root No.       1         2         3         4         5         6         7         8

                 1 A       2 A       3 A       4 A       5 A       6 A       7 A       8 A   

                 119.1     190.8     312.4     355.0     359.5     407.2     452.1     519.7
  
           1    0.0265   -0.0065   -0.0050    0.0047    0.0034   -0.0125   -0.0232    0.0149
           2   -0.0059    0.0061    0.0036    0.0044   -0.0162    0.0218   -0.0157   -0.0158
           3    0.0880    0.0000    0.0161    0.0235   -0.0149    0.0520    0.0055    0.0186
           4    0.0262   -0.0070   -0.0076   -0.0048    0.0021   -0.0199   -0.0152   -0.0168
           5    0.0100    0.0005   -0.0174    0.0107    0.0135    0.0199   -0.0031   -0.0106
           6   -0.0532    0.0580   -0.0229    0.0344    0.0068   -0.0019   -0.0361    0.0133
           7    0.0053   -0.0010    0.0117   -0.0081   -0.0135   -0.0022   -0.0117    0.0185
           8   -0.0096    0.0066    0.0095    0.0007   -0.0214    0.0249   -0.0140   -0.0073
           9    0.0121   -0.0099   -0.0060   -0.0077   -0.0170   -0.0285   -0.0117   -0.0281
          10    0.0068    0.0013    0.0080    0.0013   -0.0202   -0.0044   -0.0013   -0.0245
          11    0.0129    0.0003   -0.0227    0.0110    0.0203    0.0145   -0.0077   -0.0031
          12   -0.0148   -0.0030   -0.0084   -0.0058    0.0083    0.0073    0.0341   -0.0167
          13   -0.0063    0.0028    0.0215   -0.0057   -0.0288    0.0105    0.0033   -0.0045
          14   -0.0017   -0.0031    0.0023    0.0274   -0.0026    0.0013    0.0015    0.0375
          15   -0.0055   -0.0140    0.0077    0.0379   -0.0117   -0.0490    0.0424    0.0101
          16   -0.0207   -0.0041   -0.0099   -0.0299    0.0091    0.0090   -0.0039    0.0487
          17    0.0484    0.0174    0.0023   -0.0140    0.0248   -0.0345   -0.0006   -0.0061
          18   -0.0171   -0.0152   -0.0134   -0.0157   -0.0259   -0.0097   -0.0164   -0.0198
          19   -0.0116    0.0038   -0.0018    0.0398    0.0046   -0.0018    0.0164   -0.0387
          20   -0.0135    0.0412    0.0067   -0.0269   -0.0157   -0.0022    0.0382   -0.0038
          21    0.0003   -0.0181   -0.0161   -0.0111    0.0126    0.0142    0.0177   -0.0134
          22   -0.0036    0.0052   -0.0294   -0.0096    0.0164    0.0075    0.0216    0.0135
          23   -0.0001   -0.0326   -0.0230   -0.0181   -0.0162   -0.0328   -0.0089    0.0201
          24    0.0035    0.0168    0.0327   -0.0345    0.0081   -0.0175   -0.0352    0.0067
          25   -0.0265    0.0103    0.0149    0.0104    0.0244    0.0130    0.0184   -0.0110
          26   -0.0413   -0.0379    0.0350    0.0057    0.0081   -0.0102   -0.0042   -0.0084
          27   -0.0161   -0.0206    0.0054   -0.0335    0.0335    0.0260    0.0100    0.0138
          28    0.0138    0.0008    0.0236    0.0141   -0.0216    0.0022    0.0048    0.0198
          29   -0.0515    0.0016    0.0184   -0.0085   -0.0455    0.0287    0.0055   -0.0289
          30    0.0022   -0.0121   -0.0204   -0.0330   -0.0074   -0.0321   -0.0306   -0.0271
          31    0.0105   -0.0049    0.0107   -0.0244   -0.0225    0.0113   -0.0006   -0.0267
          32    0.0369   -0.0261   -0.0379    0.0060    0.0394   -0.0049   -0.0120   -0.0173
          33   -0.0094   -0.0104   -0.0055   -0.0366    0.0049    0.0254    0.0339   -0.0178
          34    0.0234    0.0044   -0.0648   -0.0232    0.0270    0.0121    0.0382    0.0271
          35    0.0027   -0.0109    0.0170   -0.0141   -0.0051   -0.0471   -0.0259    0.0278
          36    0.0241    0.0577    0.0905   -0.0358    0.0346   -0.0431   -0.0630    0.0287
          37    0.0025    0.0073   -0.0479    0.0035   -0.0063   -0.0032    0.0221   -0.0178
          38   -0.0079   -0.0764   -0.1063   -0.0215   -0.0379   -0.0052    0.0390    0.0103
          39    0.0086    0.0313    0.0502   -0.0271    0.0046   -0.0313   -0.0500   -0.0054
          40   -0.0956   -0.0529   -0.0413   -0.0284   -0.0639    0.0648   -0.0227    0.0928
          41    0.0833    0.0279    0.0002   -0.0151    0.0578   -0.0735    0.0168   -0.0222
          42   -0.0144   -0.0327   -0.0381   -0.0167   -0.0273   -0.0282   -0.0037   -0.0121
          43    0.0263    0.0275    0.0051   -0.0300    0.0603   -0.0274    0.0138    0.0207
          44    0.0999    0.0566    0.0196   -0.0133    0.0863   -0.0707    0.0218   -0.0420
          45   -0.0641   -0.0263   -0.0272   -0.0102   -0.0580    0.0492   -0.0203   -0.0084
          46   -0.0519    0.0222    0.0540    0.0178    0.0388    0.0383    0.0345   -0.0309
          47   -0.0417   -0.0495    0.0339    0.0064    0.0129   -0.0109   -0.0105   -0.0032
          48   -0.0667   -0.0817    0.0658   -0.0134    0.0872    0.0624   -0.0114    0.0154
          49   -0.0309    0.0041    0.0340   -0.0034    0.0334    0.0051   -0.0131    0.0129
          50   -0.0942   -0.0869    0.1010    0.0313    0.0623    0.0345   -0.0059   -0.0240
          51    0.0038   -0.0014   -0.0250   -0.0355    0.0116    0.0149    0.0250    0.0075
          52   -0.0139    0.0470    0.0041   -0.0028   -0.0123    0.0019    0.0674   -0.0238
          53   -0.0178    0.1020    0.0227   -0.0927   -0.0549   -0.0059    0.1176    0.0132
          54   -0.0016   -0.0274   -0.0019   -0.0123   -0.0127   -0.0037    0.0172   -0.0265
          55   -0.0197    0.0066    0.0208   -0.0051   -0.0150    0.0297    0.0288    0.0026
          56   -0.0062   -0.0105    0.0309    0.0923   -0.0099   -0.0603    0.0437    0.1486
          57   -0.0059   -0.0144    0.0104    0.0436   -0.0122   -0.0546    0.0464    0.0209
          58   -0.0109    0.0015    0.0317   -0.0059   -0.0515    0.0064   -0.0114   -0.0114
          59   -0.0006   -0.0014   -0.0077    0.0099   -0.0016    0.0177   -0.0066    0.0072
          60   -0.0088   -0.0187    0.0345    0.0876   -0.0159   -0.0960    0.0680    0.0981
          61   -0.0140   -0.0666   -0.0094    0.1093    0.0413   -0.0037   -0.0624   -0.0595
          62   -0.0107    0.0644    0.0074   -0.0500   -0.0274   -0.0007    0.0639    0.0038
          63    0.0279   -0.0220   -0.0484    0.0097    0.0242    0.0245   -0.0151   -0.0149


   Root No.       9        10        11        12        13        14        15        16

                 9 A      10 A      11 A      12 A      13 A      14 A      15 A      16 A   

                 569.6     699.1     731.7     809.6     830.8     873.3     886.8     906.7
  
           1    0.0211    0.0021    0.0881   -0.0020   -0.0363    0.0036   -0.0204    0.0045
           2    0.0192    0.0393    0.0195    0.0008    0.0000    0.0312   -0.0153    0.0062
           3   -0.0070    0.0078   -0.0079    0.0020    0.0051    0.0016   -0.0020    0.0018
           4    0.0161    0.0622   -0.0498    0.0073    0.0417   -0.0143    0.0108   -0.0053
           5   -0.0140   -0.0319   -0.0369   -0.0152   -0.0274   -0.0034   -0.0137    0.0073
           6    0.0100   -0.0000   -0.0153   -0.0016    0.0000   -0.0000    0.0014    0.0019
           7    0.0026   -0.0554    0.0115   -0.0047    0.0292   -0.0048    0.0263    0.0039
           8    0.0147    0.0245    0.0216    0.0004    0.0137    0.0050    0.0016    0.0064
           9    0.0177   -0.0435    0.0104   -0.0188    0.0224    0.0214    0.0193   -0.0011
          10   -0.0007   -0.0089   -0.0538   -0.0027   -0.0386    0.0256   -0.0061   -0.0025
          11   -0.0129   -0.0279   -0.0175   -0.0081    0.0004   -0.0108   -0.0001    0.0064
          12   -0.0203    0.0170    0.0507   -0.0151    0.0250   -0.0306   -0.0129   -0.0039
          13   -0.0012   -0.0374   -0.0233   -0.0014   -0.0050   -0.0229   -0.0116    0.0001
          14    0.0104   -0.0205    0.0242    0.0046    0.0280   -0.0162    0.0328   -0.0201
          15    0.0048    0.0117   -0.0085   -0.0235    0.0022    0.0069   -0.0203    0.0408
          16   -0.0275    0.0001   -0.0104   -0.0152    0.0269    0.0389   -0.0155    0.0023
          17    0.0036    0.0168    0.0007   -0.0096   -0.0187   -0.0182    0.0121   -0.0091
          18    0.0103   -0.0136   -0.0003    0.0089   -0.0036   -0.0149   -0.0116   -0.0223
          19   -0.0317    0.0054    0.0199    0.0129   -0.0195    0.0132    0.0444   -0.0027
          20   -0.0073   -0.0085    0.0042    0.0204    0.0133    0.0081   -0.0198   -0.0077
          21   -0.0144    0.0051    0.0102    0.0040   -0.0039    0.0161    0.0142   -0.0223
          22    0.0077    0.0081   -0.0016   -0.0081    0.0053   -0.0012   -0.0191   -0.0100
          23   -0.0209    0.0107   -0.0024   -0.0010   -0.0183   -0.0105    0.0158    0.0110
          24   -0.0213    0.0005   -0.0065    0.0256   -0.0165   -0.0201   -0.0019    0.0145
          25    0.0029    0.0074    0.0125    0.0109   -0.0024   -0.0135    0.0071    0.0114
          26   -0.0137   -0.0008    0.0102    0.0159    0.0121    0.0088   -0.0115    0.0019
          27    0.0252    0.0002   -0.0136    0.0279   -0.0164    0.0134    0.0214    0.0210
          28    0.0056   -0.0579   -0.0023   -0.0040    0.0245   -0.0511    0.0283    0.0423
          29    0.0010   -0.0108   -0.0824   -0.0109    0.0673   -0.0270   -0.0121    0.0601
          30    0.0137   -0.0401    0.0294   -0.0191    0.0249    0.0722    0.0150   -0.0491
          31   -0.0017   -0.0248   -0.0555   -0.0033   -0.0421    0.0057   -0.0438   -0.0387
          32    0.0012    0.0610   -0.0479   -0.0236    0.0612   -0.0063    0.0184    0.0607
          33   -0.0203   -0.0023    0.0501   -0.0152    0.0207   -0.0508   -0.0571   -0.0496
          34    0.0427    0.0004   -0.0263    0.0135   -0.0172   -0.0068   -0.0143    0.0106
          35   -0.0643    0.0432    0.0074   -0.0524   -0.0122    0.0094    0.0235   -0.0137
          36   -0.0917    0.0628    0.0007   -0.0653   -0.0196    0.0149    0.0200   -0.0213
          37    0.0274   -0.0063    0.0096    0.0001   -0.0037   -0.0750   -0.0493   -0.0489
          38    0.0779   -0.0585   -0.0286    0.1085   -0.0330   -0.0517   -0.0016    0.0655
          39   -0.0432    0.0160    0.0067   -0.0061   -0.0166   -0.0420   -0.0109   -0.0228
          40   -0.0667    0.1127   -0.0158   -0.0587   -0.0523   -0.0193    0.0432   -0.0036
          41    0.0181   -0.0364   -0.0080   -0.0051    0.0061    0.0072   -0.0074   -0.0197
          42    0.0026   -0.0141   -0.0182   -0.0174   -0.0206   -0.0143    0.0015   -0.0435
          43    0.0001   -0.0631   -0.0104    0.0082    0.0752    0.0788   -0.0695   -0.0046
          44    0.0389   -0.0474    0.0010    0.0192    0.0371    0.0275   -0.0628   -0.0248
          45    0.0005    0.0892   -0.0020   -0.0033   -0.0506   -0.0589   -0.0328   -0.0544
          46    0.0319   -0.0030    0.0092   -0.0034    0.0083   -0.0178   -0.0044   -0.0224
          47   -0.0063    0.0005    0.0006    0.0012    0.0026    0.0045   -0.0064    0.0032
          48    0.1132   -0.0073   -0.0782   -0.0910   -0.0520   -0.0194    0.0259   -0.0301
          49    0.0227    0.0062   -0.0180   -0.0075   -0.0191   -0.0769   -0.0252    0.0498
          50    0.0739   -0.0119   -0.0393   -0.0965   -0.0066   -0.0059   -0.0077   -0.0736
          51   -0.0128    0.0047    0.0161    0.0724   -0.0031    0.0480    0.0349    0.0263
          52    0.0038    0.0277    0.0256   -0.0257   -0.0615    0.0036    0.1189    0.0113
          53    0.0424    0.0277    0.0081   -0.0418   -0.0555    0.0158    0.0795   -0.0086
          54   -0.0253    0.0093    0.0019   -0.0011   -0.0101    0.0548   -0.0195   -0.0675
          55   -0.0277    0.0004    0.0023   -0.0033   -0.0105   -0.1176   -0.0617   -0.0029
          56    0.0266    0.0111   -0.0745    0.0864   -0.0339    0.0045    0.0114   -0.1353
          57    0.0062    0.0149   -0.0179   -0.0155   -0.0045    0.0091   -0.0236    0.0283
          58    0.0285   -0.0234   -0.0123    0.0104    0.0086    0.0125   -0.0083   -0.0012
          59    0.0083   -0.0297    0.0517   -0.0195    0.0500   -0.0241    0.0412    0.0130
          60    0.0133    0.0378   -0.0886    0.0451   -0.0553    0.0281   -0.0444   -0.0513
          61   -0.0853   -0.0279    0.0255    0.0880    0.0547    0.0118   -0.0645   -0.0089
          62    0.0115    0.0011   -0.0013   -0.0073   -0.0128    0.0079    0.0168   -0.0072
          63   -0.0264   -0.0235   -0.0367    0.0048   -0.0046    0.0234    0.0020   -0.0413


   Root No.      17        18        19        20        21        22        23        24

                17 A      18 A      19 A      20 A      21 A      22 A      23 A      24 A   

                 912.2     952.1    1001.0    1017.1    1031.5    1042.8    1047.6    1057.9
  
           1    0.0034   -0.0003    0.0132   -0.0064    0.0144   -0.0025   -0.0019   -0.0013
           2   -0.0135    0.0019   -0.0166    0.0243   -0.0083   -0.0036   -0.0078   -0.0110
           3   -0.0046    0.0007    0.0028   -0.0009    0.0003   -0.0014   -0.0003   -0.0002
           4   -0.0050   -0.0034   -0.0148   -0.0084    0.0100   -0.0074   -0.0030    0.0030
           5   -0.0096   -0.0114   -0.0227   -0.0083    0.0250    0.0069    0.0012    0.0070
           6   -0.0019   -0.0033    0.0018   -0.0014   -0.0011    0.0032    0.0017   -0.0006
           7    0.0056    0.0070    0.0035    0.0162   -0.0036    0.0214   -0.0199   -0.0058
           8    0.0048    0.0052    0.0108   -0.0038    0.0067    0.0045   -0.0026    0.0077
           9    0.0172   -0.0063   -0.0158    0.0101    0.0104    0.0143   -0.0049    0.0025
          10   -0.0030   -0.0001    0.0003   -0.0079   -0.0362    0.0062   -0.0101   -0.0048
          11    0.0050    0.0021    0.0107    0.0064   -0.0023    0.0013    0.0030   -0.0019
          12   -0.0143    0.0088   -0.0172    0.0121    0.0155    0.0050   -0.0029    0.0060
          13    0.0063   -0.0116   -0.0025    0.0071    0.0056   -0.0074    0.0303   -0.0027
          14   -0.0083   -0.0064   -0.0124   -0.0265   -0.0296   -0.0140    0.0082    0.0005
          15    0.0088    0.0054   -0.0022   -0.0134   -0.0160   -0.0078    0.0035    0.0017
          16   -0.0160    0.0250   -0.0025   -0.0057    0.0095    0.0011    0.0091    0.0028
          17    0.0301    0.0153   -0.0038   -0.0078    0.0037    0.0210    0.0037   -0.0000
          18   -0.0139   -0.0055    0.0142   -0.0023    0.0035   -0.0112    0.0083   -0.0186
          19   -0.0128    0.0232    0.0088   -0.0038    0.0111   -0.0117    0.0047   -0.0018
          20    0.0339    0.0188    0.0046    0.0063   -0.0088   -0.0204   -0.0071   -0.0001
          21   -0.0006   -0.0036    0.0163    0.0000   -0.0064    0.0025   -0.0063    0.0106
          22    0.0077   -0.0260    0.0098   -0.0050   -0.0144   -0.0023   -0.0073   -0.0001
          23   -0.0104   -0.0083    0.0018    0.0138    0.0005   -0.0191   -0.0087    0.0020
          24   -0.0169    0.0336   -0.0022   -0.0042   -0.0086    0.0019   -0.0014    0.0113
          25    0.0047   -0.0261   -0.0085    0.0141   -0.0027    0.0090   -0.0075    0.0060
          26   -0.0057   -0.0249    0.0047   -0.0114   -0.0049    0.0180    0.0075    0.0026
          27    0.0165   -0.0247   -0.0057   -0.0036    0.0033   -0.0051    0.0035   -0.0133
          28    0.0219   -0.0144    0.0382    0.0036   -0.0257   -0.0003   -0.0594   -0.0234
          29    0.0114   -0.0062    0.1573   -0.0782    0.1812    0.0069   -0.1373   -0.0286
          30   -0.0014    0.0187   -0.0552    0.0234    0.0387    0.0406    0.0453    0.0225
          31   -0.0015   -0.0289   -0.0385    0.0074   -0.0378    0.0346   -0.0415    0.0174
          32    0.0006    0.0224    0.1626    0.1258   -0.0740    0.1112    0.1445   -0.0288
          33   -0.0114   -0.0250   -0.0585    0.0338    0.0095    0.0424   -0.0414    0.0344
          34    0.0503    0.0765   -0.0370   -0.0333    0.0001   -0.0051    0.0077   -0.0333
          35    0.0074   -0.0767    0.0151    0.0238    0.0044   -0.0403   -0.0137   -0.0151
          36    0.0445   -0.0486   -0.0035    0.0005    0.0060   -0.0442   -0.0031   -0.0417
          37   -0.0227   -0.0227    0.0637    0.0056   -0.0743    0.0173   -0.0453    0.0560
          38   -0.0559    0.1440   -0.0255   -0.0030   -0.0042    0.0187   -0.0007    0.0320
          39   -0.0171   -0.0120    0.0331    0.0049   -0.0352   -0.0019   -0.0208    0.0271
          40    0.0993    0.0554   -0.0424   -0.0087    0.0012    0.0432    0.0070   -0.0048
          41   -0.0127   -0.0097   -0.0076    0.0139    0.0110   -0.0356    0.0070   -0.0508
          42    0.0042   -0.0243   -0.0222    0.0294    0.0094   -0.0684    0.0133   -0.1025
          43   -0.0883    0.0085    0.0294   -0.0208    0.0165   -0.0312    0.0271   -0.0034
          44   -0.0513   -0.0085    0.0480   -0.0480    0.0152   -0.0079    0.0395    0.0008
          45    0.0565   -0.0090    0.0608   -0.1007    0.0022    0.0521    0.0640    0.0232
          46    0.0561    0.0874   -0.0402    0.0104    0.0204    0.0314    0.0083   -0.0475
          47   -0.0230   -0.0375    0.0177   -0.0061   -0.0119    0.0009   -0.0007    0.0210
          48   -0.0078    0.0736    0.0255    0.0214   -0.0069   -0.0756   -0.0257    0.0162
          49   -0.0321   -0.0317   -0.0300    0.0605   -0.0476   -0.0083   -0.0602    0.0901
          50   -0.0041    0.1168    0.0281   -0.0088    0.0101   -0.0232    0.0068   -0.0135
          51    0.0340   -0.0696   -0.0019   -0.0261    0.0174    0.0160    0.0272   -0.0468
          52   -0.0741    0.0016    0.0194    0.0083    0.0470   -0.0082    0.0260    0.0064
          53   -0.0721   -0.0058    0.0191   -0.0236    0.0073    0.0243    0.0153    0.0082
          54   -0.0238    0.0160    0.0078   -0.0910   -0.0821    0.0804   -0.0299    0.0053
          55   -0.0461    0.0025   -0.0135    0.0220    0.0005   -0.0107    0.0717   -0.1484
          56   -0.0174   -0.0112    0.0072    0.0695    0.0779    0.0487   -0.0176   -0.0018
          57    0.0073    0.0050   -0.0029   -0.0037   -0.0057   -0.0015    0.0013    0.0014
          58    0.0571   -0.0370   -0.0040    0.0031    0.0835   -0.0661    0.1563    0.1622
          59   -0.0056   -0.0053   -0.0151   -0.0573   -0.0630   -0.0313    0.0165    0.0003
          60    0.0025    0.0040    0.0074    0.0732    0.0796    0.0432   -0.0184    0.0052
          61    0.0945    0.0632   -0.0248   -0.0032   -0.0053   -0.0331   -0.0139   -0.0209
          62   -0.0002    0.0074    0.0221    0.0135   -0.0059   -0.0208   -0.0021    0.0119
          63    0.0549    0.0228    0.0889    0.0854   -0.0415   -0.1077   -0.0339    0.0662


   Root No.      25        26        27        28        29        30        31        32

                25 A      26 A      27 A      28 A      29 A      30 A      31 A      32 A   

                1077.8    1095.6    1117.7    1136.6    1156.6    1164.9    1172.5    1225.2
  
           1    0.0012    0.0089    0.0006    0.0046    0.0007   -0.0001    0.0009    0.0016
           2    0.0045   -0.0158    0.0014   -0.0040    0.0055   -0.0003    0.0019   -0.0043
           3    0.0005    0.0035    0.0004    0.0015   -0.0018   -0.0004    0.0007   -0.0016
           4   -0.0016   -0.0067    0.0021    0.0013   -0.0000    0.0029    0.0010    0.0021
           5    0.0078   -0.0183    0.0008    0.0020    0.0007    0.0042   -0.0031    0.0008
           6    0.0012    0.0033    0.0013   -0.0004   -0.0011   -0.0003    0.0005    0.0014
           7   -0.0014   -0.0282   -0.0040   -0.0084    0.0034    0.0003   -0.0045   -0.0175
           8   -0.0051    0.0022   -0.0022    0.0006   -0.0062    0.0028   -0.0017    0.0088
           9   -0.0073   -0.0035   -0.0092    0.0018   -0.0013    0.0084    0.0048    0.0258
          10   -0.0080    0.0236    0.0004   -0.0036   -0.0047   -0.0086   -0.0025   -0.0186
          11   -0.0061    0.0039   -0.0003   -0.0027   -0.0008   -0.0016    0.0031   -0.0010
          12    0.0006   -0.0005   -0.0100   -0.0059    0.0019   -0.0096   -0.0035   -0.0260
          13   -0.0019   -0.0019   -0.0005    0.0069   -0.0005    0.0016    0.0005   -0.0183
          14   -0.0012    0.0252    0.0020    0.0025   -0.0030   -0.0042    0.0019   -0.0020
          15   -0.0044   -0.0037    0.0108    0.0007   -0.0021   -0.0012    0.0011    0.0008
          16   -0.0072    0.0013    0.0129    0.0010    0.0108   -0.0082   -0.0070    0.0100
          17   -0.0107   -0.0038    0.0115    0.0059    0.0183   -0.0100   -0.0014    0.0056
          18    0.0035   -0.0021    0.0008   -0.0118    0.0079   -0.0002   -0.0113   -0.0001
          19   -0.0033   -0.0056   -0.0125   -0.0018   -0.0009   -0.0127    0.0014    0.0102
          20   -0.0035   -0.0039   -0.0146    0.0077   -0.0032   -0.0106   -0.0102    0.0029
          21    0.0079   -0.0029    0.0076    0.0073    0.0084    0.0178   -0.0025   -0.0056
          22    0.0082   -0.0127   -0.0133   -0.0014   -0.0127    0.0054    0.0151    0.0057
          23    0.0044    0.0070   -0.0022   -0.0057   -0.0299    0.0141   -0.0261   -0.0009
          24    0.0077   -0.0012    0.0025   -0.0007   -0.0020    0.0013    0.0153    0.0059
          25   -0.0002    0.0154    0.0130    0.0030    0.0049    0.0144   -0.0088    0.0080
          26   -0.0011   -0.0048    0.0065   -0.0043    0.0144    0.0078    0.0343   -0.0075
          27   -0.0063   -0.0037   -0.0019    0.0049   -0.0086   -0.0145   -0.0113   -0.0026
          28    0.0584   -0.0869    0.0016   -0.0946    0.0652   -0.0015   -0.0318    0.0743
          29    0.0131    0.1164    0.0015    0.0565   -0.0075   -0.0106    0.0279   -0.0136
          30   -0.0802    0.0663   -0.0164    0.1045   -0.0740    0.0112    0.0363   -0.0829
          31   -0.0112    0.1142    0.0200   -0.0756   -0.0412   -0.0651    0.0242    0.0794
          32    0.0516    0.0744   -0.0437   -0.0029   -0.0189   -0.0372   -0.0143    0.0035
          33   -0.0014    0.1129    0.0135   -0.0944   -0.0415   -0.0780    0.0288    0.0943
          34    0.0617    0.0244   -0.1230   -0.0638   -0.0248    0.0799    0.1608   -0.0578
          35    0.0039    0.0049   -0.0060   -0.0098   -0.0520    0.0187   -0.0557   -0.0046
          36    0.0384    0.0161   -0.0694   -0.0414   -0.0513    0.0492    0.0408   -0.0362
          37    0.0300   -0.1096    0.0803    0.0848   -0.0934   -0.0727    0.0516   -0.0326
          38    0.0064    0.0199    0.0179   -0.0096   -0.0009    0.0201    0.0151    0.0026
          39    0.0178   -0.0519    0.0418    0.0403   -0.0498   -0.0388    0.0195   -0.0143
          40   -0.0004    0.0010    0.0384    0.0285    0.0741   -0.0438    0.0261    0.0071
          41    0.0381    0.0343    0.0304    0.0202    0.0712   -0.0403    0.0063   -0.0227
          42    0.0823    0.0572    0.0443    0.0297    0.1344   -0.0710    0.0256   -0.0458
          43   -0.0115    0.0035    0.0072   -0.0341    0.0089    0.0012   -0.0383   -0.0041
          44   -0.0395   -0.0062   -0.0035   -0.0565    0.0205    0.0066   -0.0588   -0.0239
          45   -0.0945   -0.0419   -0.0325   -0.0968    0.0340    0.0157   -0.0783   -0.0527
          46    0.0629    0.0575    0.1406   -0.0255   -0.0674    0.1167   -0.0961   -0.0458
          47   -0.0195   -0.0181   -0.0370    0.0045    0.0313   -0.0248    0.0548    0.0110
          48   -0.0195   -0.0237   -0.0733    0.0241   -0.0177   -0.0665   -0.0374    0.0341
          49   -0.0270    0.0751   -0.0973    0.0525    0.1129    0.0410   -0.0688   -0.0411
          50    0.0241   -0.0237    0.0209   -0.0259   -0.0452    0.0077    0.0236    0.0097
          51   -0.0015   -0.0263    0.0454   -0.0094   -0.0403   -0.0265    0.0201    0.0156
          52   -0.0173   -0.0057    0.0124   -0.0333   -0.0017   -0.0170    0.0371   -0.0061
          53    0.0201   -0.0036   -0.0138    0.0056    0.0107    0.0130    0.0093    0.0206
          54    0.0969    0.0063   -0.0655    0.0944    0.0376    0.0771   -0.0754    0.0785
          55   -0.0839   -0.0174   -0.0184    0.0878   -0.0184    0.0761    0.0316    0.1452
          56    0.0007    0.0022   -0.0293   -0.0006    0.0067   -0.0008   -0.0059   -0.0005
          57   -0.0056   -0.0051    0.0079    0.0008   -0.0022   -0.0008    0.0013    0.0020
          58    0.0984    0.0112    0.0014    0.0110    0.0028   -0.0071   -0.0028    0.0561
          59   -0.0025    0.0347    0.0116    0.0049   -0.0033   -0.0067    0.0015   -0.0026
          60   -0.0016   -0.0291   -0.0149   -0.0051   -0.0007    0.0040    0.0014    0.0040
          61    0.0096   -0.0059   -0.0584    0.0184   -0.0305   -0.0593   -0.0546    0.0104
          62   -0.0139   -0.0008    0.0052   -0.0019    0.0117    0.0118    0.0166    0.0059
          63   -0.0777    0.0196    0.0858   -0.0210    0.0667    0.1118    0.0851    0.0287


   Root No.      33        34        35        36        37        38        39        40

                33 A      34 A      35 A      36 A      37 A      38 A      39 A      40 A   

                1271.9    1284.4    1297.7    1308.1    1336.0    1348.3    1354.3    1376.1
  
           1    0.0006    0.0044    0.0045    0.0007    0.0009   -0.0036   -0.0045    0.0002
           2    0.0056   -0.0109    0.0308   -0.0060   -0.0230    0.0005    0.0247   -0.0074
           3   -0.0007   -0.0016   -0.0007   -0.0005   -0.0016   -0.0001    0.0010   -0.0006
           4   -0.0011   -0.0047    0.0002    0.0031    0.0017   -0.0024   -0.0047    0.0012
           5   -0.0023    0.0059   -0.0137   -0.0211   -0.0132   -0.0188   -0.0278    0.0035
           6    0.0004   -0.0016   -0.0003    0.0004   -0.0017   -0.0010   -0.0019   -0.0001
           7   -0.0105   -0.0316   -0.0438   -0.0205   -0.0211    0.0093    0.0099    0.0016
           8   -0.0087    0.0036   -0.0579    0.0179    0.0508    0.0073   -0.0476    0.0188
           9    0.0251    0.0250    0.0408   -0.0014    0.0155    0.0053   -0.0106    0.0069
          10    0.0019    0.0453   -0.0198   -0.0167    0.0109    0.0185    0.0154   -0.0024
          11   -0.0021   -0.0214    0.0116    0.0425    0.0345    0.0380    0.0528   -0.0029
          12   -0.0113    0.0342    0.0030   -0.0226    0.0242    0.0025    0.0213    0.0068
          13   -0.0115   -0.0115    0.0608    0.0324    0.0112   -0.0235   -0.0201    0.0009
          14    0.0038    0.0124    0.0118   -0.0114   -0.0129   -0.0067   -0.0015   -0.0018
          15   -0.0048   -0.0188   -0.0120    0.0064   -0.0076   -0.0020   -0.0009   -0.0028
          16    0.0056    0.0091    0.0002    0.0074    0.0025   -0.0091    0.0059   -0.0055
          17   -0.0104    0.0094   -0.0073    0.0097   -0.0132   -0.0150    0.0183   -0.0137
          18   -0.0220    0.0074   -0.0412    0.0208   -0.0070   -0.0284    0.0217   -0.0313
          19    0.0042   -0.0130    0.0025   -0.0001    0.0048   -0.0097    0.0047    0.0054
          20    0.0005    0.0034   -0.0004   -0.0028   -0.0106    0.0002   -0.0144   -0.0085
          21    0.0177    0.0033   -0.0066    0.0356   -0.0383    0.0228   -0.0352   -0.0269
          22   -0.0219    0.0160    0.0080    0.0120   -0.0203    0.0122    0.0006    0.0468
          23    0.0017   -0.0034    0.0065   -0.0048    0.0006    0.0007    0.0007    0.0016
          24   -0.0115    0.0060    0.0189   -0.0011   -0.0103    0.0146   -0.0067    0.0211
          25   -0.0245   -0.0064    0.0133   -0.0170    0.0046    0.0188   -0.0184   -0.0451
          26    0.0083    0.0029   -0.0074    0.0039    0.0034   -0.0092    0.0089    0.0085
          27    0.0109   -0.0028   -0.0078   -0.0018    0.0080   -0.0114    0.0142    0.0182
          28    0.0421    0.0566    0.0224   -0.0011    0.0231    0.0006   -0.0002   -0.0039
          29    0.0176    0.0085    0.0681   -0.0407   -0.0652   -0.0022    0.0540   -0.0165
          30   -0.0379   -0.0805   -0.0415   -0.0240   -0.0352    0.0151   -0.0016    0.0142
          31    0.0207   -0.0646   -0.0275    0.0114   -0.0266   -0.0108   -0.0093    0.0031
          32    0.0026    0.0288    0.0137   -0.0540   -0.0373   -0.0566   -0.0592    0.0072
          33    0.0111   -0.1020   -0.0054    0.0112   -0.0227   -0.0337   -0.0084    0.0134
          34    0.0624   -0.0306   -0.0420   -0.0067    0.0360   -0.0485    0.0141   -0.0854
          35   -0.0029   -0.0148    0.0095   -0.0176    0.0109    0.0246   -0.0229   -0.0021
          36    0.0268   -0.0394   -0.0062   -0.0332    0.0381    0.0199   -0.0372   -0.0576
          37    0.1134   -0.0355   -0.0013   -0.0320    0.0626   -0.0252   -0.0001   -0.0388
          38   -0.0072   -0.0229    0.0514   -0.0391    0.0177    0.0650   -0.0639   -0.0251
          39    0.0559   -0.0151    0.0025   -0.0148    0.0259   -0.0189    0.0087   -0.0133
          40    0.0394   -0.0016    0.0244   -0.0107    0.0449   -0.0070   -0.0244   -0.0677
          41    0.0031   -0.0360   -0.0076   -0.0264    0.0021    0.0461   -0.0322    0.0725
          42    0.0202   -0.0700   -0.0213   -0.0480    0.0391    0.0714   -0.0751    0.0716
          43    0.0458   -0.0173    0.0038   -0.0150    0.0559   -0.0031   -0.0315   -0.0522
          44    0.0528   -0.0427    0.0221   -0.0423    0.0445    0.0154   -0.0355   -0.0438
          45    0.0505   -0.0780    0.0769   -0.0889   -0.0362    0.0657   -0.0100    0.0621
          46    0.0708    0.0042   -0.0252    0.0169    0.0167   -0.0481    0.0510    0.0684
          47   -0.0209   -0.0022    0.0066   -0.0090    0.0012    0.0090   -0.0129   -0.0293
          48   -0.0226   -0.0252    0.0245   -0.0451    0.0373   -0.0230   -0.0026   -0.0619
          49    0.1077   -0.0101   -0.0637    0.0631   -0.0224   -0.0434    0.0170    0.0400
          50   -0.0375    0.0229    0.0197    0.0238   -0.0535    0.0598   -0.0363    0.0328
          51   -0.0359   -0.0100    0.0204   -0.0499    0.0444   -0.0091    0.0145   -0.0337
          52    0.0433   -0.0089   -0.0215    0.0400   -0.0293   -0.0204    0.0048    0.0527
          53    0.0141   -0.0431   -0.0032    0.0145    0.0027   -0.0402    0.0328    0.0757
          54   -0.0643   -0.1033    0.0533   -0.0496    0.0854   -0.0379    0.0623    0.0217
          55    0.0789    0.0140   -0.0857   -0.0496   -0.0358    0.0601    0.0313   -0.0051
          56    0.0145    0.0768    0.0401   -0.0059    0.0367    0.0021    0.0171   -0.0071
          57   -0.0036   -0.0146   -0.0111    0.0062   -0.0034   -0.0002    0.0004   -0.0019
          58    0.0276    0.0116   -0.0933   -0.0616   -0.0380    0.0807    0.1300   -0.0193
          59    0.0046    0.0208    0.0155   -0.0126   -0.0221   -0.0136    0.0029   -0.0121
          60   -0.0068   -0.0367   -0.0239    0.0126    0.0223    0.0192   -0.0075    0.0230
          61    0.0312   -0.0079   -0.0173    0.0130   -0.0414   -0.0370   -0.0134    0.0656
          62   -0.0111   -0.0018    0.0062   -0.0165    0.0102   -0.0018   -0.0014   -0.0158
          63   -0.0372   -0.0216    0.0080   -0.1044    0.0412   -0.0929    0.0250    0.0678


   Root No.      41        42        43        44        45        46        47        48

                41 A      42 A      43 A      44 A      45 A      46 A      47 A      48 A   

                1403.1    1405.8    1409.5    1411.9    1428.3    2910.5    2913.7    2919.8
  
           1   -0.0006   -0.0011    0.0000    0.0006    0.0004    0.0002   -0.0007   -0.0001
           2    0.0019    0.0014   -0.0014    0.0006   -0.0016    0.0007    0.0009    0.0002
           3    0.0004    0.0005   -0.0002   -0.0002   -0.0001   -0.0000   -0.0002   -0.0001
           4   -0.0006   -0.0000   -0.0005   -0.0003   -0.0002   -0.0005    0.0004    0.0001
           5   -0.0011   -0.0001   -0.0029   -0.0011   -0.0017   -0.0012   -0.0000    0.0001
           6   -0.0000    0.0000    0.0000   -0.0001   -0.0000    0.0002   -0.0001   -0.0000
           7    0.0024    0.0072   -0.0033   -0.0058   -0.0069   -0.0118   -0.0314   -0.0060
           8   -0.0058   -0.0027    0.0033   -0.0055   -0.0018   -0.0004   -0.0007   -0.0004
           9   -0.0013   -0.0025    0.0021    0.0013    0.0060   -0.0101   -0.0258   -0.0049
          10    0.0041   -0.0009    0.0078    0.0025    0.0054   -0.0400    0.0101    0.0027
          11    0.0020   -0.0000    0.0064   -0.0006   -0.0022    0.0001    0.0001   -0.0001
          12    0.0044   -0.0025    0.0015    0.0026    0.0046    0.0321   -0.0078   -0.0021
          13   -0.0011   -0.0028   -0.0006    0.0013    0.0009   -0.0006   -0.0003    0.0000
          14    0.0057    0.0017    0.0010    0.0137    0.0331   -0.0011    0.0029   -0.0066
          15   -0.0042   -0.0006   -0.0014   -0.0096   -0.0220   -0.0021    0.0041   -0.0043
          16   -0.0224   -0.0310    0.0110    0.0141    0.0031    0.0006    0.0019   -0.0008
          17   -0.0017   -0.0061    0.0001    0.0118   -0.0010   -0.0009   -0.0039    0.0043
          18    0.0069   -0.0025   -0.0037    0.0107   -0.0032    0.0001    0.0011   -0.0023
          19   -0.0166    0.0053   -0.0382   -0.0002    0.0045    0.0015   -0.0004   -0.0000
          20   -0.0057    0.0006   -0.0092   -0.0018    0.0032    0.0001    0.0001   -0.0005
          21   -0.0072    0.0088    0.0118   -0.0014    0.0005    0.0010   -0.0002   -0.0001
          22    0.0044    0.0334   -0.0117    0.0045   -0.0066   -0.0004    0.0033   -0.0148
          23   -0.0018   -0.0025    0.0062   -0.0350    0.0159   -0.0007    0.0054   -0.0233
          24   -0.0008    0.0153    0.0025   -0.0166    0.0034    0.0009   -0.0061    0.0284
          25    0.0070   -0.0222    0.0227   -0.0115    0.0044    0.0003   -0.0003    0.0007
          26   -0.0095    0.0194    0.0041    0.0095   -0.0033    0.0004   -0.0006    0.0016
          27    0.0124   -0.0238   -0.0259   -0.0006    0.0004   -0.0001   -0.0001    0.0002
          28   -0.0056   -0.0132    0.0054    0.0102    0.0115    0.1498    0.3759    0.0702
          29    0.0099    0.0082   -0.0048    0.0053    0.0068    0.0006    0.0008    0.0004
          30    0.0077    0.0213   -0.0082   -0.0179   -0.0165    0.1252    0.3158    0.0586
          31   -0.0083    0.0034   -0.0153   -0.0043   -0.0098    0.4831   -0.1155   -0.0311
          32   -0.0015   -0.0005   -0.0118    0.0038    0.0075    0.0067   -0.0019   -0.0004
          33   -0.0106    0.0028   -0.0265   -0.0060   -0.0144   -0.3943    0.0948    0.0251
          34   -0.0313   -0.0485    0.0384   -0.0886    0.0506    0.0033   -0.0229    0.1028
          35    0.0225    0.0037   -0.0285    0.1107   -0.0575    0.0107   -0.0774    0.3442
          36    0.0210   -0.0210   -0.0287    0.1722   -0.0913   -0.0055    0.0409   -0.1815
          37   -0.0038   -0.0549   -0.0088    0.0368   -0.0083    0.0019   -0.0159    0.0734
          38    0.0256    0.0041   -0.0264    0.1894   -0.0964   -0.0015    0.0133   -0.0589
          39   -0.0102   -0.0289    0.0099   -0.0517    0.0268   -0.0038    0.0343   -0.1539
          40    0.1383    0.1280   -0.0578   -0.0495   -0.0079    0.0016    0.0089   -0.0149
          41   -0.0726   -0.0577    0.0320    0.0077    0.0050    0.0032    0.0199   -0.0361
          42   -0.0147    0.0049    0.0079   -0.0314   -0.0001   -0.0022   -0.0142    0.0260
          43    0.0796    0.0643   -0.0288   -0.0406    0.0002   -0.0082   -0.0302    0.0218
          44    0.0959    0.0886   -0.0356   -0.0562   -0.0007    0.0062    0.0233   -0.0174
          45   -0.0680   -0.0587    0.0328   -0.0053    0.0092   -0.0026   -0.0082    0.0027
          46   -0.0550    0.0966    0.0067    0.0204   -0.0027   -0.0011    0.0022   -0.0078
          47   -0.0009   -0.0006    0.0188    0.0014   -0.0011   -0.0044    0.0068   -0.0215
          48   -0.0981    0.1567    0.1111    0.0239   -0.0029    0.0006   -0.0009    0.0029
          49    0.0019   -0.0149   -0.0560    0.0229   -0.0064   -0.0016    0.0013   -0.0023
          50    0.0969   -0.1514   -0.0875   -0.0460    0.0095   -0.0013    0.0007   -0.0002
          51   -0.0312    0.0469    0.0522    0.0048    0.0007   -0.0046    0.0028   -0.0026
          52    0.0545   -0.0020    0.0984    0.0143   -0.0304   -0.0147    0.0036    0.0029
          53    0.0936   -0.0245    0.1522    0.0142   -0.0428    0.0119   -0.0029   -0.0022
          54    0.0101   -0.0290   -0.0230   -0.0077   -0.0023   -0.0015    0.0004    0.0006
          55   -0.0000    0.0067    0.0022   -0.0029    0.0006   -0.0048   -0.0018   -0.0004
          56   -0.0355   -0.0166   -0.0105   -0.0891   -0.2292   -0.0004    0.0016   -0.0047
          57   -0.0052   -0.0012   -0.0014   -0.0121   -0.0269    0.0176   -0.0320    0.0183
          58    0.0064    0.0109   -0.0047    0.0023   -0.0069    0.0004    0.0003    0.0002
          59   -0.0126   -0.0051   -0.0056   -0.0330   -0.0900    0.0145   -0.0385    0.0836
          60    0.0365    0.0150    0.0143    0.0934    0.2596    0.0057   -0.0145    0.0295
          61    0.1055   -0.0290    0.1746    0.0158   -0.0497   -0.0027    0.0001    0.0025
          62   -0.0344    0.0072   -0.0645   -0.0056    0.0168   -0.0098    0.0011    0.0061
          63    0.0350   -0.0236    0.0186    0.0035   -0.0157    0.0040   -0.0009   -0.0007


   Root No.      49        50        51        52        53        54        55        56

                49 A      50 A      51 A      52 A      53 A      54 A      55 A      56 A   

                2950.6    2955.8    2958.0    2974.8    3015.6    3029.8    3033.6    3035.4
  
           1    0.0000   -0.0001   -0.0000    0.0001   -0.0000    0.0000   -0.0001   -0.0000
           2   -0.0000    0.0002    0.0000    0.0003   -0.0000    0.0000   -0.0000   -0.0000
           3   -0.0000    0.0003    0.0000   -0.0001    0.0000    0.0000    0.0001   -0.0000
           4   -0.0001   -0.0001    0.0001   -0.0001    0.0000    0.0000    0.0000    0.0000
           5   -0.0001    0.0000    0.0002    0.0003   -0.0000    0.0001   -0.0000   -0.0000
           6   -0.0001   -0.0000    0.0002   -0.0001    0.0000    0.0000   -0.0000   -0.0000
           7   -0.0000    0.0019    0.0002   -0.0017    0.0001    0.0000   -0.0011   -0.0001
           8    0.0000   -0.0002   -0.0000   -0.0004    0.0001    0.0000    0.0002   -0.0000
           9   -0.0000    0.0017    0.0002   -0.0013    0.0004   -0.0000   -0.0001   -0.0001
          10   -0.0004    0.0000   -0.0000    0.0016   -0.0002   -0.0009    0.0001    0.0008
          11    0.0001    0.0000   -0.0002   -0.0004    0.0000   -0.0002    0.0000    0.0001
          12    0.0004   -0.0000    0.0002   -0.0012    0.0002    0.0001   -0.0001   -0.0002
          13    0.0001    0.0002   -0.0001    0.0003   -0.0000    0.0001    0.0001   -0.0000
          14   -0.0004   -0.0021   -0.0000   -0.0313    0.0024    0.0002   -0.0006   -0.0003
          15   -0.0004   -0.0020    0.0001   -0.0325    0.0059   -0.0001   -0.0015   -0.0006
          16   -0.0005    0.0122    0.0010   -0.0008   -0.0063   -0.0003   -0.0312   -0.0002
          17    0.0020   -0.0402   -0.0031    0.0009   -0.0024    0.0002   -0.0040    0.0002
          18   -0.0008    0.0181    0.0015   -0.0003    0.0023    0.0000    0.0098   -0.0001
          19   -0.0057   -0.0013    0.0093   -0.0000   -0.0007   -0.0206    0.0004    0.0173
          20    0.0234    0.0044   -0.0295   -0.0010   -0.0000   -0.0070    0.0001    0.0036
          21   -0.0049   -0.0010    0.0066    0.0003   -0.0001   -0.0034    0.0000    0.0038
          22   -0.0007   -0.0023   -0.0010    0.0052    0.0092   -0.0008   -0.0031   -0.0010
          23    0.0002   -0.0025   -0.0001    0.0023   -0.0208    0.0015    0.0045    0.0009
          24    0.0017    0.0045    0.0017   -0.0102   -0.0202    0.0024    0.0056    0.0026
          25   -0.0133    0.0001   -0.0103   -0.0001   -0.0001    0.0014    0.0003    0.0034
          26   -0.0254    0.0004   -0.0184   -0.0005   -0.0041   -0.0111    0.0015   -0.0115
          27   -0.0146    0.0004   -0.0123    0.0002    0.0020    0.0142   -0.0005    0.0183
          28    0.0007   -0.0231   -0.0022    0.0206   -0.0020    0.0001    0.0093    0.0006
          29    0.0000   -0.0015   -0.0001    0.0008   -0.0002    0.0000    0.0002    0.0000
          30    0.0006   -0.0216   -0.0021    0.0150   -0.0004    0.0000    0.0104    0.0005
          31    0.0035   -0.0005    0.0003   -0.0192    0.0027    0.0076   -0.0010   -0.0070
          32    0.0008    0.0002   -0.0008    0.0004   -0.0002   -0.0006    0.0001    0.0004
          33   -0.0031    0.0002    0.0006    0.0132   -0.0019   -0.0088    0.0008    0.0076
          34   -0.0006    0.0146   -0.0003   -0.0160    0.0595   -0.0055   -0.0129   -0.0026
          35    0.0026    0.0413    0.0061   -0.0571    0.1660   -0.0105   -0.0338   -0.0033
          36   -0.0012   -0.0183   -0.0024    0.0296   -0.1081    0.0078    0.0236    0.0038
          37    0.0089    0.0167    0.0070   -0.0455   -0.1692    0.0183    0.0425    0.0171
          38   -0.0057   -0.0123   -0.0046    0.0287    0.0876   -0.0104   -0.0257   -0.0101
          39   -0.0214   -0.0336   -0.0174    0.0949    0.3502   -0.0360   -0.0959   -0.0332
          40   -0.0055    0.1278    0.0106   -0.0035    0.0253    0.0005    0.1022   -0.0001
          41   -0.0126    0.2760    0.0222   -0.0062    0.0687    0.0009    0.2908   -0.0008
          42    0.0084   -0.1778   -0.0141    0.0034   -0.0439   -0.0003   -0.1792    0.0008
          43    0.0153   -0.2713   -0.0193    0.0088    0.0469    0.0039    0.2797    0.0021
          44   -0.0113    0.2031    0.0146   -0.0069   -0.0447   -0.0030   -0.2408   -0.0015
          45    0.0026   -0.0410   -0.0027    0.0010    0.0089    0.0009    0.0597    0.0004
          46    0.0591   -0.0024    0.0426    0.0025    0.0148    0.0566   -0.0061    0.0655
          47    0.2375   -0.0029    0.1620    0.0072    0.0563    0.2003   -0.0207    0.2282
          48   -0.0354    0.0005   -0.0279   -0.0009   -0.0062   -0.0162    0.0022   -0.0165
          49    0.0974   -0.0035    0.0818   -0.0004   -0.0078   -0.0788    0.0023   -0.1024
          50    0.0682   -0.0019    0.0572   -0.0013   -0.0109   -0.0661    0.0030   -0.0875
          51    0.2086   -0.0065    0.1736   -0.0019   -0.0178   -0.1519    0.0047   -0.2095
          52    0.1343    0.0286   -0.1917   -0.0011    0.0047    0.1862   -0.0026   -0.1710
          53   -0.0852   -0.0183    0.1226    0.0002   -0.0040   -0.1441    0.0022    0.1280
          54    0.0441    0.0095   -0.0643   -0.0001    0.0022    0.0675   -0.0011   -0.0576
          55    0.0000    0.0002   -0.0001   -0.0014    0.0004    0.0000    0.0001   -0.0001
          56   -0.0006   -0.0016    0.0004   -0.0311    0.0053   -0.0001   -0.0011   -0.0004
          57    0.0046    0.0119   -0.0026    0.2327   -0.0601    0.0030    0.0131    0.0039
          58    0.0005    0.0003   -0.0006   -0.0020    0.0002   -0.0003   -0.0000    0.0002
          59    0.0055    0.0268   -0.0002    0.4072   -0.0335   -0.0023    0.0088    0.0042
          60    0.0025    0.0097   -0.0007    0.1539   -0.0114   -0.0012    0.0028    0.0015
          61   -0.0656   -0.0121    0.0815    0.0037    0.0016    0.0614   -0.0010   -0.0441
          62   -0.1959   -0.0351    0.2299    0.0105    0.0049    0.2299   -0.0035   -0.1731
          63    0.0125    0.0026   -0.0183   -0.0005   -0.0007   -0.0213    0.0004    0.0163


   Root No.      57

                57 A   

                3052.1
  
           1   -0.0001
           2   -0.0002
           3    0.0000
           4    0.0001
           5   -0.0002
           6    0.0000
           7   -0.0002
           8    0.0005
           9   -0.0010
          10    0.0002
          11    0.0005
          12   -0.0010
          13    0.0002
          14    0.0240
          15   -0.0335
          16   -0.0002
          17   -0.0003
          18    0.0002
          19    0.0003
          20   -0.0002
          21    0.0002
          22   -0.0000
          23   -0.0037
          24   -0.0002
          25   -0.0000
          26   -0.0002
          27   -0.0000
          28    0.0113
          29    0.0017
          30    0.0071
          31   -0.0113
          32    0.0015
          33    0.0068
          34    0.0131
          35    0.0402
          36   -0.0242
          37   -0.0131
          38    0.0056
          39    0.0271
          40    0.0009
          41    0.0021
          42   -0.0010
          43   -0.0008
          44    0.0002
          45   -0.0003
          46    0.0002
          47    0.0015
          48   -0.0003
          49    0.0006
          50    0.0001
          51    0.0011
          52   -0.0019
          53    0.0015
          54   -0.0005
          55   -0.0033
          56   -0.0242
          57    0.5351
          58    0.0015
          59   -0.2700
          60   -0.1301
          61    0.0004
          62    0.0010
          63   -0.0003


           MASS-WEIGHTED COORDINATE ANALYSIS (NORMAL COORDINATES)


   Root No.       1         2         3         4         5         6         7         8

                 1 A       2 A       3 A       4 A       5 A       6 A       7 A       8 A   

                 119.1     190.8     312.4     355.0     359.5     407.2     452.1     519.7
  
           1    0.1834   -0.0591   -0.0504    0.0424    0.0353   -0.1078   -0.2139    0.1371
           2   -0.0406    0.0555    0.0362    0.0398   -0.1666    0.1879   -0.1443   -0.1449
[...]
 TRAVEL      0.0824         O  2 -- C  4         +10.4% ( 46.3%)     62.5%
 RED. MASS   0.9479         C  4 -- H 11          +8.3% ( 41.3%)      0.1%
 EFF. MASS   7.5956

 VIBRATION   37   37A         ATOM PAIR      ENERGY CONTRIBUTION    RADIAL
 FREQ.      1336.02         O  1 -- C  3         +12.2% ( 51.1%)     95.5%
 T-DIPOLE    0.5597         C  3 -- H 10         +10.2% ( 46.7%)      0.3%
 TRAVEL      0.0776         C  4 -- C  7         +10.2% ( 46.6%)     86.5%
 RED. MASS   1.2703         C  3 -- C  5          +9.2% ( 44.3%)      0.0%
 EFF. MASS   8.3734

 VIBRATION   38   38A         ATOM PAIR      ENERGY CONTRIBUTION    RADIAL
 FREQ.      1348.31         O  2 -- C  4         +10.4% ( 43.6%)     99.5%
 T-DIPOLE    0.2836         C  4 -- C  5          +8.4% ( 39.4%)      2.6%
 TRAVEL      0.0868         C  4 -- H 11          +8.3% ( 39.1%)      2.5%
 RED. MASS   0.6662         C  4 -- C  7          +7.8% ( 37.9%)      0.1%
 EFF. MASS   6.6366

 VIBRATION   39   39A         ATOM PAIR      ENERGY CONTRIBUTION    RADIAL
 FREQ.      1354.26         O  2 -- C  4         +11.8% ( 50.1%)     93.5%
 T-DIPOLE    0.3475         C  4 -- C  7         +11.5% ( 49.4%)     70.8%
 TRAVEL      0.0744         O  1 -- C  3          +8.6% ( 42.8%)     96.8%
 RED. MASS   1.2122         C  4 -- H 11          +8.3% ( 42.0%)      0.0%
 EFF. MASS   8.9946

 VIBRATION   40   40A         ATOM PAIR      ENERGY CONTRIBUTION    RADIAL
 FREQ.      1376.06         C  8 -- C  9         +15.1% ( 53.9%)     74.4%
 T-DIPOLE    0.1470         C  6 -- C  8         +11.1% ( 46.3%)     90.9%
 TRAVEL      0.0843         C  8 -- H 12         +10.2% ( 44.3%)      0.1%
 RED. MASS   1.0289         C  7 -- C  9          +9.4% ( 42.6%)     89.5%
 EFF. MASS   6.8902

 VIBRATION   41   41A         ATOM PAIR      ENERGY CONTRIBUTION    RADIAL
 FREQ.      1403.14         C  6 -- H 14         +19.9% ( 43.6%)      3.2%
 T-DIPOLE    0.1174         C  6 -- H 15         +15.8% ( 38.9%)      5.8%
 TRAVEL      0.1453         C  7 -- H 21         +11.3% ( 32.8%)      3.6%
 RED. MASS   0.1894         C  9 -- H 16         +10.3% ( 31.4%)      3.2%
 EFF. MASS   2.2774

 VIBRATION   42   42A         ATOM PAIR      ENERGY CONTRIBUTION    RADIAL
 FREQ.      1405.79         C  9 -- H 16         +17.7% ( 48.9%)      3.1%
 T-DIPOLE    0.1258         C  9 -- H 17         +13.2% ( 42.2%)      7.7%
 TRAVEL      0.1073         C  8 -- C  9         +12.7% ( 41.4%)     81.4%
 RED. MASS   0.4643         C  6 -- H 14         +10.9% ( 38.3%)      3.7%
 EFF. MASS   4.1642         C  6 -- C  8         +10.6% ( 37.8%)     69.1%

 VIBRATION   43   43A         ATOM PAIR      ENERGY CONTRIBUTION    RADIAL
 FREQ.      1409.47         C  7 -- H 21         +20.6% ( 50.8%)      4.8%
 T-DIPOLE    0.0947         C  7 -- H 18         +19.5% ( 49.3%)      5.2%
 TRAVEL      0.1133         C  7 -- C  9         +15.2% ( 43.5%)     92.9%
 RED. MASS   0.4658         C  9 -- H 17         +10.2% ( 35.7%)      2.8%
 EFF. MASS   3.7263

 VIBRATION   44   44A         ATOM PAIR      ENERGY CONTRIBUTION    RADIAL
 FREQ.      1411.86         C  8 -- H 12         +29.3% ( 56.9%)      3.8%
 T-DIPOLE    0.1174         C  8 -- H 13         +22.4% ( 49.8%)      6.3%
 TRAVEL      0.1268         C  6 -- C  8         +10.1% ( 33.4%)     63.7%
 RED. MASS   0.3852         C  8 -- C  9          +8.4% ( 30.5%)     47.9%
 EFF. MASS   2.9710

 VIBRATION   45   45A         ATOM PAIR      ENERGY CONTRIBUTION    RADIAL
 FREQ.      1428.34         C  5 -- H 20         +38.7% ( 61.3%)      2.9%
 T-DIPOLE    0.1168         C  5 -- H 19         +26.7% ( 50.9%)      4.9%
 TRAVEL      0.1438         C  3 -- C  5          +7.5% ( 27.0%)     55.9%
 RED. MASS   0.3902         C  4 -- C  5          +7.3% ( 26.5%)     49.8%
 EFF. MASS   2.2825

 VIBRATION   46   46A         ATOM PAIR      ENERGY CONTRIBUTION    RADIAL
 FREQ.      2910.50         C  4 -- H 11         +87.8% ( 95.3%)    100.0%
 T-DIPOLE    0.1900         C  3 -- H 10          +8.6% ( 29.8%)    100.0%
 TRAVEL      0.1268         C  4 -- C  5          +1.0% ( 10.1%)     14.3%
 RED. MASS   0.7741         C  4 -- C  7          +1.0% ( 10.1%)      9.2%
 EFF. MASS   1.4408

 VIBRATION   47   47A         ATOM PAIR      ENERGY CONTRIBUTION    RADIAL
 FREQ.      2913.68         C  3 -- H 10         +83.4% ( 93.0%)    100.0%
 T-DIPOLE    0.1230         C  4 -- H 11          +7.8% ( 28.4%)    100.0%
 TRAVEL      0.1259         C  8 -- H 12          +2.9% ( 17.4%)     99.2%
 RED. MASS   0.7034         C  3 -- C  5          +1.0% ( 10.0%)     14.5%
 EFF. MASS   1.4598

 VIBRATION   48   48A         ATOM PAIR      ENERGY CONTRIBUTION    RADIAL
 FREQ.      2919.84         C  8 -- H 12         +71.3% ( 87.2%)     99.1%
 T-DIPOLE    0.0501         C  8 -- H 13         +16.7% ( 42.2%)     88.6%
 TRAVEL      0.1235         C  3 -- H 10          +3.6% ( 19.5%)    100.0%
 RED. MASS   0.5675         C  5 -- H 20          +3.5% ( 19.5%)    100.0%
 EFF. MASS   1.5140

 VIBRATION   49   49A         ATOM PAIR      ENERGY CONTRIBUTION    RADIAL
 FREQ.      2950.59         C  9 -- H 16         +31.3% ( 58.3%)     96.6%
 T-DIPOLE    0.0566         C  9 -- H 17         +29.6% ( 56.6%)     96.2%
 TRAVEL      0.1213         C  7 -- H 21         +21.7% ( 48.5%)     97.4%
 RED. MASS   0.2763         C  7 -- H 18         +14.2% ( 39.3%)     95.0%
 EFF. MASS   1.5537

 VIBRATION   50   50A         ATOM PAIR      ENERGY CONTRIBUTION    RADIAL
 FREQ.      2955.75         C  6 -- H 14         +48.6% ( 72.3%)     96.7%
 T-DIPOLE    0.1065         C  6 -- H 15         +45.8% ( 70.3%)     96.3%
 TRAVEL      0.1215         C  6 -- C  8          +1.1% ( 11.1%)      0.0%
 RED. MASS   0.4854         C  3 -- C  6          +1.1% ( 11.1%)      0.0%
 EFF. MASS   1.5463

 VIBRATION   51   51A         ATOM PAIR      ENERGY CONTRIBUTION    RADIAL
 FREQ.      2957.97         C  7 -- H 21         +31.2% ( 57.9%)     96.8%
 T-DIPOLE    0.0971         C  7 -- H 18         +29.4% ( 56.3%)     96.4%
 TRAVEL      0.1215         C  9 -- H 17         +20.8% ( 47.3%)     97.3%
 RED. MASS   0.2726         C  9 -- H 16         +15.3% ( 40.5%)     95.6%
 EFF. MASS   1.5445

 VIBRATION   52   52A         ATOM PAIR      ENERGY CONTRIBUTION    RADIAL
 FREQ.      2974.79         C  5 -- H 20         +68.8% ( 85.6%)     99.0%
 T-DIPOLE    0.2055         C  5 -- H 19         +22.3% ( 48.8%)     91.2%
 TRAVEL      0.1217         C  8 -- H 13          +4.3% ( 21.5%)     98.4%
 RED. MASS   0.5592         C  8 -- H 12          +1.6% ( 13.3%)     91.6%
 EFF. MASS   1.5307

 VIBRATION   53   53A         ATOM PAIR      ENERGY CONTRIBUTION    RADIAL
 FREQ.      3015.56         C  8 -- H 13         +71.6% ( 83.9%)     99.6%
 T-DIPOLE    0.0431         C  8 -- H 12         +17.8% ( 41.8%)     88.0%
 TRAVEL      0.1307         C  6 -- H 14          +3.2% ( 17.9%)     98.6%
 RED. MASS   0.5247         C  6 -- H 15          +1.9% ( 13.6%)     95.9%
 EFF. MASS   1.3082

 VIBRATION   54   54A         ATOM PAIR      ENERGY CONTRIBUTION    RADIAL
 FREQ.      3029.85         C  7 -- H 18         +30.3% ( 54.2%)     97.9%
 T-DIPOLE    0.0940         C  7 -- H 21         +28.6% ( 52.7%)     97.4%
 TRAVEL      0.1322         C  9 -- H 16         +22.0% ( 46.3%)     98.2%
 RED. MASS   0.2481         C  9 -- H 17         +16.9% ( 40.5%)     96.9%
 EFF. MASS   1.2736

 VIBRATION   55   55A         ATOM PAIR      ENERGY CONTRIBUTION    RADIAL
 FREQ.      3033.63         C  6 -- H 15         +49.2% ( 69.0%)     98.0%
 T-DIPOLE    0.1107         C  6 -- H 14         +44.5% ( 65.7%)     97.3%
 TRAVEL      0.1321         C  8 -- H 13          +4.2% ( 20.2%)     99.8%
 RED. MASS   0.4377         C  8 -- H 12          +0.6% (  7.7%)     81.0%
 EFF. MASS   1.2737

 VIBRATION   56   56A         ATOM PAIR      ENERGY CONTRIBUTION    RADIAL
 FREQ.      3035.44         C  9 -- H 17         +30.4% ( 54.3%)     97.9%
 T-DIPOLE    0.0957         C  9 -- H 16         +27.7% ( 51.8%)     97.5%
 TRAVEL      0.1321         C  7 -- H 18         +24.2% ( 48.4%)     98.6%
 RED. MASS   0.2499         C  7 -- H 21         +15.6% ( 38.9%)     96.2%
 EFF. MASS   1.2726

 VIBRATION   57   57A         ATOM PAIR      ENERGY CONTRIBUTION    RADIAL
 FREQ.      3052.14         C  5 -- H 19         +75.5% ( 86.1%)     99.3%
 T-DIPOLE    0.1474         C  5 -- H 20         +22.2% ( 46.7%)     89.3%
 TRAVEL      0.1303         C  3 -- C  5          +0.7% (  8.2%)     34.5%
 RED. MASS   0.5976         C  4 -- C  5          +0.7% (  8.2%)     34.4%
 EFF. MASS   1.3007

      SYMMETRY NUMBER FOR POINT-GROUP C1  =  1


          SYSTEM IS A GROUND STATE



 InChI=1S/C7H12O2/c1-2-4-7-5-6(3-1)8-9-7/h6-7H,1-5H2


          MOLECULE IS NOT LINEAR

          THERE ARE 57 GENUINE VIBRATIONS IN THIS SYSTEM
          THIS THERMODYNAMICS CALCULATION IS LIMITED TO
          MOLECULES WHICH HAVE NO INTERNAL ROTATIONS




                    CALCULATED THERMODYNAMIC PROPERTIES
                                          *
   TEMP. (K)   PARTITION FUNCTION   H.O.F.    ENTHALPY  HEAT CAPACITY ENTROPY
                                   KCAL/MOL   CAL/MOLE    CAL/K/MOL  CAL/K/MOL


 298.00  VIB.     0.1428D+02                  2785.7233    24.6027    14.6316
         ROT.     0.3510D+06                   888.2813     2.9808    28.3547
         INT.     0.5012D+07                  3674.0046    27.5836    42.9863
         TRA.     0.1403D+28                  1480.4688     4.9680    40.4556
         TOT.                      -38.486    5154.4734    32.5516    83.4419

 200.00  VIB.     0.3605D+01                   969.9512    12.8867     7.3981
         ROT.     0.1930D+06                   596.1620     2.9808    27.1660
         INT.     0.6958D+06                  1566.1132    15.8675    34.5641
         TRA.     0.7713D+27                   993.6033     4.9680    38.4745
         TOT.                      -41.080    2559.7164    20.8355    73.0386

 210.00  VIB.     0.4081D+01                  1104.0747    13.9445     8.0523
         ROT.     0.2077D+06                   625.9700     2.9808    27.3114
         INT.     0.8475D+06                  1730.0448    16.9253    35.3637
         TRA.     0.8299D+27                  1043.2834     4.9680    38.7168
         TOT.                      -40.867    2773.3282    21.8933    74.0806

 220.00  VIB.     0.4638D+01                  1248.9699    15.0408     8.7262
         ROT.     0.2227D+06                   655.7781     2.9808    27.4501
         INT.     0.1033D+07                  1904.7480    18.0216    36.1763
         TRA.     0.8899D+27                  1092.9636     4.9680    38.9480
         TOT.                      -40.642    2997.7116    22.9896    75.1242

 230.00  VIB.     0.5291D+01                  1405.0135    16.1739     9.4196
         ROT.     0.2380D+06                   685.5862     2.9808    27.5826
         INT.     0.1259D+07                  2090.5997    19.1547    37.0022
         TRA.     0.9512D+27                  1142.6437     4.9680    39.1688
         TOT.                      -40.407    3233.2435    24.1227    76.1710

 240.00  VIB.     0.6059D+01                  1572.5612    17.3412    10.1325
         ROT.     0.2537D+06                   715.3943     2.9808    27.7095
         INT.     0.1537D+07                  2287.9556    20.3220    37.8420
         TRA.     0.1014D+28                  1192.3239     4.9680    39.3802
         TOT.                      -40.160    3480.2795    25.2900    77.2222

 250.00  VIB.     0.6965D+01                  1751.9402    18.5395    10.8646
         ROT.     0.2697D+06                   745.2024     2.9808    27.8312
         INT.     0.1879D+07                  2497.1427    21.5204    38.6958
         TRA.     0.1078D+28                  1242.0041     4.9680    39.5830
         TOT.                      -39.901    3739.1467    26.4884    78.2788

 260.00  VIB.     0.8034D+01                  1943.4436    19.7654    11.6155
         ROT.     0.2861D+06                   775.0105     2.9808    27.9481
         INT.     0.2298D+07                  2718.4542    22.7462    39.5636
         TRA.     0.1143D+28                  1291.6842     4.9680    39.7779
         TOT.                      -39.630    4010.1384    27.7142    79.3415

 270.00  VIB.     0.9301D+01                  2147.3264    21.0147    12.3849
         ROT.     0.3027D+06                   804.8186     2.9808    28.0606
         INT.     0.2816D+07                  2952.1451    23.9956    40.4454
         TRA.     0.1210D+28                  1341.3644     4.9680    39.9654
         TOT.                      -39.347    4293.5094    28.9636    80.4108

 280.00  VIB.     0.1081D+02                  2363.8031    22.2835    13.1720
         ROT.     0.3197D+06                   834.6267     2.9808    28.1690
         INT.     0.3455D+07                  3198.4299    25.2643    41.3410
         TRA.     0.1278D+28                  1391.0445     4.9680    40.1461
         TOT.                      -39.051    4589.4744    30.2323    81.4870

 290.00  VIB.     0.1260D+02                  2593.0467    23.5674    13.9763
         ROT.     0.3370D+06                   864.4348     2.9808    28.2736
         INT.     0.4246D+07                  3457.4815    26.5482    42.2499
         TRA.     0.1347D+28                  1440.7247     4.9680    40.3204
         TOT.                      -38.742    4898.2062    31.5162    82.5703

 300.00  VIB.     0.1474D+02                  2835.1884    24.8624    14.7971
         ROT.     0.3546D+06                   894.2429     2.9808    28.3746
         INT.     0.5226D+07                  3729.4313    27.8432    43.1717
         TRA.     0.1417D+28                  1490.4049     4.9680    40.4888
         TOT.                      -38.420    5219.8362    32.8113    83.6605

 310.00  VIB.     0.1730D+02                  3090.3191    26.1646    15.6335
         ROT.     0.3724D+06                   924.0510     2.9808    28.4724
         INT.     0.6443D+07                  4014.3701    29.1454    44.1059
         TRA.     0.1488D+28                  1540.0850     4.9680    40.6517
         TOT.                      -38.086    5554.4552    34.1134    84.7576

 320.00  VIB.     0.2037D+02                  3358.4907    27.4700    16.4848
         ROT.     0.3906D+06                   953.8591     2.9808    28.5670
         INT.     0.7957D+07                  4312.3498    30.4508    45.0518
         TRA.     0.1561D+28                  1589.7652     4.9680    40.8094
         TOT.                      -37.738    5902.1150    35.4188    85.8613

 330.00  VIB.     0.2406D+02                  3639.7186    28.7753    17.3501
         ROT.     0.4091D+06                   983.6672     2.9808    28.6587
         INT.     0.9843D+07                  4623.3859    31.7561    46.0088
         TRA.     0.1635D+28                  1639.4454     4.9680    40.9623
         TOT.                      -37.377    6262.8312    36.7241    86.9712

 340.00  VIB.     0.2851D+02                  3933.9843    30.0770    18.2285
         ROT.     0.4278D+06                  1013.4753     2.9808    28.7477
         INT.     0.1220D+08                  4947.4596    33.0578    46.9762
         TRA.     0.1710D+28                  1689.1255     4.9680    41.1106
         TOT.                      -37.004    6636.5851    38.0259    88.0868

 350.00  VIB.     0.3389D+02                  4241.2380    31.3724    19.1191
         ROT.     0.4468D+06                  1043.2834     2.9808    28.8341
         INT.     0.1514D+08                  5284.5214    34.3532    47.9532
         TRA.     0.1786D+28                  1738.8057     4.9680    41.2546
         TOT.                      -36.617    7023.3271    39.3212    89.2078

 360.00  VIB.     0.4040D+02                  4561.4023    32.6587    20.0209
         ROT.     0.4661D+06                  1073.0915     2.9808    28.9181
         INT.     0.1883D+08                  5634.4938    35.6395    48.9390
         TRA.     0.1863D+28                  1788.4859     4.9680    41.3946
         TOT.                      -36.217    7422.9796    40.6076    90.3336

 370.00  VIB.     0.4830D+02                  4894.3745    33.9336    20.9331
         ROT.     0.4856D+06                  1102.8996     2.9808    28.9998
         INT.     0.2345D+08                  5997.2741    36.9144    49.9329
         TRA.     0.1941D+28                  1838.1660     4.9680    41.5307
         TOT.                      -35.805    7835.4401    41.8825    91.4636

 380.00  VIB.     0.5789D+02                  5240.0301    35.1951    21.8549
         ROT.     0.5055D+06                  1132.7077     2.9808    29.0792
         INT.     0.2926D+08                  6372.7378    38.1759    50.9341
         TRA.     0.2020D+28                  1887.8462     4.9680    41.6632
         TOT.                      -35.380    8260.5840    43.1439    92.5973

 390.00  VIB.     0.6958D+02                  5598.2257    36.4413    22.7852
         ROT.     0.5255D+06                  1162.5158     2.9808    29.1567
         INT.     0.3657D+08                  6760.7415    39.4222    51.9419
         TRA.     0.2100D+28                  1937.5263     4.9680    41.7923
         TOT.                      -34.942    8698.2678    44.3902    93.7341

 400.00  VIB.     0.8385D+02                  5968.8013    37.6709    23.7234
         ROT.     0.5459D+06                  1192.3239     2.9808    29.2321
         INT.     0.4577D+08                  7161.1252    40.6517    52.9555
         TRA.     0.2182D+28                  1987.2065     4.9680    41.9180
         TOT.                      -34.492    9148.3317    45.6197    94.8735

   *: NOTE: HEATS OF FORMATION ARE RELATIVE TO THE
            ELEMENTS IN THEIR STANDARD STATE AT 298K
              (=  Standard Enthalpy of Formation).

            Hvib:  Zero-point energy is not included.
                   frequencies of less than zero cm-1 are not included.
            Hrot = (3/2)RT
            Htra = (3/2)RT + pV = (5/2)RT

            Heat capacity is Cp, not Cv

          For more information, see: HTTP://OpenMOPAC.net/Manual/thermochemistry.html


           FORCE CONSTANT IN CARTESIAN COORDINATES (Millidynes/A)

    ATOM   CHEMICAL       X               Y               Z
   NUMBER   SYMBOL  FORCE CONSTANT  FORCE CONSTANT  FORCE CONSTANT

      1       O        3.934913        7.167426        0.702931
      2       O        3.909092        7.245045        0.715955
      3       C        9.280284        8.143041        7.540313
      4       C        9.261564        8.204590        7.600121
      5       C        6.726955        9.106288        8.728569
      6       C        8.302124        8.414920        7.656530
      7       C        8.327743        8.408056        7.755901
      8       C        8.145034        8.026731        8.430111
      9       C        8.130073        8.243263        8.297506
     10       H        3.053194        0.619016        2.359143
     11       H        3.105553        0.617410        2.309907
     12       H        1.053177        3.650436        1.611072
     13       H        1.488299        0.926828        3.976116
     14       H        1.158405        3.440722        1.837295
     15       H        3.235377        2.343305        0.800017
     16       H        1.034525        4.630525        0.755027
     17       H        1.457660        1.109858        3.809443
     18       H        3.357736        2.000162        1.059338
     19       H        0.718702        0.715046        5.075859
     20       H        0.716640        4.387914        1.377798
     21       H        1.082790        4.554458        0.759188

 **********************
 *                    *
 * JOB ENDED NORMALLY *
 *                    *
 **********************



 TOTAL JOB TIME:             1.86 SECONDS

 == MOPAC DONE ==
