 *******************************************************************************
 ** Site#: 14399        For non-commercial use only    Version 18.184L 64BITS **
 *******************************************************************************
 ** Cite this program as: MOPAC2016, Version: 18.184L, James J. P. Stewart,   **
 ** Stewart Computational Chemistry, web: HTTP://OpenMOPAC.net. Days left:  18**
 *******************************************************************************
 **                                                                           **
 **                                MOPAC2016                                  **
 **                                                                           **
 *******************************************************************************

                              PM3 CALCULATION RESULTS

 *******************************************************************************
 *  CALCULATION DONE:                                Sat Jun 15 10:32:03 2019  *
 *  PM3        - The PM3 Hamiltonian to be used
 *  PRECISE    - CRITERIA TO BE INCREASED BY 100 TIMES
 *  NOSYM      - POINT-GROUP SYMMETRY SET TO C1
 *  THREADS=1  - MULTI-THREADING NOT USED
 *  T=         - A TIME OF 172800.0 SECONDS REQUESTED
 *  DUMP=N     - RESTART FILE WRITTEN EVERY  7200.000 SECONDS
 *******************************************************************************
pm3  precise nosym THREADS=1
 InChI=1S/C7H12/c1-2-6(1)5-7-3-4-7/h6-7H,1-5H2

   ATOM   CHEMICAL          X               Y               Z
  NUMBER   SYMBOL      (ANGSTROMS)     (ANGSTROMS)     (ANGSTROMS)
 
     1       C          1.21320000  *  -0.01090000  *   0.70480000  *
     2       C         -1.28060000  *   0.16050000  *   0.55050000  *
     3       C          0.04610000  *   0.83090000  *   0.17790000  *
     4       C          2.55040000  *   0.25220000  *   0.02950000  *
     5       C          1.78630000  *  -1.02870000  *  -0.26980000  *
     6       C         -2.47640000  *   0.59740000  *  -0.28170000  *
     7       C         -1.86300000  *  -0.77810000  *  -0.49550000  *
     8       H          1.27530000  *  -0.27590000  *   1.78220000  *
     9       H         -1.51010000  *  -0.08430000  *   1.60990000  *
    10       H          2.54530000  *   0.98530000  *  -0.80560000  *
    11       H          3.43500000  *   0.10370000  *   0.68410000  *
    12       H          1.32840000  *  -1.05420000  *  -1.28170000  *
    13       H          2.21670000  *  -1.93250000  *   0.21060000  *
    14       H         -2.26910000  *   1.31570000  *  -1.10380000  *
    15       H         -3.44670000  *   0.57640000  *   0.25810000  *
    16       H          0.12580000  *   1.00370000  *  -0.91970000  *
    17       H         -1.29200000  *  -0.87450000  *  -1.44360000  *
    18       H          0.08370000  *   1.82400000  *   0.67280000  *
    19       H         -2.46820000  *  -1.61070000  *  -0.07900000  *
 


          CARTESIAN COORDINATES 

    NO.       ATOM           X           Y           Z

     1         C          1.2132     -0.0109      0.7048
     2         C         -1.2806      0.1605      0.5505
     3         C          0.0461      0.8309      0.1779
     4         C          2.5504      0.2522      0.0295
     5         C          1.7863     -1.0287     -0.2698
     6         C         -2.4764      0.5974     -0.2817
     7         C         -1.8630     -0.7781     -0.4955
     8         H          1.2753     -0.2759      1.7822
     9         H         -1.5101     -0.0843      1.6099
    10         H          2.5453      0.9853     -0.8056
    11         H          3.4350      0.1037      0.6841
    12         H          1.3284     -1.0542     -1.2817
    13         H          2.2167     -1.9325      0.2106
    14         H         -2.2691      1.3157     -1.1038
    15         H         -3.4467      0.5764      0.2581
    16         H          0.1258      1.0037     -0.9197
    17         H         -1.2920     -0.8745     -1.4436
    18         H          0.0837      1.8240      0.6728
    19         H         -2.4682     -1.6107     -0.0790

  H: (PM3): J. J. P. STEWART, J. COMP. CHEM. 10, 209 (1989).
  C: (PM3): J. J. P. STEWART, J. COMP. CHEM. 10, 209 (1989).

           Empirical Formula: C7 H12  =    19 atoms



      MOLECULAR POINT GROUP   :   C1  


      RHF CALCULATION, NO. OF DOUBLY OCCUPIED LEVELS = 20


          Geometry optimization using EF

          DIAGONAL MATRIX USED AS START HESSIAN

 CYCLE:     1 TIME:   0.004 TIME LEFT:  2.00D  GRAD.:   105.665 HEAT:  44.16189
 CYCLE:     2 TIME:   0.004 TIME LEFT:  2.00D  GRAD.:   109.402 HEAT:  40.48008
 CYCLE:     3 TIME:   0.004 TIME LEFT:  2.00D  GRAD.:    53.113 HEAT:  35.99159
 CYCLE:     4 TIME:   0.008 TIME LEFT:  2.00D  GRAD.:    53.775 HEAT:  34.26989
 CYCLE:     5 TIME:   0.004 TIME LEFT:  2.00D  GRAD.:    42.990 HEAT:  32.18459
 CYCLE:     6 TIME:   0.004 TIME LEFT:  2.00D  GRAD.:    63.007 HEAT:  32.02204
 CYCLE:     7 TIME:   0.008 TIME LEFT:  2.00D  GRAD.:    30.551 HEAT:  31.20070
 CYCLE:     8 TIME:   0.008 TIME LEFT:  2.00D  GRAD.:    22.173 HEAT:  31.03503
 CYCLE:     9 TIME:   0.000 TIME LEFT:  2.00D  GRAD.:    16.152 HEAT:  30.88319
 CYCLE:    10 TIME:   0.008 TIME LEFT:  2.00D  GRAD.:    12.985 HEAT:  30.82018
 CYCLE:    11 TIME:   0.004 TIME LEFT:  2.00D  GRAD.:     9.376 HEAT:  30.75238
 CYCLE:    12 TIME:   0.008 TIME LEFT:  2.00D  GRAD.:     9.403 HEAT:  30.72518
 CYCLE:    13 TIME:   0.004 TIME LEFT:  2.00D  GRAD.:     7.191 HEAT:  30.68813
 CYCLE:    14 TIME:   0.000 TIME LEFT:  2.00D  GRAD.:    11.688 HEAT:  30.67776
 CYCLE:    15 TIME:   0.004 TIME LEFT:  2.00D  GRAD.:    11.302 HEAT:  30.65634
 CYCLE:    16 TIME:   0.004 TIME LEFT:  2.00D  GRAD.:    13.093 HEAT:  30.65029
 CYCLE:    17 TIME:   0.004 TIME LEFT:  2.00D  GRAD.:    13.913 HEAT:  30.64377
 CYCLE:    18 TIME:   0.004 TIME LEFT:  2.00D  GRAD.:     9.019 HEAT:  30.60645
 CYCLE:    19 TIME:   0.004 TIME LEFT:  2.00D  GRAD.:     6.000 HEAT:  30.58683
 CYCLE:    20 TIME:   0.004 TIME LEFT:  2.00D  GRAD.:     5.326 HEAT:  30.57321
 CYCLE:    21 TIME:   0.004 TIME LEFT:  2.00D  GRAD.:     2.966 HEAT:  30.55715
 CYCLE:    22 TIME:   0.004 TIME LEFT:  2.00D  GRAD.:     3.298 HEAT:  30.54641
 CYCLE:    23 TIME:   0.004 TIME LEFT:  2.00D  GRAD.:     2.445 HEAT:  30.53491
 CYCLE:    24 TIME:   0.004 TIME LEFT:  2.00D  GRAD.:     2.779 HEAT:  30.53076
 CYCLE:    25 TIME:   0.004 TIME LEFT:  2.00D  GRAD.:     3.582 HEAT:  30.52910
 CYCLE:    26 TIME:   0.004 TIME LEFT:  2.00D  GRAD.:     2.361 HEAT:  30.52332
 CYCLE:    27 TIME:   0.004 TIME LEFT:  2.00D  GRAD.:     1.790 HEAT:  30.51788
 CYCLE:    28 TIME:   0.004 TIME LEFT:  2.00D  GRAD.:     2.039 HEAT:  30.51015
 CYCLE:    29 TIME:   0.000 TIME LEFT:  2.00D  GRAD.:     1.799 HEAT:  30.50161
 CYCLE:    30 TIME:   0.004 TIME LEFT:  2.00D  GRAD.:     1.473 HEAT:  30.49761
 CYCLE:    31 TIME:   0.004 TIME LEFT:  2.00D  GRAD.:     1.912 HEAT:  30.48946
 CYCLE:    32 TIME:   0.004 TIME LEFT:  2.00D  GRAD.:     1.489 HEAT:  30.48387
 CYCLE:    33 TIME:   0.004 TIME LEFT:  2.00D  GRAD.:     1.087 HEAT:  30.48201
 CYCLE:    34 TIME:   0.004 TIME LEFT:  2.00D  GRAD.:     0.963 HEAT:  30.48116
 CYCLE:    35 TIME:   0.004 TIME LEFT:  2.00D  GRAD.:     0.797 HEAT:  30.48018
 CYCLE:    36 TIME:   0.004 TIME LEFT:  2.00D  GRAD.:     0.731 HEAT:  30.47860
 CYCLE:    37 TIME:   0.004 TIME LEFT:  2.00D  GRAD.:     0.501 HEAT:  30.47798
 CYCLE:    38 TIME:   0.004 TIME LEFT:  2.00D  GRAD.:     0.294 HEAT:  30.47770
 CYCLE:    39 TIME:   0.000 TIME LEFT:  2.00D  GRAD.:     0.211 HEAT:  30.47757
 CYCLE:    40 TIME:   0.004 TIME LEFT:  2.00D  GRAD.:     0.202 HEAT:  30.47749
 CYCLE:    41 TIME:   0.004 TIME LEFT:  2.00D  GRAD.:     0.187 HEAT:  30.47742
 CYCLE:    42 TIME:   0.004 TIME LEFT:  2.00D  GRAD.:     0.180 HEAT:  30.47736
 CYCLE:    43 TIME:   0.004 TIME LEFT:  2.00D  GRAD.:     0.171 HEAT:  30.47729
 CYCLE:    44 TIME:   0.004 TIME LEFT:  2.00D  GRAD.:     0.151 HEAT:  30.47724
 CYCLE:    45 TIME:   0.004 TIME LEFT:  2.00D  GRAD.:     0.137 HEAT:  30.47721
 CYCLE:    46 TIME:   0.000 TIME LEFT:  2.00D  GRAD.:     0.146 HEAT:  30.47717
 CYCLE:    47 TIME:   0.008 TIME LEFT:  2.00D  GRAD.:     0.159 HEAT:  30.47713
 CYCLE:    48 TIME:   0.000 TIME LEFT:  2.00D  GRAD.:     0.152 HEAT:  30.47707
 CYCLE:    49 TIME:   0.004 TIME LEFT:  2.00D  GRAD.:     0.163 HEAT:  30.47702
 CYCLE:    50 TIME:   0.004 TIME LEFT:  2.00D  GRAD.:     0.169 HEAT:  30.47697
 CYCLE:    51 TIME:   0.004 TIME LEFT:  2.00D  GRAD.:     0.237 HEAT:  30.47686
 CYCLE:    52 TIME:   0.004 TIME LEFT:  2.00D  GRAD.:     0.280 HEAT:  30.47677
 CYCLE:    53 TIME:   0.004 TIME LEFT:  2.00D  GRAD.:     0.333 HEAT:  30.47654
 CYCLE:    54 TIME:   0.000 TIME LEFT:  2.00D  GRAD.:     0.296 HEAT:  30.47641
 CYCLE:    55 TIME:   0.004 TIME LEFT:  2.00D  GRAD.:     0.371 HEAT:  30.47610
 CYCLE:    56 TIME:   0.004 TIME LEFT:  2.00D  GRAD.:     0.289 HEAT:  30.47597
 CYCLE:    57 TIME:   0.004 TIME LEFT:  2.00D  GRAD.:     0.274 HEAT:  30.47566
 CYCLE:    58 TIME:   0.004 TIME LEFT:  2.00D  GRAD.:     0.190 HEAT:  30.47558
 CYCLE:    59 TIME:   0.004 TIME LEFT:  2.00D  GRAD.:     0.191 HEAT:  30.47546
 CYCLE:    60 TIME:   0.004 TIME LEFT:  2.00D  GRAD.:     0.201 HEAT:  30.47537
 CYCLE:    61 TIME:   0.004 TIME LEFT:  2.00D  GRAD.:     0.215 HEAT:  30.47519
 CYCLE:    62 TIME:   0.004 TIME LEFT:  2.00D  GRAD.:     0.188 HEAT:  30.47512
 CYCLE:    63 TIME:   0.000 TIME LEFT:  2.00D  GRAD.:     0.181 HEAT:  30.47493
 CYCLE:    64 TIME:   0.004 TIME LEFT:  2.00D  GRAD.:     0.096 HEAT:  30.47490
 CYCLE:    65 TIME:   0.004 TIME LEFT:  2.00D  GRAD.:     0.099 HEAT:  30.47489
 CYCLE:    66 TIME:   0.004 TIME LEFT:  2.00D  GRAD.:     0.047 HEAT:  30.47488

     GRADIENT =  0.04693  IS LESS THAN CUTOFF =  0.05000



 -------------------------------------------------------------------------------
 pm3  precise nosym THREADS=1
 InChI=1S/C7H12/c1-2-6(1)5-7-3-4-7/h6-7H,1-5H2



     GEOMETRY OPTIMISED USING EIGENVECTOR FOLLOWING (EF).     
     SCF FIELD WAS ACHIEVED                                   


                              PM3 CALCULATION
                                                       MOPAC2016 (Version: 18.184L)
                                                       Sat Jun 15 10:32:03 2019
                                                       No. of days remaining =  18




          FINAL HEAT OF FORMATION =         30.47488 KCAL/MOL =     127.50689 KJ/MOL


          TOTAL ENERGY            =      -1013.15354 EV
          ELECTRONIC ENERGY       =      -4856.65280 EV  POINT GROUP:     C1  
          CORE-CORE REPULSION     =       3843.49926 EV
          COSMO AREA              =        153.88 SQUARE ANGSTROMS
          COSMO VOLUME            =        148.59 CUBIC ANGSTROMS

          GRADIENT NORM           =          0.04693 = 0.01077 PER ATOM
          IONIZATION POTENTIAL    =         10.938312 EV
          HOMO LUMO ENERGIES (EV) =        -10.938  2.809
          NO. OF FILLED LEVELS    =         20
          MOLECULAR WEIGHT        =         96.1718

          MOLECULAR DIMENSIONS (Angstroms)

            Atom       Atom       Distance
            H    15    H    11     6.94288
            H    19    H    18     3.72364
            H    17    H     8     2.79220


          SCF CALCULATIONS        =         75
 
          WALL-CLOCK TIME         =          0.262 SECONDS
          COMPUTATION TIME        =          0.236 SECONDS




   ATOM   CHEMICAL          X               Y               Z
  NUMBER   SYMBOL      (ANGSTROMS)     (ANGSTROMS)     (ANGSTROMS)
 
     1       C          1.20692943  *   0.00327977  *   0.65980840  *
     2       C         -1.26665575  *   0.17208915  *   0.50629178  *
     3       C          0.04571552  *   0.83683249  *   0.18909741  *
     4       C          2.56497594  *   0.23044448  *   0.05487553  *
     5       C          1.80998755  *  -1.02405785  *  -0.25856646  *
     6       C         -2.49714313  *   0.57815810  *  -0.25713193  *
     7       C         -1.88687361  *  -0.76928728  *  -0.48950977  *
     8       H          1.14359302  *  -0.23286594  *   1.73806869  *
     9       H         -1.36824523  *  -0.06376523  *   1.58169799  *
    10       H          2.69692271  *   0.99509444  *  -0.71920140  *
    11       H          3.45679287  *   0.19108157  *   0.68922533  *
    12       H          1.38667216  *  -1.17216790  *  -1.25912169  *
    13       H          2.14799577  *  -1.98442445  *   0.14458967  *
    14       H         -2.42823029  *   1.34889808  *  -1.03333281  *
    15       H         -3.45682654  *   0.66442597  *   0.26328825  *
    16       H          0.12721453  *   1.04258551  *  -0.89807406  *
    17       H         -1.36877871  *  -0.97964575  *  -1.43268162  *
    18       H          0.08219831  *   1.82553062  *   0.68783734  *
    19       H         -2.39843957  *  -1.67240366  *  -0.14059226  *

                             CARTESIAN COORDINATES

   1    C        1.206929432     0.003279773     0.659808395
   2    C       -1.266655751     0.172089149     0.506291777
   3    C        0.045715518     0.836832494     0.189097414
   4    C        2.564975935     0.230444478     0.054875531
   5    C        1.809987555    -1.024057848    -0.258566460
   6    C       -2.497143130     0.578158098    -0.257131926
   7    C       -1.886873611    -0.769287278    -0.489509773
   8    H        1.143593025    -0.232865943     1.738068690
   9    H       -1.368245228    -0.063765229     1.581697992
  10    H        2.696922706     0.995094442    -0.719201395
  11    H        3.456792872     0.191081573     0.689225326
  12    H        1.386672163    -1.172167900    -1.259121687
  13    H        2.147995775    -1.984424452     0.144589668
  14    H       -2.428230293     1.348898081    -1.033332814
  15    H       -3.456826540     0.664425967     0.263288246
  16    H        0.127214534     1.042585512    -0.898074058
  17    H       -1.368778712    -0.979645747    -1.432681620
  18    H        0.082198308     1.825530620     0.687837340
  19    H       -2.398439575    -1.672403661    -0.140592256


           Empirical Formula: C7 H12  =    19 atoms



      MOLECULAR POINT GROUP   :   C1  


                  EIGENVALUES  
 -40.94484 -36.95683 -28.20125 -22.45765 -21.91673 -20.65054 -20.28668 -17.40115
 -16.93485 -15.96120 -15.62766 -13.86316 -12.81730 -12.68120 -12.35435 -12.20912
 -11.67619 -11.63055 -11.22714 -10.93831   2.80918   3.07524   3.16684   3.34036
   3.37159   3.48118   3.48876   3.76925   3.91949   4.10380   4.21858   4.46577
   4.75970   4.84807   4.93887   4.96379   4.98665   5.04396   5.24812   5.27007


              NET ATOMIC CHARGES AND DIPOLE CONTRIBUTIONS

  ATOM NO.   TYPE          CHARGE      No. of ELECS.   s-Pop       p-Pop       
    1          C          -0.132885        4.1329     1.17514     2.95775
    2          C          -0.132905        4.1329     1.17515     2.95776
    3          C          -0.041421        4.0414     1.14651     2.89491
    4          C          -0.152722        4.1527     1.16116     2.99156
    5          C          -0.151676        4.1517     1.16146     2.99022
    6          C          -0.152714        4.1527     1.16116     2.99156
    7          C          -0.151701        4.1517     1.16146     2.99024
    8          H           0.094317        0.9057     0.90568
    9          H           0.094347        0.9057     0.90565
   10          H           0.078237        0.9218     0.92176
   11          H           0.076077        0.9239     0.92392
   12          H           0.079278        0.9207     0.92072
   13          H           0.076205        0.9238     0.92380
   14          H           0.078226        0.9218     0.92177
   15          H           0.076094        0.9239     0.92391
   16          H           0.053616        0.9464     0.94638
   17          H           0.079262        0.9207     0.92074
   18          H           0.054156        0.9458     0.94584
   19          H           0.076209        0.9238     0.92379
 DIPOLE           X         Y         Z       TOTAL
 POINT-CHG.     0.004     0.080     0.029     0.085
 HYBRID        -0.001    -0.039    -0.035     0.052
 SUM            0.003     0.040    -0.005     0.041


          ATOMIC ORBITAL ELECTRON POPULATIONS

     Atom    s        px        py        pz   
    1  C   1.17514   0.94693   1.02363   0.98719
    2  C   1.17515   0.94471   1.03588   0.97717
    3  C   1.14651   0.92107   0.96995   1.00389
    4  C   1.16116   0.95344   1.00316   1.03497
    5  C   1.16146   1.04229   0.93972   1.00821
    6  C   1.16116   0.97245   0.98663   1.03248
    7  C   1.16146   1.04053   0.94003   1.00969
    8  H   0.90568
    9  H   0.90565
   10  H   0.92176
   11  H   0.92392
   12  H   0.92072
   13  H   0.92380
   14  H   0.92177
   15  H   0.92391
   16  H   0.94638
   17  H   0.92074
   18  H   0.94584
   19  H   0.92379
 *******************************************************************************
 ** Site#: 14399        For non-commercial use only    Version 18.184L 64BITS **
 *******************************************************************************
 ** Cite this program as: MOPAC2016, Version: 18.184L, James J. P. Stewart,   **
 ** Stewart Computational Chemistry, web: HTTP://OpenMOPAC.net. Days left:  18**
 *******************************************************************************
 **                                                                           **
 **                                MOPAC2016                                  **
 **                                                                           **
 *******************************************************************************

                              PM3 CALCULATION RESULTS

 *******************************************************************************
 *  CALCULATION DONE:                                Sat Jun 15 10:32:03 2019  *
 *  PM3        - The PM3 Hamiltonian to be used
 *  OLDGEO     - PREVIOUS GEOMETRY TO BE USED
 *  PRECISE    - CRITERIA TO BE INCREASED BY 100 TIMES
 *  NOSYM      - POINT-GROUP SYMMETRY SET TO C1
 *  THREADS=1  - MULTI-THREADING NOT USED
 *  T=         - A TIME OF 172800.0 SECONDS REQUESTED
 *  DUMP=N     - RESTART FILE WRITTEN EVERY  7200.000 SECONDS
 *  THERMO     - THERMODYNAMIC QUANTITIES TO BE CALCULATED
 *******************************************************************************
oldgeo thermo nosym precise THREADS=1  pm3
 InChI=1S/C7H12/c1-2-6(1)5-7-3-4-7/h6-7H,1-5H2

   ATOM   CHEMICAL          X               Y               Z
  NUMBER   SYMBOL      (ANGSTROMS)     (ANGSTROMS)     (ANGSTROMS)
 
     1       C          1.20692943  *   0.00327977  *   0.65980840  *
     2       C         -1.26665575  *   0.17208915  *   0.50629178  *
     3       C          0.04571552  *   0.83683249  *   0.18909741  *
     4       C          2.56497594  *   0.23044448  *   0.05487553  *
     5       C          1.80998755  *  -1.02405785  *  -0.25856646  *
     6       C         -2.49714313  *   0.57815810  *  -0.25713193  *
     7       C         -1.88687361  *  -0.76928728  *  -0.48950977  *
     8       H          1.14359302  *  -0.23286594  *   1.73806869  *
     9       H         -1.36824523  *  -0.06376523  *   1.58169799  *
    10       H          2.69692271  *   0.99509444  *  -0.71920140  *
    11       H          3.45679287  *   0.19108157  *   0.68922533  *
    12       H          1.38667216  *  -1.17216790  *  -1.25912169  *
    13       H          2.14799577  *  -1.98442445  *   0.14458967  *
    14       H         -2.42823029  *   1.34889808  *  -1.03333281  *
    15       H         -3.45682654  *   0.66442597  *   0.26328825  *
    16       H          0.12721453  *   1.04258551  *  -0.89807406  *
    17       H         -1.36877871  *  -0.97964575  *  -1.43268162  *
    18       H          0.08219831  *   1.82553062  *   0.68783734  *
    19       H         -2.39843957  *  -1.67240366  *  -0.14059226  *
 


          CARTESIAN COORDINATES 

    NO.       ATOM           X           Y           Z

     1         C          1.2069      0.0033      0.6598
     2         C         -1.2667      0.1721      0.5063
     3         C          0.0457      0.8368      0.1891
     4         C          2.5650      0.2304      0.0549
     5         C          1.8100     -1.0241     -0.2586
     6         C         -2.4971      0.5782     -0.2571
     7         C         -1.8869     -0.7693     -0.4895
     8         H          1.1436     -0.2329      1.7381
     9         H         -1.3682     -0.0638      1.5817
    10         H          2.6969      0.9951     -0.7192
    11         H          3.4568      0.1911      0.6892
    12         H          1.3867     -1.1722     -1.2591
    13         H          2.1480     -1.9844      0.1446
    14         H         -2.4282      1.3489     -1.0333
    15         H         -3.4568      0.6644      0.2633
    16         H          0.1272      1.0426     -0.8981
    17         H         -1.3688     -0.9796     -1.4327
    18         H          0.0822      1.8255      0.6878
    19         H         -2.3984     -1.6724     -0.1406

  H: (PM3): J. J. P. STEWART, J. COMP. CHEM. 10, 209 (1989).
  C: (PM3): J. J. P. STEWART, J. COMP. CHEM. 10, 209 (1989).

           Empirical Formula: C7 H12  =    19 atoms



      MOLECULAR POINT GROUP   :   C1  


      RHF CALCULATION, NO. OF DOUBLY OCCUPIED LEVELS = 20



          HEAT OF FORMATION =      30.474878 KCALS/MOLE


          CARTESIAN COORDINATE DERIVATIVES

   NUMBER  ATOM         X            Y            Z

     1       C      0.006403     0.001049     0.004032
     2       C      0.004156     0.005127    -0.002610
     3       C     -0.004799    -0.000343    -0.002885
     4       C     -0.001023     0.000884     0.005783
     5       C      0.005636    -0.004124     0.000525
     6       C      0.009066     0.002062     0.000003
     7       C     -0.005210     0.009970    -0.005857
     8       H      0.007470     0.000034     0.003578
     9       H      0.012597    -0.009894    -0.002132
    10       H     -0.017482     0.001941     0.003851
    11       H      0.000170     0.001133     0.003457
    12       H      0.001799    -0.006407    -0.002050
    13       H     -0.014402     0.007124    -0.002942
    14       H     -0.007233    -0.004543    -0.004120
    15       H      0.003262    -0.000737     0.007169
    16       H      0.000471    -0.003212    -0.000882
    17       H      0.011625     0.001092    -0.001433
    18       H      0.005845    -0.003463     0.001676
    19       H     -0.018350     0.002307    -0.005164
 


          GRADIENT NORM =   0.04663


          TIME FOR SCF CALCULATION =    0.00

          TIME FOR DERIVATIVES     =    0.00

          MOLECULAR WEIGHT =   96.17



          ROTATIONAL CONSTANTS IN CM(-1)

          A =    0.23009387   B =    0.04810458   C =    0.04397453



           PRINCIPAL MOMENTS OF INERTIA IN UNITS OF 10**(-40)*GRAM-CM**2

          A =      121.6581   B =      581.9149   C =      636.5679


          ORIENTATION OF MOLECULE IN FORCE CALCULATION

    NO.       ATOM         X         Y         Z

     1          C      -1.2424   -0.1765   -0.5143
     2          C       1.2417   -0.1765   -0.5143
     3          C      -0.0003    0.6733   -0.5143
     4          C      -2.5418    0.4250   -0.0545
     5          C      -1.8559   -0.6028    0.7912
     6          C       2.5418    0.4260   -0.0575
     7          C       1.8569   -0.5999    0.7913
     8          H      -1.2620   -0.8902   -1.3585
     9          H       1.2604   -0.8920   -1.3570
    10          H      -2.5734    1.4697    0.2755
    11          H      -3.4718    0.1755   -0.5764
    12          H      -1.3826   -0.3071    1.7350
    13          H      -2.2827   -1.6063    0.8912
    14          H       2.5735    1.4714    0.2701
    15          H       3.4711    0.1754   -0.5799
    16          H      -0.0003    1.3659    0.3524
    17          H       1.3850   -0.3020    1.7352
    18          H      -0.0003    1.3169   -1.4162
    19          H       2.2834   -1.6033    0.8931


    FIRST DERIVATIVES WILL BE USED IN THE CALCULATION OF SECOND DERIVATIVES

          ESTIMATED TIME TO COMPLETE CALCULATION =        0.89 SECONDS

    FOR POINT-GROUP C1   THERE ARE   1 UNIQUE SYMMETRY FUNCTIONS.

 STEP:   1 TIME =     0.02 SECS, INTEGRAL =      0.02 TIME LEFT: 172799.98
 STEP:   2 TIME =     0.02 SECS, INTEGRAL =      0.03 TIME LEFT: 172799.96
 STEP:   3 TIME =     0.01 SECS, INTEGRAL =      0.04 TIME LEFT: 172799.95
 STEP:   4 TIME =     0.02 SECS, INTEGRAL =      0.06 TIME LEFT: 172799.94
 STEP:   5 TIME =     0.01 SECS, INTEGRAL =      0.07 TIME LEFT: 172799.93
 STEP:   6 TIME =     0.02 SECS, INTEGRAL =      0.09 TIME LEFT: 172799.91
 STEP:   7 TIME =     0.02 SECS, INTEGRAL =      0.10 TIME LEFT: 172799.89
 STEP:   8 TIME =     0.01 SECS, INTEGRAL =      0.11 TIME LEFT: 172799.88
 STEP:   9 TIME =     0.01 SECS, INTEGRAL =      0.12 TIME LEFT: 172799.87
 STEP:  10 TIME =     0.02 SECS, INTEGRAL =      0.14 TIME LEFT: 172799.86
 STEP:  11 TIME =     0.02 SECS, INTEGRAL =      0.16 TIME LEFT: 172799.84
 STEP:  12 TIME =     0.01 SECS, INTEGRAL =      0.17 TIME LEFT: 172799.83
 STEP:  13 TIME =     0.02 SECS, INTEGRAL =      0.18 TIME LEFT: 172799.81
 STEP:  14 TIME =     0.01 SECS, INTEGRAL =      0.20 TIME LEFT: 172799.80
 STEP:  15 TIME =     0.02 SECS, INTEGRAL =      0.21 TIME LEFT: 172799.79
 STEP:  16 TIME =     0.02 SECS, INTEGRAL =      0.23 TIME LEFT: 172799.77
 STEP:  17 TIME =     0.01 SECS, INTEGRAL =      0.24 TIME LEFT: 172799.76
 STEP:  18 TIME =     0.02 SECS, INTEGRAL =      0.25 TIME LEFT: 172799.74
 STEP:  19 TIME =     0.01 SECS, INTEGRAL =      0.27 TIME LEFT: 172799.73
 STEP:  20 TIME =     0.02 SECS, INTEGRAL =      0.28 TIME LEFT: 172799.71
 STEP:  21 TIME =     0.01 SECS, INTEGRAL =      0.29 TIME LEFT: 172799.70
 STEP:  22 TIME =     0.02 SECS, INTEGRAL =      0.31 TIME LEFT: 172799.69
 STEP:  23 TIME =     0.02 SECS, INTEGRAL =      0.32 TIME LEFT: 172799.67
 STEP:  24 TIME =     0.01 SECS, INTEGRAL =      0.34 TIME LEFT: 172799.66
 STEP:  25 TIME =     0.02 SECS, INTEGRAL =      0.35 TIME LEFT: 172799.64
 STEP:  26 TIME =     0.01 SECS, INTEGRAL =      0.36 TIME LEFT: 172799.63
 STEP:  27 TIME =     0.02 SECS, INTEGRAL =      0.38 TIME LEFT: 172799.62
 STEP:  28 TIME =     0.02 SECS, INTEGRAL =      0.39 TIME LEFT: 172799.60
 STEP:  29 TIME =     0.01 SECS, INTEGRAL =      0.41 TIME LEFT: 172799.59
 STEP:  30 TIME =     0.02 SECS, INTEGRAL =      0.42 TIME LEFT: 172799.57
 STEP:  31 TIME =     0.01 SECS, INTEGRAL =      0.43 TIME LEFT: 172799.56
 STEP:  32 TIME =     0.02 SECS, INTEGRAL =      0.45 TIME LEFT: 172799.55
 STEP:  33 TIME =     0.01 SECS, INTEGRAL =      0.46 TIME LEFT: 172799.54
 STEP:  34 TIME =     0.02 SECS, INTEGRAL =      0.48 TIME LEFT: 172799.52
 STEP:  35 TIME =     0.02 SECS, INTEGRAL =      0.49 TIME LEFT: 172799.50
 STEP:  36 TIME =     0.01 SECS, INTEGRAL =      0.50 TIME LEFT: 172799.49
 STEP:  37 TIME =     0.02 SECS, INTEGRAL =      0.52 TIME LEFT: 172799.48
 STEP:  38 TIME =     0.01 SECS, INTEGRAL =      0.53 TIME LEFT: 172799.46
 STEP:  39 TIME =     0.02 SECS, INTEGRAL =      0.55 TIME LEFT: 172799.45
 STEP:  40 TIME =     0.02 SECS, INTEGRAL =      0.56 TIME LEFT: 172799.43
 STEP:  41 TIME =     0.01 SECS, INTEGRAL =      0.57 TIME LEFT: 172799.42
 STEP:  42 TIME =     0.02 SECS, INTEGRAL =      0.59 TIME LEFT: 172799.41
 STEP:  43 TIME =     0.01 SECS, INTEGRAL =      0.60 TIME LEFT: 172799.39
 STEP:  44 TIME =     0.02 SECS, INTEGRAL =      0.62 TIME LEFT: 172799.38
 STEP:  45 TIME =     0.02 SECS, INTEGRAL =      0.63 TIME LEFT: 172799.36
 STEP:  46 TIME =     0.01 SECS, INTEGRAL =      0.64 TIME LEFT: 172799.35
 STEP:  47 TIME =     0.02 SECS, INTEGRAL =      0.66 TIME LEFT: 172799.34
 STEP:  48 TIME =     0.01 SECS, INTEGRAL =      0.67 TIME LEFT: 172799.32
 STEP:  49 TIME =     0.02 SECS, INTEGRAL =      0.69 TIME LEFT: 172799.31
 STEP:  50 TIME =     0.01 SECS, INTEGRAL =      0.70 TIME LEFT: 172799.30
 STEP:  51 TIME =     0.01 SECS, INTEGRAL =      0.71 TIME LEFT: 172799.29
 STEP:  52 TIME =     0.02 SECS, INTEGRAL =      0.73 TIME LEFT: 172799.27
 STEP:  53 TIME =     0.01 SECS, INTEGRAL =      0.74 TIME LEFT: 172799.26
 STEP:  54 TIME =     0.02 SECS, INTEGRAL =      0.75 TIME LEFT: 172799.24
 STEP:  55 TIME =     0.01 SECS, INTEGRAL =      0.77 TIME LEFT: 172799.23
 STEP:  56 TIME =     0.02 SECS, INTEGRAL =      0.78 TIME LEFT: 172799.21
 STEP:  57 TIME =     0.02 SECS, INTEGRAL =      0.80 TIME LEFT: 172799.20

(To convert to Hartree/Bohr^2, multiply by (10^(-21) x N x a0^2)/(4.184 x 627.51) =  0.0642)


           FORCE MATRIX IN MILLIDYNES/ANGSTROM


                  C  1       C  2       C  3       C  4       C  5       C  6
 ------------------------------------------------------------------------------
     C    1  15.569536
     C    2   0.693035  15.569795
     C    3   4.548781   4.548664  14.780289
     C    4   4.849645   0.053073   0.544754  15.402074
     C    5   4.832077   0.016868   0.547093   5.130689  15.395943
     C    6   0.053056   4.850059   0.544880   0.009474   0.002982  15.402468
     C    7   0.016638   4.832474   0.547076   0.002981   0.012789   5.130710
     H    8   4.560515   0.027273   0.424789   0.438136   0.440362   0.002384
     H    9   0.027345   4.560270   0.424781   0.002419   0.002640   0.438193
     H   10   0.464671   0.003767   0.023877   4.816742   0.460876   0.001050
     H   11   0.454454   0.008712   0.042389   4.847067   0.460204   0.001648
     H   12   0.466287   0.003847   0.023864   0.461299   4.803826   0.001056
     H   13   0.454519   0.002447   0.043639   0.459395   4.850245   0.000917
     H   14   0.003757   0.464718   0.023934   0.001077   0.000333   4.816991
     H   15   0.008753   0.454427   0.042438   0.001668   0.000915   4.847231
     H   16   0.453617   0.453521   4.412412   0.027321   0.023797   0.027283
     H   17   0.003802   0.466179   0.023853   0.001053   0.003108   0.461322
     H   18   0.432970   0.433053   4.455207   0.013590   0.049431   0.013662
     H   19   0.002461   0.454576   0.043688   0.000920   0.001262   0.459367


                  C  7       H  8       H  9       H 10       H 11       H 12
 ------------------------------------------------------------------------------
     C    7  15.396905
     H    8   0.002660   5.089853
     H    9   0.440318   0.022761   5.089684
     H   10   0.000290   0.038046   0.000650   5.429890
     H   11   0.000982   0.020265   0.000624   0.497162   5.454638
     H   12   0.003134   0.037507   0.000700   0.021083   0.042031   5.414177
     H   13   0.001276   0.020394   0.000473   0.041517   0.020406   0.495365
     H   14   0.460829   0.000648   0.038014   0.000303   0.000182   0.000284
     H   15   0.460166   0.000637   0.020265   0.000178   0.000426   0.000382
     H   16   0.023980   0.039970   0.039980   0.016407   0.001152   0.017075
     H   17   4.803770   0.000715   0.037498   0.000271   0.000366   0.008361
     H   18   0.049338   0.025136   0.024976   0.002372   0.002293   0.003987
     H   19   4.850593   0.000484   0.020389   0.000154   0.000187   0.000662


                  H 13       H 14       H 15       H 16       H 17       H 18
 ------------------------------------------------------------------------------
     H   13   5.456900
     H   14   0.000158   5.429942
     H   15   0.000193   0.496985   5.454797
     H   16   0.001693   0.016330   0.001129   5.022744
     H   17   0.000662   0.021101   0.042019   0.017228   5.414258
     H   18   0.007773   0.002387   0.002302   0.559658   0.003985   5.041824
     H   19   0.000574   0.041546   0.020404   0.001698   0.495488   0.007821


                  H 19
 ------------------
     H   19   5.457309


          HEAT OF FORMATION =      30.474878 KCALS/MOLE

          ZERO POINT ENERGY     107.763 KCAL/MOL


           NORMAL COORDINATE ANALYSIS (Total motion = 1 Angstrom)


   Root No.       1         2         3         4         5         6         7         8

                 1 A       2 A       3 A       4 A       5 A       6 A       7 A       8 A   

                  53.8      60.2     187.4     317.4     373.2     424.0     459.5     814.7
  
           1   -0.0017    0.0098    0.0138   -0.0162    0.0197   -0.0146    0.0318   -0.0005
           2   -0.0039   -0.0168    0.0179    0.0249   -0.0198   -0.0412   -0.0009   -0.0027
           3    0.0142    0.0204    0.0044   -0.0301   -0.0128   -0.0284    0.0247   -0.0030
           4    0.0012    0.0098   -0.0138   -0.0162   -0.0196   -0.0146   -0.0318    0.0004
           5   -0.0048    0.0166    0.0179   -0.0250   -0.0198    0.0412   -0.0008   -0.0027
           6    0.0154   -0.0197    0.0044    0.0300   -0.0129    0.0283    0.0248   -0.0030
           7    0.0001   -0.0016   -0.0000   -0.0018    0.0000   -0.0376   -0.0000   -0.0000
           8   -0.0065   -0.0002    0.0398   -0.0000   -0.0030   -0.0000    0.0326    0.0204
           9    0.0512    0.0012    0.0143    0.0001    0.0436    0.0000   -0.0163   -0.0013
          10   -0.0152   -0.0048   -0.0175   -0.0233    0.0395    0.0199    0.0307   -0.0012
          11    0.0033   -0.0124   -0.0380   -0.0099    0.0084    0.0109    0.0013   -0.0024
          12   -0.0332   -0.0268   -0.0156   -0.0017   -0.0139   -0.0030   -0.0110    0.0039
          13   -0.0493   -0.0049    0.0226    0.0365    0.0296    0.0118   -0.0049   -0.0052
          14    0.0030    0.0346    0.0046    0.0243    0.0086    0.0048   -0.0153    0.0013
          15   -0.0060    0.0304    0.0041   -0.0079   -0.0008   -0.0018    0.0022    0.0032
          16    0.0154   -0.0040    0.0175   -0.0235   -0.0394    0.0199   -0.0307    0.0012
          17    0.0026    0.0126   -0.0380    0.0099    0.0083   -0.0108    0.0013   -0.0024
          18   -0.0347    0.0252   -0.0155    0.0017   -0.0139    0.0030   -0.0109    0.0039
          19    0.0495   -0.0025   -0.0225    0.0363   -0.0298    0.0118    0.0049    0.0052
          20    0.0050   -0.0345    0.0045   -0.0243    0.0087   -0.0048   -0.0153    0.0013
          21   -0.0043   -0.0306    0.0041    0.0079   -0.0009    0.0018    0.0022    0.0032
          22    0.0232    0.0315    0.0446   -0.0222    0.0328   -0.0198    0.0545    0.0223
          23   -0.0063   -0.0545    0.0102    0.0321   -0.0186   -0.0465   -0.0168   -0.0063
          24    0.0156    0.0518    0.0093   -0.0356   -0.0122   -0.0207    0.0356    0.0008
          25   -0.0249    0.0303   -0.0446   -0.0223   -0.0326   -0.0198   -0.0545   -0.0223
          26   -0.0095    0.0540    0.0103   -0.0322   -0.0184    0.0464   -0.0166   -0.0062
          27    0.0186   -0.0511    0.0093    0.0356   -0.0123    0.0207    0.0357    0.0007
          28   -0.0217   -0.0229   -0.0739   -0.0586    0.0687    0.0809    0.0404   -0.0017
          29    0.0046    0.0022   -0.0360   -0.0072    0.0176    0.0239   -0.0015    0.0275
          30   -0.0378   -0.0748   -0.0286   -0.0157   -0.0389   -0.0355    0.0007   -0.0972
          31    0.0018    0.0065    0.0011   -0.0272    0.0277   -0.0132    0.0445   -0.0302
          32    0.0060   -0.0478   -0.0918   -0.0576    0.0175    0.0367    0.0260   -0.0727
          33   -0.0649   -0.0300   -0.0236    0.0271    0.0039    0.0454   -0.0462    0.0854
          34   -0.0825   -0.0234    0.0015    0.0650    0.0520    0.0638   -0.0476    0.0479
          35    0.0040    0.0833    0.0404    0.0590    0.0145    0.0056   -0.0370   -0.0843
          36    0.0101    0.0244    0.0036   -0.0321   -0.0131   -0.0275    0.0289    0.0005
          37   -0.0573    0.0060    0.0699    0.0741    0.0090   -0.0292   -0.0123   -0.1041
          38    0.0052    0.0339   -0.0142    0.0129    0.0203    0.0267   -0.0173    0.0376
          39   -0.0181    0.0695    0.0152    0.0304    0.0237    0.0393   -0.0415   -0.0260
          40    0.0228   -0.0218    0.0738   -0.0591   -0.0685    0.0809   -0.0404    0.0019
          41    0.0047   -0.0017   -0.0360    0.0073    0.0175   -0.0238   -0.0015    0.0274
          42   -0.0420    0.0730   -0.0286    0.0155   -0.0390    0.0355    0.0008   -0.0979
          43   -0.0023    0.0064   -0.0011   -0.0273   -0.0275   -0.0133   -0.0446    0.0304
          44    0.0033    0.0481   -0.0918    0.0578    0.0172   -0.0367    0.0259   -0.0732
          45   -0.0665    0.0268   -0.0235   -0.0270    0.0042   -0.0453   -0.0463    0.0859
          46   -0.0001    0.0026   -0.0000   -0.0108    0.0001   -0.0824   -0.0000   -0.0000
          47   -0.0410   -0.0010    0.0269   -0.0002   -0.0791   -0.0001    0.0998    0.0256
          48    0.0787    0.0019    0.0238    0.0002    0.1071    0.0001   -0.0723   -0.0062
          49    0.0838   -0.0194   -0.0013    0.0646   -0.0525    0.0638    0.0476   -0.0483
          50    0.0088   -0.0831    0.0403   -0.0589    0.0148   -0.0055   -0.0370   -0.0848
          51    0.0114   -0.0237    0.0035    0.0320   -0.0133    0.0274    0.0289    0.0008
          52    0.0007   -0.0249   -0.0000    0.0472   -0.0001   -0.0416   -0.0000   -0.0000
          53    0.0291    0.0007    0.0512    0.0001    0.0798    0.0001   -0.0410    0.0180
          54    0.0764    0.0018    0.0231    0.0002    0.1040    0.0001   -0.0702   -0.0032
          55    0.0570    0.0087   -0.0698    0.0741   -0.0094   -0.0292    0.0123    0.1048
          56    0.0071   -0.0337   -0.0142   -0.0128    0.0204   -0.0268   -0.0174    0.0378
          57   -0.0141   -0.0703    0.0152   -0.0303    0.0238   -0.0392   -0.0415   -0.0264


   Root No.       9        10        11        12        13        14        15        16

                 9 A      10 A      11 A      12 A      13 A      14 A      15 A      16 A   

                 825.0     843.5     874.6     891.3     900.1     907.8     958.8     970.6
  
           1   -0.0026    0.0005    0.0003    0.0020   -0.0026    0.0071    0.0102   -0.0058
           2   -0.0024   -0.0046   -0.0023   -0.0008   -0.0083   -0.0054   -0.0092    0.0075
           3   -0.0007   -0.0108   -0.0016   -0.0080   -0.0048   -0.0190    0.0053   -0.0039
           4   -0.0026   -0.0005    0.0003   -0.0020    0.0027    0.0071    0.0102    0.0058
           5    0.0024   -0.0047    0.0023   -0.0008   -0.0083    0.0055    0.0092    0.0075
           6    0.0008   -0.0108    0.0016   -0.0080   -0.0046    0.0190   -0.0054   -0.0040
           7   -0.0107    0.0000    0.0044    0.0000    0.0002    0.0338    0.0086    0.0000
           8   -0.0001    0.0242    0.0000    0.0184    0.0230   -0.0001   -0.0000   -0.0037
           9    0.0000   -0.0322   -0.0001   -0.0211    0.0244   -0.0001   -0.0000    0.0055
          10   -0.0004   -0.0030    0.0100    0.0130   -0.0099   -0.0035   -0.0200    0.0140
          11   -0.0005   -0.0111   -0.0020   -0.0088   -0.0088   -0.0192    0.0058   -0.0070
          12   -0.0042    0.0060    0.0010    0.0042   -0.0023    0.0100    0.0052   -0.0034
          13    0.0024   -0.0107   -0.0086   -0.0150   -0.0085   -0.0212    0.0010   -0.0044
          14   -0.0027    0.0023   -0.0075   -0.0069   -0.0060    0.0015    0.0080   -0.0084
          15   -0.0031    0.0068    0.0056    0.0116   -0.0085    0.0021   -0.0215    0.0140
          16   -0.0004    0.0030    0.0099   -0.0131    0.0099   -0.0036   -0.0200   -0.0141
          17    0.0005   -0.0111    0.0020   -0.0088   -0.0087    0.0193   -0.0058   -0.0070
          18    0.0042    0.0060   -0.0010    0.0042   -0.0023   -0.0100   -0.0051   -0.0034
          19    0.0024    0.0107   -0.0086    0.0151    0.0083   -0.0213    0.0010    0.0044
          20    0.0027    0.0023    0.0074   -0.0069   -0.0060   -0.0014   -0.0080   -0.0084
          21    0.0030    0.0068   -0.0055    0.0116   -0.0085   -0.0020    0.0215    0.0141
          22   -0.0102    0.0164   -0.0422   -0.0273    0.0381    0.0143    0.0765   -0.0627
          23   -0.0101   -0.0517    0.0587    0.0409    0.0025    0.0017   -0.0828    0.1083
          24    0.0054    0.0297   -0.0520   -0.0416   -0.0130   -0.0229    0.0666   -0.0874
          25   -0.0100   -0.0163   -0.0418    0.0274   -0.0380    0.0147    0.0763    0.0627
          26    0.0102   -0.0516   -0.0583    0.0412    0.0024   -0.0017    0.0825    0.1084
          27   -0.0055    0.0298    0.0520   -0.0421   -0.0127    0.0230   -0.0667   -0.0879
          28    0.0350    0.0663   -0.0581   -0.0347    0.0723    0.0548   -0.0382    0.0525
          29   -0.0279   -0.0081   -0.0194   -0.0245   -0.0094   -0.0202   -0.0196    0.0213
          30    0.0966    0.0117    0.0440    0.0466    0.0171    0.0259    0.0845   -0.0885
          31    0.0120   -0.0433    0.0601    0.0498   -0.0497   -0.0529   -0.0235   -0.0017
          32    0.0954    0.0388   -0.0160   -0.0102    0.0600    0.0177    0.0236   -0.0199
          33   -0.0660    0.0583   -0.0854   -0.0633    0.0415    0.0836    0.0044    0.0304
          34   -0.0516   -0.0801    0.0647    0.0337    0.0369   -0.0437    0.0797   -0.0745
          35    0.0931    0.0221    0.0222    0.0219    0.0552    0.0560   -0.0083    0.0336
          36   -0.0028    0.0345   -0.0375   -0.0194   -0.0471   -0.0020   -0.0546    0.0357
          37    0.1057    0.0207   -0.0717   -0.0875   -0.0081   -0.0422   -0.0363    0.0337
          38   -0.0397   -0.0138    0.0308    0.0340    0.0051    0.0174    0.0276   -0.0244
          39    0.0354   -0.0129    0.0953    0.0934    0.0775    0.0598    0.0120    0.0107
          40    0.0349   -0.0664   -0.0578    0.0351   -0.0719    0.0556   -0.0381   -0.0526
          41    0.0276   -0.0080    0.0192   -0.0246   -0.0091    0.0203    0.0193    0.0211
          42   -0.0961    0.0117   -0.0438    0.0470    0.0168   -0.0262   -0.0843   -0.0886
          43    0.0119    0.0433    0.0597   -0.0503    0.0495   -0.0536   -0.0236    0.0016
          44   -0.0948    0.0389    0.0159   -0.0104    0.0599   -0.0186   -0.0236   -0.0200
          45    0.0656    0.0581    0.0848   -0.0638    0.0408   -0.0840   -0.0045    0.0303
          46   -0.0210    0.0001    0.0036   -0.0000    0.0001    0.0173    0.0298    0.0002
          47   -0.0001   -0.0724   -0.0003   -0.0261    0.1016   -0.0006   -0.0001    0.0201
          48    0.0000    0.0478    0.0001    0.0159   -0.0406    0.0002    0.0000   -0.0141
          49   -0.0513    0.0800    0.0647   -0.0344   -0.0372   -0.0432    0.0795    0.0748
          50   -0.0925    0.0221   -0.0222    0.0220    0.0545   -0.0566    0.0083    0.0337
          51    0.0030    0.0343    0.0375   -0.0198   -0.0470    0.0028    0.0543    0.0357
          52   -0.0193   -0.0000   -0.0003    0.0001    0.0007    0.1416   -0.0376   -0.0001
          53   -0.0001    0.1301    0.0004    0.0745   -0.0517    0.0002    0.0001   -0.0264
          54    0.0000    0.0459    0.0001    0.0191   -0.0309    0.0002    0.0000   -0.0123
          55    0.1050   -0.0207   -0.0713    0.0881    0.0076   -0.0425   -0.0362   -0.0337
          56    0.0394   -0.0138   -0.0308    0.0345    0.0050   -0.0176   -0.0275   -0.0243
          57   -0.0354   -0.0128   -0.0947    0.0939    0.0766   -0.0607   -0.0118    0.0107


   Root No.      17        18        19        20        21        22        23        24

                17 A      18 A      19 A      20 A      21 A      22 A      23 A      24 A   

                 987.8    1022.5    1034.2    1099.4    1109.8    1133.7    1151.4    1161.3
  
           1   -0.0056    0.0175   -0.0180    0.0076    0.0107   -0.0133    0.0291    0.0112
           2    0.0064   -0.0083    0.0126   -0.0217   -0.0118    0.0254   -0.0311    0.0020
           3    0.0156   -0.0142   -0.0012    0.0116    0.0137   -0.0122    0.0393   -0.0091
           4   -0.0056   -0.0177   -0.0178    0.0075   -0.0107   -0.0131   -0.0292    0.0111
           5   -0.0064   -0.0084   -0.0125    0.0215   -0.0119   -0.0252   -0.0314   -0.0021
           6   -0.0156   -0.0142    0.0014   -0.0115    0.0138    0.0121    0.0394    0.0091
           7    0.0084    0.0000    0.0032    0.0163   -0.0000   -0.0157   -0.0001   -0.0120
           8    0.0000   -0.0085    0.0001    0.0000    0.0071   -0.0000    0.0030    0.0000
           9   -0.0000    0.0146   -0.0001   -0.0000   -0.0133    0.0000   -0.0224   -0.0000
          10   -0.0102    0.0105   -0.0027   -0.0063    0.0037    0.0255   -0.0315   -0.0041
          11   -0.0027   -0.0025   -0.0051    0.0212    0.0248    0.0117   -0.0011   -0.0099
          12   -0.0107    0.0106   -0.0082    0.0135    0.0137    0.0019   -0.0024    0.0263
          13   -0.0022   -0.0005    0.0002   -0.0122   -0.0138   -0.0102    0.0200   -0.0205
          14   -0.0149    0.0156   -0.0079   -0.0089   -0.0174   -0.0225    0.0126    0.0157
          15   -0.0028   -0.0122    0.0183   -0.0142   -0.0219   -0.0019   -0.0172    0.0036
          16   -0.0102   -0.0105   -0.0026   -0.0062   -0.0037    0.0254    0.0317   -0.0040
          17    0.0027   -0.0024    0.0051   -0.0211    0.0249   -0.0117   -0.0012    0.0098
          18    0.0107    0.0107    0.0081   -0.0134    0.0137   -0.0018   -0.0023   -0.0262
          19   -0.0022    0.0005    0.0002   -0.0121    0.0138   -0.0101   -0.0200   -0.0204
          20    0.0149    0.0157    0.0077    0.0089   -0.0176    0.0224    0.0128   -0.0155
          21    0.0028   -0.0124   -0.0181    0.0141   -0.0219    0.0019   -0.0172   -0.0035
          22    0.0114    0.0245    0.0089   -0.0565    0.0064    0.0988   -0.0531    0.1304
          23    0.0435    0.0092   -0.0638   -0.0140   -0.0103   -0.0575    0.1140    0.0494
          24   -0.0155   -0.0297    0.0633    0.0065    0.0128    0.0557   -0.0807   -0.0488
          25    0.0113   -0.0244    0.0091   -0.0565   -0.0062    0.0983    0.0537    0.1302
          26   -0.0436    0.0097    0.0636    0.0141   -0.0105    0.0568    0.1142   -0.0489
          27    0.0157   -0.0303   -0.0631   -0.0066    0.0129   -0.0555   -0.0816    0.0483
          28    0.0765   -0.0529    0.0378   -0.0493   -0.0594   -0.0327    0.0192    0.0315
          29    0.0197   -0.0271    0.0014    0.0420    0.0426    0.0136   -0.0003    0.0148
          30   -0.0682    0.0788   -0.0210   -0.0629   -0.0563   -0.0131    0.0025   -0.0459
          31   -0.0358   -0.0066    0.0183    0.0111    0.0101    0.0241   -0.0450    0.0355
          32    0.0406   -0.0538    0.0496   -0.0383   -0.0688   -0.0705    0.0604    0.0114
          33    0.0177    0.0646   -0.0708    0.0068    0.0433    0.0416   -0.0046   -0.0536
          34    0.0654   -0.0924    0.0736    0.0197   -0.0008   -0.0254    0.0028    0.0412
          35    0.0153    0.0431   -0.0614    0.0351    0.0759    0.0561   -0.0036   -0.0090
          36   -0.0437    0.0241   -0.0023   -0.0418   -0.0544   -0.0172   -0.0033   -0.0187
          37    0.0213   -0.0458    0.0057    0.0836    0.0619    0.0100   -0.0428    0.0464
          38   -0.0174    0.0340   -0.0123   -0.0455   -0.0396   -0.0216    0.0370   -0.0152
          39    0.0530   -0.0189    0.0033    0.0189    0.0564    0.0703   -0.0322   -0.0255
          40    0.0766    0.0533    0.0373   -0.0490    0.0597   -0.0326   -0.0194    0.0313
          41   -0.0196   -0.0269   -0.0011   -0.0416    0.0427   -0.0134   -0.0002   -0.0146
          42    0.0683    0.0789    0.0201    0.0628   -0.0567    0.0129    0.0022    0.0455
          43   -0.0358    0.0069    0.0183    0.0112   -0.0102    0.0236    0.0449    0.0353
          44   -0.0406   -0.0541   -0.0488    0.0380   -0.0690    0.0700    0.0608   -0.0110
          45   -0.0176    0.0654    0.0702   -0.0066    0.0435   -0.0420   -0.0055    0.0530
          46    0.1240   -0.0001   -0.0371   -0.0522    0.0001    0.0151   -0.0001   -0.0803
          47   -0.0000    0.0272   -0.0002   -0.0001   -0.0194    0.0001   -0.0421    0.0000
          48   -0.0000   -0.0158    0.0001    0.0001    0.0091   -0.0000    0.0155   -0.0000
          49    0.0654    0.0932    0.0727    0.0197    0.0007   -0.0253   -0.0031    0.0411
          50   -0.0153    0.0437    0.0609   -0.0347    0.0760   -0.0558   -0.0039    0.0089
          51    0.0437    0.0240    0.0019    0.0416   -0.0547    0.0173   -0.0033    0.0186
          52   -0.0737    0.0009    0.1964    0.0999   -0.0003   -0.0266   -0.0002   -0.0284
          53    0.0001   -0.0526    0.0003    0.0001    0.0427   -0.0001    0.0595    0.0000
          54    0.0000   -0.0180    0.0001    0.0000    0.0125   -0.0000    0.0187   -0.0000
          55    0.0214    0.0458    0.0051    0.0833   -0.0623    0.0097    0.0424    0.0462
          56    0.0173    0.0340    0.0119    0.0453   -0.0397    0.0212    0.0369    0.0152
          57   -0.0530   -0.0191   -0.0033   -0.0189    0.0567   -0.0701   -0.0331    0.0250


   Root No.      25        26        27        28        29        30        31        32

                25 A      26 A      27 A      28 A      29 A      30 A      31 A      32 A   

                1164.7    1171.9    1174.0    1176.2    1197.4    1237.8    1277.6    1328.0
  
           1    0.0086   -0.0047   -0.0070   -0.0070   -0.0150   -0.0145    0.0218   -0.0052
           2   -0.0238   -0.0055    0.0030   -0.0051   -0.0308   -0.0276    0.0219   -0.0072
           3   -0.0200   -0.0168   -0.0054   -0.0196   -0.0066    0.0037    0.0068   -0.0173
           4   -0.0087   -0.0047    0.0071   -0.0070    0.0151   -0.0145   -0.0218   -0.0052
           5   -0.0238    0.0055    0.0029    0.0051   -0.0309    0.0275    0.0219    0.0072
           6   -0.0200    0.0168   -0.0057    0.0197   -0.0066   -0.0037    0.0068    0.0173
           7    0.0001    0.0119   -0.0001    0.0131   -0.0000   -0.0235   -0.0000    0.0411
           8    0.0138    0.0000    0.0029    0.0000    0.0463    0.0000   -0.0084   -0.0000
           9    0.0093    0.0000    0.0063    0.0000    0.0210    0.0000    0.0055    0.0000
          10   -0.0072    0.0154   -0.0126   -0.0066    0.0020   -0.0029    0.0070   -0.0092
          11   -0.0096   -0.0037   -0.0006   -0.0067    0.0127    0.0161   -0.0221    0.0116
          12    0.0363   -0.0074    0.0219    0.0276   -0.0127   -0.0044    0.0082   -0.0045
          13   -0.0224   -0.0270    0.0254    0.0062    0.0093    0.0111   -0.0130    0.0053
          14    0.0257    0.0143   -0.0121    0.0015   -0.0027   -0.0009    0.0102   -0.0088
          15    0.0022    0.0149   -0.0134   -0.0072    0.0044    0.0053   -0.0173    0.0151
          16    0.0072    0.0156    0.0125   -0.0066   -0.0020   -0.0028   -0.0070   -0.0092
          17   -0.0096    0.0037   -0.0006    0.0067    0.0127   -0.0161   -0.0221   -0.0116
          18    0.0364    0.0076    0.0219   -0.0277   -0.0128    0.0044    0.0083    0.0045
          19    0.0225   -0.0273   -0.0252    0.0061   -0.0093    0.0110    0.0130    0.0053
          20    0.0258   -0.0144   -0.0120   -0.0015   -0.0027    0.0009    0.0102    0.0088
          21    0.0022   -0.0150   -0.0132    0.0071    0.0045   -0.0053   -0.0173   -0.0151
          22    0.0231   -0.0458    0.0005   -0.0380   -0.1834    0.1096   -0.1489    0.0407
          23    0.0056   -0.0262   -0.0411   -0.0644   -0.0583    0.0507   -0.0426   -0.0035
          24   -0.0443    0.0003    0.0312    0.0295    0.0186   -0.0642    0.0639   -0.0213
          25   -0.0243   -0.0455   -0.0000   -0.0376    0.1838    0.1097    0.1492    0.0409
          26    0.0059    0.0258   -0.0415    0.0643   -0.0584   -0.0505   -0.0425    0.0035
          27   -0.0446    0.0000    0.0315   -0.0295    0.0185    0.0640    0.0639    0.0213
          28    0.0114   -0.0168    0.0171    0.0153   -0.0564   -0.0484    0.0736   -0.0750
          29    0.0176   -0.0241    0.0317    0.0220   -0.0042    0.0041   -0.0151    0.0173
          30   -0.0502    0.0517   -0.0786   -0.0651    0.0312    0.0267   -0.0107   -0.0211
          31    0.0590    0.0030    0.0357    0.0518   -0.0034    0.0029    0.0103   -0.0278
          32    0.0080   -0.0327    0.0243    0.0065   -0.0063   -0.0037   -0.0279    0.0637
          33   -0.0916    0.0271   -0.0766   -0.0846    0.0025   -0.0065    0.0088   -0.0026
          34    0.0338    0.0630   -0.0858   -0.0484   -0.0252   -0.0288    0.0363   -0.0266
          35   -0.0225   -0.0455    0.0457    0.0207   -0.0211   -0.0060    0.0351   -0.0673
          36   -0.0114   -0.0124    0.0238    0.0129    0.0257    0.0266   -0.0506    0.0519
          37    0.0735    0.0852   -0.0812   -0.0255    0.0173    0.0104   -0.0171    0.0235
          38   -0.0229   -0.0396    0.0371    0.0139   -0.0103   -0.0034    0.0131   -0.0149
          39   -0.0678   -0.0419    0.0280   -0.0104   -0.0184   -0.0150   -0.0240    0.0649
          40   -0.0116   -0.0169   -0.0170    0.0155    0.0566   -0.0482   -0.0736   -0.0751
          41    0.0176    0.0243    0.0313   -0.0218   -0.0042   -0.0041   -0.0151   -0.0173
          42   -0.0504   -0.0524   -0.0782    0.0650    0.0312   -0.0265   -0.0106    0.0213
          43   -0.0593    0.0026   -0.0360    0.0520    0.0033    0.0030   -0.0102   -0.0278
          44    0.0077    0.0329    0.0237   -0.0062   -0.0063    0.0037   -0.0279   -0.0638
          45   -0.0917   -0.0280   -0.0766    0.0844    0.0024    0.0065    0.0089    0.0028
          46    0.0005    0.1212   -0.0008    0.1530   -0.0005    0.1927    0.0002   -0.0552
          47    0.0471    0.0001    0.0132    0.0000    0.1104    0.0001   -0.0285    0.0000
          48   -0.0180   -0.0000   -0.0022    0.0000   -0.0271   -0.0001    0.0225   -0.0000
          49   -0.0342    0.0639    0.0853   -0.0481    0.0254   -0.0288   -0.0364   -0.0267
          50   -0.0226    0.0460    0.0454   -0.0206   -0.0211    0.0059    0.0349    0.0672
          51   -0.0115    0.0125    0.0234   -0.0127    0.0259   -0.0264   -0.0506   -0.0521
          52    0.0000   -0.0513    0.0004   -0.0440   -0.0001    0.1463    0.0002   -0.0867
          53   -0.0017   -0.0000   -0.0102    0.0001    0.0360    0.0001   -0.0353    0.0000
          54   -0.0035    0.0000   -0.0025    0.0000    0.0128    0.0000   -0.0106    0.0000
          55   -0.0740    0.0860    0.0805   -0.0251   -0.0173    0.0103    0.0170    0.0234
          56   -0.0232    0.0401    0.0368   -0.0137   -0.0103    0.0034    0.0131    0.0147
          57   -0.0678    0.0420    0.0274    0.0106   -0.0185    0.0151   -0.0239   -0.0649


   Root No.      33        34        35        36        37        38        39        40

                33 A      34 A      35 A      36 A      37 A      38 A      39 A      40 A   

                1383.7    1402.1    1402.5    1411.3    1426.4    1594.4    1599.3    2945.0
  
           1   -0.0160    0.0041   -0.0003    0.0169   -0.0230    0.0655    0.0665    0.0001
           2   -0.0014    0.0033    0.0012    0.0097   -0.0096    0.0085    0.0110    0.0025
           3    0.0087   -0.0025   -0.0012   -0.0045    0.0009   -0.0414   -0.0391    0.0027
           4    0.0160   -0.0041   -0.0005   -0.0169   -0.0230   -0.0653    0.0668   -0.0001
           5   -0.0014    0.0034   -0.0010    0.0097    0.0096    0.0084   -0.0109    0.0025
           6    0.0087   -0.0026    0.0011   -0.0045   -0.0009   -0.0412    0.0392    0.0027
           7    0.0000    0.0001   -0.0001   -0.0000    0.0421   -0.0001   -0.0458    0.0000
           8   -0.0168   -0.0051   -0.0000   -0.0337    0.0000   -0.0166    0.0000   -0.0045
           9   -0.0023    0.0008    0.0000    0.0022    0.0000    0.0070   -0.0000   -0.0548
          10    0.0013    0.0124    0.0134    0.0008   -0.0092   -0.0484   -0.0446   -0.0001
          11    0.0011   -0.0106   -0.0102   -0.0055    0.0117    0.0370    0.0348   -0.0002
          12   -0.0017    0.0021    0.0017    0.0026   -0.0049   -0.0091   -0.0088   -0.0000
          13    0.0026   -0.0012   -0.0006   -0.0032    0.0055    0.0005   -0.0002   -0.0004
          14   -0.0022   -0.0074   -0.0091    0.0055   -0.0092   -0.0349   -0.0330   -0.0001
          15    0.0022    0.0115    0.0140   -0.0080    0.0135    0.0499    0.0466   -0.0000
          16   -0.0013   -0.0133    0.0125   -0.0007   -0.0092    0.0482   -0.0448    0.0001
          17    0.0011   -0.0113    0.0095   -0.0054   -0.0116    0.0368   -0.0349   -0.0002
          18   -0.0017    0.0023   -0.0016    0.0026    0.0050   -0.0092    0.0089   -0.0000
          19   -0.0026    0.0013   -0.0005    0.0032    0.0055   -0.0004   -0.0002    0.0004
          20   -0.0022   -0.0079    0.0085    0.0055    0.0091   -0.0347    0.0330   -0.0001
          21    0.0022    0.0124   -0.0131   -0.0081   -0.0135    0.0498   -0.0468   -0.0000
          22    0.0222   -0.0038    0.0007   -0.0172    0.0362   -0.0324   -0.0396    0.0025
          23    0.0089   -0.0044   -0.0026   -0.0086    0.0067   -0.0313   -0.0291   -0.0274
          24    0.0001    0.0040    0.0019    0.0110   -0.0130   -0.0106   -0.0076   -0.0364
          25   -0.0222    0.0039    0.0009    0.0172    0.0363    0.0322   -0.0398   -0.0025
          26    0.0089   -0.0046    0.0024   -0.0086   -0.0067   -0.0313    0.0292   -0.0274
          27    0.0001    0.0042   -0.0017    0.0109    0.0130   -0.0106    0.0076   -0.0362
          28    0.0566   -0.1132   -0.1118   -0.0338    0.0667    0.0465    0.0415   -0.0006
          29   -0.0094    0.0073    0.0063    0.0043   -0.0036    0.0279    0.0267    0.0025
          30    0.0289   -0.0510   -0.0479   -0.0251    0.0398    0.0252    0.0226    0.0005
          31    0.0251   -0.0396   -0.0369   -0.0195    0.0270   -0.0195   -0.0190    0.0002
          32   -0.0617    0.1169    0.1124    0.0463   -0.0790   -0.0471   -0.0418    0.0001
          33   -0.0088    0.0239    0.0230    0.0105   -0.0201   -0.0174   -0.0146    0.0003
          34    0.0160    0.0281    0.0349   -0.0181    0.0143    0.0308    0.0298    0.0007
          35    0.0746    0.0773    0.1036   -0.0770    0.0744    0.0497    0.0449   -0.0000
          36   -0.0325   -0.0333   -0.0439    0.0288   -0.0211    0.0073    0.0063    0.0020
          37   -0.0271   -0.0280   -0.0365    0.0242   -0.0256   -0.0312   -0.0295   -0.0006
          38    0.0054   -0.0015   -0.0012   -0.0004   -0.0024   -0.0281   -0.0263   -0.0008
          39   -0.0823   -0.0808   -0.1097    0.0855   -0.0850   -0.0329   -0.0267    0.0004
          40   -0.0568    0.1205   -0.1036    0.0329    0.0664   -0.0463    0.0416    0.0006
          41   -0.0093    0.0076   -0.0057    0.0042    0.0035    0.0279   -0.0269    0.0025
          42    0.0290   -0.0544    0.0445   -0.0248   -0.0398    0.0251   -0.0227    0.0005
          43   -0.0252    0.0421   -0.0341    0.0193    0.0269    0.0194   -0.0191   -0.0002
          44   -0.0619    0.1244   -0.1042    0.0454    0.0787   -0.0469    0.0420    0.0001
          45   -0.0087    0.0252   -0.0210    0.0102    0.0199   -0.0172    0.0146    0.0003
          46   -0.0000   -0.0002    0.0030   -0.0000   -0.0600    0.0001    0.0569    0.0000
          47    0.1054    0.0099   -0.0003    0.1221    0.0000    0.0171   -0.0000    0.2830
          48   -0.0865   -0.0098    0.0002   -0.1069    0.0000   -0.0179    0.0000    0.3475
          49   -0.0160   -0.0304    0.0328    0.0185    0.0145   -0.0307    0.0299   -0.0007
          50    0.0743    0.0838   -0.0974   -0.0777   -0.0746    0.0495   -0.0451   -0.0000
          51   -0.0326   -0.0363    0.0415    0.0293    0.0214    0.0072   -0.0063    0.0020
          52    0.0001   -0.0000   -0.0020    0.0000   -0.0420   -0.0000    0.0029   -0.0000
          53    0.1209    0.0087   -0.0003    0.1200   -0.0000   -0.0124    0.0000   -0.2297
          54    0.0835    0.0091   -0.0002    0.0959   -0.0000    0.0056    0.0000    0.3089
          55    0.0269    0.0302   -0.0342   -0.0244   -0.0256    0.0311   -0.0296    0.0006
          56    0.0052   -0.0018    0.0014   -0.0002    0.0026   -0.0281    0.0265   -0.0008
          57   -0.0821   -0.0878    0.1033    0.0864    0.0853   -0.0328    0.0268    0.0004


   Root No.      41        42        43        44        45        46        47        48

                41 A      42 A      43 A      44 A      45 A      46 A      47 A      48 A   

                3005.3    3005.9    3022.4    3081.6    3082.5    3096.0    3096.8    3132.8
  
           1    0.0004    0.0001    0.0003   -0.0000    0.0000   -0.0002    0.0002    0.0003
           2   -0.0181   -0.0220    0.0015   -0.0001    0.0000   -0.0011    0.0011   -0.0003
           3   -0.0220   -0.0268    0.0014   -0.0002    0.0001   -0.0012    0.0012   -0.0002
           4   -0.0004    0.0001   -0.0003    0.0000    0.0000    0.0002    0.0002   -0.0002
           5   -0.0204    0.0196    0.0015   -0.0001   -0.0000   -0.0010   -0.0011   -0.0003
           6   -0.0247    0.0237    0.0014   -0.0002   -0.0001   -0.0011   -0.0012   -0.0002
           7    0.0000   -0.0002    0.0000   -0.0000    0.0001    0.0000   -0.0003    0.0000
           8    0.0011    0.0001    0.0401    0.0003    0.0000    0.0002    0.0000    0.0000
           9   -0.0053   -0.0003   -0.0050   -0.0002   -0.0000   -0.0002   -0.0000   -0.0002
          10    0.0007    0.0008   -0.0001    0.0065   -0.0067   -0.0076    0.0067    0.0036
          11    0.0015    0.0019    0.0001    0.0106   -0.0109   -0.0132    0.0117   -0.0031
          12    0.0006    0.0008   -0.0001    0.0066   -0.0067   -0.0080    0.0071    0.0009
          13    0.0010    0.0013    0.0000   -0.0088    0.0080   -0.0069    0.0069   -0.0014
          14    0.0010    0.0012    0.0001   -0.0116    0.0107   -0.0088    0.0091   -0.0131
          15    0.0011    0.0013    0.0004   -0.0097    0.0085   -0.0081    0.0078    0.0130
          16   -0.0007    0.0007    0.0001   -0.0062   -0.0069    0.0072    0.0072   -0.0032
          17    0.0017   -0.0017    0.0001    0.0101    0.0113   -0.0124   -0.0126   -0.0028
          18    0.0007   -0.0007   -0.0001    0.0062    0.0070   -0.0075   -0.0076    0.0008
          19   -0.0012    0.0011   -0.0000    0.0084    0.0084    0.0064    0.0073    0.0013
          20    0.0011   -0.0011    0.0001   -0.0111   -0.0113   -0.0082   -0.0096   -0.0116
          21    0.0012   -0.0011    0.0004   -0.0093   -0.0090   -0.0075   -0.0083    0.0114
          22    0.0043    0.0031   -0.0011    0.0005   -0.0005   -0.0011    0.0011    0.0000
          23    0.2203    0.2691   -0.0140    0.0005    0.0004    0.0113   -0.0107    0.0016
          24    0.2630    0.3216   -0.0175    0.0026   -0.0014    0.0143   -0.0137    0.0020
          25   -0.0042    0.0022    0.0011   -0.0005   -0.0005    0.0010    0.0012   -0.0000
          26    0.2490   -0.2397   -0.0143    0.0005   -0.0004    0.0106    0.0114    0.0014
          27    0.2960   -0.2852   -0.0177    0.0025    0.0015    0.0133    0.0146    0.0018
          28   -0.0010   -0.0010    0.0008    0.0056   -0.0058   -0.0075    0.0067   -0.0002
          29   -0.0121   -0.0156   -0.0006   -0.1090    0.1119    0.1365   -0.1211    0.0536
          30   -0.0028   -0.0037   -0.0002   -0.0343    0.0351    0.0410   -0.0363    0.0173
          31   -0.0113   -0.0139    0.0026   -0.0844    0.0865    0.0995   -0.0877   -0.0472
          32   -0.0033   -0.0040    0.0007   -0.0203    0.0207    0.0219   -0.0192   -0.0146
          33   -0.0077   -0.0095    0.0014   -0.0457    0.0468    0.0549   -0.0484   -0.0270
          34   -0.0071   -0.0086   -0.0016    0.0632   -0.0563    0.0527   -0.0513   -0.0723
          35   -0.0038   -0.0044   -0.0008    0.0387   -0.0343    0.0305   -0.0295   -0.0507
          36   -0.0107   -0.0130   -0.0043    0.1311   -0.1164    0.1076   -0.1046   -0.1390
          37   -0.0049   -0.0056   -0.0004    0.0428   -0.0404    0.0297   -0.0317    0.0898
          38   -0.0138   -0.0162   -0.0007    0.1021   -0.0960    0.0751   -0.0793    0.2069
          39    0.0007    0.0006    0.0004   -0.0138    0.0127   -0.0113    0.0115   -0.0151
          40    0.0011   -0.0009   -0.0008   -0.0053   -0.0060    0.0071    0.0072    0.0002
          41   -0.0137    0.0139   -0.0006   -0.1036   -0.1166    0.1286    0.1301    0.0483
          42   -0.0032    0.0033   -0.0002   -0.0324   -0.0363    0.0383    0.0387    0.0155
          43    0.0127   -0.0123   -0.0026    0.0801    0.0900   -0.0936   -0.0940    0.0426
          44   -0.0037    0.0036    0.0007   -0.0194   -0.0217    0.0207    0.0207   -0.0132
          45   -0.0087    0.0084    0.0014   -0.0434   -0.0488    0.0517    0.0520   -0.0244
          46   -0.0002    0.0037   -0.0000   -0.0000    0.0002    0.0000   -0.0011    0.0000
          47    0.0174    0.0012   -0.2361   -0.0005   -0.0000   -0.0003   -0.0000    0.0008
          48    0.0165    0.0012   -0.3415   -0.0018   -0.0000   -0.0013   -0.0000    0.0016
          49    0.0080   -0.0076    0.0016   -0.0605   -0.0591   -0.0490   -0.0545    0.0629
          50   -0.0042    0.0040   -0.0008    0.0375    0.0364    0.0287    0.0317   -0.0447
          51   -0.0121    0.0115   -0.0043    0.1258    0.1227    0.1003    0.1113   -0.1213
          52    0.0001   -0.0021   -0.0000    0.0000   -0.0001    0.0000   -0.0001    0.0000
          53   -0.0343   -0.0021   -0.2512   -0.0014   -0.0000   -0.0013   -0.0000   -0.0002
          54    0.0451    0.0028    0.4028    0.0024    0.0001    0.0019    0.0001    0.0002
          55    0.0054   -0.0049    0.0004   -0.0409   -0.0423   -0.0274   -0.0334   -0.0792
          56   -0.0155    0.0143   -0.0007    0.0975    0.1006    0.0693    0.0838    0.1825
          57    0.0007   -0.0006    0.0004   -0.0134   -0.0136   -0.0106   -0.0123   -0.0136


   Root No.      49        50        51

                49 A      50 A      51 A   

                3133.6    3135.0    3135.1
  
           1   -0.0002    0.0003   -0.0002
           2    0.0002   -0.0001    0.0001
           3    0.0001   -0.0006    0.0005
           4   -0.0002    0.0002    0.0003
           5   -0.0003    0.0001    0.0001
           6   -0.0001    0.0005    0.0006
           7   -0.0000    0.0001    0.0000
           8    0.0000   -0.0000    0.0002
           9   -0.0000   -0.0000    0.0002
          10   -0.0043   -0.0149    0.0128
          11    0.0033    0.0095   -0.0081
          12   -0.0011   -0.0039    0.0033
          13    0.0008   -0.0007    0.0006
          14    0.0102   -0.0051    0.0032
          15   -0.0108    0.0051   -0.0030
          16   -0.0051   -0.0116   -0.0159
          17   -0.0038   -0.0074   -0.0101
          18    0.0013    0.0031    0.0042
          19    0.0009   -0.0006   -0.0008
          20   -0.0116    0.0045    0.0047
          21    0.0122   -0.0045   -0.0044
          22   -0.0000    0.0001   -0.0001
          23   -0.0009    0.0017   -0.0015
          24   -0.0011    0.0020   -0.0018
          25   -0.0000    0.0000    0.0001
          26    0.0010   -0.0014   -0.0019
          27    0.0012   -0.0016   -0.0023
          28    0.0000   -0.0013    0.0011
          29   -0.0580   -0.1637    0.1408
          30   -0.0189   -0.0549    0.0472
          31    0.0553    0.1759   -0.1508
          32    0.0169    0.0535   -0.0459
          33    0.0317    0.1006   -0.0863
          34    0.0611   -0.0258    0.0142
          35    0.0424   -0.0185    0.0104
          36    0.1173   -0.0494    0.0272
          37   -0.0712    0.0332   -0.0202
          38   -0.1639    0.0762   -0.0464
          39    0.0117   -0.0055    0.0034
          40    0.0000   -0.0010   -0.0013
          41    0.0676    0.1274    0.1750
          42    0.0219    0.0424    0.0582
          43    0.0644    0.1371    0.1877
          44   -0.0198   -0.0419   -0.0573
          45   -0.0369   -0.0785   -0.1076
          46   -0.0001   -0.0003   -0.0000
          47    0.0000    0.0002   -0.0019
          48    0.0001    0.0003   -0.0024
          49    0.0685   -0.0230   -0.0217
          50   -0.0481    0.0165    0.0159
          51   -0.1319    0.0441    0.0416
          52   -0.0002   -0.0001   -0.0000
          53   -0.0000    0.0000   -0.0002
          54    0.0000   -0.0001    0.0006
          55   -0.0808    0.0292    0.0298
          56    0.1860   -0.0671   -0.0683
          57   -0.0137    0.0049    0.0051


           MASS-WEIGHTED COORDINATE ANALYSIS (NORMAL COORDINATES)


   Root No.       1         2         3         4         5         6         7         8

                 1 A       2 A       3 A       4 A       5 A       6 A       7 A       8 A   

                  53.8      60.2     187.4     317.4     373.2     424.0     459.5     814.7
  
           1   -0.0140    0.0870    0.1225   -0.1391    0.1638   -0.1296    0.2905   -0.0051
           2   -0.0315   -0.1497    0.1592    0.2141   -0.1646   -0.3643   -0.0080   -0.0292
           3    0.1156    0.1818    0.0388   -0.2590   -0.1060   -0.2510    0.2253   -0.0325
           4    0.0097    0.0876   -0.1227   -0.1395   -0.1629   -0.1293   -0.2903    0.0048
           5   -0.0393    0.1476    0.1594   -0.2151   -0.1639    0.3644   -0.0074   -0.0291
           6    0.1252   -0.1759    0.0389    0.2586   -0.1072    0.2504    0.2259   -0.0323
           7    0.0005   -0.0141   -0.0002   -0.0155    0.0002   -0.3324   -0.0001   -0.0003
           8   -0.0530   -0.0015    0.3549   -0.0004   -0.0253   -0.0001    0.2974    0.2212
           9    0.4161    0.0108    0.1275    0.0007    0.3615    0.0003   -0.1490   -0.0140
          10   -0.1236   -0.0429   -0.1560   -0.2003    0.3281    0.1763    0.2799   -0.0126
          11    0.0272   -0.1103   -0.3383   -0.0849    0.0696    0.0961    0.0118   -0.0261
          12   -0.2696   -0.2393   -0.1386   -0.0146   -0.1151   -0.0267   -0.0999    0.0425
          13   -0.4001   -0.0437    0.2010    0.3140    0.2457    0.1040   -0.0445   -0.0566
          14    0.0240    0.3087    0.0409    0.2094    0.0711    0.0428   -0.1396    0.0142
          15   -0.0487    0.2709    0.0365   -0.0681   -0.0069   -0.0157    0.0203    0.0343
          16    0.1250   -0.0360    0.1557   -0.2024   -0.3271    0.1761   -0.2800    0.0126
          17    0.0215    0.1125   -0.3385    0.0856    0.0689   -0.0959    0.0117   -0.0259
          18   -0.2817    0.2248   -0.1383    0.0142   -0.1149    0.0267   -0.0997    0.0427
          19    0.4022   -0.0227   -0.2003    0.3125   -0.2476    0.1044    0.0447    0.0566
          20    0.0403   -0.3075    0.0404   -0.2088    0.0722   -0.0429   -0.1397    0.0144
          21   -0.0347   -0.2725    0.0362    0.0680   -0.0073    0.0158    0.0204    0.0344
          22    0.0546    0.0814    0.1150   -0.0554    0.0788   -0.0508    0.1441    0.0700
          23   -0.0149   -0.1407    0.0264    0.0801   -0.0446   -0.1191   -0.0444   -0.0199
          24    0.0366    0.1337    0.0239   -0.0887   -0.0292   -0.0532    0.0941    0.0024
          25   -0.0585    0.0783   -0.1151   -0.0555   -0.0783   -0.0507   -0.1441   -0.0700
          26   -0.0223    0.1395    0.0266   -0.0803   -0.0443    0.1190   -0.0440   -0.0194
          27    0.0438   -0.1320    0.0240    0.0887   -0.0297    0.0530    0.0943    0.0022
          28   -0.0511   -0.0592   -0.1907   -0.1462    0.1651    0.2075    0.1068   -0.0054
          29    0.0108    0.0056   -0.0928   -0.0179    0.0423    0.0612   -0.0040    0.0862
          30   -0.0889   -0.1932   -0.0738   -0.0390   -0.0936   -0.0910    0.0019   -0.3048
          31    0.0043    0.0167    0.0028   -0.0677    0.0667   -0.0338    0.1176   -0.0949
          32    0.0142   -0.1234   -0.2369   -0.1437    0.0421    0.0941    0.0688   -0.2282
          33   -0.1527   -0.0775   -0.0608    0.0675    0.0094    0.1163   -0.1222    0.2679
          34   -0.1942   -0.0604    0.0038    0.1622    0.1251    0.1636   -0.1258    0.1504
          35    0.0094    0.2152    0.1043    0.1472    0.0348    0.0143   -0.0978   -0.2644
          36    0.0239    0.0631    0.0093   -0.0801   -0.0316   -0.0705    0.0765    0.0016
          37   -0.1349    0.0156    0.1803    0.1847    0.0217   -0.0749   -0.0325   -0.3266
          38    0.0121    0.0875   -0.0367    0.0322    0.0488    0.0685   -0.0456    0.1180
          39   -0.0425    0.1796    0.0392    0.0759    0.0569    0.1009   -0.1096   -0.0815
          40    0.0536   -0.0563    0.1905   -0.1474   -0.1645    0.2074   -0.1068    0.0059
          41    0.0111   -0.0045   -0.0929    0.0183    0.0420   -0.0609   -0.0040    0.0861
          42   -0.0989    0.1885   -0.0737    0.0386   -0.0938    0.0909    0.0021   -0.3071
          43   -0.0054    0.0166   -0.0030   -0.0681   -0.0662   -0.0340   -0.1178    0.0953
          44    0.0078    0.1243   -0.2368    0.1440    0.0413   -0.0942    0.0686   -0.2296
          45   -0.1564    0.0692   -0.0606   -0.0674    0.0100   -0.1160   -0.1223    0.2694
          46   -0.0002    0.0067   -0.0001   -0.0270    0.0001   -0.2112   -0.0001   -0.0001
          47   -0.0964   -0.0026    0.0695   -0.0005   -0.1900   -0.0003    0.2637    0.0802
          48    0.1851    0.0048    0.0614    0.0005    0.2573    0.0003   -0.1910   -0.0194
          49    0.1972   -0.0502   -0.0034    0.1612   -0.1262    0.1637    0.1259   -0.1516
          50    0.0207   -0.2146    0.1040   -0.1469    0.0355   -0.0142   -0.0977   -0.2661
          51    0.0269   -0.0612    0.0091    0.0799   -0.0320    0.0702    0.0764    0.0024
          52    0.0017   -0.0642   -0.0001    0.1176   -0.0003   -0.1067   -0.0000   -0.0001
          53    0.0685    0.0018    0.1321    0.0003    0.1919    0.0002   -0.1085    0.0566
          54    0.1799    0.0047    0.0595    0.0005    0.2499    0.0002   -0.1855   -0.0100
          55    0.1341    0.0226   -0.1801    0.1847   -0.0226   -0.0748    0.0324    0.3287
          56    0.0168   -0.0871   -0.0368   -0.0320    0.0491   -0.0687   -0.0459    0.1186
          57   -0.0331   -0.1816    0.0391   -0.0756    0.0573   -0.1005   -0.1096   -0.0828


   Root No.       9        10        11        12        13        14        15        16

                 9 A      10 A      11 A      12 A      13 A      14 A      15 A      16 A   

                 825.0     843.5     874.6     891.3     900.1     907.8     958.8     970.6
  
           1   -0.0276    0.0050    0.0030    0.0219   -0.0295    0.0708    0.1064   -0.0603
           2   -0.0254   -0.0493   -0.0255   -0.0086   -0.0930   -0.0537   -0.0959    0.0786
           3   -0.0078   -0.1151   -0.0177   -0.0862   -0.0539   -0.1903    0.0558   -0.0412
           4   -0.0275   -0.0050    0.0029   -0.0220    0.0300    0.0707    0.1063    0.0604
           5    0.0256   -0.0495    0.0259   -0.0090   -0.0926    0.0550    0.0958    0.0789
           6    0.0081   -0.1150    0.0173   -0.0861   -0.0516    0.1907   -0.0559   -0.0418
           7   -0.1150    0.0000    0.0482    0.0000    0.0018    0.3391    0.0896    0.0002
           8   -0.0008    0.2577    0.0005    0.1979    0.2575   -0.0015   -0.0000   -0.0386
           9    0.0001   -0.3422   -0.0014   -0.2269    0.2730   -0.0013   -0.0003    0.0579
          10   -0.0043   -0.0324    0.1101    0.1404   -0.1106   -0.0350   -0.2089    0.1465
          11   -0.0049   -0.1180   -0.0220   -0.0945   -0.0991   -0.1927    0.0601   -0.0733
          12   -0.0452    0.0638    0.0114    0.0450   -0.0254    0.0998    0.0541   -0.0359
          13    0.0262   -0.1139   -0.0952   -0.1618   -0.0952   -0.2126    0.0100   -0.0460
          14   -0.0288    0.0240   -0.0821   -0.0738   -0.0677    0.0153    0.0837   -0.0879
          15   -0.0330    0.0722    0.0615    0.1247   -0.0948    0.0213   -0.2241    0.1468
          16   -0.0043    0.0322    0.1087   -0.1410    0.1107   -0.0361   -0.2086   -0.1473
          17    0.0052   -0.1180    0.0215   -0.0945   -0.0969    0.1936   -0.0600   -0.0735
          18    0.0449    0.0638   -0.0113    0.0453   -0.0263   -0.0999   -0.0537   -0.0354
          19    0.0258    0.1140   -0.0942    0.1623    0.0925   -0.2137    0.0103    0.0464
          20    0.0288    0.0240    0.0815   -0.0741   -0.0677   -0.0145   -0.0832   -0.0877
          21    0.0326    0.0722   -0.0601    0.1249   -0.0954   -0.0201    0.2241    0.1476
          22   -0.0317    0.0506   -0.1347   -0.0850    0.1236    0.0415    0.2314   -0.1904
          23   -0.0314   -0.1594    0.1873    0.1276    0.0081    0.0050   -0.2503    0.3287
          24    0.0169    0.0916   -0.1660   -0.1297   -0.0421   -0.0664    0.2013   -0.2654
          25   -0.0310   -0.0503   -0.1333    0.0853   -0.1234    0.0428    0.2306    0.1904
          26    0.0315   -0.1591   -0.1860    0.1286    0.0078   -0.0049    0.2493    0.3288
          27   -0.0169    0.0919    0.1658   -0.1312   -0.0411    0.0667   -0.2016   -0.2669
          28    0.1084    0.2045   -0.1853   -0.1080    0.2346    0.1590   -0.1154    0.1593
          29   -0.0867   -0.0249   -0.0619   -0.0765   -0.0306   -0.0588   -0.0592    0.0646
          30    0.2997    0.0362    0.1403    0.1452    0.0555    0.0752    0.2555   -0.2686
          31    0.0373   -0.1335    0.1917    0.1551   -0.1613   -0.1537   -0.0710   -0.0053
          32    0.2959    0.1197   -0.0509   -0.0318    0.1948    0.0514    0.0714   -0.0605
          33   -0.2049    0.1798   -0.2722   -0.1971    0.1345    0.2428    0.0133    0.0923
          34   -0.1602   -0.2468    0.2062    0.1051    0.1199   -0.1268    0.2411   -0.2261
          35    0.2888    0.0680    0.0708    0.0684    0.1791    0.1626   -0.0250    0.1021
          36   -0.0086    0.1064   -0.1196   -0.0606   -0.1528   -0.0059   -0.1651    0.1085
          37    0.3280    0.0639   -0.2287   -0.2727   -0.0264   -0.1226   -0.1097    0.1022
          38   -0.1232   -0.0426    0.0981    0.1061    0.0166    0.0505    0.0834   -0.0739
          39    0.1097   -0.0399    0.3038    0.2911    0.2516    0.1735    0.0363    0.0323
          40    0.1082   -0.2045   -0.1843    0.1095   -0.2333    0.1614   -0.1153   -0.1595
          41    0.0855   -0.0248    0.0612   -0.0766   -0.0296    0.0590    0.0585    0.0640
          42   -0.2982    0.0362   -0.1398    0.1464    0.0544   -0.0761   -0.2548   -0.2688
          43    0.0369    0.1335    0.1905   -0.1567    0.1606   -0.1555   -0.0713    0.0049
          44   -0.2941    0.1200    0.0507   -0.0325    0.1945   -0.0540   -0.0712   -0.0606
          45    0.2036    0.1791    0.2704   -0.1989    0.1324   -0.2438   -0.0137    0.0920
          46   -0.0652    0.0002    0.0113   -0.0001    0.0003    0.0501    0.0900    0.0005
          47   -0.0003   -0.2230   -0.0009   -0.0814    0.3296   -0.0017   -0.0002    0.0610
          48    0.0001    0.1473    0.0005    0.0497   -0.1318    0.0007    0.0001   -0.0428
          49   -0.1593    0.2464    0.2063   -0.1071   -0.1206   -0.1253    0.2404    0.2269
          50   -0.2870    0.0681   -0.0707    0.0686    0.1769   -0.1643    0.0251    0.1024
          51    0.0094    0.1058    0.1196   -0.0616   -0.1526    0.0081    0.1643    0.1084
          52   -0.0599   -0.0001   -0.0008    0.0004    0.0023    0.4110   -0.1136   -0.0004
          53   -0.0002    0.4010    0.0013    0.2323   -0.1677    0.0007    0.0002   -0.0801
          54    0.0000    0.1416    0.0004    0.0594   -0.1002    0.0005    0.0000   -0.0373
          55    0.3259   -0.0637   -0.2274    0.2747    0.0247   -0.1235   -0.1095   -0.1022
          56    0.1221   -0.0426   -0.0981    0.1074    0.0163   -0.0511   -0.0832   -0.0739
          57   -0.1099   -0.0394   -0.3021    0.2926    0.2487   -0.1761   -0.0357    0.0326


   Root No.      17        18        19        20        21        22        23        24

                17 A      18 A      19 A      20 A      21 A      22 A      23 A      24 A   

                 987.8    1022.5    1034.2    1099.4    1109.8    1133.7    1151.4    1161.3
  
           1   -0.0635    0.1887   -0.1814    0.0792    0.1047   -0.1280    0.2230    0.1128
           2    0.0727   -0.0894    0.1274   -0.2263   -0.1154    0.2444   -0.2387    0.0203
[...]
 FREQ.      1277.63         C  2 -- H  9         +14.7% ( 51.9%)      3.7%
 T-DIPOLE    0.0305         C  1 -- H  8         +14.6% ( 51.8%)      3.7%
 TRAVEL      0.0992         C  6 -- C  7          +7.0% ( 35.8%)     99.9%
 RED. MASS   0.3966         C  4 -- C  5          +7.0% ( 35.8%)     99.9%
 EFF. MASS   5.3672

 VIBRATION   32   32A         ATOM PAIR      ENERGY CONTRIBUTION    RADIAL
 FREQ.      1327.98         C  3 -- H 18         +12.4% ( 46.6%)      0.0%
 T-DIPOLE    0.0419         C  2 -- C  3         +10.6% ( 43.0%)     71.7%
 TRAVEL      0.0944         C  1 -- C  3         +10.6% ( 43.0%)     71.6%
 RED. MASS   0.5614         C  3 -- H 16         +10.3% ( 42.4%)      0.0%
 EFF. MASS   5.6956

 VIBRATION   33   33A         ATOM PAIR      ENERGY CONTRIBUTION    RADIAL
 FREQ.      1383.73         C  3 -- H 18         +18.1% ( 42.0%)      2.1%
 T-DIPOLE    0.0446         C  3 -- H 16         +15.5% ( 38.9%)      5.1%
 TRAVEL      0.1528         C  5 -- H 13          +5.6% ( 23.4%)      0.4%
 RED. MASS   0.1648         C  7 -- H 19          +5.6% ( 23.4%)      0.4%
 EFF. MASS   2.0881

 VIBRATION   34   34A         ATOM PAIR      ENERGY CONTRIBUTION    RADIAL
 FREQ.      1402.13         C  6 -- H 15         +14.2% ( 37.9%)      2.5%
 T-DIPOLE    0.1027         C  6 -- H 14         +14.0% ( 37.6%)      2.8%
 TRAVEL      0.1548         C  4 -- H 11         +12.6% ( 35.6%)      2.4%
 RED. MASS   0.1436         C  4 -- H 10         +12.3% ( 35.3%)      2.8%
 EFF. MASS   2.0080

 VIBRATION   35   35A         ATOM PAIR      ENERGY CONTRIBUTION    RADIAL
 FREQ.      1402.46         C  4 -- H 10         +11.8% ( 34.2%)      2.6%
 T-DIPOLE    0.0475         C  4 -- H 11         +11.5% ( 33.7%)      2.9%
 TRAVEL      0.1579         C  5 -- H 12         +11.2% ( 33.3%)      2.6%
 RED. MASS   0.1352         C  5 -- H 13         +10.7% ( 32.5%)      3.0%
 EFF. MASS   1.9295         C  6 -- H 14         +10.1% ( 31.7%)      2.6%

 VIBRATION   36   36A         ATOM PAIR      ENERGY CONTRIBUTION    RADIAL
 FREQ.      1411.26         C  3 -- H 16         +19.5% ( 48.6%)      5.0%
 T-DIPOLE    0.0806         C  3 -- H 18         +17.6% ( 46.2%)      6.7%
 TRAVEL      0.1202         C  1 -- C  3         +10.2% ( 35.1%)     66.9%
 RED. MASS   0.3184         C  2 -- C  3         +10.2% ( 35.1%)     66.8%
 EFF. MASS   3.3064

 VIBRATION   37   37A         ATOM PAIR      ENERGY CONTRIBUTION    RADIAL
 FREQ.      1426.37         C  1 -- C  3         +12.3% ( 46.4%)     80.8%
 T-DIPOLE    0.1605         C  2 -- C  3         +12.3% ( 46.4%)     80.8%
 TRAVEL      0.0922         C  3 -- H 16          +9.1% ( 39.8%)      0.0%
 RED. MASS   0.6039         C  3 -- H 18          +8.0% ( 37.3%)      0.0%
 EFF. MASS   5.5554

 VIBRATION   38   38A         ATOM PAIR      ENERGY CONTRIBUTION    RADIAL
 FREQ.      1594.43         C  1 -- C  4         +10.2% ( 53.0%)     96.6%
 T-DIPOLE    0.0570         C  2 -- C  6         +10.1% ( 52.8%)     96.6%
 TRAVEL      0.0606         C  1 -- C  5         +10.1% ( 52.6%)     96.5%
 RED. MASS   1.7321         C  2 -- C  7         +10.0% ( 52.4%)     96.5%
 EFF. MASS  11.5178

 VIBRATION   39   39A         ATOM PAIR      ENERGY CONTRIBUTION    RADIAL
 FREQ.      1599.30         C  2 -- C  6          +9.6% ( 51.4%)     95.3%
 T-DIPOLE    0.0690         C  2 -- C  7          +9.6% ( 51.2%)     94.8%
 TRAVEL      0.0607         C  1 -- C  4          +9.6% ( 51.2%)     95.3%
 RED. MASS   1.6403         C  1 -- C  5          +9.5% ( 51.0%)     94.8%
 EFF. MASS  11.4548

 VIBRATION   40   40A         ATOM PAIR      ENERGY CONTRIBUTION    RADIAL
 FREQ.      2944.98         C  3 -- H 16         +54.9% ( 77.0%)     97.3%
 T-DIPOLE    0.0213         C  3 -- H 18         +41.6% ( 67.0%)     95.5%
 TRAVEL      0.1216         C  1 -- C  3          +1.2% ( 11.3%)      0.5%
 RED. MASS   0.5165         C  2 -- C  3          +1.2% ( 11.3%)      0.5%
 EFF. MASS   1.5485

 VIBRATION   41   41A         ATOM PAIR      ENERGY CONTRIBUTION    RADIAL
 FREQ.      3005.30         C  2 -- H  9         +53.0% ( 74.1%)    100.0%
 T-DIPOLE    0.2634         C  1 -- H  8         +41.7% ( 65.7%)    100.0%
 TRAVEL      0.1242         C  3 -- H 18          +1.1% ( 10.8%)     99.4%
 RED. MASS   0.4528         C  2 -- C  7          +0.6% (  8.1%)     22.8%
 EFF. MASS   1.4554

 VIBRATION   42   42A         ATOM PAIR      ENERGY CONTRIBUTION    RADIAL
 FREQ.      3005.90         C  1 -- H  8         +53.6% ( 74.5%)    100.0%
 T-DIPOLE    0.0357         C  2 -- H  9         +42.3% ( 66.2%)    100.0%
 TRAVEL      0.1243         C  1 -- C  5          +0.6% (  8.1%)     22.5%
 RED. MASS   0.4653         C  1 -- C  4          +0.6% (  8.1%)     22.7%
 EFF. MASS   1.4519

 VIBRATION   43   43A         ATOM PAIR      ENERGY CONTRIBUTION    RADIAL
 FREQ.      3022.36         C  3 -- H 18         +56.2% ( 73.9%)     98.4%
 T-DIPOLE    0.0371         C  3 -- H 16         +42.3% ( 64.1%)     96.7%
 TRAVEL      0.1323         C  1 -- C  3          +0.6% (  7.7%)     30.2%
 RED. MASS   0.4895         C  2 -- C  3          +0.6% (  7.7%)     30.2%
 EFF. MASS   1.2749

 VIBRATION   44   44A         ATOM PAIR      ENERGY CONTRIBUTION    RADIAL
 FREQ.      3081.58         C  5 -- H 12         +19.6% ( 45.9%)     98.3%
 T-DIPOLE    0.0460         C  7 -- H 17         +18.1% ( 44.1%)     98.3%
 TRAVEL      0.1187         C  4 -- H 10         +11.5% ( 35.1%)     97.7%
 RED. MASS   0.1436         C  5 -- H 13         +11.3% ( 34.8%)     95.0%
 EFF. MASS   1.5535         C  6 -- H 14         +10.3% ( 33.3%)     97.7%
                            C  7 -- H 19         +10.3% ( 33.3%)     95.0%

 VIBRATION   45   45A         ATOM PAIR      ENERGY CONTRIBUTION    RADIAL
 FREQ.      3082.54         C  7 -- H 17         +17.2% ( 43.0%)     98.1%
 T-DIPOLE    0.0152         C  5 -- H 12         +15.5% ( 40.8%)     98.1%
 TRAVEL      0.1186         C  6 -- H 14         +13.1% ( 37.5%)     97.7%
 RED. MASS   0.1361         C  4 -- H 10         +12.0% ( 36.0%)     97.7%
 EFF. MASS   1.5540         C  7 -- H 19         +10.9% ( 34.3%)     95.4%

 VIBRATION   46   46A         ATOM PAIR      ENERGY CONTRIBUTION    RADIAL
 FREQ.      3095.99         C  4 -- H 10         +18.8% ( 44.6%)     98.1%
 T-DIPOLE    0.3031         C  6 -- H 14         +16.6% ( 42.0%)     98.1%
 TRAVEL      0.1189         C  5 -- H 12         +13.9% ( 38.4%)     98.8%
 RED. MASS   0.1435         C  4 -- H 11         +12.7% ( 36.7%)     96.0%
 EFF. MASS   1.5393         C  7 -- H 17         +12.1% ( 35.8%)     98.8%
                            C  6 -- H 15         +11.3% ( 34.6%)     96.0%

 VIBRATION   47   47A         ATOM PAIR      ENERGY CONTRIBUTION    RADIAL
 FREQ.      3096.78         C  6 -- H 14         +17.2% ( 42.7%)     98.2%
 T-DIPOLE    0.1481         C  7 -- H 17         +15.1% ( 40.0%)     98.6%
 TRAVEL      0.1189         C  4 -- H 10         +14.9% ( 39.7%)     98.2%
 RED. MASS   0.1376         C  5 -- H 12         +13.3% ( 37.6%)     98.5%
 EFF. MASS   1.5399         C  6 -- H 15         +11.5% ( 34.9%)     95.9%

 VIBRATION   48   48A         ATOM PAIR      ENERGY CONTRIBUTION    RADIAL
 FREQ.      3132.80         C  5 -- H 13         +33.9% ( 57.8%)     98.2%
 T-DIPOLE    0.2858         C  7 -- H 19         +26.3% ( 51.0%)     98.2%
 TRAVEL      0.1291         C  5 -- H 12         +17.5% ( 41.5%)     92.9%
 RED. MASS   0.2307         C  7 -- H 17         +13.3% ( 36.3%)     92.8%
 EFF. MASS   1.2923

 VIBRATION   49   49A         ATOM PAIR      ENERGY CONTRIBUTION    RADIAL
 FREQ.      3133.58         C  7 -- H 19         +30.2% ( 54.6%)     98.0%
 T-DIPOLE    0.0614         C  5 -- H 13         +23.5% ( 48.1%)     98.0%
 TRAVEL      0.1294         C  7 -- H 17         +17.4% ( 41.4%)     93.7%
 RED. MASS   0.1982         C  5 -- H 12         +13.8% ( 36.8%)     93.8%
 EFF. MASS   1.2843

 VIBRATION   50   50A         ATOM PAIR      ENERGY CONTRIBUTION    RADIAL
 FREQ.      3135.01         C  4 -- H 11         +31.6% ( 56.0%)     97.6%
 T-DIPOLE    0.2271         C  4 -- H 10         +21.1% ( 45.7%)     94.5%
 TRAVEL      0.1273         C  6 -- H 15         +19.2% ( 43.7%)     97.6%
 RED. MASS   0.2035         C  6 -- H 14         +12.8% ( 35.6%)     94.4%
 EFF. MASS   1.3268

 VIBRATION   51   51A         ATOM PAIR      ENERGY CONTRIBUTION    RADIAL
 FREQ.      3135.07         C  6 -- H 15         +32.9% ( 57.1%)     97.6%
 T-DIPOLE    0.0865         C  6 -- H 14         +22.0% ( 46.7%)     94.5%
 TRAVEL      0.1275         C  4 -- H 11         +21.2% ( 45.9%)     97.6%
 RED. MASS   0.2246         C  4 -- H 10         +14.2% ( 37.6%)     94.5%
 EFF. MASS   1.3222

      SYMMETRY NUMBER FOR POINT-GROUP C1  =  1


          SYSTEM IS A GROUND STATE



 InChI=1S/C7H12/c1-2-6(1)5-7-3-4-7/h6-7H,1-5H2


          MOLECULE IS NOT LINEAR

          THERE ARE 51 GENUINE VIBRATIONS IN THIS SYSTEM
          THIS THERMODYNAMICS CALCULATION IS LIMITED TO
          MOLECULES WHICH HAVE NO INTERNAL ROTATIONS




                    CALCULATED THERMODYNAMIC PROPERTIES
                                          *
   TEMP. (K)   PARTITION FUNCTION   H.O.F.    ENTHALPY  HEAT CAPACITY ENTROPY
                                   KCAL/MOL   CAL/MOLE    CAL/K/MOL  CAL/K/MOL


 298.00  VIB.     0.7016D+02                  2760.8124    20.9748    17.7116
         ROT.     0.2395D+06                   888.2813     2.9808    27.5948
         INT.     0.1680D+08                  3649.0937    23.9556    45.3064
         TRA.     0.9118D+27                  1480.4688     4.9680    39.5994
         TOT.                       30.475    5129.5625    28.9236    84.9058

 200.00  VIB.     0.1593D+02                  1179.1726    11.8186    11.3969
         ROT.     0.1317D+06                   596.1620     2.9808    26.4061
         INT.     0.2097D+07                  1775.3345    14.7994    37.8030
         TRA.     0.5013D+27                   993.6033     4.9680    37.6183
         TOT.                       28.114    2768.9378    19.7674    75.4212

 210.00  VIB.     0.1848D+02                  1301.1964    12.5934    11.9921
         ROT.     0.1417D+06                   625.9700     2.9808    26.5515
         INT.     0.2618D+07                  1927.1664    15.5742    38.5436
         TRA.     0.5394D+27                  1043.2834     4.9680    37.8607
         TOT.                       28.316    2970.4498    20.5422    76.4043

 220.00  VIB.     0.2144D+02                  1431.1834    13.4111    12.5966
         ROT.     0.1519D+06                   655.7781     2.9808    26.6902
         INT.     0.3257D+07                  2086.9615    16.3919    39.2868
         TRA.     0.5784D+27                  1092.9636     4.9680    38.0918
         TOT.                       28.525    3179.9251    21.3599    77.3786

 230.00  VIB.     0.2489D+02                  1569.5566    14.2703    13.2116
         ROT.     0.1624D+06                   685.5862     2.9808    26.8227
         INT.     0.4041D+07                  2255.1429    17.2511    40.0343
         TRA.     0.6182D+27                  1142.6437     4.9680    38.3126
         TOT.                       28.743    3397.7866    22.2191    78.3469

 240.00  VIB.     0.2890D+02                  1716.7208    15.1688    13.8378
         ROT.     0.1731D+06                   715.3943     2.9808    26.9496
         INT.     0.5002D+07                  2432.1151    18.1496    40.7873
         TRA.     0.6590D+27                  1192.3239     4.9680    38.5241
         TOT.                       28.970    3624.4390    23.1176    79.3114

 250.00  VIB.     0.3359D+02                  1873.0540    16.1036    14.4758
         ROT.     0.1840D+06                   745.2024     2.9808    27.0712
         INT.     0.6181D+07                  2618.2564    19.0844    41.5471
         TRA.     0.7006D+27                  1242.0041     4.9680    38.7269
         TOT.                       29.206    3860.2605    24.0524    80.2739

 260.00  VIB.     0.3908D+02                  2038.9012    17.0710    15.1262
         ROT.     0.1952D+06                   775.0105     2.9808    27.1882
         INT.     0.7627D+07                  2813.9117    20.0518    42.3143
         TRA.     0.7431D+27                  1291.6842     4.9680    38.9217
         TOT.                       29.451    4105.5959    25.0198    81.2360

 270.00  VIB.     0.4551D+02                  2214.5701    18.0672    15.7890
         ROT.     0.2065D+06                   804.8186     2.9808    27.3006
         INT.     0.9399D+07                  3019.3887    21.0480    43.0897
         TRA.     0.7864D+27                  1341.3644     4.9680    39.1092
         TOT.                       29.706    4360.7531    26.0161    82.1989

 280.00  VIB.     0.5306D+02                  2400.3281    19.0881    16.4645
         ROT.     0.2181D+06                   834.6267     2.9808    27.4091
         INT.     0.1157D+08                  3234.9548    22.0690    43.8735
         TRA.     0.8304D+27                  1391.0445     4.9680    39.2899
         TOT.                       29.971    4625.9994    27.0370    83.1634

 290.00  VIB.     0.6193D+02                  2596.4013    20.1296    17.1524
         ROT.     0.2299D+06                   864.4348     2.9808    27.5137
         INT.     0.1424D+08                  3460.8362    23.1104    44.6661
         TRA.     0.8753D+27                  1440.7247     4.9680    39.4642
         TOT.                       30.247    4901.5609    28.0784    84.1303

 300.00  VIB.     0.7239D+02                  2802.9745    21.1875    17.8526
         ROT.     0.2419D+06                   894.2429     2.9808    27.6147
         INT.     0.1751D+08                  3697.2174    24.1683    45.4673
         TRA.     0.9210D+27                  1490.4049     4.9680    39.6326
         TOT.                       30.533    5187.6223    29.1363    85.1000

 310.00  VIB.     0.8473D+02                  3020.1919    22.2578    18.5648
         ROT.     0.2541D+06                   924.0510     2.9808    27.7124
         INT.     0.2153D+08                  3944.2429    25.2386    46.2772
         TRA.     0.9674D+27                  1540.0850     4.9680    39.7955
         TOT.                       30.830    5484.3279    30.2066    86.0728

 320.00  VIB.     0.9932D+02                  3248.1588    23.3368    19.2885
         ROT.     0.2665D+06                   953.8591     2.9808    27.8071
         INT.     0.2647D+08                  4202.0179    26.3176    47.0955
         TRA.     0.1015D+28                  1589.7652     4.9680    39.9533
         TOT.                       31.137    5791.7831    31.2856    87.0488

 330.00  VIB.     0.1166D+03                  3486.9441    24.4209    20.0231
         ROT.     0.2791D+06                   983.6672     2.9808    27.8988
         INT.     0.3254D+08                  4470.6113    27.4017    47.9220
         TRA.     0.1063D+28                  1639.4454     4.9680    40.1062
         TOT.                       31.455    6110.0567    32.3697    88.0281

 340.00  VIB.     0.1371D+03                  3736.5827    25.5069    20.7683
         ROT.     0.2918D+06                  1013.4753     2.9808    27.9878
         INT.     0.4001D+08                  4750.0581    28.4877    48.7561
         TRA.     0.1111D+28                  1689.1255     4.9680    40.2545
         TOT.                       31.784    6439.1836    33.4557    89.0106

 350.00  VIB.     0.1614D+03                  3997.0784    26.5918    21.5233
         ROT.     0.3048D+06                  1043.2834     2.9808    28.0742
         INT.     0.4921D+08                  5040.3618    29.5726    49.5975
         TRA.     0.1161D+28                  1738.8057     4.9680    40.3985
         TOT.                       32.124    6779.1675    34.5406    89.9960

 360.00  VIB.     0.1904D+03                  4268.4066    27.6730    22.2876
         ROT.     0.3180D+06                  1073.0915     2.9808    28.1582
         INT.     0.6054D+08                  5341.4981    30.6538    50.4458
         TRA.     0.1211D+28                  1788.4859     4.9680    40.5384
         TOT.                       32.475    7129.9839    35.6218    90.9842

 370.00  VIB.     0.2249D+03                  4550.5174    28.7480    23.0605
         ROT.     0.3313D+06                  1102.8996     2.9808    28.2398
         INT.     0.7451D+08                  5653.4170    31.7288    51.3004
         TRA.     0.1261D+28                  1838.1660     4.9680    40.6745
         TOT.                       32.837    7491.5830    36.6968    91.9749

 380.00  VIB.     0.2660D+03                  4843.3389    29.8148    23.8414
         ROT.     0.3448D+06                  1132.7077     2.9808    28.3193
         INT.     0.9173D+08                  5976.0466    32.7956    52.1607
         TRA.     0.1313D+28                  1887.8462     4.9680    40.8070
         TOT.                       33.209    7863.8927    37.7636    92.9677

 390.00  VIB.     0.3152D+03                  5146.7792    30.8715    24.6295
         ROT.     0.3585D+06                  1162.5158     2.9808    28.3968
         INT.     0.1130D+09                  6309.2950    33.8523    53.0263
         TRA.     0.1365D+28                  1937.5263     4.9680    40.9361
         TOT.                       33.592    8246.8214    38.8203    93.9623

 400.00  VIB.     0.3740D+03                  5460.7299    31.9166    25.4243
         ROT.     0.3724D+06                  1192.3239     2.9808    28.4722
         INT.     0.1393D+09                  6653.0538    34.8974    53.8965
         TRA.     0.1418D+28                  1987.2065     4.9680    41.0619
         TOT.                       33.986    8640.2603    39.8654    94.9584

   *: NOTE: HEATS OF FORMATION ARE RELATIVE TO THE
            ELEMENTS IN THEIR STANDARD STATE AT 298K
              (=  Standard Enthalpy of Formation).

            Hvib:  Zero-point energy is not included.
                   frequencies of less than zero cm-1 are not included.
            Hrot = (3/2)RT
            Htra = (3/2)RT + pV = (5/2)RT

            Heat capacity is Cp, not Cv

          For more information, see: HTTP://OpenMOPAC.net/Manual/thermochemistry.html


           FORCE CONSTANT IN CARTESIAN COORDINATES (Millidynes/A)

    ATOM   CHEMICAL       X               Y               Z
   NUMBER   SYMBOL  FORCE CONSTANT  FORCE CONSTANT  FORCE CONSTANT

      1       C        9.711006        7.026528        8.861749
      2       C        9.717143        7.033957        8.848545
      3       C        8.769941        8.471419        8.352488
      4       C        9.839953        9.630900        5.672433
      5       C        5.675634        9.113477       10.346437
      6       C        9.835915        9.633770        5.674321
      7       C        5.670767        9.107474       10.358762
      8       H        0.762628        2.399069        3.187046
      9       H        0.763135        2.408323        3.177425
     10       H        0.733078        4.910946        1.002151
     11       H        4.051735        0.982044        1.633691
     12       H        1.423032        1.060200        4.145496
     13       H        1.288345        4.602391        0.778343
     14       H        0.732842        4.917270        0.995912
     15       H        4.047581        0.984323        1.635730
     16       H        0.772025        2.253531        3.360095
     17       H        1.418090        1.065276        4.145723
     18       H        0.671151        2.026091        3.608369
     19       H        1.287326        4.602151        0.779931

 **********************
 *                    *
 * JOB ENDED NORMALLY *
 *                    *
 **********************



 TOTAL JOB TIME:             1.34 SECONDS

 == MOPAC DONE ==
