 *******************************************************************************
 ** Site#: 14399        For non-commercial use only    Version 18.184L 64BITS **
 *******************************************************************************
 ** Cite this program as: MOPAC2016, Version: 18.184L, James J. P. Stewart,   **
 ** Stewart Computational Chemistry, web: HTTP://OpenMOPAC.net. Days left:  18**
 *******************************************************************************
 **                                                                           **
 **                                MOPAC2016                                  **
 **                                                                           **
 *******************************************************************************

                              PM3 CALCULATION RESULTS

 *******************************************************************************
 *  CALCULATION DONE:                                Sat Jun 15 10:13:29 2019  *
 *  PM3        - The PM3 Hamiltonian to be used
 *  PRECISE    - CRITERIA TO BE INCREASED BY 100 TIMES
 *  NOSYM      - POINT-GROUP SYMMETRY SET TO C1
 *  THREADS=1  - MULTI-THREADING NOT USED
 *  T=         - A TIME OF 172800.0 SECONDS REQUESTED
 *  DUMP=N     - RESTART FILE WRITTEN EVERY  7200.000 SECONDS
 *******************************************************************************
pm3  precise nosym THREADS=1
 InChI=1S/C10H10/c1-8-6-7-9-4-2-3-5-10(8)9/h2-8H,1H3

   ATOM   CHEMICAL          X               Y               Z
  NUMBER   SYMBOL      (ANGSTROMS)     (ANGSTROMS)     (ANGSTROMS)
 
     1       C         -1.37320000  *  -0.55130000  *   0.40100000  *
     2       C         -1.86690000  *  -1.48950000  *  -0.70010000  *
     3       C          0.08840000  *  -0.26440000  *   0.27500000  *
     4       C          0.28730000  *   1.07870000  *   0.06460000  *
     5       C         -1.94680000  *   0.83490000  *   0.23420000  *
     6       C          1.16780000  *  -1.14620000  *   0.36840000  *
     7       C         -0.99680000  *   1.74710000  *   0.04180000  *
     8       C          1.56530000  *   1.61810000  *  -0.07600000  *
     9       C          2.46720000  *  -0.62990000  *   0.22770000  *
    10       C          2.66530000  *   0.74790000  *   0.00500000  *
    11       H         -1.61210000  *  -0.95590000  *   1.40790000  *
    12       H         -1.39660000  *  -2.48900000  *  -0.58510000  *
    13       H         -2.96850000  *  -1.61070000  *  -0.62570000  *
    14       H         -1.61610000  *  -1.08680000  *  -1.70560000  *
    15       H         -3.00280000  *   1.06930000  *   0.26940000  *
    16       H          1.00850000  *  -2.20200000  *   0.54460000  *
    17       H         -1.16660000  *   2.80630000  *  -0.09980000  *
    18       H          3.31990000  *  -1.29310000  *   0.29300000  *
    19       H          1.70740000  *   2.67840000  *  -0.23990000  *
    20       H          3.66930000  *   1.13800000  *  -0.10040000  *
 


          CARTESIAN COORDINATES 

    NO.       ATOM           X           Y           Z

     1         C         -1.3732     -0.5513      0.4010
     2         C         -1.8669     -1.4895     -0.7001
     3         C          0.0884     -0.2644      0.2750
     4         C          0.2873      1.0787      0.0646
     5         C         -1.9468      0.8349      0.2342
     6         C          1.1678     -1.1462      0.3684
     7         C         -0.9968      1.7471      0.0418
     8         C          1.5653      1.6181     -0.0760
     9         C          2.4672     -0.6299      0.2277
    10         C          2.6653      0.7479      0.0050
    11         H         -1.6121     -0.9559      1.4079
    12         H         -1.3966     -2.4890     -0.5851
    13         H         -2.9685     -1.6107     -0.6257
    14         H         -1.6161     -1.0868     -1.7056
    15         H         -3.0028      1.0693      0.2694
    16         H          1.0085     -2.2020      0.5446
    17         H         -1.1666      2.8063     -0.0998
    18         H          3.3199     -1.2931      0.2930
    19         H          1.7074      2.6784     -0.2399
    20         H          3.6693      1.1380     -0.1004

  H: (PM3): J. J. P. STEWART, J. COMP. CHEM. 10, 209 (1989).
  C: (PM3): J. J. P. STEWART, J. COMP. CHEM. 10, 209 (1989).

           Empirical Formula: C10 H10  =    20 atoms



      MOLECULAR POINT GROUP   :   C1  


      RHF CALCULATION, NO. OF DOUBLY OCCUPIED LEVELS = 25


          Geometry optimization using EF

          DIAGONAL MATRIX USED AS START HESSIAN

 CYCLE:     1 TIME:   0.008 TIME LEFT:  2.00D  GRAD.:   114.667 HEAT:  39.17911
 CYCLE:     2 TIME:   0.012 TIME LEFT:  2.00D  GRAD.:    49.388 HEAT:  36.98626
 CYCLE:     3 TIME:   0.008 TIME LEFT:  2.00D  GRAD.:    29.142 HEAT:  36.49236
 CYCLE:     4 TIME:   0.004 TIME LEFT:  2.00D  GRAD.:    33.500 HEAT:  36.34094
 CYCLE:     5 TIME:   0.004 TIME LEFT:  2.00D  GRAD.:    22.785 HEAT:  36.13593
 CYCLE:     6 TIME:   0.008 TIME LEFT:  2.00D  GRAD.:    15.579 HEAT:  35.99615
 CYCLE:     7 TIME:   0.008 TIME LEFT:  2.00D  GRAD.:    13.328 HEAT:  35.94500
 CYCLE:     8 TIME:   0.004 TIME LEFT:  2.00D  GRAD.:    10.996 HEAT:  35.89416
 CYCLE:     9 TIME:   0.004 TIME LEFT:  2.00D  GRAD.:    12.389 HEAT:  35.86143
 CYCLE:    10 TIME:   0.008 TIME LEFT:  2.00D  GRAD.:    10.123 HEAT:  35.82937
 CYCLE:    11 TIME:   0.008 TIME LEFT:  2.00D  GRAD.:    10.052 HEAT:  35.82203
 CYCLE:    12 TIME:   0.004 TIME LEFT:  2.00D  GRAD.:     6.260 HEAT:  35.80133
 CYCLE:    13 TIME:   0.008 TIME LEFT:  2.00D  GRAD.:     6.035 HEAT:  35.79484
 CYCLE:    14 TIME:   0.004 TIME LEFT:  2.00D  GRAD.:     4.683 HEAT:  35.78804
 CYCLE:    15 TIME:   0.004 TIME LEFT:  2.00D  GRAD.:     5.604 HEAT:  35.78619
 CYCLE:    16 TIME:   0.004 TIME LEFT:  2.00D  GRAD.:     3.748 HEAT:  35.77909
 CYCLE:    17 TIME:   0.004 TIME LEFT:  2.00D  GRAD.:     4.439 HEAT:  35.77748
 CYCLE:    18 TIME:   0.008 TIME LEFT:  2.00D  GRAD.:     3.654 HEAT:  35.77196
 CYCLE:    19 TIME:   0.004 TIME LEFT:  2.00D  GRAD.:     3.002 HEAT:  35.76684
 CYCLE:    20 TIME:   0.004 TIME LEFT:  2.00D  GRAD.:     2.039 HEAT:  35.76140
 CYCLE:    21 TIME:   0.004 TIME LEFT:  2.00D  GRAD.:     4.289 HEAT:  35.75588
 CYCLE:    22 TIME:   0.004 TIME LEFT:  2.00D  GRAD.:     2.557 HEAT:  35.74900
 CYCLE:    23 TIME:   0.004 TIME LEFT:  2.00D  GRAD.:     2.795 HEAT:  35.74441
 CYCLE:    24 TIME:   0.004 TIME LEFT:  2.00D  GRAD.:     2.709 HEAT:  35.73794
 CYCLE:    25 TIME:   0.004 TIME LEFT:  2.00D  GRAD.:     2.458 HEAT:  35.73123
 CYCLE:    26 TIME:   0.004 TIME LEFT:  2.00D  GRAD.:     2.175 HEAT:  35.72779
 CYCLE:    27 TIME:   0.004 TIME LEFT:  2.00D  GRAD.:     1.326 HEAT:  35.72468
 CYCLE:    28 TIME:   0.004 TIME LEFT:  2.00D  GRAD.:     1.712 HEAT:  35.72091
 CYCLE:    29 TIME:   0.004 TIME LEFT:  2.00D  GRAD.:     1.534 HEAT:  35.71872
 CYCLE:    30 TIME:   0.008 TIME LEFT:  2.00D  GRAD.:     0.911 HEAT:  35.71719
 CYCLE:    31 TIME:   0.004 TIME LEFT:  2.00D  GRAD.:     1.121 HEAT:  35.71613
 CYCLE:    32 TIME:   0.004 TIME LEFT:  2.00D  GRAD.:     1.004 HEAT:  35.71525
 CYCLE:    33 TIME:   0.004 TIME LEFT:  2.00D  GRAD.:     0.766 HEAT:  35.71445
 CYCLE:    34 TIME:   0.004 TIME LEFT:  2.00D  GRAD.:     0.635 HEAT:  35.71405
 CYCLE:    35 TIME:   0.004 TIME LEFT:  2.00D  GRAD.:     0.462 HEAT:  35.71385
 CYCLE:    36 TIME:   0.004 TIME LEFT:  2.00D  GRAD.:     0.281 HEAT:  35.71372
 CYCLE:    37 TIME:   0.004 TIME LEFT:  2.00D  GRAD.:     0.303 HEAT:  35.71357
 CYCLE:    38 TIME:   0.004 TIME LEFT:  2.00D  GRAD.:     0.413 HEAT:  35.71338
 CYCLE:    39 TIME:   0.004 TIME LEFT:  2.00D  GRAD.:     0.407 HEAT:  35.71316
 CYCLE:    40 TIME:   0.004 TIME LEFT:  2.00D  GRAD.:     0.330 HEAT:  35.71297
 CYCLE:    41 TIME:   0.004 TIME LEFT:  2.00D  GRAD.:     0.262 HEAT:  35.71282
 CYCLE:    42 TIME:   0.004 TIME LEFT:  2.00D  GRAD.:     0.296 HEAT:  35.71271
 CYCLE:    43 TIME:   0.008 TIME LEFT:  2.00D  GRAD.:     0.260 HEAT:  35.71262
 CYCLE:    44 TIME:   0.004 TIME LEFT:  2.00D  GRAD.:     0.209 HEAT:  35.71251
 CYCLE:    45 TIME:   0.004 TIME LEFT:  2.00D  GRAD.:     0.225 HEAT:  35.71236
 CYCLE:    46 TIME:   0.004 TIME LEFT:  2.00D  GRAD.:     0.218 HEAT:  35.71227
 CYCLE:    47 TIME:   0.004 TIME LEFT:  2.00D  GRAD.:     0.172 HEAT:  35.71219
 CYCLE:    48 TIME:   0.004 TIME LEFT:  2.00D  GRAD.:     0.168 HEAT:  35.71211
 CYCLE:    49 TIME:   0.004 TIME LEFT:  2.00D  GRAD.:     0.165 HEAT:  35.71205
 CYCLE:    50 TIME:   0.004 TIME LEFT:  2.00D  GRAD.:     0.132 HEAT:  35.71200
 CYCLE:    51 TIME:   0.004 TIME LEFT:  2.00D  GRAD.:     0.088 HEAT:  35.71196
 CYCLE:    52 TIME:   0.004 TIME LEFT:  2.00D  GRAD.:     0.075 HEAT:  35.71195
 CYCLE:    53 TIME:   0.004 TIME LEFT:  2.00D  GRAD.:     0.099 HEAT:  35.71193
 CYCLE:    54 TIME:   0.004 TIME LEFT:  2.00D  GRAD.:     0.079 HEAT:  35.71192
 CYCLE:    55 TIME:   0.004 TIME LEFT:  2.00D  GRAD.:     0.132 HEAT:  35.71189
 CYCLE:    56 TIME:   0.004 TIME LEFT:  2.00D  GRAD.:     0.139 HEAT:  35.71187
 CYCLE:    57 TIME:   0.004 TIME LEFT:  2.00D  GRAD.:     0.117 HEAT:  35.71178
 CYCLE:    58 TIME:   0.008 TIME LEFT:  2.00D  GRAD.:     0.149 HEAT:  35.71172
 CYCLE:    59 TIME:   0.004 TIME LEFT:  2.00D  GRAD.:     0.118 HEAT:  35.71169
 CYCLE:    60 TIME:   0.004 TIME LEFT:  2.00D  GRAD.:     0.186 HEAT:  35.71162
 CYCLE:    61 TIME:   0.004 TIME LEFT:  2.00D  GRAD.:     0.071 HEAT:  35.71158
 CYCLE:    62 TIME:   0.004 TIME LEFT:  2.00D  GRAD.:     0.048 HEAT:  35.71157

     GRADIENT =  0.04778  IS LESS THAN CUTOFF =  0.05000



 -------------------------------------------------------------------------------
 pm3  precise nosym THREADS=1
 InChI=1S/C10H10/c1-8-6-7-9-4-2-3-5-10(8)9/h2-8H,1H3



     GEOMETRY OPTIMISED USING EIGENVECTOR FOLLOWING (EF).     
     SCF FIELD WAS ACHIEVED                                   


                              PM3 CALCULATION
                                                       MOPAC2016 (Version: 18.184L)
                                                       Sat Jun 15 10:13:29 2019
                                                       No. of days remaining =  18




          FINAL HEAT OF FORMATION =         35.71157 KCAL/MOL =     149.41721 KJ/MOL


          TOTAL ENERGY            =      -1338.18234 EV
          ELECTRONIC ENERGY       =      -7091.01581 EV  POINT GROUP:     C1  
          CORE-CORE REPULSION     =       5752.83347 EV
          COSMO AREA              =        171.88 SQUARE ANGSTROMS
          COSMO VOLUME            =        173.47 CUBIC ANGSTROMS

          GRADIENT NORM           =          0.04778 = 0.01068 PER ATOM
          IONIZATION POTENTIAL    =          8.975765 EV
          HOMO LUMO ENERGIES (EV) =         -8.976 -0.077
          NO. OF FILLED LEVELS    =         25
          MOLECULAR WEIGHT        =        130.1890

          MOLECULAR DIMENSIONS (Angstroms)

            Atom       Atom       Distance
            H    20    H    13     7.23579
            H    17    H    18     5.53588
            H    14    H    11     3.07066


          SCF CALCULATIONS        =         71
 
          WALL-CLOCK TIME         =          0.301 SECONDS
          COMPUTATION TIME        =          0.276 SECONDS




   ATOM   CHEMICAL          X               Y               Z
  NUMBER   SYMBOL      (ANGSTROMS)     (ANGSTROMS)     (ANGSTROMS)
 
     1       C         -1.37831557  *  -0.54216794  *   0.37816797  *
     2       C         -1.88808267  *  -1.51834340  *  -0.66044586  *
     3       C          0.10247400  *  -0.27728537  *   0.26626906  *
     4       C          0.30769222  *   1.10833553  *   0.07548655  *
     5       C         -1.96705211  *   0.84252136  *   0.20139030  *
     6       C          1.17378335  *  -1.14773096  *   0.33388466  *
     7       C         -0.99935512  *   1.76807721  *   0.03926786  *
     8       C          1.58601230  *   1.62760808  *  -0.04357843  *
     9       C          2.46167803  *  -0.62056256  *   0.21119811  *
    10       C          2.66395284  *   0.74353302  *   0.02695339  *
    11       H         -1.61389668  *  -0.91415065  *   1.40346839  *
    12       H         -1.40555503  *  -2.49809541  *  -0.54780120  *
    13       H         -2.97173866  *  -1.66323405  *  -0.56593614  *
    14       H         -1.68849827  *  -1.16745430  *  -1.68097092  *
    15       H         -3.04309080  *   1.00666864  *   0.21096983  *
    16       H          1.01574783  *  -2.22138324  *   0.47653623  *
    17       H         -1.12105173  *   2.84108063  *  -0.09949405  *
    18       H          3.32414287  *  -1.29328479  *   0.26110513  *
    19       H          1.74443959  *   2.70026740  *  -0.18944340  *
    20       H          3.68399395  *   1.13088738  *  -0.06513476  *

                             CARTESIAN COORDINATES

   1    C       -1.378315566    -0.542167940     0.378167974
   2    C       -1.888082673    -1.518343403    -0.660445863
   3    C        0.102474003    -0.277285371     0.266269057
   4    C        0.307692222     1.108335525     0.075486547
   5    C       -1.967052109     0.842521359     0.201390299
   6    C        1.173783354    -1.147730962     0.333884663
   7    C       -0.999355116     1.768077209     0.039267855
   8    C        1.586012303     1.627608082    -0.043578425
   9    C        2.461678033    -0.620562556     0.211198109
  10    C        2.663952837     0.743533023     0.026953393
  11    H       -1.613896680    -0.914150652     1.403468391
  12    H       -1.405555027    -2.498095408    -0.547801198
  13    H       -2.971738659    -1.663234052    -0.565936142
  14    H       -1.688498273    -1.167454305    -1.680970916
  15    H       -3.043090805     1.006668643     0.210969831
  16    H        1.015747826    -2.221383241     0.476536234
  17    H       -1.121051727     2.841080634    -0.099494054
  18    H        3.324142871    -1.293284794     0.261105126
  19    H        1.744439589     2.700267399    -0.189443403
  20    H        3.683993954     1.130887381    -0.065134765


           Empirical Formula: C10 H10  =    20 atoms



      MOLECULAR POINT GROUP   :   C1  


                  EIGENVALUES  
 -41.58552 -35.80628 -31.65647 -28.57210 -26.90418 -23.53016 -21.44400 -19.96390
 -19.65410 -17.59404 -16.32250 -15.65643 -15.39669 -14.95505 -14.77071 -14.04326
 -13.71212 -13.14057 -12.85835 -12.50724 -12.19599 -11.96856 -10.91525  -9.56709
  -8.97576  -0.07710   0.43003   1.46481   2.99288   3.10064   3.15518   3.38971
   3.46616   3.57479   3.75091   3.85160   3.93738   4.08406   4.09139   4.49012
   4.53777   4.68497   4.76715   5.04416   5.19887   5.35036   5.53315   5.91289
   6.22949   6.45934


              NET ATOMIC CHARGES AND DIPOLE CONTRIBUTIONS

  ATOM NO.   TYPE          CHARGE      No. of ELECS.   s-Pop       p-Pop       
    1          C          -0.003016        4.0030     1.15599     2.84703
    2          C          -0.092113        4.0921     1.13460     2.95751
    3          C          -0.093301        4.0933     1.19253     2.90077
    4          C          -0.061177        4.0612     1.17621     2.88496
    5          C          -0.149412        4.1494     1.21021     2.93920
    6          C          -0.081359        4.0814     1.17039     2.91097
    7          C          -0.094854        4.0949     1.18496     2.90989
    8          C          -0.075054        4.0751     1.17116     2.90390
    9          C          -0.102643        4.1026     1.17948     2.92316
   10          C          -0.105828        4.1058     1.17942     2.92641
   11          H           0.083959        0.9160     0.91604
   12          H           0.041214        0.9588     0.95879
   13          H           0.039828        0.9602     0.96017
   14          H           0.047561        0.9524     0.95244
   15          H           0.115556        0.8844     0.88444
   16          H           0.106365        0.8936     0.89363
   17          H           0.116005        0.8840     0.88399
   18          H           0.100846        0.8992     0.89915
   19          H           0.106346        0.8937     0.89365
   20          H           0.101076        0.8989     0.89892
 DIPOLE           X         Y         Z       TOTAL
 POINT-CHG.    -0.401    -0.281     0.019     0.490
 HYBRID         0.019     0.025     0.018     0.036
 SUM           -0.382    -0.256     0.037     0.461


          ATOMIC ORBITAL ELECTRON POPULATIONS

     Atom    s        px        py        pz   
    1  C   1.15599   0.91237   0.94497   0.98969
    2  C   1.13460   0.99795   0.97611   0.98345
    3  C   1.19253   0.95045   0.95048   0.99984
    4  C   1.17621   0.94012   0.94212   1.00272
    5  C   1.21021   0.98113   0.95373   1.00434
    6  C   1.17039   0.92969   0.97624   1.00504
    7  C   1.18496   0.92634   0.97565   1.00790
    8  C   1.17116   0.92637   0.97891   0.99861
    9  C   1.17948   0.96371   0.95570   1.00376
   10  C   1.17942   0.97583   0.94447   1.00611
   11  H   0.91604
   12  H   0.95879
   13  H   0.96017
   14  H   0.95244
   15  H   0.88444
   16  H   0.89363
   17  H   0.88399
   18  H   0.89915
   19  H   0.89365
   20  H   0.89892
 *******************************************************************************
 ** Site#: 14399        For non-commercial use only    Version 18.184L 64BITS **
 *******************************************************************************
 ** Cite this program as: MOPAC2016, Version: 18.184L, James J. P. Stewart,   **
 ** Stewart Computational Chemistry, web: HTTP://OpenMOPAC.net. Days left:  18**
 *******************************************************************************
 **                                                                           **
 **                                MOPAC2016                                  **
 **                                                                           **
 *******************************************************************************

                              PM3 CALCULATION RESULTS

 *******************************************************************************
 *  CALCULATION DONE:                                Sat Jun 15 10:13:29 2019  *
 *  PM3        - The PM3 Hamiltonian to be used
 *  OLDGEO     - PREVIOUS GEOMETRY TO BE USED
 *  PRECISE    - CRITERIA TO BE INCREASED BY 100 TIMES
 *  NOSYM      - POINT-GROUP SYMMETRY SET TO C1
 *  THREADS=1  - MULTI-THREADING NOT USED
 *  T=         - A TIME OF 172800.0 SECONDS REQUESTED
 *  DUMP=N     - RESTART FILE WRITTEN EVERY  7200.000 SECONDS
 *  THERMO     - THERMODYNAMIC QUANTITIES TO BE CALCULATED
 *******************************************************************************
oldgeo thermo nosym precise THREADS=1  pm3
 InChI=1S/C10H10/c1-8-6-7-9-4-2-3-5-10(8)9/h2-8H,1H3

   ATOM   CHEMICAL          X               Y               Z
  NUMBER   SYMBOL      (ANGSTROMS)     (ANGSTROMS)     (ANGSTROMS)
 
     1       C         -1.37831557  *  -0.54216794  *   0.37816797  *
     2       C         -1.88808267  *  -1.51834340  *  -0.66044586  *
     3       C          0.10247400  *  -0.27728537  *   0.26626906  *
     4       C          0.30769222  *   1.10833553  *   0.07548655  *
     5       C         -1.96705211  *   0.84252136  *   0.20139030  *
     6       C          1.17378335  *  -1.14773096  *   0.33388466  *
     7       C         -0.99935512  *   1.76807721  *   0.03926786  *
     8       C          1.58601230  *   1.62760808  *  -0.04357843  *
     9       C          2.46167803  *  -0.62056256  *   0.21119811  *
    10       C          2.66395284  *   0.74353302  *   0.02695339  *
    11       H         -1.61389668  *  -0.91415065  *   1.40346839  *
    12       H         -1.40555503  *  -2.49809541  *  -0.54780120  *
    13       H         -2.97173866  *  -1.66323405  *  -0.56593614  *
    14       H         -1.68849827  *  -1.16745430  *  -1.68097092  *
    15       H         -3.04309080  *   1.00666864  *   0.21096983  *
    16       H          1.01574783  *  -2.22138324  *   0.47653623  *
    17       H         -1.12105173  *   2.84108063  *  -0.09949405  *
    18       H          3.32414287  *  -1.29328479  *   0.26110513  *
    19       H          1.74443959  *   2.70026740  *  -0.18944340  *
    20       H          3.68399395  *   1.13088738  *  -0.06513476  *
 


          CARTESIAN COORDINATES 

    NO.       ATOM           X           Y           Z

     1         C         -1.3783     -0.5422      0.3782
     2         C         -1.8881     -1.5183     -0.6604
     3         C          0.1025     -0.2773      0.2663
     4         C          0.3077      1.1083      0.0755
     5         C         -1.9671      0.8425      0.2014
     6         C          1.1738     -1.1477      0.3339
     7         C         -0.9994      1.7681      0.0393
     8         C          1.5860      1.6276     -0.0436
     9         C          2.4617     -0.6206      0.2112
    10         C          2.6640      0.7435      0.0270
    11         H         -1.6139     -0.9142      1.4035
    12         H         -1.4056     -2.4981     -0.5478
    13         H         -2.9717     -1.6632     -0.5659
    14         H         -1.6885     -1.1675     -1.6810
    15         H         -3.0431      1.0067      0.2110
    16         H          1.0157     -2.2214      0.4765
    17         H         -1.1211      2.8411     -0.0995
    18         H          3.3241     -1.2933      0.2611
    19         H          1.7444      2.7003     -0.1894
    20         H          3.6840      1.1309     -0.0651

  H: (PM3): J. J. P. STEWART, J. COMP. CHEM. 10, 209 (1989).
  C: (PM3): J. J. P. STEWART, J. COMP. CHEM. 10, 209 (1989).

           Empirical Formula: C10 H10  =    20 atoms



      MOLECULAR POINT GROUP   :   C1  


      RHF CALCULATION, NO. OF DOUBLY OCCUPIED LEVELS = 25



          HEAT OF FORMATION =      35.711572 KCALS/MOLE


          CARTESIAN COORDINATE DERIVATIVES

   NUMBER  ATOM         X            Y            Z

     1       C      0.002400     0.007756    -0.000147
     2       C      0.000553     0.001673    -0.000615
     3       C     -0.012145    -0.015685    -0.024481
     4       C      0.015035    -0.016213     0.013578
     5       C     -0.000995     0.001108    -0.000205
     6       C     -0.011706     0.018724     0.009674
     7       C     -0.000238     0.009901     0.004585
     8       C     -0.014311     0.037734     0.014052
     9       C      0.023157    -0.023931     0.021722
    10       C     -0.018873    -0.007224    -0.022277
    11       H     -0.004719     0.010014    -0.002209
    12       H      0.010707     0.005068     0.004936
    13       H     -0.012847     0.000436    -0.008638
    14       H     -0.002002    -0.003383     0.003196
    15       H      0.006882     0.002506     0.006462
    16       H      0.001881    -0.000903    -0.006340
    17       H     -0.002469     0.002204     0.000029
    18       H      0.006420    -0.011878    -0.002146
    19       H      0.012965    -0.023974    -0.008779
    20       H      0.000304     0.006068    -0.002397
 


          GRADIENT NORM =   0.09224


          TIME FOR SCF CALCULATION =    0.00

          TIME FOR DERIVATIVES     =    0.00

          MOLECULAR WEIGHT =  130.19



          ROTATIONAL CONSTANTS IN CM(-1)

          A =    0.08685958   B =    0.04191634   C =    0.02973309



           PRINCIPAL MOMENTS OF INERTIA IN UNITS OF 10**(-40)*GRAM-CM**2

          A =      322.2762   B =      667.8248   C =      941.4686


          ORIENTATION OF MOLECULE IN FORCE CALCULATION

    NO.       ATOM         X         Y         Z

     1          C       0.7689   -1.4891    0.4466
     2          C       2.2826   -1.4891    0.4466
     3          C       0.1762   -0.1020    0.4466
     4          C      -0.6556    0.0417   -0.6874
     5          C       0.1955   -2.0839   -0.8233
     6          C       0.3303    0.9359    1.3461
     7          C      -0.6160   -1.2078   -1.4504
     8          C      -1.3392    1.2230   -0.9222
     9          C      -0.3592    2.1267    1.1048
    10          C      -1.1805    2.2670   -0.0093
    11          H       0.3846   -2.0585    1.3260
    12          H       2.6747   -1.0027    1.3495
    13          H       2.6761   -2.5131    0.4173
    14          H       2.6893   -0.9529   -0.4203
    15          H       0.4454   -3.0952   -1.1389
    16          H       0.9780    0.8274    2.2218
    17          H      -1.1718   -1.3591   -2.3743
    18          H      -0.2500    2.9615    1.8048
    19          H      -1.9842    1.3331   -1.7990
    20          H      -1.7106    3.2108   -0.1743


    FIRST DERIVATIVES WILL BE USED IN THE CALCULATION OF SECOND DERIVATIVES

          ESTIMATED TIME TO COMPLETE CALCULATION =        0.94 SECONDS

    FOR POINT-GROUP C1   THERE ARE   1 UNIQUE SYMMETRY FUNCTIONS.

 STEP:   1 TIME =     0.02 SECS, INTEGRAL =      0.02 TIME LEFT: 172799.98
 STEP:   2 TIME =     0.02 SECS, INTEGRAL =      0.03 TIME LEFT: 172799.96
 STEP:   3 TIME =     0.02 SECS, INTEGRAL =      0.05 TIME LEFT: 172799.95
 STEP:   4 TIME =     0.02 SECS, INTEGRAL =      0.07 TIME LEFT: 172799.93
 STEP:   5 TIME =     0.02 SECS, INTEGRAL =      0.09 TIME LEFT: 172799.91
 STEP:   6 TIME =     0.02 SECS, INTEGRAL =      0.11 TIME LEFT: 172799.89
 STEP:   7 TIME =     0.02 SECS, INTEGRAL =      0.12 TIME LEFT: 172799.87
 STEP:   8 TIME =     0.02 SECS, INTEGRAL =      0.14 TIME LEFT: 172799.85
 STEP:   9 TIME =     0.02 SECS, INTEGRAL =      0.16 TIME LEFT: 172799.83
 STEP:  10 TIME =     0.02 SECS, INTEGRAL =      0.18 TIME LEFT: 172799.81
 STEP:  11 TIME =     0.02 SECS, INTEGRAL =      0.20 TIME LEFT: 172799.79
 STEP:  12 TIME =     0.02 SECS, INTEGRAL =      0.23 TIME LEFT: 172799.77
 STEP:  13 TIME =     0.02 SECS, INTEGRAL =      0.24 TIME LEFT: 172799.75
 STEP:  14 TIME =     0.02 SECS, INTEGRAL =      0.26 TIME LEFT: 172799.73
 STEP:  15 TIME =     0.02 SECS, INTEGRAL =      0.28 TIME LEFT: 172799.71
 STEP:  16 TIME =     0.02 SECS, INTEGRAL =      0.30 TIME LEFT: 172799.70
 STEP:  17 TIME =     0.02 SECS, INTEGRAL =      0.32 TIME LEFT: 172799.68
 STEP:  18 TIME =     0.02 SECS, INTEGRAL =      0.34 TIME LEFT: 172799.66
 STEP:  19 TIME =     0.02 SECS, INTEGRAL =      0.36 TIME LEFT: 172799.64
 STEP:  20 TIME =     0.02 SECS, INTEGRAL =      0.38 TIME LEFT: 172799.62
 STEP:  21 TIME =     0.02 SECS, INTEGRAL =      0.39 TIME LEFT: 172799.60
 STEP:  22 TIME =     0.02 SECS, INTEGRAL =      0.41 TIME LEFT: 172799.59
 STEP:  23 TIME =     0.02 SECS, INTEGRAL =      0.43 TIME LEFT: 172799.57
 STEP:  24 TIME =     0.02 SECS, INTEGRAL =      0.45 TIME LEFT: 172799.55
 STEP:  25 TIME =     0.02 SECS, INTEGRAL =      0.46 TIME LEFT: 172799.53
 STEP:  26 TIME =     0.02 SECS, INTEGRAL =      0.48 TIME LEFT: 172799.52
 STEP:  27 TIME =     0.02 SECS, INTEGRAL =      0.50 TIME LEFT: 172799.50
 STEP:  28 TIME =     0.02 SECS, INTEGRAL =      0.52 TIME LEFT: 172799.48
 STEP:  29 TIME =     0.02 SECS, INTEGRAL =      0.54 TIME LEFT: 172799.46
 STEP:  30 TIME =     0.02 SECS, INTEGRAL =      0.55 TIME LEFT: 172799.44
 STEP:  31 TIME =     0.02 SECS, INTEGRAL =      0.57 TIME LEFT: 172799.43
 STEP:  32 TIME =     0.02 SECS, INTEGRAL =      0.59 TIME LEFT: 172799.41
 STEP:  33 TIME =     0.02 SECS, INTEGRAL =      0.61 TIME LEFT: 172799.39
 STEP:  34 TIME =     0.02 SECS, INTEGRAL =      0.62 TIME LEFT: 172799.37
 STEP:  35 TIME =     0.02 SECS, INTEGRAL =      0.64 TIME LEFT: 172799.35
 STEP:  36 TIME =     0.02 SECS, INTEGRAL =      0.66 TIME LEFT: 172799.33
 STEP:  37 TIME =     0.02 SECS, INTEGRAL =      0.68 TIME LEFT: 172799.32
 STEP:  38 TIME =     0.02 SECS, INTEGRAL =      0.70 TIME LEFT: 172799.30
 STEP:  39 TIME =     0.02 SECS, INTEGRAL =      0.72 TIME LEFT: 172799.28
 STEP:  40 TIME =     0.02 SECS, INTEGRAL =      0.74 TIME LEFT: 172799.26
 STEP:  41 TIME =     0.02 SECS, INTEGRAL =      0.76 TIME LEFT: 172799.24
 STEP:  42 TIME =     0.02 SECS, INTEGRAL =      0.78 TIME LEFT: 172799.22
 STEP:  43 TIME =     0.02 SECS, INTEGRAL =      0.79 TIME LEFT: 172799.20
 STEP:  44 TIME =     0.02 SECS, INTEGRAL =      0.81 TIME LEFT: 172799.18
 STEP:  45 TIME =     0.02 SECS, INTEGRAL =      0.83 TIME LEFT: 172799.16
 STEP:  46 TIME =     0.02 SECS, INTEGRAL =      0.85 TIME LEFT: 172799.14
 STEP:  47 TIME =     0.02 SECS, INTEGRAL =      0.87 TIME LEFT: 172799.12
 STEP:  48 TIME =     0.02 SECS, INTEGRAL =      0.89 TIME LEFT: 172799.11
 STEP:  49 TIME =     0.02 SECS, INTEGRAL =      0.90 TIME LEFT: 172799.09
 STEP:  50 TIME =     0.02 SECS, INTEGRAL =      0.92 TIME LEFT: 172799.07
 STEP:  51 TIME =     0.02 SECS, INTEGRAL =      0.94 TIME LEFT: 172799.05
 STEP:  52 TIME =     0.02 SECS, INTEGRAL =      0.96 TIME LEFT: 172799.04
 STEP:  53 TIME =     0.02 SECS, INTEGRAL =      0.98 TIME LEFT: 172799.02
 STEP:  54 TIME =     0.02 SECS, INTEGRAL =      1.00 TIME LEFT: 172799.00
 STEP:  55 TIME =     0.02 SECS, INTEGRAL =      1.02 TIME LEFT: 172798.98
 STEP:  56 TIME =     0.02 SECS, INTEGRAL =      1.04 TIME LEFT: 172798.96
 STEP:  57 TIME =     0.02 SECS, INTEGRAL =      1.05 TIME LEFT: 172798.95
 STEP:  58 TIME =     0.02 SECS, INTEGRAL =      1.07 TIME LEFT: 172798.93
 STEP:  59 TIME =     0.02 SECS, INTEGRAL =      1.09 TIME LEFT: 172798.91
 STEP:  60 TIME =     0.02 SECS, INTEGRAL =      1.11 TIME LEFT: 172798.89

(To convert to Hartree/Bohr^2, multiply by (10^(-21) x N x a0^2)/(4.184 x 627.51) =  0.0642)


           FORCE MATRIX IN MILLIDYNES/ANGSTROM


                  C  1       C  2       C  3       C  4       C  5       C  6
 ------------------------------------------------------------------------------
     C    1  14.876631
     C    2   4.326211  14.395369
     C    3   4.209181   0.620990  18.386262
     C    4   0.951778   0.043356   6.135943  18.872705
     C    5   4.053847   0.631316   1.080584   1.579360  17.912502
     C    6   0.510955   0.034375   7.417920   2.196066   0.044004  17.449553
     C    7   1.120682   0.046331   1.206780   5.175614   9.921512   0.084184
     C    8   0.088630   0.013869   2.142774   7.218184   0.136785   1.690354
     C    9   0.108191   0.011158   2.378881   1.656380   0.053691   6.828164
     C   10   0.040234   0.003723   1.630463   2.401186   0.082299   2.359958
     H   11   4.244121   0.435534   0.400195   0.033339   0.395354   0.020130
     H   12   0.455289   4.734612   0.018377   0.005257   0.048355   0.006375
     H   13   0.454336   4.752593   0.049264   0.004815   0.017705   0.002505
     H   14   0.463650   4.759920   0.013908   0.003179   0.015417   0.002955
     H   15   0.406745   0.009810   0.041777   0.108327   5.056523   0.009465
     H   16   0.038510   0.009792   0.448637   0.088606   0.002610   4.867396
     H   17   0.111827   0.016384   0.044231   0.426066   0.445847   0.007660
     H   18   0.006461   0.001739   0.085179   0.008600   0.001593   0.433099
     H   19   0.008580   0.001054   0.086173   0.448121   0.004698   0.010759
     H   20   0.007550   0.000746   0.008408   0.087102   0.001896   0.086135


                  C  7       C  8       C  9       C 10       H 11       H 12
 ------------------------------------------------------------------------------
     C    7  18.403600
     C    8   0.751830  17.440742
     C    9   0.071819   2.354106  17.241970
     C   10   0.161850   6.889285   7.032069  17.246071
     H   11   0.040265   0.013627   0.012807   0.009288   4.717875
     H   12   0.007231   0.001416   0.002096   0.000707   0.026727   5.458461
     H   13   0.004207   0.002001   0.001947   0.001370   0.028306   0.559112
     H   14   0.003962   0.001500   0.001206   0.001530   0.045740   0.569363
     H   15   0.442543   0.006566   0.002169   0.004799   0.011565   0.001504
     H   16   0.008295   0.010810   0.436517   0.085457   0.005243   0.009074
     H   17   5.050727   0.010527   0.001641   0.002323   0.014078   0.002702
     H   18   0.006718   0.086161   4.859506   0.435967   0.001274   0.000200
     H   19   0.039368   4.884761   0.085316   0.437117   0.000719   0.000160
     H   20   0.007003   0.434622   0.435849   4.857874   0.001009   0.000210


                  H 13       H 14       H 15       H 16       H 17       H 18
 ------------------------------------------------------------------------------
     H   13   5.476275
     H   14   0.568027   5.486486
     H   15   0.006292   0.002363   5.450925
     H   16   0.001603   0.000696   0.000638   5.238969
     H   17   0.000628   0.000843   0.043445   0.001373   5.442781
     H   18   0.000216   0.000188   0.000935   0.038767   0.000471   5.222217
     H   19   0.000231   0.000198   0.001899   0.007995   0.006002   0.006552
     H   20   0.000277   0.000191   0.000487   0.006504   0.000594   0.042823


                  H 19       H 20
 ------------------------------
     H   19   5.254745
     H   20   0.039012   5.221363


          HEAT OF FORMATION =      35.711572 KCALS/MOLE

          ZERO POINT ENERGY     105.833 KCAL/MOL


           NORMAL COORDINATE ANALYSIS (Total motion = 1 Angstrom)


   Root No.       1         2         3         4         5         6         7         8

                 1 A       2 A       3 A       4 A       5 A       6 A       7 A       8 A   

                 128.2     175.5     186.0     284.2     289.5     395.2     450.3     516.2
  
           1   -0.0021   -0.0036   -0.0050   -0.0156   -0.0312   -0.0119    0.0065   -0.0154
           2    0.0023   -0.0057   -0.0074   -0.0019   -0.0144   -0.0193   -0.0295   -0.0001
           3   -0.0098   -0.0037   -0.0081    0.0002    0.0310    0.0062   -0.0191    0.0009
           4   -0.0037   -0.0037   -0.0048   -0.0164   -0.0309   -0.0136    0.0072   -0.0219
           5   -0.0377    0.0306    0.0401    0.0520    0.0085   -0.0017    0.0128    0.0093
           6    0.0554    0.0160    0.0170    0.0248   -0.0316   -0.0091    0.0116   -0.0021
           7    0.0134   -0.0205   -0.0247    0.0082   -0.0182   -0.0154    0.0333    0.0318
           8    0.0089   -0.0136   -0.0172    0.0022   -0.0085   -0.0159   -0.0099    0.0161
           9   -0.0163    0.0096    0.0081   -0.0292    0.0232    0.0374    0.0231   -0.0073
          10   -0.0095   -0.0228   -0.0254    0.0178    0.0133   -0.0140    0.0449   -0.0049
          11    0.0020   -0.0124   -0.0123    0.0061   -0.0006   -0.0125    0.0131   -0.0104
          12   -0.0005    0.0115    0.0098   -0.0337    0.0015    0.0375    0.0195    0.0179
          13    0.0183    0.0138    0.0149   -0.0305   -0.0035    0.0151   -0.0367   -0.0080
          14    0.0148    0.0039    0.0045   -0.0204   -0.0074    0.0090   -0.0023   -0.0008
          15   -0.0247   -0.0162   -0.0227    0.0162    0.0151   -0.0215   -0.0205   -0.0040
          16    0.0344   -0.0003   -0.0027    0.0365    0.0086    0.0392   -0.0060    0.0316
          17    0.0167   -0.0090   -0.0174   -0.0086    0.0074    0.0279    0.0041    0.0139
          18   -0.0287    0.0004    0.0038   -0.0238    0.0007   -0.0188    0.0186   -0.0027
          19    0.0041   -0.0088   -0.0083   -0.0044    0.0643   -0.0101   -0.0159    0.0095
          20    0.0102   -0.0052   -0.0034   -0.0120    0.0209    0.0070    0.0316    0.0095
          21   -0.0129    0.0001   -0.0048   -0.0092   -0.0311    0.0118    0.0033   -0.0091
          22   -0.0386   -0.0085   -0.0070    0.0171   -0.0183    0.0445    0.0021   -0.0223
          23   -0.0101   -0.0052   -0.0019    0.0113   -0.0165    0.0068   -0.0202   -0.0259
          24    0.0217    0.0064    0.0084   -0.0099    0.0168   -0.0248    0.0035    0.0150
          25    0.0153    0.0255    0.0278    0.0069    0.0281   -0.0221   -0.0008   -0.0370
          26    0.0086    0.0031   -0.0023   -0.0202    0.0149   -0.0010    0.0029   -0.0199
          27   -0.0130   -0.0128   -0.0064    0.0174   -0.0195    0.0016   -0.0260    0.0259
          28   -0.0281    0.0210    0.0262   -0.0109   -0.0154   -0.0225   -0.0163    0.0437
          29   -0.0075    0.0043    0.0046   -0.0182   -0.0106   -0.0083   -0.0069    0.0024
          30    0.0167   -0.0093   -0.0041    0.0302    0.0094    0.0006   -0.0163   -0.0313
          31   -0.0486   -0.0022   -0.0027   -0.0142   -0.0089   -0.0091    0.0088   -0.0315
          32    0.0071   -0.0300   -0.0293    0.0138   -0.0152   -0.0528   -0.0572    0.0159
          33   -0.0258   -0.0188   -0.0213    0.0108    0.0377   -0.0152   -0.0361    0.0037
          34   -0.0304   -0.0271   -0.0388   -0.0577    0.0047   -0.0066   -0.0439   -0.0269
          35   -0.0411   -0.1213    0.1946    0.0603    0.0179    0.0085    0.0338    0.0160
          36    0.0690    0.1080   -0.0509    0.0394   -0.0527   -0.0179    0.0238   -0.0033
          37   -0.0298    0.0214    0.0319    0.0305   -0.0149    0.0002    0.0549   -0.0066
          38   -0.0486    0.0453    0.0498    0.0710    0.0154    0.0037    0.0315    0.0160
          39    0.0814   -0.1627    0.1846    0.0217   -0.0498   -0.0106    0.0284   -0.0051
          40    0.0493   -0.0057   -0.0072   -0.0231   -0.0836   -0.0345    0.0117   -0.0357
          41   -0.0558    0.1967   -0.0807    0.0828    0.0140   -0.0005    0.0306    0.0183
          42    0.0693    0.1178   -0.0588    0.0407   -0.0538   -0.0186    0.0249   -0.0035
          43    0.0355    0.0367    0.0390   -0.0665   -0.0129    0.0526   -0.1011   -0.0020
          44    0.0234    0.0146    0.0167   -0.0388   -0.0135    0.0309   -0.0152    0.0020
          45   -0.0389   -0.0328   -0.0426    0.0474    0.0269   -0.0623   -0.0284   -0.0079
          46    0.0624    0.0021   -0.0014    0.0630    0.0171    0.1166   -0.0448    0.0541
          47    0.0274   -0.0119   -0.0255   -0.0191    0.0162    0.0842    0.0277    0.0313
          48   -0.0479   -0.0018    0.0020   -0.0445   -0.0045   -0.0689    0.0501   -0.0172
          49    0.0054   -0.0110   -0.0085   -0.0066    0.1398   -0.0137   -0.0556    0.0426
          50    0.0134   -0.0048   -0.0011   -0.0222    0.0536    0.0279    0.0720    0.0408
          51   -0.0143    0.0014   -0.0051   -0.0062   -0.0819    0.0105    0.0202   -0.0342
          52    0.0320    0.0504    0.0546   -0.0064    0.0683   -0.0538    0.0049   -0.1415
          53    0.0144    0.0115    0.0037   -0.0354    0.0367   -0.0052    0.0207   -0.0529
          54   -0.0225   -0.0268   -0.0177    0.0373   -0.0518    0.0117   -0.0479    0.0816
          55   -0.0666   -0.0129   -0.0104    0.0229   -0.0355    0.1312   -0.0160   -0.0662
          56   -0.0208   -0.0034    0.0057    0.0345   -0.0295    0.0229   -0.0725   -0.0564
          57    0.0410    0.0099    0.0119   -0.0112    0.0279   -0.0866    0.0104    0.0437
          58   -0.0509    0.0413    0.0511   -0.0467   -0.0373   -0.0538   -0.0374    0.1297
          59   -0.0172    0.0138    0.0170   -0.0314   -0.0213   -0.0246   -0.0195    0.0389
          60    0.0349   -0.0199   -0.0134    0.0694    0.0189    0.0092   -0.0188   -0.0980


   Root No.       9        10        11        12        13        14        15        16

                 9 A      10 A      11 A      12 A      13 A      14 A      15 A      16 A   

                 536.6     557.2     614.0     732.4     750.5     786.1     819.5     838.2
  
           1    0.0295   -0.0008    0.0080   -0.0025    0.0035   -0.0011    0.0009   -0.0004
           2   -0.0118   -0.0398    0.0409   -0.0030   -0.0059    0.0014   -0.0169    0.0339
           3   -0.0027   -0.0198   -0.0361   -0.0079    0.0469    0.0123   -0.0041   -0.0171
           4    0.0437   -0.0022    0.0091   -0.0074    0.0215   -0.0051    0.0151   -0.0113
           5   -0.0050   -0.0013    0.0016    0.0024   -0.0004    0.0016   -0.0063    0.0132
           6    0.0118   -0.0011    0.0017   -0.0013    0.0105    0.0028   -0.0015   -0.0057
           7   -0.0216    0.0071   -0.0200    0.0524    0.0061    0.0219   -0.0116   -0.0064
           8   -0.0267   -0.0126    0.0221    0.0196   -0.0154   -0.0003    0.0065   -0.0091
           9    0.0047   -0.0089    0.0174   -0.0325   -0.0086   -0.0137    0.0035    0.0125
          10   -0.0348    0.0135   -0.0146   -0.0421    0.0050    0.0103    0.0133    0.0211
          11    0.0036   -0.0215   -0.0362   -0.0163   -0.0228   -0.0039    0.0182   -0.0047
          12    0.0154   -0.0048    0.0062    0.0371   -0.0117   -0.0023   -0.0207    0.0037
          13   -0.0322    0.0071   -0.0285   -0.0129   -0.0254   -0.0001   -0.0204   -0.0114
          14   -0.0051   -0.0562   -0.0062   -0.0191    0.0505    0.0147   -0.0216   -0.0059
          15    0.0212   -0.0202   -0.0079    0.0055    0.0102    0.0014    0.0076    0.0072
          16    0.0024   -0.0352   -0.0024   -0.0029   -0.0142   -0.0145   -0.0055    0.0013
          17   -0.0109    0.0359    0.0258   -0.0052   -0.0011   -0.0108    0.0102   -0.0181
          18   -0.0247   -0.0390    0.0264    0.0051   -0.0319   -0.0039    0.0137    0.0073
          19    0.0206    0.0136   -0.0022    0.0002   -0.0415   -0.0046   -0.0148   -0.0121
          20    0.0247   -0.0401   -0.0097   -0.0014    0.0065    0.0040   -0.0074   -0.0126
          21   -0.0117   -0.0081   -0.0409    0.0123   -0.0361   -0.0091    0.0197   -0.0011
          22   -0.0133    0.0272    0.0196    0.0075    0.0270   -0.0009   -0.0141    0.0286
          23    0.0186    0.0101   -0.0303    0.0068   -0.0209   -0.0111    0.0071    0.0010
          24   -0.0004    0.0595    0.0001   -0.0026    0.0164    0.0200   -0.0248    0.0244
          25   -0.0132   -0.0206    0.0084    0.0106    0.0028   -0.0205   -0.0065   -0.0087
          26   -0.0149    0.0629    0.0305   -0.0011    0.0167   -0.0118    0.0114   -0.0301
          27   -0.0061    0.0232    0.0243   -0.0133    0.0039    0.0078    0.0223   -0.0228
          28   -0.0044   -0.0049    0.0147   -0.0142    0.0122   -0.0227    0.0078   -0.0134
          29    0.0233    0.0592   -0.0387    0.0028   -0.0067   -0.0032   -0.0194    0.0335
          30   -0.0067    0.0165    0.0108    0.0042    0.0030    0.0137    0.0039   -0.0093
          31    0.0671   -0.0028    0.0113   -0.0194    0.0281   -0.0199    0.0308    0.0138
          32   -0.0154   -0.0507    0.0440    0.0528   -0.0067    0.0225   -0.0202    0.0575
          33    0.0123   -0.0284   -0.0306    0.0203    0.0555    0.0174    0.0060    0.0063
          34    0.0218   -0.0424   -0.0128   -0.0344    0.0740    0.0147   -0.0203   -0.0168
          35   -0.0062    0.0173   -0.0201    0.0127    0.0044    0.0056    0.0059   -0.0227
          36    0.0231    0.0069    0.0237    0.0056   -0.0154   -0.0084    0.0086    0.0162
          37    0.0505    0.0456   -0.0394    0.0173    0.0340    0.0010    0.0534   -0.0988
          38   -0.0029    0.0174   -0.0184    0.0127    0.0052    0.0048    0.0082   -0.0223
          39    0.0221    0.0072    0.0238    0.0039   -0.0143   -0.0094    0.0108    0.0149
          40    0.0668   -0.0091    0.0816   -0.0086   -0.0334   -0.0344    0.0247    0.0736
          41   -0.0028    0.0186   -0.0194    0.0166    0.0033    0.0059    0.0078   -0.0222
          42    0.0251    0.0078    0.0243    0.0066   -0.0138   -0.0090    0.0121    0.0142
          43   -0.1122   -0.0026   -0.0788    0.0748    0.0654    0.0002    0.1330    0.0958
          44   -0.0322   -0.0608   -0.0397    0.0230    0.0921    0.0134    0.0572    0.0253
          45    0.0451   -0.0161    0.0602   -0.0605   -0.0485    0.0071   -0.1261   -0.0076
          46    0.0529   -0.0351    0.0247   -0.1186   -0.0517    0.0682    0.0752    0.0662
          47    0.0131    0.0430    0.0274   -0.0498   -0.0314    0.0254    0.0399    0.0290
          48   -0.0590   -0.0374    0.0068    0.0850   -0.0083   -0.0605   -0.0420   -0.0347
          49    0.0830    0.0108    0.0199    0.1433    0.0191   -0.0411    0.1095    0.0603
          50    0.0487   -0.0392    0.0134    0.0759    0.0260   -0.0106    0.0476    0.0319
          51   -0.0534   -0.0069   -0.0582   -0.0864   -0.0764    0.0152   -0.0644   -0.0516
          52   -0.0060   -0.0172    0.0152    0.0182   -0.0359    0.1746    0.0451    0.0322
          53   -0.0305    0.0377    0.0659   -0.0008   -0.0144    0.0597    0.0579   -0.0382
          54    0.0114    0.0533   -0.0189   -0.0149    0.0464   -0.1085   -0.0403   -0.0207
          55    0.0198    0.0081    0.0675    0.1006   -0.0112    0.1224   -0.0697   -0.0330
          56    0.0344    0.0078    0.0006    0.0388   -0.0406    0.0310    0.0127   -0.0723
          57   -0.0229    0.0726   -0.0311   -0.0670    0.0424   -0.0651    0.0160    0.0615
          58    0.0346   -0.0116    0.0071   -0.0387   -0.0518    0.1600    0.0460   -0.0409
          59    0.0439    0.0480   -0.0494   -0.0069   -0.0435    0.0752   -0.0009    0.0216
          60   -0.0140   -0.0284   -0.0258    0.0274    0.0020   -0.1232   -0.0143    0.0110


   Root No.      17        18        19        20        21        22        23        24

                17 A      18 A      19 A      20 A      21 A      22 A      23 A      24 A   

                 901.9     916.6     953.9     957.3     978.2    1007.5    1024.5    1044.1
  
           1   -0.0022   -0.0029   -0.0027   -0.0005    0.0043    0.0001   -0.0013   -0.0026
           2    0.0019   -0.0113    0.0097   -0.0009    0.0026    0.0089    0.0153   -0.0102
           3   -0.0015    0.0116    0.0130    0.0003   -0.0076   -0.0070   -0.0123    0.0281
           4    0.0056    0.0164    0.0191    0.0020   -0.0057    0.0061    0.0106   -0.0064
           5    0.0027   -0.0130    0.0200   -0.0055   -0.0024   -0.0195   -0.0222   -0.0049
           6   -0.0035    0.0100    0.0344   -0.0019    0.0033   -0.0007    0.0014   -0.0156
           7   -0.0184    0.0123   -0.0092    0.0066    0.0032   -0.0096   -0.0282   -0.0037
           8   -0.0039    0.0171    0.0023    0.0039   -0.0010    0.0034   -0.0003   -0.0014
           9    0.0183    0.0102   -0.0007   -0.0048   -0.0009   -0.0011    0.0083    0.0017
          10    0.0207   -0.0135    0.0064    0.0040    0.0168   -0.0046    0.0136    0.0063
          11    0.0078   -0.0092    0.0024    0.0012    0.0082   -0.0036    0.0046   -0.0010
          12   -0.0181   -0.0091    0.0003   -0.0023   -0.0113    0.0060   -0.0051   -0.0086
          13   -0.0117   -0.0026   -0.0056   -0.0148    0.0253    0.0004    0.0018    0.0266
          14   -0.0048    0.0048   -0.0420   -0.0081    0.0211   -0.0022   -0.0024    0.0014
          15    0.0055   -0.0080   -0.0371    0.0070   -0.0042   -0.0004    0.0003   -0.0340
          16    0.0320    0.0232    0.0007   -0.0252   -0.0190   -0.0115    0.0193    0.0044
          17    0.0116    0.0063    0.0014   -0.0113   -0.0090   -0.0069    0.0056    0.0039
          18   -0.0010    0.0495    0.0046    0.0197    0.0061    0.0074   -0.0144    0.0059
          19   -0.0066   -0.0149   -0.0025    0.0142   -0.0340    0.0038   -0.0033   -0.0202
          20   -0.0113   -0.0299   -0.0031    0.0067   -0.0142    0.0040    0.0010   -0.0110
          21   -0.0100   -0.0420    0.0049   -0.0120    0.0283    0.0014    0.0097    0.0016
          22   -0.0232   -0.0006   -0.0064   -0.0243   -0.0143    0.0255   -0.0071   -0.0060
          23   -0.0051    0.0188    0.0027   -0.0110   -0.0089    0.0064   -0.0104    0.0013
          24    0.0173   -0.0032    0.0002    0.0178    0.0110   -0.0090    0.0153    0.0034
          25    0.0131   -0.0084    0.0053    0.0149    0.0154    0.0263   -0.0180   -0.0025
          26   -0.0003   -0.0180   -0.0012    0.0057    0.0082    0.0085   -0.0112   -0.0041
          27   -0.0160   -0.0118   -0.0025   -0.0111   -0.0101   -0.0183    0.0125   -0.0015
          28   -0.0213   -0.0105   -0.0033    0.0168    0.0019   -0.0314    0.0141    0.0029
          29    0.0027    0.0269    0.0012    0.0086   -0.0013   -0.0112    0.0109    0.0015
          30    0.0090   -0.0067   -0.0008   -0.0121    0.0003    0.0183   -0.0141   -0.0018
          31    0.0392   -0.0313   -0.0477   -0.0024   -0.0534   -0.0632   -0.0918    0.1391
          32   -0.0341   -0.0358    0.0820    0.0538   -0.0675    0.1085    0.0914    0.1615
          33   -0.0063   -0.0181    0.0373    0.0346   -0.0777    0.0289   -0.0035    0.2007
          34   -0.0066    0.0397    0.2498   -0.0265    0.0134   -0.0426   -0.0279   -0.1023
          35   -0.0097    0.0218   -0.0243    0.0096    0.0051    0.0283    0.0303    0.0010
          36    0.0089   -0.0192   -0.0465    0.0035   -0.0104   -0.0041   -0.0095    0.0267
          37   -0.0189    0.1024   -0.0846    0.0404    0.0036    0.1196    0.1358    0.0167
          38   -0.0081    0.0221   -0.0194    0.0099    0.0021    0.0267    0.0288    0.0030
          39    0.0106   -0.0172   -0.0507    0.0045   -0.0123   -0.0021   -0.0070    0.0296
          40    0.0488   -0.0776   -0.0863   -0.0045   -0.0462   -0.0553   -0.0690    0.0716
          41   -0.0105    0.0210   -0.0291    0.0125    0.0020    0.0327    0.0335    0.0091
          42    0.0099   -0.0156   -0.0483    0.0060   -0.0141    0.0010   -0.0039    0.0322
          43    0.0766   -0.0046   -0.0423    0.0696   -0.0919    0.0103    0.0218   -0.1228
          44    0.0268   -0.0131   -0.0365    0.0312   -0.0391   -0.0018   -0.0060   -0.0370
          45   -0.0275    0.0438   -0.0842   -0.0524    0.0965    0.0073    0.0285   -0.0271
          46   -0.1049    0.0331    0.0094    0.1201    0.0704    0.0408   -0.0529   -0.0059
          47   -0.0271    0.0838   -0.0059    0.0544    0.0247   -0.0115   -0.0776    0.0370
          48    0.0958    0.0538   -0.0028   -0.0792   -0.0560   -0.0318    0.0283    0.0182
          49    0.0005    0.0140   -0.0204   -0.0812    0.1717   -0.0211    0.0042    0.0208
          50   -0.0293   -0.0963    0.1052   -0.0276    0.0442    0.0269    0.0573    0.0539
          51   -0.0117   -0.0503   -0.0036    0.0507   -0.1042    0.0128   -0.0037   -0.0353
          52   -0.1005    0.0037   -0.0201   -0.0709   -0.0622   -0.0873    0.0719   -0.0111
          53   -0.0422    0.0188   -0.0101   -0.0302   -0.0318   -0.0477    0.0129    0.0123
          54    0.0520   -0.0566    0.0122    0.0451    0.0495    0.0660   -0.0310   -0.0196
          55    0.1061   -0.0407    0.0107    0.1129    0.0713   -0.0633    0.0564    0.0063
          56    0.0582    0.0354    0.0074    0.0485    0.0262   -0.0607   -0.0315    0.0457
          57   -0.0700    0.0277   -0.0120   -0.0756   -0.0474    0.0482   -0.0336   -0.0002
          58    0.1018   -0.0209    0.0109   -0.0817   -0.0034    0.1002   -0.0658    0.0006
          59    0.0598    0.0319    0.0101   -0.0348   -0.0050    0.0444   -0.0288    0.0048
          60   -0.0625    0.0453    0.0036    0.0558   -0.0029   -0.0853    0.0172    0.0225


   Root No.      25        26        27        28        29        30        31        32

                25 A      26 A      27 A      28 A      29 A      30 A      31 A      32 A   

                1077.9    1085.6    1108.1    1116.1    1151.4    1155.3    1188.2    1235.3
  
           1   -0.0007    0.0090   -0.0032    0.0519    0.0030    0.0064   -0.0110    0.0490
           2    0.0052    0.0068   -0.0016    0.0270    0.0005   -0.0198   -0.0090   -0.0094
           3    0.0010   -0.0156    0.0040   -0.0404   -0.0013   -0.0199   -0.0040    0.0014
           4    0.0004   -0.0032    0.0018   -0.0581   -0.0016   -0.0038    0.0052   -0.0155
           5   -0.0018    0.0001   -0.0005   -0.0270   -0.0002    0.0096    0.0008    0.0051
           6   -0.0011    0.0024   -0.0013    0.0418   -0.0000    0.0060    0.0025   -0.0043
           7    0.0087   -0.0031   -0.0059   -0.0041   -0.0048    0.0166   -0.0149    0.0063
           8   -0.0132   -0.0133    0.0078   -0.0011   -0.0021   -0.0333   -0.0007   -0.0239
           9    0.0043    0.0077   -0.0108    0.0026   -0.0074    0.0162   -0.0271    0.0070
          10    0.0040    0.0015   -0.0051    0.0011    0.0051    0.0062   -0.0172   -0.0036
          11   -0.0019   -0.0018   -0.0040    0.0010   -0.0036    0.0191    0.0121   -0.0099
          12    0.0047   -0.0042   -0.0080   -0.0010    0.0051    0.0178   -0.0167   -0.0142
          13    0.0009   -0.0040    0.0031   -0.0067   -0.0001   -0.0058    0.0046    0.0076
          14   -0.0073    0.0076   -0.0019   -0.0014    0.0031    0.0037   -0.0009    0.0097
          15   -0.0028    0.0107    0.0036    0.0047    0.0038   -0.0106    0.0020    0.0295
          16   -0.0140   -0.0055    0.0112    0.0012   -0.0061    0.0034    0.0068    0.0134
          17    0.0049    0.0013   -0.0096    0.0001    0.0036   -0.0077   -0.0152   -0.0101
          18   -0.0172   -0.0159    0.0126   -0.0036   -0.0070   -0.0038    0.0017    0.0098
          19   -0.0048    0.0062    0.0036    0.0031    0.0004   -0.0108    0.0020    0.0006
          20   -0.0029    0.0099    0.0047    0.0029    0.0002    0.0054    0.0084   -0.0231
          21   -0.0089    0.0136    0.0076   -0.0001    0.0002   -0.0101    0.0095   -0.0166
          22   -0.0046    0.0110    0.0154    0.0016    0.0056   -0.0142    0.0055   -0.0144
          23    0.0044   -0.0036    0.0036   -0.0009    0.0018    0.0115    0.0126    0.0056
          24   -0.0044    0.0150    0.0246    0.0015    0.0095   -0.0128    0.0164   -0.0178
          25   -0.0021   -0.0062   -0.0050   -0.0008   -0.0040    0.0013    0.0108    0.0042
          26   -0.0080   -0.0131   -0.0044   -0.0012   -0.0034    0.0163   -0.0101    0.0152
          27   -0.0084   -0.0144   -0.0104   -0.0015   -0.0074    0.0136    0.0092    0.0161
          28    0.0114    0.0136   -0.0017    0.0013    0.0056    0.0014    0.0104   -0.0068
          29   -0.0166   -0.0181   -0.0033   -0.0016   -0.0047   -0.0017    0.0002    0.0187
          30    0.0064    0.0066   -0.0048    0.0007    0.0053    0.0005    0.0153    0.0021
          31   -0.0097   -0.0909    0.0164    0.3644   -0.0064   -0.0310    0.0315   -0.1088
          32   -0.0073    0.0790   -0.0471   -0.0488   -0.0041    0.1379   -0.0132    0.0455
          33   -0.0103   -0.0124   -0.0170    0.0473   -0.0082    0.0669    0.0116   -0.0292
          34   -0.0099    0.0046   -0.0011    0.0086   -0.0033    0.0326    0.0255   -0.0715
          35    0.0034    0.0058   -0.0020    0.0318    0.0005   -0.0042   -0.0041    0.0080
          36    0.0004   -0.0054    0.0012   -0.0212    0.0003   -0.0035   -0.0040    0.0147
          37    0.0104   -0.0043    0.0046    0.0162   -0.0024   -0.0501    0.0055   -0.0877
          38    0.0021    0.0012   -0.0000    0.0056   -0.0004   -0.0077    0.0001   -0.0194
          39    0.0006   -0.0086    0.0023   -0.0372   -0.0004   -0.0070   -0.0034   -0.0023
          40   -0.0022   -0.0318    0.0104   -0.2955   -0.0053   -0.0152    0.0094   -0.0475
          41    0.0034    0.0059   -0.0023    0.0237    0.0004   -0.0037   -0.0055    0.0075
          42    0.0008   -0.0083    0.0018   -0.0397   -0.0013   -0.0075    0.0002   -0.0151
          43    0.1353   -0.0714    0.0075    0.0256   -0.0085    0.0958    0.0223   -0.0517
          44   -0.0334    0.0324   -0.0033    0.0117    0.0064   -0.0179   -0.0082    0.0302
          45    0.1835   -0.1179    0.0119   -0.0117   -0.0126    0.1348    0.0379   -0.0809
          46   -0.0477   -0.0588    0.0437   -0.0111    0.0189    0.0069   -0.0423    0.0007
          47    0.1444    0.1484   -0.1258    0.0040   -0.1098   -0.0520    0.2044    0.0202
          48    0.0232    0.0398   -0.0257    0.0058   -0.0422   -0.0113    0.0647    0.0256
          49   -0.0810    0.0566   -0.0283    0.0065    0.0041    0.0470   -0.0042   -0.0628
          50    0.1901   -0.1178    0.0821   -0.0066   -0.0088   -0.1325    0.0239    0.1406
          51    0.0043    0.0058    0.0144   -0.0004   -0.0002   -0.0223    0.0110   -0.0073
          52   -0.0044   -0.0302   -0.1214    0.0010   -0.2024   -0.0491   -0.0790   -0.0249
          53   -0.0063    0.0121    0.0977   -0.0018    0.1744    0.0631    0.0699    0.0428
          54   -0.0103   -0.0424   -0.1171   -0.0014   -0.1884   -0.0326   -0.0721   -0.0082
          55   -0.0352   -0.0217   -0.0262   -0.0026    0.0346   -0.0146    0.0551   -0.0109
          56    0.1282    0.1364    0.1789    0.0102   -0.1126    0.0102   -0.1902   -0.0211
          57    0.0338    0.0586    0.0784    0.0062   -0.0234   -0.0144   -0.0447   -0.0274
          58    0.0531    0.0187   -0.0753   -0.0007    0.1334   -0.0313   -0.0486   -0.0216
          59    0.0202   -0.0141   -0.0693   -0.0036    0.1129   -0.0307   -0.0553    0.0084
          60    0.0890    0.0207   -0.1533   -0.0038    0.2666   -0.0654   -0.1063   -0.0260


   Root No.      33        34        35        36        37        38        39        40

                33 A      34 A      35 A      36 A      37 A      38 A      39 A      40 A   

                1299.2    1350.7    1372.1    1396.9    1407.2    1413.6    1461.5    1582.0
  
           1    0.0133    0.0439   -0.0164    0.0116    0.0026   -0.0675   -0.0168    0.0260
           2    0.0752   -0.0262   -0.0088   -0.0021   -0.0032    0.0093    0.0272   -0.0389
           3    0.0566    0.0221   -0.0262    0.0021   -0.0009   -0.0275    0.0062    0.0020
           4   -0.0019    0.0169   -0.0206   -0.0136   -0.0036    0.0764    0.0096   -0.0050
           5   -0.0140    0.0044    0.0018    0.0200   -0.0367   -0.0012   -0.0033    0.0021
           6   -0.0118   -0.0042    0.0046   -0.0381   -0.0189    0.0002   -0.0008    0.0000
           7    0.0203   -0.0272   -0.0037   -0.0018   -0.0019    0.0125   -0.0213   -0.0500
           8   -0.0206    0.0214   -0.0059    0.0011    0.0002   -0.0037   -0.0423    0.0981
           9    0.0152   -0.0227   -0.0096   -0.0009   -0.0021    0.0091   -0.0607   -0.0089
          10    0.0093    0.0051    0.0271   -0.0011    0.0003    0.0066    0.0382    0.0420
          11    0.0207    0.0019    0.0085   -0.0008   -0.0011    0.0086   -0.0552    0.0143
          12    0.0281    0.0082    0.0458   -0.0023   -0.0005    0.0165    0.0208    0.0713
          13   -0.0119   -0.0083    0.0167   -0.0013    0.0002    0.0124   -0.0067   -0.0114
          14   -0.0329   -0.0090    0.0181   -0.0008    0.0009    0.0115    0.0058    0.0124
          15   -0.0338   -0.0144    0.0353   -0.0016    0.0009    0.0187   -0.0071   -0.0074
          16   -0.0114   -0.0123   -0.0228    0.0004   -0.0004   -0.0040    0.0116   -0.0144
          17   -0.0139    0.0408    0.0385    0.0014    0.0032   -0.0084   -0.0028   -0.0343
          18   -0.0255    0.0078   -0.0082    0.0010    0.0015   -0.0099    0.0162   -0.0437
          19   -0.0037   -0.0073   -0.0009   -0.0005    0.0001    0.0045    0.0000    0.0021
          20   -0.0147    0.0120   -0.0436    0.0025    0.0004   -0.0239    0.0315   -0.0251
          21   -0.0166   -0.0038   -0.0297    0.0007    0.0004   -0.0075    0.0207   -0.0134
          22   -0.0172    0.0055   -0.0149    0.0007    0.0002   -0.0049   -0.0053   -0.0028
          23    0.0245    0.0270    0.0526    0.0003    0.0021    0.0010   -0.0042   -0.0704
          24   -0.0097    0.0261    0.0128    0.0011    0.0017   -0.0064   -0.0095   -0.0502
          25    0.0089    0.0086    0.0211   -0.0001    0.0009   -0.0002    0.0507    0.0296
          26   -0.0083   -0.0286   -0.0330   -0.0006   -0.0013    0.0011    0.0023   -0.0348
          27    0.0077   -0.0059    0.0097   -0.0006    0.0004    0.0007    0.0762    0.0208
          28    0.0100    0.0009    0.0004    0.0000   -0.0007    0.0033   -0.0579    0.0009
          29   -0.0036   -0.0265   -0.0268   -0.0005   -0.0016    0.0019    0.0173    0.0590
          30    0.0124   -0.0165   -0.0174   -0.0003   -0.0022    0.0061   -0.0748    0.0400
          31   -0.0230   -0.0555    0.0223   -0.0109   -0.0016    0.0696    0.0203   -0.0163
          32   -0.0944   -0.0005    0.0141    0.0030   -0.0055   -0.0051   -0.0263    0.0019
          33   -0.0690   -0.0040    0.0055   -0.0053   -0.0040    0.0216   -0.0135    0.0077
          34   -0.0894   -0.1294    0.1025    0.1082    0.1372   -0.1213   -0.0163    0.0063
          35    0.0180    0.0138   -0.0189   -0.3304    0.1761    0.0016   -0.0008   -0.0009
          36    0.0110    0.0445   -0.0318    0.1178   -0.1669    0.0703    0.0079   -0.0032
          37    0.0447   -0.1373    0.0849    0.0849   -0.1335   -0.1416    0.0117   -0.0172
          38    0.0063   -0.0476    0.0352    0.0318   -0.0673   -0.0716   -0.0015   -0.0038
          39    0.0180    0.0007   -0.0122    0.3777    0.1739    0.0480    0.0039   -0.0006
          40   -0.0083   -0.0952    0.0759   -0.1233    0.0203   -0.1890   -0.0157    0.0073
          41    0.0254    0.0158   -0.0302    0.0584    0.3437    0.0605    0.0035   -0.0014
          42    0.0109   -0.0390    0.0213   -0.0352    0.2239   -0.0636   -0.0064    0.0033
          43   -0.0186    0.0416   -0.0596    0.0054    0.0009   -0.0421    0.0069    0.0052
          44   -0.0287   -0.0168    0.0317   -0.0012    0.0006    0.0176    0.0053    0.0106
          45   -0.0559    0.0442   -0.0653    0.0054    0.0028   -0.0402    0.0168    0.0125
          46   -0.0183    0.0012   -0.0104   -0.0009    0.0004   -0.0032   -0.0076   -0.0451
          47    0.0120   -0.0242   -0.0214    0.0015   -0.0011    0.0008    0.0950    0.0685
          48   -0.0200   -0.0115   -0.0285    0.0018    0.0004   -0.0107    0.0481   -0.0209
          49    0.0129    0.0139   -0.0367    0.0018    0.0002   -0.0179    0.0325    0.0025
          50   -0.0602   -0.0411    0.0467   -0.0021    0.0009    0.0277   -0.0458   -0.0245
          51   -0.0214   -0.0089   -0.0242   -0.0001    0.0004   -0.0019    0.0189   -0.0136
          52   -0.0480    0.0265   -0.0016    0.0015    0.0019   -0.0097   -0.0217   -0.0603
          53    0.0417   -0.0474   -0.0150   -0.0022   -0.0023    0.0100    0.0753    0.0428
          54   -0.0445    0.0084   -0.0130    0.0009    0.0013   -0.0086    0.0154   -0.0606
          55   -0.0069    0.0212    0.0026    0.0013    0.0012   -0.0065   -0.0302   -0.0428
          56   -0.0250   -0.0311   -0.0178   -0.0026   -0.0015    0.0085    0.0974    0.0860
          57   -0.0255    0.0107   -0.0087    0.0004    0.0007   -0.0051    0.0178   -0.0063
          58   -0.0314    0.0061   -0.0123    0.0005    0.0007   -0.0047   -0.0050   -0.0429
          59   -0.0425   -0.0261   -0.0421   -0.0002   -0.0004   -0.0054    0.0783    0.0285
          60   -0.0734   -0.0079   -0.0453    0.0007    0.0008   -0.0107    0.0431   -0.0444


   Root No.      41        42        43        44        45        46        47        48

                41 A      42 A      43 A      44 A      45 A      46 A      47 A      48 A   

                1599.1    1772.9    1802.7    1829.0    2893.0    3054.9    3063.7    3073.7
  
           1    0.0125   -0.0075    0.0063   -0.0018    0.0235   -0.0000    0.0000    0.0000
           2   -0.0015    0.0027   -0.0155    0.0168    0.0365   -0.0000    0.0001   -0.0001
           3    0.0106   -0.0090   -0.0029    0.0069   -0.0562   -0.0001    0.0001   -0.0002
           4   -0.0036   -0.0017   -0.0010   -0.0010    0.0007   -0.0000    0.0001   -0.0002
           5   -0.0010   -0.0015    0.0019   -0.0010   -0.0012   -0.0002    0.0006   -0.0016
           6   -0.0014   -0.0017    0.0007   -0.0006    0.0019   -0.0005    0.0014   -0.0042
           7   -0.0370    0.0057    0.0465    0.0074   -0.0003    0.0001   -0.0000    0.0001
           8    0.0022    0.0134    0.0642   -0.1071    0.0007    0.0001   -0.0008    0.0014
           9   -0.0526    0.0168    0.1103   -0.0585   -0.0002    0.0003   -0.0006    0.0011
          10   -0.0017   -0.0097   -0.0693   -0.0661    0.0006    0.0001    0.0002    0.0007
          11    0.0955    0.0221    0.0618    0.1398   -0.0004    0.0000   -0.0005   -0.0010
          12    0.0599   -0.0001   -0.0620   -0.0063    0.0003    0.0002   -0.0000    0.0004
          13    0.0096    0.1272   -0.0113   -0.0090   -0.0004   -0.0000   -0.0000    0.0000
          14   -0.0077   -0.1232    0.0041    0.0085   -0.0003    0.0000   -0.0000    0.0000
          15    0.0099    0.1063   -0.0137   -0.0076   -0.0011    0.0000   -0.0000    0.0000
          16    0.0423   -0.0101   -0.0248   -0.0232    0.0001   -0.0064    0.0129   -0.0184
          17   -0.0750    0.0085   -0.0333    0.1257   -0.0001    0.0002   -0.0014    0.0034
          18    0.0136   -0.0095   -0.0581    0.0473   -0.0001   -0.0092    0.0180   -0.0247
          19   -0.0060   -0.1186    0.0150    0.0165    0.0005   -0.0000   -0.0001   -0.0001
          20   -0.0349    0.1357   -0.0297   -0.0396   -0.0002   -0.0000    0.0001    0.0001
          21   -0.0317   -0.0865    0.0026   -0.0017    0.0002   -0.0000   -0.0001   -0.0001
          22    0.0293    0.0112    0.0326    0.0466   -0.0000   -0.0050   -0.0087   -0.0146
          23   -0.0122   -0.0369   -0.0071   -0.1327    0.0001    0.0016    0.0024    0.0027
          24    0.0351   -0.0074    0.0435   -0.0177   -0.0000   -0.0063   -0.0112   -0.0197
          25   -0.0423    0.0189    0.0679    0.0362   -0.0000    0.0026   -0.0028   -0.0012
          26    0.0773   -0.0184   -0.0328   -0.0567    0.0001    0.0230   -0.0128   -0.0149
          27   -0.0121    0.0159    0.0787    0.0167   -0.0001    0.0187   -0.0123   -0.0113
          28   -0.0120   -0.0079   -0.0587   -0.0045    0.0000    0.0138    0.0115    0.0007
          29   -0.0489    0.0124   -0.0270    0.0424    0.0000   -0.0253   -0.0194    0.0007
          30   -0.0494   -0.0035   -0.1042    0.0209    0.0000    0.0038    0.0044    0.0014
          31   -0.0111   -0.0004   -0.0032   -0.0026   -0.2973   -0.0001    0.0002   -0.0006
          32   -0.0163   -0.0223    0.0135   -0.0049   -0.4415   -0.0001    0.0003   -0.0007
          33   -0.0089   -0.0158    0.0127   -0.0045    0.6838    0.0002   -0.0002    0.0008
          34   -0.0035   -0.0016    0.0020   -0.0029   -0.0007    0.0020   -0.0055    0.0153
          35   -0.0008   -0.0014    0.0004   -0.0000   -0.0059    0.0023   -0.0067    0.0191
          36   -0.0013   -0.0032    0.0005    0.0001   -0.0108    0.0044   -0.0125    0.0353
          37    0.0020    0.0016   -0.0073    0.0066   -0.0005   -0.0005    0.0016   -0.0046
          38    0.0004   -0.0008   -0.0005    0.0023    0.0128    0.0012   -0.0039    0.0120
          39    0.0006    0.0004   -0.0005    0.0008    0.0005   -0.0002    0.0006   -0.0018
          40    0.0037    0.0007    0.0013   -0.0005    0.0029   -0.0008    0.0024   -0.0081
          41   -0.0002    0.0012   -0.0010    0.0006    0.0105   -0.0013    0.0036   -0.0122
          42    0.0022    0.0005   -0.0001    0.0005   -0.0170    0.0016   -0.0047    0.0162
          43   -0.0116    0.0003    0.0026   -0.0052   -0.0009    0.0000   -0.0001    0.0000
          44   -0.0061   -0.1344    0.0011    0.0103    0.0047   -0.0002    0.0005   -0.0001
          45   -0.0230   -0.0867    0.0035   -0.0014   -0.0005   -0.0001    0.0002   -0.0000
          46    0.0144   -0.0101   -0.0457    0.0212   -0.0007    0.0769   -0.1510    0.2042
          47    0.0591    0.0000    0.0249   -0.0499    0.0003   -0.0111    0.0243   -0.0351
          48    0.0589   -0.0148   -0.0509   -0.0007   -0.0004    0.1055   -0.2054    0.2763
          49   -0.0202   -0.0591   -0.0096   -0.0080    0.0031   -0.0000    0.0004    0.0003
          50   -0.0033   -0.0651    0.0296    0.0247    0.0006    0.0001    0.0002    0.0003
          51   -0.0331   -0.1319    0.0060    0.0046    0.0033    0.0000    0.0007    0.0006
          52    0.0491   -0.0127   -0.0258   -0.0111   -0.0000   -0.0337    0.0223    0.0195
          53    0.0033    0.0090    0.0550   -0.0184   -0.0002   -0.2647    0.1545    0.1593
          54    0.0746   -0.0126   -0.0024   -0.0283   -0.0001   -0.2206    0.1325    0.1317
          55    0.0257   -0.0014    0.0382    0.0088   -0.0000    0.0576    0.1000    0.1650
          56    0.0289    0.0192   -0.0032    0.0464   -0.0000   -0.0115   -0.0183   -0.0281
          57    0.0572    0.0101    0.0540    0.0433    0.0001    0.0771    0.1351    0.2244
          58    0.0565   -0.0075    0.0091   -0.0201    0.0001   -0.1624   -0.1274   -0.0001
          59    0.0075    0.0166    0.0407    0.0354   -0.0003    0.2910    0.2247   -0.0027
          60    0.0881   -0.0004    0.0402   -0.0062    0.0001   -0.0495   -0.0413   -0.0020


   Root No.      49        50        51        52        53        54

                49 A      50 A      51 A      52 A      53 A      54 A   

                3080.6    3082.4    3085.9    3126.5    3143.8    3178.7
  
           1   -0.0001    0.0002   -0.0004   -0.0002    0.0004    0.0006
           2    0.0000    0.0003   -0.0008   -0.0001   -0.0005   -0.0001
           3    0.0002   -0.0007    0.0008   -0.0004    0.0008    0.0001
           4    0.0002   -0.0006    0.0001    0.0001    0.0000    0.0245
           5    0.0025   -0.0109   -0.0512    0.0001    0.0000   -0.0000
           6    0.0084   -0.0381    0.0146   -0.0002   -0.0002   -0.0019
           7    0.0002   -0.0001   -0.0004   -0.0001    0.0002   -0.0000
           8   -0.0009   -0.0004    0.0001    0.0001    0.0010    0.0001
           9   -0.0003   -0.0003   -0.0000   -0.0002    0.0010    0.0000
          10    0.0006    0.0001   -0.0000   -0.0001   -0.0006    0.0000
          11   -0.0015   -0.0003    0.0000   -0.0001    0.0017    0.0000
          12   -0.0001   -0.0001    0.0000   -0.0001    0.0002   -0.0000
          13   -0.0001    0.0002    0.0001    0.0083    0.0130   -0.0001
          14    0.0000    0.0001   -0.0002   -0.0343   -0.0415    0.0002
          15   -0.0000    0.0001    0.0000   -0.0108   -0.0087    0.0000
          16    0.0070    0.0042    0.0003   -0.0000   -0.0001   -0.0002
          17   -0.0016   -0.0008   -0.0000    0.0000   -0.0001    0.0000
          18    0.0092    0.0057    0.0004   -0.0000   -0.0002   -0.0003
          19   -0.0001   -0.0000    0.0000    0.0207   -0.0226    0.0000
          20    0.0001    0.0000    0.0000    0.0059   -0.0018   -0.0000
          21   -0.0000   -0.0000    0.0001    0.0345   -0.0348   -0.0000
          22   -0.0152   -0.0030    0.0000   -0.0000    0.0002    0.0000
          23    0.0022    0.0004   -0.0000    0.0000   -0.0003    0.0000
          24   -0.0210   -0.0042    0.0000   -0.0000    0.0001   -0.0000
          25    0.0017    0.0004    0.0000   -0.0000    0.0001    0.0000
          26    0.0109    0.0037    0.0001    0.0000   -0.0000   -0.0000
          27    0.0095    0.0030    0.0001   -0.0000    0.0001   -0.0000
          28   -0.0085   -0.0021    0.0000    0.0000   -0.0000    0.0000
          29    0.0156    0.0037   -0.0000    0.0000   -0.0000    0.0000
          30   -0.0024   -0.0007   -0.0000    0.0000   -0.0001    0.0000
          31    0.0012   -0.0049    0.0074    0.0000    0.0013    0.0010
          32    0.0012   -0.0046    0.0056   -0.0007    0.0011    0.0005
          33   -0.0015    0.0060   -0.0100   -0.0009   -0.0035   -0.0008
          34   -0.0286    0.1268    0.0344   -0.0002   -0.0003   -0.0927
          35   -0.0366    0.1638    0.0206   -0.0001   -0.0002   -0.1371
          36   -0.0666    0.2960    0.0933   -0.0005   -0.0004   -0.2571
          37    0.0080   -0.0349   -0.1638   -0.0000   -0.0006   -0.0984
          38   -0.0210    0.0925    0.4347   -0.0006    0.0005    0.3062
          39    0.0036   -0.0164    0.0201   -0.0003   -0.0003    0.0073
          40    0.0184   -0.0850    0.1286   -0.0011   -0.0007   -0.1083
          41    0.0273   -0.1261    0.1570   -0.0015   -0.0012   -0.1690
          42   -0.0377    0.1756   -0.2885    0.0025    0.0017    0.2726
          43   -0.0001    0.0004   -0.0001   -0.0983   -0.1066    0.0008
          44    0.0001   -0.0009    0.0018    0.4072    0.4351   -0.0021
          45    0.0000   -0.0002    0.0009    0.1292    0.1360   -0.0005
          46   -0.0742   -0.0470   -0.0037   -0.0001    0.0003    0.0026
          47    0.0131    0.0083    0.0007    0.0000   -0.0001   -0.0006
          48   -0.1003   -0.0631   -0.0047   -0.0001    0.0004    0.0032
          49    0.0005    0.0002   -0.0006   -0.2415    0.2199    0.0000
          50    0.0004    0.0001   -0.0002   -0.0682    0.0598    0.0000
          51    0.0009    0.0004   -0.0009   -0.4034    0.3654    0.0000
          52   -0.0158   -0.0050   -0.0001   -0.0000   -0.0001   -0.0000
          53   -0.1185   -0.0389   -0.0010   -0.0001   -0.0005    0.0001
          54   -0.0997   -0.0324   -0.0008   -0.0001   -0.0004    0.0001
          55    0.1693    0.0336   -0.0004    0.0009   -0.0007    0.0000
          56   -0.0280   -0.0055    0.0001    0.0001   -0.0002    0.0000
          57    0.2308    0.0459   -0.0005    0.0014   -0.0012    0.0000
          58    0.0926    0.0221   -0.0001    0.0002    0.0002    0.0000
          59   -0.1657   -0.0394    0.0002   -0.0003   -0.0002   -0.0001
          60    0.0283    0.0068   -0.0000    0.0000    0.0001    0.0000


           MASS-WEIGHTED COORDINATE ANALYSIS (NORMAL COORDINATES)


   Root No.       1         2         3         4         5         6         7         8

                 1 A       2 A       3 A       4 A       5 A       6 A       7 A       8 A   

                 128.2     175.5     186.0     284.2     289.5     395.2     450.3     516.2
  
           1   -0.0158   -0.0297   -0.0402   -0.1191   -0.2254   -0.0891    0.0525   -0.1162
           2    0.0176   -0.0464   -0.0600   -0.0145   -0.1036   -0.1443   -0.2388   -0.0008
           3   -0.0752   -0.0302   -0.0653    0.0013    0.2235    0.0462   -0.1541    0.0071
           4   -0.0282   -0.0302   -0.0389   -0.1257   -0.2229   -0.1016    0.0585   -0.1651
           5   -0.2882    0.2504    0.3240    0.3979    0.0617   -0.0126    0.1032    0.0703
           6    0.4231    0.1313    0.1370    0.1900   -0.2280   -0.0681    0.0940   -0.0156
           7    0.1020   -0.1676   -0.1991    0.0630   -0.1311   -0.1150    0.2694    0.2400
           8    0.0679   -0.1116   -0.1390    0.0168   -0.0615   -0.1188   -0.0798    0.1218
           9   -0.1244    0.0789    0.0655   -0.2232    0.1672    0.2794    0.1867   -0.0548
          10   -0.0728   -0.1868   -0.2054    0.1358    0.0963   -0.1044    0.3630   -0.0373
          11    0.0156   -0.1014   -0.0992    0.0468   -0.0042   -0.0933    0.1059   -0.0784
          12   -0.0039    0.0940    0.0791   -0.2578    0.0110    0.2807    0.1580    0.1354
          13    0.1399    0.1133    0.1203   -0.2336   -0.0251    0.1127   -0.2970   -0.0605
          14    0.1130    0.0319    0.0361   -0.1558   -0.0532    0.0670   -0.0188   -0.0064
          15   -0.1884   -0.1324   -0.1833    0.1236    0.1089   -0.1611   -0.1661   -0.0302
          16    0.2631   -0.0024   -0.0221    0.2795    0.0622    0.2929   -0.0484    0.2385
          17    0.1273   -0.0736   -0.1402   -0.0657    0.0534    0.2088    0.0334    0.1049
          18   -0.2192    0.0033    0.0307   -0.1824    0.0048   -0.1406    0.1502   -0.0201
          19    0.0310   -0.0722   -0.0673   -0.0335    0.4637   -0.0756   -0.1284    0.0715
          20    0.0781   -0.0426   -0.0275   -0.0920    0.1509    0.0522    0.2553    0.0717
          21   -0.0989    0.0010   -0.0388   -0.0706   -0.2247    0.0885    0.0267   -0.0687
          22   -0.2946   -0.0694   -0.0566    0.1309   -0.1319    0.3326    0.0171   -0.1685
          23   -0.0769   -0.0430   -0.0155    0.0861   -0.1192    0.0510   -0.1636   -0.1955
          24    0.1654    0.0525    0.0680   -0.0761    0.1211   -0.1856    0.0284    0.1132
          25    0.1168    0.2087    0.2247    0.0529    0.2029   -0.1649   -0.0067   -0.2789
          26    0.0660    0.0253   -0.0182   -0.1544    0.1076   -0.0076    0.0235   -0.1498
          27   -0.0996   -0.1050   -0.0517    0.1328   -0.1404    0.0119   -0.2105    0.1955
          28   -0.2146    0.1724    0.2117   -0.0830   -0.1110   -0.1685   -0.1318    0.3297
          29   -0.0576    0.0350    0.0372   -0.1395   -0.0767   -0.0623   -0.0555    0.0179
          30    0.1273   -0.0758   -0.0334    0.2309    0.0675    0.0048   -0.1314   -0.2363
          31   -0.1075   -0.0051   -0.0062   -0.0314   -0.0186   -0.0197    0.0206   -0.0687
          32    0.0157   -0.0711   -0.0685    0.0306   -0.0318   -0.1144   -0.1339    0.0348
          33   -0.0571   -0.0446   -0.0498    0.0239    0.0787   -0.0329   -0.0845    0.0081
          34   -0.0673   -0.0644   -0.0908   -0.1278    0.0099   -0.0143   -0.1027   -0.0587
          35   -0.0909   -0.2878    0.4553    0.1336    0.0374    0.0184    0.0791    0.0349
          36    0.1527    0.2563   -0.1190    0.0872   -0.1102   -0.0387    0.0557   -0.0072
          37   -0.0659    0.0507    0.0747    0.0675   -0.0312    0.0004    0.1285   -0.0144
          38   -0.1075    0.1076    0.1165    0.1573    0.0321    0.0079    0.0738    0.0349
          39    0.1802   -0.3861    0.4317    0.0480   -0.1042   -0.0230    0.0665   -0.0111
          40    0.1091   -0.0135   -0.0168   -0.0511   -0.1748   -0.0748    0.0273   -0.0780
          41   -0.1236    0.4668   -0.1887    0.1835    0.0292   -0.0011    0.0716    0.0400
          42    0.1533    0.2795   -0.1376    0.0901   -0.1124   -0.0403    0.0583   -0.0077
          43    0.0785    0.0871    0.0913   -0.1473   -0.0270    0.1139   -0.2366   -0.0044
          44    0.0518    0.0347    0.0391   -0.0860   -0.0281    0.0670   -0.0356    0.0045
          45   -0.0860   -0.0777   -0.0995    0.1051    0.0562   -0.1350   -0.0664   -0.0172
          46    0.1380    0.0051   -0.0034    0.1396    0.0357    0.2526   -0.1048    0.1182
          47    0.0606   -0.0283   -0.0597   -0.0422    0.0339    0.1824    0.0649    0.0684
          48   -0.1060   -0.0042    0.0048   -0.0986   -0.0094   -0.1494    0.1174   -0.0375
          49    0.0120   -0.0261   -0.0198   -0.0147    0.2923   -0.0296   -0.1302    0.0932
          50    0.0295   -0.0115   -0.0025   -0.0491    0.1119    0.0605    0.1687    0.0891
          51   -0.0316    0.0033   -0.0120   -0.0138   -0.1711    0.0228    0.0474   -0.0746
          52    0.0707    0.1195    0.1278   -0.0142    0.1428   -0.1165    0.0115   -0.3092
          53    0.0318    0.0274    0.0086   -0.0783    0.0768   -0.0113    0.0486   -0.1155
          54   -0.0497   -0.0636   -0.0415    0.0827   -0.1082    0.0254   -0.1121    0.1783
          55   -0.1475   -0.0306   -0.0243    0.0507   -0.0743    0.2843   -0.0376   -0.1447
          56   -0.0461   -0.0080    0.0133    0.0764   -0.0618    0.0496   -0.1698   -0.1233
          57    0.0906    0.0235    0.0278   -0.0248    0.0583   -0.1877    0.0243    0.0954
          58   -0.1127    0.0980    0.1195   -0.1035   -0.0780   -0.1166   -0.0876    0.2835
          59   -0.0380    0.0327    0.0397   -0.0696   -0.0445   -0.0532   -0.0457    0.0850
          60    0.0772   -0.0473   -0.0314    0.1538    0.0395    0.0198   -0.0441   -0.2141


   Root No.       9        10        11        12        13        14        15        16

                 9 A      10 A      11 A      12 A      13 A      14 A      15 A      16 A   

                 536.6     557.2     614.0     732.4     750.5     786.1     819.5     838.2
  
           1    0.2379   -0.0048    0.0588   -0.0195    0.0261   -0.0091    0.0079   -0.0037
           2   -0.0952   -0.2367    0.3013   -0.0234   -0.0444    0.0120   -0.1495    0.2994
           3   -0.0215   -0.1177   -0.2660   -0.0609    0.3540    0.1031   -0.0360   -0.1510
           4    0.3529   -0.0133    0.0669   -0.0569    0.1621   -0.0433    0.1342   -0.0999
           5   -0.0406   -0.0079    0.0116    0.0184   -0.0031    0.0133   -0.0556    0.1163
           6    0.0956   -0.0066    0.0128   -0.0103    0.0790    0.0233   -0.0133   -0.0507
           7   -0.1747    0.0420   -0.1476    0.4037    0.0459    0.1841   -0.1029   -0.0569
           8   -0.2155   -0.0747    0.1632    0.1506   -0.1164   -0.0026    0.0575   -0.0802
[...]
 EFF. MASS   9.7655

 VIBRATION   34   34A         ATOM PAIR      ENERGY CONTRIBUTION    RADIAL
 FREQ.      1350.65         C  1 -- C  3         +12.5% ( 53.1%)     55.2%
 T-DIPOLE    0.1523         C  6 -- C  9         +10.0% ( 47.6%)     82.7%
 TRAVEL      0.0777         C  8 -- C 10          +9.2% ( 45.6%)     99.6%
 RED. MASS   0.9111         C  1 -- C  5          +7.6% ( 41.3%)     43.7%
 EFF. MASS   8.2664

 VIBRATION   35   35A         ATOM PAIR      ENERGY CONTRIBUTION    RADIAL
 FREQ.      1372.15         C  4 -- C  7         +10.6% ( 52.5%)     75.0%
 T-DIPOLE    0.1799         C  4 -- C  8          +9.8% ( 50.6%)     85.2%
 TRAVEL      0.0701         C  8 -- C 10          +9.3% ( 49.4%)     80.4%
 RED. MASS   1.0614         C  6 -- C  9          +9.2% ( 49.0%)     99.8%
 EFF. MASS   9.9918

 VIBRATION   36   36A         ATOM PAIR      ENERGY CONTRIBUTION    RADIAL
 FREQ.      1396.88         C  2 -- H 13         +44.2% ( 58.9%)      1.7%
 T-DIPOLE    0.0519         C  2 -- H 12         +39.8% ( 55.9%)      2.8%
 TRAVEL      0.1676         C  2 -- H 14          +7.5% ( 24.3%)     79.0%
 RED. MASS   0.4422         C  1 -- C  2          +6.5% ( 22.7%)     23.1%
 EFF. MASS   1.7191

 VIBRATION   37   37A         ATOM PAIR      ENERGY CONTRIBUTION    RADIAL
 FREQ.      1407.21         C  2 -- H 14         +52.4% ( 62.8%)      0.1%
 T-DIPOLE    0.0574         C  2 -- H 12         +24.6% ( 43.0%)      8.7%
 TRAVEL      0.1744         C  2 -- H 13         +17.1% ( 35.8%)     14.7%
 RED. MASS   0.4151         C  1 -- C  2          +5.1% ( 19.5%)      2.6%
 EFF. MASS   1.5758

 VIBRATION   38   38A         ATOM PAIR      ENERGY CONTRIBUTION    RADIAL
 FREQ.      1413.60         C  1 -- C  2         +21.7% ( 67.3%)     95.9%
 T-DIPOLE    0.0697         C  2 -- H 14         +14.7% ( 55.3%)      3.4%
 TRAVEL      0.0798         C  2 -- H 13         +12.1% ( 50.3%)      4.1%
 RED. MASS   1.6459         C  2 -- H 12         +11.0% ( 47.9%)      3.9%
 EFF. MASS   7.4946         C  1 -- C  5         +10.1% ( 45.8%)     57.3%

 VIBRATION   39   39A         ATOM PAIR      ENERGY CONTRIBUTION    RADIAL
 FREQ.      1461.47         C  9 -- C 10         +22.6% ( 78.8%)     99.9%
 T-DIPOLE    0.4830         C  3 -- C  4         +11.7% ( 56.6%)     99.9%
 TRAVEL      0.0644         C 10 -- H 20          +7.5% ( 45.3%)     11.9%
 RED. MASS   2.1085         C  8 -- C 10          +7.4% ( 44.9%)     14.2%
 EFF. MASS  11.1354

 VIBRATION   40   40A         ATOM PAIR      ENERGY CONTRIBUTION    RADIAL
 FREQ.      1582.04         C  3 -- C  4         +15.0% ( 59.3%)     73.6%
 T-DIPOLE    0.6308         C  3 -- C  6         +13.2% ( 55.7%)     69.7%
 TRAVEL      0.0612         C  8 -- C 10         +12.6% ( 54.4%)     98.0%
 RED. MASS   1.9090         C  1 -- C  3         +11.3% ( 51.4%)     98.5%
 EFF. MASS  11.3976         C  4 -- C  8         +10.0% ( 48.5%)      3.6%

 VIBRATION   41   41A         ATOM PAIR      ENERGY CONTRIBUTION    RADIAL
 FREQ.      1599.12         C  6 -- C  9         +14.3% ( 59.0%)     99.9%
 T-DIPOLE    0.3144         C  3 -- C  4         +12.8% ( 55.7%)     45.6%
 TRAVEL      0.0605         C  4 -- C  7         +12.2% ( 54.5%)     99.3%
 RED. MASS   1.9656         C  4 -- C  8         +11.2% ( 52.2%)     80.5%
 EFF. MASS  11.5134

 VIBRATION   42   42A         ATOM PAIR      ENERGY CONTRIBUTION    RADIAL
 FREQ.      1772.88         C  5 -- C  7         +38.9% ( 98.8%)    100.0%
 T-DIPOLE    0.2626         C  4 -- C  5         +12.4% ( 55.8%)     62.7%
 TRAVEL      0.0564         C  1 -- C  5         +12.2% ( 55.3%)     20.4%
 RED. MASS   4.9326         C  5 -- H 15         +11.3% ( 53.3%)     11.9%
 EFF. MASS  11.9370         C  4 -- C  7         +11.1% ( 52.8%)      9.3%
                            C  7 -- H 17         +10.5% ( 51.3%)     13.9%

 VIBRATION   43   43A         ATOM PAIR      ENERGY CONTRIBUTION    RADIAL
 FREQ.      1802.66         C  3 -- C  4         +15.6% ( 57.1%)     98.6%
 T-DIPOLE    0.0725         C  9 -- C 10         +14.2% ( 54.4%)     99.4%
 TRAVEL      0.0561         C  3 -- C  6         +13.5% ( 53.0%)     84.8%
 RED. MASS   2.2557         C  8 -- C 10          +8.2% ( 41.3%)     48.6%
 EFF. MASS  11.8777

 VIBRATION   44   44A         ATOM PAIR      ENERGY CONTRIBUTION    RADIAL
 FREQ.      1828.97         C  4 -- C  8         +19.1% ( 64.8%)     94.0%
 T-DIPOLE    0.2174         C  3 -- C  6         +14.0% ( 55.5%)     87.0%
 TRAVEL      0.0556         C  3 -- C  4         +13.6% ( 54.8%)      1.0%
 RED. MASS   2.4504         C  4 -- C  7          +9.3% ( 45.2%)     59.9%
 EFF. MASS  11.9133

 VIBRATION   45   45A         ATOM PAIR      ENERGY CONTRIBUTION    RADIAL
 FREQ.      2892.97         C  1 -- H 11         +96.8% ( 99.9%)    100.0%
 T-DIPOLE    0.1716         C  1 -- C  2          +1.0% ( 10.3%)      9.8%
 TRAVEL      0.1273         C  1 -- C  3          +1.0% ( 10.3%)     11.1%
 RED. MASS   0.9280         C  1 -- C  5          +1.0% ( 10.2%)     10.4%
 EFF. MASS   1.4386

 VIBRATION   46   46A         ATOM PAIR      ENERGY CONTRIBUTION    RADIAL
 FREQ.      3054.91         C  9 -- H 18         +44.8% ( 68.1%)    100.0%
 T-DIPOLE    0.0729         C 10 -- H 20         +42.5% ( 66.3%)    100.0%
 TRAVEL      0.1216         C  6 -- H 16          +6.4% ( 25.8%)     99.9%
 RED. MASS   0.3803         C  8 -- H 19          +3.5% ( 19.1%)     99.8%
 EFF. MASS   1.4934

 VIBRATION   47   47A         ATOM PAIR      ENERGY CONTRIBUTION    RADIAL
 FREQ.      3063.75         C 10 -- H 20         +32.4% ( 57.8%)    100.0%
 T-DIPOLE    0.3084         C  6 -- H 16         +31.1% ( 56.7%)    100.0%
 TRAVEL      0.1208         C  9 -- H 18         +19.8% ( 45.3%)     99.9%
 RED. MASS   0.2564         C  8 -- H 19         +13.6% ( 37.4%)    100.0%
 EFF. MASS   1.5070

 VIBRATION   48   48A         ATOM PAIR      ENERGY CONTRIBUTION    RADIAL
 FREQ.      3073.74         C  6 -- H 16         +47.4% ( 69.9%)    100.0%
 T-DIPOLE    0.5247         C  8 -- H 19         +31.2% ( 56.7%)    100.0%
 TRAVEL      0.1192         C  9 -- H 18         +17.1% ( 42.0%)    100.0%
 RED. MASS   0.3495         C  6 -- C  9          +1.1% ( 10.9%)     86.2%
 EFF. MASS   1.5434

 VIBRATION   49   49A         ATOM PAIR      ENERGY CONTRIBUTION    RADIAL
 FREQ.      3080.58         C  8 -- H 19         +47.1% ( 69.7%)    100.0%
 T-DIPOLE    0.3464         C 10 -- H 20         +21.0% ( 46.5%)    100.0%
 TRAVEL      0.1178         C  9 -- H 18         +13.8% ( 37.7%)    100.0%
 RED. MASS   0.2952         C  6 -- H 16          +9.0% ( 30.4%)    100.0%
 EFF. MASS   1.5779

 VIBRATION   50   50A         ATOM PAIR      ENERGY CONTRIBUTION    RADIAL
 FREQ.      3082.37         C  2 -- H 12         +61.0% ( 80.5%)     98.8%
 T-DIPOLE    0.0618         C  2 -- H 14         +26.0% ( 52.5%)     91.9%
 TRAVEL      0.1203         C  2 -- H 13          +5.4% ( 24.1%)     59.4%
 RED. MASS   0.4670         C  6 -- H 16          +2.8% ( 17.2%)    100.0%
 EFF. MASS   1.5122

 VIBRATION   51   51A         ATOM PAIR      ENERGY CONTRIBUTION    RADIAL
 FREQ.      3085.87         C  2 -- H 13         +60.2% ( 80.1%)     98.4%
 T-DIPOLE    0.0347         C  2 -- H 14         +35.1% ( 61.1%)     94.3%
 TRAVEL      0.1204         C  2 -- H 12          +3.6% ( 19.6%)     43.3%
 RED. MASS   0.5165         C  1 -- C  2          +1.0% ( 10.4%)      0.0%
 EFF. MASS   1.5082

 VIBRATION   52   52A         ATOM PAIR      ENERGY CONTRIBUTION    RADIAL
 FREQ.      3126.48         C  7 -- H 17         +52.3% ( 73.7%)    100.0%
 T-DIPOLE    0.3843         C  5 -- H 15         +44.4% ( 67.9%)    100.0%
 TRAVEL      0.1210         C  5 -- C  7          +1.2% ( 11.0%)      0.2%
 RED. MASS   0.4680         C  4 -- C  7          +0.8% (  9.3%)     30.6%
 EFF. MASS   1.4729

 VIBRATION   53   53A         ATOM PAIR      ENERGY CONTRIBUTION    RADIAL
 FREQ.      3143.85         C  5 -- H 15         +51.2% ( 73.3%)     99.9%
 T-DIPOLE    0.4248         C  7 -- H 17         +43.4% ( 67.5%)     99.9%
 TRAVEL      0.1140         C  5 -- C  7          +2.4% ( 16.0%)     99.9%
 RED. MASS   0.4706         C  4 -- C  5          +1.0% ( 10.2%)     97.6%
 EFF. MASS   1.6500

 VIBRATION   54   54A         ATOM PAIR      ENERGY CONTRIBUTION    RADIAL
 FREQ.      3178.68         C  2 -- H 14         +36.9% ( 58.5%)     97.6%
 T-DIPOLE    0.0392         C  2 -- H 13         +33.1% ( 55.4%)     97.1%
 TRAVEL      0.1367         C  2 -- H 12         +29.6% ( 52.4%)     96.4%
 RED. MASS   0.3292         C  1 -- C  2          +0.3% (  5.0%)     99.3%
 EFF. MASS   1.1347

      SYMMETRY NUMBER FOR POINT-GROUP C1  =  1


          SYSTEM IS A GROUND STATE



 InChI=1S/C10H10/c1-8-6-7-9-4-2-3-5-10(8)9/h2-8H,1H3


          MOLECULE IS NOT LINEAR

          THERE ARE 54 GENUINE VIBRATIONS IN THIS SYSTEM
          THIS THERMODYNAMICS CALCULATION IS LIMITED TO
          MOLECULES WHICH HAVE NO INTERNAL ROTATIONS




                    CALCULATED THERMODYNAMIC PROPERTIES
                                          *
   TEMP. (K)   PARTITION FUNCTION   H.O.F.    ENTHALPY  HEAT CAPACITY ENTROPY
                                   KCAL/MOL   CAL/MOLE    CAL/K/MOL  CAL/K/MOL


 298.00  VIB.     0.2546D+02                  3168.6806    26.0327    17.0662
         ROT.     0.5078D+06                   888.2813     2.9808    29.0884
         INT.     0.1293D+08                  4056.9620    29.0135    46.1546
         TRA.     0.1436D+28                  1480.4688     4.9680    40.5022
         TOT.                       35.712    5537.4308    33.9815    86.6567

 200.00  VIB.     0.5059D+01                  1181.9789    14.7573     9.1314
         ROT.     0.2792D+06                   596.1620     2.9808    27.8997
         INT.     0.1412D+07                  1778.1408    17.7381    37.0311
         TRA.     0.7896D+27                   993.6033     4.9680    38.5210
         TOT.                       32.946    2771.7441    22.7061    75.5521

 210.00  VIB.     0.5881D+01                  1334.8617    15.8238     9.8771
         ROT.     0.3004D+06                   625.9700     2.9808    28.0452
         INT.     0.1766D+07                  1960.8318    18.8046    37.9223
         TRA.     0.8496D+27                  1043.2834     4.9680    38.7634
         TOT.                       33.178    3004.1152    23.7726    76.6857

 220.00  VIB.     0.6860D+01                  1498.5423    16.9165    10.6383
         ROT.     0.3221D+06                   655.7781     2.9808    28.1838
         INT.     0.2210D+07                  2154.3204    19.8973    38.8222
         TRA.     0.9110D+27                  1092.9636     4.9680    38.9945
         TOT.                       33.421    3247.2840    24.8653    77.8167

 230.00  VIB.     0.8030D+01                  1673.2712    18.0331    11.4149
         ROT.     0.3443D+06                   685.5862     2.9808    28.3163
         INT.     0.2765D+07                  2358.8575    21.0139    39.7312
         TRA.     0.9738D+27                  1142.6437     4.9680    39.2154
         TOT.                       33.676    3501.5012    25.9819    78.9466

 240.00  VIB.     0.9431D+01                  1859.2746    19.1709    12.2063
         ROT.     0.3670D+06                   715.3943     2.9808    28.4432
         INT.     0.3461D+07                  2574.6690    22.1517    40.6495
         TRA.     0.1038D+28                  1192.3239     4.9680    39.4268
         TOT.                       33.941    3766.9929    27.1197    80.0763

 250.00  VIB.     0.1111D+02                  2056.7506    20.3271    13.0123
         ROT.     0.3902D+06                   745.2024     2.9808    28.5649
         INT.     0.4336D+07                  2801.9530    23.3079    41.5772
         TRA.     0.1103D+28                  1242.0041     4.9680    39.6296
         TOT.                       34.218    4043.9571    28.2759    81.2068

 260.00  VIB.     0.1313D+02                  2265.8670    21.4985    13.8323
         ROT.     0.4138D+06                   775.0105     2.9808    28.6818
         INT.     0.5435D+07                  3040.8775    24.4793    42.5141
         TRA.     0.1170D+28                  1291.6842     4.9680    39.8245
         TOT.                       34.507    4332.5617    29.4473    82.3386

 270.00  VIB.     0.1557D+02                  2486.7600    22.6819    14.6658
         ROT.     0.4379D+06                   804.8186     2.9808    28.7943
         INT.     0.6819D+07                  3291.5787    25.6627    43.4601
         TRA.     0.1239D+28                  1341.3644     4.9680    40.0120
         TOT.                       34.807    4632.9430    30.6307    83.4721

 280.00  VIB.     0.1851D+02                  2719.5341    23.8741    15.5122
         ROT.     0.4625D+06                   834.6267     2.9808    28.9027
         INT.     0.8562D+07                  3554.1608    26.8550    44.4149
         TRA.     0.1308D+28                  1391.0445     4.9680    40.1926
         TOT.                       35.119    4945.2054    31.8230    84.6076

 290.00  VIB.     0.2208D+02                  2964.2620    25.0721    16.3709
         ROT.     0.4875D+06                   864.4348     2.9808    29.0073
         INT.     0.1076D+08                  3828.6969    28.0530    45.3782
         TRA.     0.1379D+28                  1440.7247     4.9680    40.3670
         TOT.                       35.444    5269.4216    33.0210    85.7452

 300.00  VIB.     0.2640D+02                  3220.9862    26.2729    17.2411
         ROT.     0.5129D+06                   894.2429     2.9808    29.1083
         INT.     0.1354D+08                  4115.2291    29.2537    46.3495
         TRA.     0.1451D+28                  1490.4049     4.9680    40.5354
         TOT.                       35.780    5605.6340    34.2217    86.8849

 310.00  VIB.     0.3165D+02                  3489.7199    27.4736    18.1222
         ROT.     0.5388D+06                   924.0510     2.9808    29.2061
         INT.     0.1705D+08                  4413.7709    30.4544    47.3283
         TRA.     0.1524D+28                  1540.0850     4.9680    40.6983
         TOT.                       36.128    5953.8560    35.4224    88.0266

 320.00  VIB.     0.3804D+02                  3770.4491    28.6716    19.0134
         ROT.     0.5651D+06                   953.8591     2.9808    29.3007
         INT.     0.2149D+08                  4724.3082    31.6524    48.3141
         TRA.     0.1598D+28                  1589.7652     4.9680    40.8560
         TOT.                       36.488    6314.0734    36.6204    89.1701

 330.00  VIB.     0.4584D+02                  4063.1345    29.8645    19.9139
         ROT.     0.5917D+06                   983.6672     2.9808    29.3924
         INT.     0.2713D+08                  5046.8018    32.8453    49.3064
         TRA.     0.1674D+28                  1639.4454     4.9680    41.0089
         TOT.                       36.860    6686.2471    37.8133    90.3152

 340.00  VIB.     0.5537D+02                  4367.7138    31.0500    20.8231
         ROT.     0.6188D+06                  1013.4753     2.9808    29.4814
         INT.     0.3427D+08                  5381.1891    34.0308    50.3045
         TRA.     0.1750D+28                  1689.1255     4.9680    41.1572
         TOT.                       37.244    7070.3147    38.9988    91.4617

 350.00  VIB.     0.6705D+02                  4684.1037    32.2263    21.7401
         ROT.     0.6463D+06                  1043.2834     2.9808    29.5678
         INT.     0.4334D+08                  5727.3871    35.2071    51.3080
         TRA.     0.1828D+28                  1738.8057     4.9680    41.3012
         TOT.                       37.640    7466.1928    40.1751    92.6092

 360.00  VIB.     0.8136D+02                  5012.2022    33.3915    22.6643
         ROT.     0.6742D+06                  1073.0915     2.9808    29.6518
         INT.     0.5486D+08                  6085.2937    36.3723    52.3161
         TRA.     0.1907D+28                  1788.4859     4.9680    41.4412
         TOT.                       38.048    7873.7795    41.3403    93.7573

 370.00  VIB.     0.9895D+02                  5351.8909    34.5441    23.5950
         ROT.     0.7025D+06                  1102.8996     2.9808    29.7335
         INT.     0.6951D+08                  6454.7905    37.5249    53.3285
         TRA.     0.1987D+28                  1838.1660     4.9680    41.5773
         TOT.                       38.467    8292.9565    42.4929    94.9058

 380.00  VIB.     0.1206D+03                  5703.0370    35.6827    24.5314
         ROT.     0.7312D+06                  1132.7077     2.9808    29.8130
         INT.     0.8817D+08                  6835.7447    38.6636    54.3443
         TRA.     0.2068D+28                  1887.8462     4.9680    41.7098
         TOT.                       38.898    8723.5909    43.6316    96.0541

 390.00  VIB.     0.1472D+03                  6065.4954    36.8064    25.4728
         ROT.     0.7603D+06                  1162.5158     2.9808    29.8904
         INT.     0.1119D+09                  7228.0112    39.7872    55.3632
         TRA.     0.2150D+28                  1937.5263     4.9680    41.8388
         TOT.                       39.340    9165.5376    44.7552    97.2020

 400.00  VIB.     0.1801D+03                  6439.1106    37.9139    26.4187
         ROT.     0.7897D+06                  1192.3239     2.9808    29.9659
         INT.     0.1422D+09                  7631.4345    40.8948    56.3845
         TRA.     0.2233D+28                  1987.2065     4.9680    41.9646
         TOT.                       39.793    9618.6410    45.8628    98.3491

   *: NOTE: HEATS OF FORMATION ARE RELATIVE TO THE
            ELEMENTS IN THEIR STANDARD STATE AT 298K
              (=  Standard Enthalpy of Formation).

            Hvib:  Zero-point energy is not included.
                   frequencies of less than zero cm-1 are not included.
            Hrot = (3/2)RT
            Htra = (3/2)RT + pV = (5/2)RT

            Heat capacity is Cp, not Cv

          For more information, see: HTTP://OpenMOPAC.net/Manual/thermochemistry.html


           FORCE CONSTANT IN CARTESIAN COORDINATES (Millidynes/A)

    ATOM   CHEMICAL       X               Y               Z
   NUMBER   SYMBOL  FORCE CONSTANT  FORCE CONSTANT  FORCE CONSTANT

      1       C        8.881844        8.163243        8.581917
      2       C        8.267461        8.371997        8.292904
      3       C        6.026779       11.958444       10.190311
      4       C        6.717199       13.237546        8.733320
      5       C        6.809949       12.486654        7.503686
      6       C        6.234780       10.928000        9.648493
      7       C        7.324900        9.908562       10.378236
      8       C        6.358957       11.004407        9.437643
      9       C        6.262395       10.877662        9.419492
     10       C        6.233308       10.869347        9.452896
     11       H        1.144209        1.659450        3.115097
     12       H        1.247983        1.594817        3.905566
     13       H        1.251186        4.848996        0.662270
     14       H        1.289893        1.815522        3.673051
     15       H        0.721661        4.709559        1.008184
     16       H        2.058489        0.733496        3.477452
     17       H        1.706503        0.745549        3.982524
     18       H        0.557710        3.269332        2.443410
     19       H        2.057240        0.730812        3.492772
     20       H        1.547560        3.977927        0.747046

 **********************
 *                    *
 * JOB ENDED NORMALLY *
 *                    *
 **********************



 TOTAL JOB TIME:             1.77 SECONDS

 == MOPAC DONE ==
