 *******************************************************************************
 ** Site#: 14399        For non-commercial use only    Version 18.184L 64BITS **
 *******************************************************************************
 ** Cite this program as: MOPAC2016, Version: 18.184L, James J. P. Stewart,   **
 ** Stewart Computational Chemistry, web: HTTP://OpenMOPAC.net. Days left:  18**
 *******************************************************************************
 **                                                                           **
 **                                MOPAC2016                                  **
 **                                                                           **
 *******************************************************************************

                              PM3 CALCULATION RESULTS

 *******************************************************************************
 *  CALCULATION DONE:                                Sat Jun 15 10:17:09 2019  *
 *  PM3        - The PM3 Hamiltonian to be used
 *  NONR       - DO NOT USE NEWTON-RAPHSON STEP IN EF
 *  PRECISE    - CRITERIA TO BE INCREASED BY 100 TIMES
 *  NOSYM      - POINT-GROUP SYMMETRY SET TO C1
 *  THREADS=1  - MULTI-THREADING NOT USED
 *  T=         - A TIME OF 172800.0 SECONDS REQUESTED
 *  DUMP=N     - RESTART FILE WRITTEN EVERY  7200.000 SECONDS
 *  GNORM=     - EXIT WHEN GRADIENT NORM DROPS BELOW   0.00    
 *******************************************************************************
pm3  precise nosym gnorm=0.0 nonr THREADS=1
 InChI=1S/C10H12/c1-2-3-7-10-8-5-4-6-9-10/h2-8H,9H2,1H3

   ATOM   CHEMICAL          X               Y               Z
  NUMBER   SYMBOL      (ANGSTROMS)     (ANGSTROMS)     (ANGSTROMS)
 
     1       C         -1.20290000  *  -0.77650000  *  -0.49890000  *
     2       C          4.04650000  *  -0.51710000  *  -0.48160000  *
     3       C         -0.75230000  *   0.39310000  *   0.35940000  *
     4       C         -2.69990000  *  -0.94000000  *  -0.57070000  *
     5       C          2.92670000  *   0.25790000  *   0.13480000  *
     6       C          0.55040000  *   0.68460000  *   0.53340000  *
     7       C         -1.76630000  *   1.24080000  *   1.02650000  *
     8       C         -3.54790000  *  -0.12730000  *   0.06470000  *
     9       C          1.65460000  *  -0.08500000  *  -0.07850000  *
    10       C         -3.06830000  *   0.99350000  *   0.88560000  *
    11       H         -0.77670000  *  -1.71620000  *  -0.08730000  *
    12       H         -0.82540000  *  -0.63570000  *  -1.53420000  *
    13       H          3.96380000  *  -0.48750000  *  -1.58870000  *
    14       H          4.01260000  *  -1.57210000  *  -0.13640000  *
    15       H          5.01900000  *  -0.07300000  *  -0.18270000  *
    16       H         -3.09910000  *  -1.75280000  *  -1.16430000  *
    17       H          3.16730000  *   1.10860000  *   0.76210000  *
    18       H          1.44350000  *  -0.93940000  *  -0.70950000  *
    19       H         -3.79030000  *   1.62800000  *   1.38380000  *
    20       H         -4.61390000  *  -0.29410000  *  -0.02400000  *
    21       H          0.81650000  *   1.53190000  *   1.15710000  *
    22       H         -1.45800000  *   2.07830000  *   1.64170000  *
 


          CARTESIAN COORDINATES 

    NO.       ATOM           X           Y           Z

     1         C         -1.2029     -0.7765     -0.4989
     2         C          4.0465     -0.5171     -0.4816
     3         C         -0.7523      0.3931      0.3594
     4         C         -2.6999     -0.9400     -0.5707
     5         C          2.9267      0.2579      0.1348
     6         C          0.5504      0.6846      0.5334
     7         C         -1.7663      1.2408      1.0265
     8         C         -3.5479     -0.1273      0.0647
     9         C          1.6546     -0.0850     -0.0785
    10         C         -3.0683      0.9935      0.8856
    11         H         -0.7767     -1.7162     -0.0873
    12         H         -0.8254     -0.6357     -1.5342
    13         H          3.9638     -0.4875     -1.5887
    14         H          4.0126     -1.5721     -0.1364
    15         H          5.0190     -0.0730     -0.1827
    16         H         -3.0991     -1.7528     -1.1643
    17         H          3.1673      1.1086      0.7621
    18         H          1.4435     -0.9394     -0.7095
    19         H         -3.7903      1.6280      1.3838
    20         H         -4.6139     -0.2941     -0.0240
    21         H          0.8165      1.5319      1.1571
    22         H         -1.4580      2.0783      1.6417

  H: (PM3): J. J. P. STEWART, J. COMP. CHEM. 10, 209 (1989).
  C: (PM3): J. J. P. STEWART, J. COMP. CHEM. 10, 209 (1989).

           Empirical Formula: C10 H12  =    22 atoms



      MOLECULAR POINT GROUP   :   C1  


      RHF CALCULATION, NO. OF DOUBLY OCCUPIED LEVELS = 26


          Geometry optimization using EF

  GNORM HAS BEEN SET TOO LOW, RESET TO 0.01

  SPECIFY LET AS KEYWORD TO ALLOW GNORM LESS THAN 0.01

          DIAGONAL MATRIX USED AS START HESSIAN

 CYCLE:     1 TIME:   0.004 TIME LEFT:  2.00D  GRAD.:    89.730 HEAT:  47.76046
 CYCLE:     2 TIME:   0.016 TIME LEFT:  2.00D  GRAD.:    35.593 HEAT:  45.74354
 CYCLE:     3 TIME:   0.008 TIME LEFT:  2.00D  GRAD.:    34.133 HEAT:  45.29884
 CYCLE:     4 TIME:   0.008 TIME LEFT:  2.00D  GRAD.:    30.086 HEAT:  45.04465
 CYCLE:     5 TIME:   0.004 TIME LEFT:  2.00D  GRAD.:    26.987 HEAT:  44.89117
 CYCLE:     6 TIME:   0.008 TIME LEFT:  2.00D  GRAD.:    26.570 HEAT:  44.74976
 CYCLE:     7 TIME:   0.004 TIME LEFT:  2.00D  GRAD.:    24.517 HEAT:  44.65014
 CYCLE:     8 TIME:   0.004 TIME LEFT:  2.00D  GRAD.:    27.907 HEAT:  44.62165
 CYCLE:     9 TIME:   0.004 TIME LEFT:  2.00D  GRAD.:    26.509 HEAT:  44.58912
 CYCLE:    10 TIME:   0.004 TIME LEFT:  2.00D  GRAD.:    25.013 HEAT:  44.53014
 CYCLE:    11 TIME:   0.008 TIME LEFT:  2.00D  GRAD.:    24.453 HEAT:  44.52915
 CYCLE:    12 TIME:   0.008 TIME LEFT:  2.00D  GRAD.:    12.018 HEAT:  44.42438
 CYCLE:    13 TIME:   0.008 TIME LEFT:  2.00D  GRAD.:     9.767 HEAT:  44.41162
 CYCLE:    14 TIME:   0.004 TIME LEFT:  2.00D  GRAD.:     5.840 HEAT:  44.39742
 CYCLE:    15 TIME:   0.008 TIME LEFT:  2.00D  GRAD.:     3.320 HEAT:  44.39172
 CYCLE:    16 TIME:   0.004 TIME LEFT:  2.00D  GRAD.:     3.131 HEAT:  44.39103
 CYCLE:    17 TIME:   0.008 TIME LEFT:  2.00D  GRAD.:     3.209 HEAT:  44.38970
 CYCLE:    18 TIME:   0.004 TIME LEFT:  2.00D  GRAD.:     3.300 HEAT:  44.38991
 CYCLE:    19 TIME:   0.004 TIME LEFT:  2.00D  GRAD.:     3.098 HEAT:  44.38817
 CYCLE:    20 TIME:   0.004 TIME LEFT:  2.00D  GRAD.:     2.343 HEAT:  44.38703
 CYCLE:    21 TIME:   0.008 TIME LEFT:  2.00D  GRAD.:     2.381 HEAT:  44.38674
 CYCLE:    22 TIME:   0.004 TIME LEFT:  2.00D  GRAD.:     1.481 HEAT:  44.38583
 CYCLE:    23 TIME:   0.004 TIME LEFT:  2.00D  GRAD.:     1.959 HEAT:  44.38602
 CYCLE:    24 TIME:   0.004 TIME LEFT:  2.00D  GRAD.:     2.418 HEAT:  44.38653
 CYCLE:    25 TIME:   0.004 TIME LEFT:  2.00D  GRAD.:     1.455 HEAT:  44.38560
 CYCLE:    26 TIME:   0.004 TIME LEFT:  2.00D  GRAD.:     0.884 HEAT:  44.38506
 CYCLE:    27 TIME:   0.008 TIME LEFT:  2.00D  GRAD.:     0.590 HEAT:  44.38483
 CYCLE:    28 TIME:   0.004 TIME LEFT:  2.00D  GRAD.:     0.464 HEAT:  44.38472
 CYCLE:    29 TIME:   0.004 TIME LEFT:  2.00D  GRAD.:     0.315 HEAT:  44.38458
 CYCLE:    30 TIME:   0.004 TIME LEFT:  2.00D  GRAD.:     0.376 HEAT:  44.38443
 CYCLE:    31 TIME:   0.004 TIME LEFT:  2.00D  GRAD.:     0.516 HEAT:  44.38425
 CYCLE:    32 TIME:   0.008 TIME LEFT:  2.00D  GRAD.:     0.296 HEAT:  44.38411
 CYCLE:    33 TIME:   0.004 TIME LEFT:  2.00D  GRAD.:     0.296 HEAT:  44.38398
 CYCLE:    34 TIME:   0.004 TIME LEFT:  2.00D  GRAD.:     0.337 HEAT:  44.38386
 CYCLE:    35 TIME:   0.004 TIME LEFT:  2.00D  GRAD.:     0.465 HEAT:  44.38351
 CYCLE:    36 TIME:   0.008 TIME LEFT:  2.00D  GRAD.:     0.305 HEAT:  44.38340
 CYCLE:    37 TIME:   0.004 TIME LEFT:  2.00D  GRAD.:     0.241 HEAT:  44.38326
 CYCLE:    38 TIME:   0.004 TIME LEFT:  2.00D  GRAD.:     0.304 HEAT:  44.38313
 CYCLE:    39 TIME:   0.004 TIME LEFT:  2.00D  GRAD.:     0.263 HEAT:  44.38302
 CYCLE:    40 TIME:   0.004 TIME LEFT:  2.00D  GRAD.:     0.223 HEAT:  44.38290
 CYCLE:    41 TIME:   0.004 TIME LEFT:  2.00D  GRAD.:     0.256 HEAT:  44.38277
 CYCLE:    42 TIME:   0.008 TIME LEFT:  2.00D  GRAD.:     0.260 HEAT:  44.38266
 CYCLE:    43 TIME:   0.004 TIME LEFT:  2.00D  GRAD.:     0.197 HEAT:  44.38258
 CYCLE:    44 TIME:   0.004 TIME LEFT:  2.00D  GRAD.:     0.150 HEAT:  44.38253
 CYCLE:    45 TIME:   0.004 TIME LEFT:  2.00D  GRAD.:     0.164 HEAT:  44.38248
 CYCLE:    46 TIME:   0.008 TIME LEFT:  2.00D  GRAD.:     0.155 HEAT:  44.38244
 CYCLE:    47 TIME:   0.004 TIME LEFT:  2.00D  GRAD.:     0.086 HEAT:  44.38242
 CYCLE:    48 TIME:   0.004 TIME LEFT:  2.00D  GRAD.:     0.049 HEAT:  44.38241
 CYCLE:    49 TIME:   0.004 TIME LEFT:  2.00D  GRAD.:     0.050 HEAT:  44.38240
 CYCLE:    50 TIME:   0.004 TIME LEFT:  2.00D  GRAD.:     0.038 HEAT:  44.38240
 CYCLE:    51 TIME:   0.004 TIME LEFT:  2.00D  GRAD.:     0.027 HEAT:  44.38240
 CYCLE:    52 TIME:   0.004 TIME LEFT:  2.00D  GRAD.:     0.027 HEAT:  44.38240
 CYCLE:    53 TIME:   0.008 TIME LEFT:  2.00D  GRAD.:     0.031 HEAT:  44.38239
 CYCLE:    54 TIME:   0.004 TIME LEFT:  2.00D  GRAD.:     0.020 HEAT:  44.38239
 CYCLE:    55 TIME:   0.004 TIME LEFT:  2.00D  GRAD.:     0.021 HEAT:  44.38239
 CYCLE:    56 TIME:   0.004 TIME LEFT:  2.00D  GRAD.:     0.024 HEAT:  44.38239
 CYCLE:    57 TIME:   0.004 TIME LEFT:  2.00D  GRAD.:     0.026 HEAT:  44.38239
 CYCLE:    58 TIME:   0.004 TIME LEFT:  2.00D  GRAD.:     0.028 HEAT:  44.38239
 CYCLE:    59 TIME:   0.008 TIME LEFT:  2.00D  GRAD.:     0.027 HEAT:  44.38238
 CYCLE:    60 TIME:   0.004 TIME LEFT:  2.00D  GRAD.:     0.017 HEAT:  44.38238
 CYCLE:    61 TIME:   0.004 TIME LEFT:  2.00D  GRAD.:     0.017 HEAT:  44.38238
 CYCLE:    62 TIME:   0.004 TIME LEFT:  2.00D  GRAD.:     0.013 HEAT:  44.38238
 CYCLE:    63 TIME:   0.004 TIME LEFT:  2.00D  GRAD.:     0.017 HEAT:  44.38238
 CYCLE:    64 TIME:   0.008 TIME LEFT:  2.00D  GRAD.:     0.018 HEAT:  44.38238
 CYCLE:    65 TIME:   0.004 TIME LEFT:  2.00D  GRAD.:     0.017 HEAT:  44.38238
 CYCLE:    66 TIME:   0.004 TIME LEFT:  2.00D  GRAD.:     0.022 HEAT:  44.38237
 CYCLE:    67 TIME:   0.004 TIME LEFT:  2.00D  GRAD.:     0.020 HEAT:  44.38237
 CYCLE:    68 TIME:   0.004 TIME LEFT:  2.00D  GRAD.:     0.021 HEAT:  44.38237
 CYCLE:    69 TIME:   0.004 TIME LEFT:  2.00D  GRAD.:     0.015 HEAT:  44.38237
 CYCLE:    70 TIME:   0.004 TIME LEFT:  2.00D  GRAD.:     0.014 HEAT:  44.38237
 CYCLE:    71 TIME:   0.008 TIME LEFT:  2.00D  GRAD.:     0.015 HEAT:  44.38237
 CYCLE:    72 TIME:   0.004 TIME LEFT:  2.00D  GRAD.:     0.019 HEAT:  44.38236
 CYCLE:    73 TIME:   0.004 TIME LEFT:  2.00D  GRAD.:     0.018 HEAT:  44.38236
 CYCLE:    74 TIME:   0.004 TIME LEFT:  2.00D  GRAD.:     0.018 HEAT:  44.38236
 CYCLE:    75 TIME:   0.004 TIME LEFT:  2.00D  GRAD.:     0.020 HEAT:  44.38236
 CYCLE:    76 TIME:   0.008 TIME LEFT:  2.00D  GRAD.:     0.028 HEAT:  44.38235
 CYCLE:    77 TIME:   0.004 TIME LEFT:  2.00D  GRAD.:     0.027 HEAT:  44.38235
 CYCLE:    78 TIME:   0.004 TIME LEFT:  2.00D  GRAD.:     0.052 HEAT:  44.38235
 CYCLE:    79 TIME:   0.004 TIME LEFT:  2.00D  GRAD.:     0.039 HEAT:  44.38234
 CYCLE:    80 TIME:   0.004 TIME LEFT:  2.00D  GRAD.:     0.030 HEAT:  44.38232
 CYCLE:    81 TIME:   0.008 TIME LEFT:  2.00D  GRAD.:     0.033 HEAT:  44.38230
 CYCLE:    82 TIME:   0.004 TIME LEFT:  2.00D  GRAD.:     0.037 HEAT:  44.38226
 CYCLE:    83 TIME:   0.008 TIME LEFT:  2.00D  GRAD.:     0.062 HEAT:  44.38222
 CYCLE:    84 TIME:   0.004 TIME LEFT:  2.00D  GRAD.:     0.160 HEAT:  44.38213
 CYCLE:    85 TIME:   0.004 TIME LEFT:  2.00D  GRAD.:     0.372 HEAT:  44.38178
 CYCLE:    86 TIME:   0.008 TIME LEFT:  2.00D  GRAD.:     1.039 HEAT:  44.38003
 CYCLE:    87 TIME:   0.004 TIME LEFT:  2.00D  GRAD.:     4.205 HEAT:  44.37351
 CYCLE:    88 TIME:   0.004 TIME LEFT:  2.00D  GRAD.:     5.211 HEAT:  44.36465
 CYCLE:    89 TIME:   0.020 TIME LEFT:  2.00D  GRAD.:     4.490 HEAT:  44.35621
 CYCLE:    90 TIME:   0.008 TIME LEFT:  2.00D  GRAD.:     1.630 HEAT:  44.34668
 CYCLE:    91 TIME:   0.004 TIME LEFT:  2.00D  GRAD.:     1.655 HEAT:  44.34526
 CYCLE:    92 TIME:   0.004 TIME LEFT:  2.00D  GRAD.:     1.728 HEAT:  44.34022
 CYCLE:    93 TIME:   0.004 TIME LEFT:  2.00D  GRAD.:     1.837 HEAT:  44.32371
 CYCLE:    94 TIME:   0.008 TIME LEFT:  2.00D  GRAD.:     5.362 HEAT:  44.27646
 CYCLE:    95 TIME:   0.004 TIME LEFT:  2.00D  GRAD.:     6.721 HEAT:  44.23807
 CYCLE:    96 TIME:   0.004 TIME LEFT:  2.00D  GRAD.:    11.412 HEAT:  44.19596
 CYCLE:    97 TIME:   0.004 TIME LEFT:  2.00D  GRAD.:     8.160 HEAT:  44.08188
 CYCLE:    98 TIME:   0.004 TIME LEFT:  2.00D  GRAD.:     4.668 HEAT:  44.07025
 CYCLE:    99 TIME:   0.008 TIME LEFT:  2.00D  GRAD.:     4.297 HEAT:  44.04411
 CYCLE:   100 TIME:   0.008 TIME LEFT:  2.00D  GRAD.:     5.402 HEAT:  43.99171
 CYCLE:   101 TIME:   0.004 TIME LEFT:  2.00D  GRAD.:     6.759 HEAT:  43.96941
 CYCLE:   102 TIME:   0.004 TIME LEFT:  2.00D  GRAD.:     4.565 HEAT:  43.93941
 CYCLE:   103 TIME:   0.008 TIME LEFT:  2.00D  GRAD.:     4.456 HEAT:  43.92264
 CYCLE:   104 TIME:   0.004 TIME LEFT:  2.00D  GRAD.:     1.752 HEAT:  43.91419
 CYCLE:   105 TIME:   0.004 TIME LEFT:  2.00D  GRAD.:     1.621 HEAT:  43.90749
 CYCLE:   106 TIME:   0.004 TIME LEFT:  2.00D  GRAD.:     1.837 HEAT:  43.89796
 CYCLE:   107 TIME:   0.008 TIME LEFT:  2.00D  GRAD.:     1.669 HEAT:  43.89432
 CYCLE:   108 TIME:   0.004 TIME LEFT:  2.00D  GRAD.:     1.075 HEAT:  43.89185
 CYCLE:   109 TIME:   0.004 TIME LEFT:  2.00D  GRAD.:     0.990 HEAT:  43.88943
 CYCLE:   110 TIME:   0.004 TIME LEFT:  2.00D  GRAD.:     1.142 HEAT:  43.88681
 CYCLE:   111 TIME:   0.008 TIME LEFT:  2.00D  GRAD.:     1.103 HEAT:  43.88402
 CYCLE:   112 TIME:   0.004 TIME LEFT:  2.00D  GRAD.:     0.875 HEAT:  43.88210
 CYCLE:   113 TIME:   0.004 TIME LEFT:  2.00D  GRAD.:     0.797 HEAT:  43.88010
 CYCLE:   114 TIME:   0.004 TIME LEFT:  2.00D  GRAD.:     0.881 HEAT:  43.87805
 CYCLE:   115 TIME:   0.004 TIME LEFT:  2.00D  GRAD.:     1.108 HEAT:  43.87526
 CYCLE:   116 TIME:   0.008 TIME LEFT:  2.00D  GRAD.:     1.262 HEAT:  43.87201
 CYCLE:   117 TIME:   0.004 TIME LEFT:  2.00D  GRAD.:     1.416 HEAT:  43.86727
 CYCLE:   118 TIME:   0.004 TIME LEFT:  2.00D  GRAD.:     1.663 HEAT:  43.86101
 CYCLE:   119 TIME:   0.004 TIME LEFT:  2.00D  GRAD.:     1.751 HEAT:  43.85373
 CYCLE:   120 TIME:   0.008 TIME LEFT:  2.00D  GRAD.:     1.881 HEAT:  43.84625
 CYCLE:   121 TIME:   0.004 TIME LEFT:  2.00D  GRAD.:     1.657 HEAT:  43.83942
 CYCLE:   122 TIME:   0.004 TIME LEFT:  2.00D  GRAD.:     1.708 HEAT:  43.83301
 CYCLE:   123 TIME:   0.004 TIME LEFT:  2.00D  GRAD.:     1.545 HEAT:  43.82827
 CYCLE:   124 TIME:   0.004 TIME LEFT:  2.00D  GRAD.:     1.072 HEAT:  43.82470
 CYCLE:   125 TIME:   0.008 TIME LEFT:  2.00D  GRAD.:     0.710 HEAT:  43.82251
 CYCLE:   126 TIME:   0.004 TIME LEFT:  2.00D  GRAD.:     0.540 HEAT:  43.82137
 CYCLE:   127 TIME:   0.004 TIME LEFT:  2.00D  GRAD.:     0.505 HEAT:  43.82046
 CYCLE:   128 TIME:   0.004 TIME LEFT:  2.00D  GRAD.:     0.765 HEAT:  43.81958
 CYCLE:   129 TIME:   0.008 TIME LEFT:  2.00D  GRAD.:     0.650 HEAT:  43.81876
 CYCLE:   130 TIME:   0.004 TIME LEFT:  2.00D  GRAD.:     0.705 HEAT:  43.81771
 CYCLE:   131 TIME:   0.004 TIME LEFT:  2.00D  GRAD.:     0.870 HEAT:  43.81616
 CYCLE:   132 TIME:   0.004 TIME LEFT:  2.00D  GRAD.:     0.916 HEAT:  43.81499
 CYCLE:   133 TIME:   0.008 TIME LEFT:  2.00D  GRAD.:     1.090 HEAT:  43.81295
 CYCLE:   134 TIME:   0.004 TIME LEFT:  2.00D  GRAD.:     1.017 HEAT:  43.81160
 CYCLE:   135 TIME:   0.004 TIME LEFT:  2.00D  GRAD.:     0.947 HEAT:  43.80966
 CYCLE:   136 TIME:   0.004 TIME LEFT:  2.00D  GRAD.:     1.148 HEAT:  43.80541
 CYCLE:   137 TIME:   0.008 TIME LEFT:  2.00D  GRAD.:     1.324 HEAT:  43.80199
 CYCLE:   138 TIME:   0.004 TIME LEFT:  2.00D  GRAD.:     1.598 HEAT:  43.79652
 CYCLE:   139 TIME:   0.004 TIME LEFT:  2.00D  GRAD.:     1.498 HEAT:  43.79305
 CYCLE:   140 TIME:   0.004 TIME LEFT:  2.00D  GRAD.:     1.252 HEAT:  43.79106
 CYCLE:   141 TIME:   0.004 TIME LEFT:  2.00D  GRAD.:     1.982 HEAT:  43.78914
 CYCLE:   142 TIME:   0.008 TIME LEFT:  2.00D  GRAD.:     1.404 HEAT:  43.78663
 CYCLE:   143 TIME:   0.004 TIME LEFT:  2.00D  GRAD.:     0.911 HEAT:  43.78469
 CYCLE:   144 TIME:   0.004 TIME LEFT:  2.00D  GRAD.:     0.819 HEAT:  43.78363
 CYCLE:   145 TIME:   0.004 TIME LEFT:  2.00D  GRAD.:     0.746 HEAT:  43.77940
 CYCLE:   146 TIME:   0.008 TIME LEFT:  2.00D  GRAD.:     0.836 HEAT:  43.77611
 CYCLE:   147 TIME:   0.004 TIME LEFT:  2.00D  GRAD.:     1.309 HEAT:  43.77037
 CYCLE:   148 TIME:   0.004 TIME LEFT:  2.00D  GRAD.:     3.151 HEAT:  43.76462
 CYCLE:   149 TIME:   0.004 TIME LEFT:  2.00D  GRAD.:     1.685 HEAT:  43.76230
 CYCLE:   150 TIME:   0.004 TIME LEFT:  2.00D  GRAD.:     0.874 HEAT:  43.75926
 CYCLE:   151 TIME:   0.008 TIME LEFT:  2.00D  GRAD.:     0.896 HEAT:  43.75756
 CYCLE:   152 TIME:   0.004 TIME LEFT:  2.00D  GRAD.:     1.317 HEAT:  43.75492
 CYCLE:   153 TIME:   0.004 TIME LEFT:  2.00D  GRAD.:     0.808 HEAT:  43.75388
 CYCLE:   154 TIME:   0.004 TIME LEFT:  2.00D  GRAD.:     0.694 HEAT:  43.75334
 CYCLE:   155 TIME:   0.008 TIME LEFT:  2.00D  GRAD.:     0.581 HEAT:  43.75217
 CYCLE:   156 TIME:   0.004 TIME LEFT:  2.00D  GRAD.:     0.938 HEAT:  43.75168
 CYCLE:   157 TIME:   0.004 TIME LEFT:  2.00D  GRAD.:     0.331 HEAT:  43.75050
 CYCLE:   158 TIME:   0.004 TIME LEFT:  2.00D  GRAD.:     0.633 HEAT:  43.75037
 CYCLE:   159 TIME:   0.004 TIME LEFT:  2.00D  GRAD.:     0.416 HEAT:  43.75013
 CYCLE:   160 TIME:   0.008 TIME LEFT:  2.00D  GRAD.:     0.357 HEAT:  43.75001
 CYCLE:   161 TIME:   0.004 TIME LEFT:  2.00D  GRAD.:     0.378 HEAT:  43.74970
 CYCLE:   162 TIME:   0.004 TIME LEFT:  2.00D  GRAD.:     0.352 HEAT:  43.74953
 CYCLE:   163 TIME:   0.004 TIME LEFT:  2.00D  GRAD.:     0.344 HEAT:  43.74932
 CYCLE:   164 TIME:   0.008 TIME LEFT:  2.00D  GRAD.:     0.340 HEAT:  43.74917
 CYCLE:   165 TIME:   0.004 TIME LEFT:  2.00D  GRAD.:     0.214 HEAT:  43.74901
 CYCLE:   166 TIME:   0.004 TIME LEFT:  2.00D  GRAD.:     0.195 HEAT:  43.74893
 CYCLE:   167 TIME:   0.004 TIME LEFT:  2.00D  GRAD.:     0.193 HEAT:  43.74886
 CYCLE:   168 TIME:   0.004 TIME LEFT:  2.00D  GRAD.:     0.210 HEAT:  43.74871
 CYCLE:   169 TIME:   0.004 TIME LEFT:  2.00D  GRAD.:     0.239 HEAT:  43.74863
 CYCLE:   170 TIME:   0.008 TIME LEFT:  2.00D  GRAD.:     0.184 HEAT:  43.74859
 CYCLE:   171 TIME:   0.004 TIME LEFT:  2.00D  GRAD.:     0.153 HEAT:  43.74855
 CYCLE:   172 TIME:   0.004 TIME LEFT:  2.00D  GRAD.:     0.104 HEAT:  43.74848
 CYCLE:   173 TIME:   0.004 TIME LEFT:  2.00D  GRAD.:     0.089 HEAT:  43.74846
 CYCLE:   174 TIME:   0.004 TIME LEFT:  2.00D  GRAD.:     0.099 HEAT:  43.74844
 CYCLE:   175 TIME:   0.008 TIME LEFT:  2.00D  GRAD.:     0.120 HEAT:  43.74839
 CYCLE:   176 TIME:   0.004 TIME LEFT:  2.00D  GRAD.:     0.115 HEAT:  43.74836
 CYCLE:   177 TIME:   0.004 TIME LEFT:  2.00D  GRAD.:     0.096 HEAT:  43.74834
 CYCLE:   178 TIME:   0.004 TIME LEFT:  2.00D  GRAD.:     0.086 HEAT:  43.74832
 CYCLE:   179 TIME:   0.004 TIME LEFT:  2.00D  GRAD.:     0.084 HEAT:  43.74829
 CYCLE:   180 TIME:   0.004 TIME LEFT:  2.00D  GRAD.:     0.088 HEAT:  43.74827
 CYCLE:   181 TIME:   0.008 TIME LEFT:  2.00D  GRAD.:     0.039 HEAT:  43.74825
 CYCLE:   182 TIME:   0.004 TIME LEFT:  2.00D  GRAD.:     0.032 HEAT:  43.74824
 CYCLE:   183 TIME:   0.004 TIME LEFT:  2.00D  GRAD.:     0.031 HEAT:  43.74824
 CYCLE:   184 TIME:   0.004 TIME LEFT:  2.00D  GRAD.:     0.034 HEAT:  43.74824
 CYCLE:   185 TIME:   0.004 TIME LEFT:  2.00D  GRAD.:     0.010 HEAT:  43.74824

     GRADIENT =  0.00967  IS LESS THAN CUTOFF =  0.01000



 -------------------------------------------------------------------------------
 pm3  precise nosym gnorm=0.0 nonr THREADS=1
 InChI=1S/C10H12/c1-2-3-7-10-8-5-4-6-9-10/h2-8H,9H2,1H3



     GEOMETRY OPTIMISED USING EIGENVECTOR FOLLOWING (EF).     
     SCF FIELD WAS ACHIEVED                                   


                              PM3 CALCULATION
                                                       MOPAC2016 (Version: 18.184L)
                                                       Sat Jun 15 10:17:10 2019
                                                       No. of days remaining =  18




          FINAL HEAT OF FORMATION =         43.74824 KCAL/MOL =     183.04262 KJ/MOL


          TOTAL ENERGY            =      -1368.49920 EV
          ELECTRONIC ENERGY       =      -7073.95330 EV  POINT GROUP:     C1  
          CORE-CORE REPULSION     =       5705.45410 EV
          COSMO AREA              =        190.90 SQUARE ANGSTROMS
          COSMO VOLUME            =        186.93 CUBIC ANGSTROMS

          GRADIENT NORM           =          0.00967 = 0.00206 PER ATOM
          IONIZATION POTENTIAL    =          8.188437 EV
          HOMO LUMO ENERGIES (EV) =         -8.188 -0.492
          NO. OF FILLED LEVELS    =         26
          MOLECULAR WEIGHT        =        132.2048

          MOLECULAR DIMENSIONS (Angstroms)

            Atom       Atom       Distance
            H    20    H    15     9.38222
            H    22    H    16     4.77734
            H    11    H    13     2.24975


          SCF CALCULATIONS        =        198
 
          WALL-CLOCK TIME         =          0.934 SECONDS
          COMPUTATION TIME        =          0.861 SECONDS




   ATOM   CHEMICAL          X               Y               Z
  NUMBER   SYMBOL      (ANGSTROMS)     (ANGSTROMS)     (ANGSTROMS)
 
     1       C         -1.22976413  *  -0.79518538  *  -0.44133608  *
     2       C          4.05477999  *  -0.49243305  *  -0.47017681  *
     3       C         -0.75531061  *   0.38783569  *   0.33909772  *
     4       C         -2.70259405  *  -0.97078437  *  -0.49633228  *
     5       C          2.92320676  *   0.27127879  *   0.09680120  *
     6       C          0.55391443  *   0.68772120  *   0.48486966  *
     7       C         -1.75376803  *   1.24536863  *   0.96353782  *
     8       C         -3.55819276  *  -0.13486171  *   0.10702357  *
     9       C          1.64323644  *  -0.08066685  *  -0.08319397  *
    10       C         -3.07140058  *   1.00247357  *   0.85632051  *
    11       H         -0.78490551  *  -1.71964752  *  -0.01537849  *
    12       H         -0.84855779  *  -0.72632062  *  -1.48243897  *
    13       H          4.65100460  *   0.14332200  *  -1.13888498  *
    14       H          3.73526887  *  -1.37119839  *  -1.04615379  *
    15       H          4.72041350  *  -0.84444187  *   0.32972481  *
    16       H         -3.06272621  *  -1.83477627  *  -1.06591238  *
    17       H          3.18760123  *   1.15943960  *   0.68468320  *
    18       H          1.38889115  *  -0.97127188  *  -0.67322321  *
    19       H         -3.81022027  *   1.65602257  *   1.33124584  *
    20       H         -4.64103281  *  -0.28573684  *   0.05182380  *
    21       H          0.83873145  *   1.57269181  *   1.07168384  *
    22       H         -1.38919306  *   2.10914871  *   1.53287388  *

                             CARTESIAN COORDINATES

   1    C       -1.229764131    -0.795185381    -0.441336078
   2    C        4.054779992    -0.492433053    -0.470176806
   3    C       -0.755310609     0.387835686     0.339097715
   4    C       -2.702594049    -0.970784365    -0.496332285
   5    C        2.923206758     0.271278789     0.096801202
   6    C        0.553914430     0.687721203     0.484869663
   7    C       -1.753768031     1.245368627     0.963537822
   8    C       -3.558192763    -0.134861709     0.107023565
   9    C        1.643236445    -0.080666850    -0.083193975
  10    C       -3.071400577     1.002473568     0.856320506
  11    H       -0.784905508    -1.719647521    -0.015378486
  12    H       -0.848557786    -0.726320625    -1.482438973
  13    H        4.651004603     0.143321999    -1.138884976
  14    H        3.735268867    -1.371198386    -1.046153795
  15    H        4.720413500    -0.844441870     0.329724810
  16    H       -3.062726207    -1.834776269    -1.065912379
  17    H        3.187601229     1.159439595     0.684683198
  18    H        1.388891145    -0.971271877    -0.673223212
  19    H       -3.810220267     1.656022568     1.331245840
  20    H       -4.641032812    -0.285736841     0.051823797
  21    H        0.838731448     1.572691809     1.071683839
  22    H       -1.389193058     2.109148709     1.532873877


           Empirical Formula: C10 H12  =    22 atoms



      MOLECULAR POINT GROUP   :   C1  


                  EIGENVALUES  
 -40.06559 -36.07689 -31.77451 -30.31354 -27.17819 -23.86055 -21.75641 -19.88485
 -19.18200 -17.76151 -16.60636 -16.00015 -15.02160 -15.01988 -14.95260 -14.40635
 -14.31294 -13.71503 -13.04607 -12.62047 -12.35695 -11.81042 -11.80949 -11.40158
  -9.89617  -8.18844  -0.49169   0.74733   1.86750   2.49424   3.11951   3.26555
   3.40626   3.46589   3.69266   3.73652   3.80640   3.97653   4.14929   4.21629
   4.37450   4.40924   4.40935   4.44839   4.81079   5.13046   5.21256   5.39096
   5.85463   5.92965   6.25116   6.31771


              NET ATOMIC CHARGES AND DIPOLE CONTRIBUTIONS

  ATOM NO.   TYPE          CHARGE      No. of ELECS.   s-Pop       p-Pop       
    1          C          -0.020010        4.0200     1.13110     2.88891
    2          C          -0.076675        4.0767     1.12540     2.95128
    3          C          -0.069960        4.0700     1.18256     2.88740
    4          C          -0.128180        4.1282     1.19579     2.93239
    5          C          -0.130636        4.1306     1.19521     2.93542
    6          C          -0.119775        4.1198     1.18096     2.93881
    7          C          -0.095623        4.0956     1.18193     2.91369
    8          C          -0.116768        4.1168     1.17788     2.93889
    9          C          -0.121505        4.1215     1.17901     2.94250
   10          C          -0.096331        4.0963     1.17969     2.91664
   11          H           0.067923        0.9321     0.93208
   12          H           0.067927        0.9321     0.93207
   13          H           0.045545        0.9545     0.95445
   14          H           0.041486        0.9585     0.95851
   15          H           0.045517        0.9545     0.95448
   16          H           0.098385        0.9016     0.90161
   17          H           0.098365        0.9016     0.90163
   18          H           0.103468        0.8965     0.89653
   19          H           0.101229        0.8988     0.89877
   20          H           0.102589        0.8974     0.89741
   21          H           0.101379        0.8986     0.89862
   22          H           0.101651        0.8983     0.89835
 DIPOLE           X         Y         Z       TOTAL
 POINT-CHG.     0.253    -0.320    -0.229     0.468
 HYBRID         0.030     0.003     0.001     0.030
 SUM            0.283    -0.317    -0.228     0.482


          ATOMIC ORBITAL ELECTRON POPULATIONS

     Atom    s        px        py        pz   
    1  C   1.13110   0.93861   0.96174   0.98856
    2  C   1.12540   0.96863   0.98755   0.99509
    3  C   1.18256   0.94188   0.96299   0.98253
    4  C   1.19579   0.95603   0.98580   0.99056
    5  C   1.19521   0.95025   0.99192   0.99326
    6  C   1.18096   0.92918   0.99645   1.01318
    7  C   1.18193   0.94254   0.97976   0.99140
    8  C   1.17788   0.98066   0.96462   0.99361
    9  C   1.17901   0.93766   0.99584   1.00900
   10  C   1.17969   0.95902   0.97081   0.98680
   11  H   0.93208
   12  H   0.93207
   13  H   0.95445
   14  H   0.95851
   15  H   0.95448
   16  H   0.90161
   17  H   0.90163
   18  H   0.89653
   19  H   0.89877
   20  H   0.89741
   21  H   0.89862
   22  H   0.89835
 *******************************************************************************
 ** Site#: 14399        For non-commercial use only    Version 18.184L 64BITS **
 *******************************************************************************
 ** Cite this program as: MOPAC2016, Version: 18.184L, James J. P. Stewart,   **
 ** Stewart Computational Chemistry, web: HTTP://OpenMOPAC.net. Days left:  18**
 *******************************************************************************
 **                                                                           **
 **                                MOPAC2016                                  **
 **                                                                           **
 *******************************************************************************

                              PM3 CALCULATION RESULTS

 *******************************************************************************
 *  CALCULATION DONE:                                Sat Jun 15 10:17:10 2019  *
 *  PM3        - The PM3 Hamiltonian to be used
 *  OLDGEO     - PREVIOUS GEOMETRY TO BE USED
 *  PRECISE    - CRITERIA TO BE INCREASED BY 100 TIMES
 *  NOSYM      - POINT-GROUP SYMMETRY SET TO C1
 *  THREADS=1  - MULTI-THREADING NOT USED
 *  T=         - A TIME OF 172800.0 SECONDS REQUESTED
 *  DUMP=N     - RESTART FILE WRITTEN EVERY  7200.000 SECONDS
 *  THERMO     - THERMODYNAMIC QUANTITIES TO BE CALCULATED
 *******************************************************************************
oldgeo thermo nosym precise THREADS=1  pm3
 InChI=1S/C10H12/c1-2-3-7-10-8-5-4-6-9-10/h2-8H,9H2,1H3

   ATOM   CHEMICAL          X               Y               Z
  NUMBER   SYMBOL      (ANGSTROMS)     (ANGSTROMS)     (ANGSTROMS)
 
     1       C         -1.22976413  *  -0.79518538  *  -0.44133608  *
     2       C          4.05477999  *  -0.49243305  *  -0.47017681  *
     3       C         -0.75531061  *   0.38783569  *   0.33909772  *
     4       C         -2.70259405  *  -0.97078437  *  -0.49633228  *
     5       C          2.92320676  *   0.27127879  *   0.09680120  *
     6       C          0.55391443  *   0.68772120  *   0.48486966  *
     7       C         -1.75376803  *   1.24536863  *   0.96353782  *
     8       C         -3.55819276  *  -0.13486171  *   0.10702357  *
     9       C          1.64323644  *  -0.08066685  *  -0.08319397  *
    10       C         -3.07140058  *   1.00247357  *   0.85632051  *
    11       H         -0.78490551  *  -1.71964752  *  -0.01537849  *
    12       H         -0.84855779  *  -0.72632062  *  -1.48243897  *
    13       H          4.65100460  *   0.14332200  *  -1.13888498  *
    14       H          3.73526887  *  -1.37119839  *  -1.04615379  *
    15       H          4.72041350  *  -0.84444187  *   0.32972481  *
    16       H         -3.06272621  *  -1.83477627  *  -1.06591238  *
    17       H          3.18760123  *   1.15943960  *   0.68468320  *
    18       H          1.38889115  *  -0.97127188  *  -0.67322321  *
    19       H         -3.81022027  *   1.65602257  *   1.33124584  *
    20       H         -4.64103281  *  -0.28573684  *   0.05182380  *
    21       H          0.83873145  *   1.57269181  *   1.07168384  *
    22       H         -1.38919306  *   2.10914871  *   1.53287388  *
 


          CARTESIAN COORDINATES 

    NO.       ATOM           X           Y           Z

     1         C         -1.2298     -0.7952     -0.4413
     2         C          4.0548     -0.4924     -0.4702
     3         C         -0.7553      0.3878      0.3391
     4         C         -2.7026     -0.9708     -0.4963
     5         C          2.9232      0.2713      0.0968
     6         C          0.5539      0.6877      0.4849
     7         C         -1.7538      1.2454      0.9635
     8         C         -3.5582     -0.1349      0.1070
     9         C          1.6432     -0.0807     -0.0832
    10         C         -3.0714      1.0025      0.8563
    11         H         -0.7849     -1.7196     -0.0154
    12         H         -0.8486     -0.7263     -1.4824
    13         H          4.6510      0.1433     -1.1389
    14         H          3.7353     -1.3712     -1.0462
    15         H          4.7204     -0.8444      0.3297
    16         H         -3.0627     -1.8348     -1.0659
    17         H          3.1876      1.1594      0.6847
    18         H          1.3889     -0.9713     -0.6732
    19         H         -3.8102      1.6560      1.3312
    20         H         -4.6410     -0.2857      0.0518
    21         H          0.8387      1.5727      1.0717
    22         H         -1.3892      2.1091      1.5329

  H: (PM3): J. J. P. STEWART, J. COMP. CHEM. 10, 209 (1989).
  C: (PM3): J. J. P. STEWART, J. COMP. CHEM. 10, 209 (1989).

           Empirical Formula: C10 H12  =    22 atoms



      MOLECULAR POINT GROUP   :   C1  


      RHF CALCULATION, NO. OF DOUBLY OCCUPIED LEVELS = 26



          HEAT OF FORMATION =      43.748237 KCALS/MOLE


          CARTESIAN COORDINATE DERIVATIVES

   NUMBER  ATOM         X            Y            Z

     1       C     -0.001958     0.002134    -0.000391
     2       C     -0.001623     0.000855     0.002490
     3       C     -0.010548     0.003135    -0.000207
     4       C      0.004432    -0.002904     0.000823
     5       C      0.003720     0.001109     0.002064
     6       C      0.009807    -0.003773    -0.001809
     7       C      0.008288    -0.004871    -0.000410
     8       C     -0.002028     0.008957    -0.000842
     9       C     -0.007773     0.001785    -0.002590
    10       C     -0.008666    -0.009532     0.000727
    11       H      0.001106    -0.000565     0.000387
    12       H      0.000083    -0.000988     0.000512
    13       H     -0.001830    -0.002492    -0.000207
    14       H      0.000174    -0.001125     0.000133
    15       H      0.004138     0.002626    -0.001522
    16       H     -0.001449     0.001255    -0.001012
    17       H      0.000761    -0.001460     0.000185
    18       H      0.001080     0.004058    -0.000214
    19       H      0.000032     0.000461     0.000657
    20       H      0.000761     0.000310    -0.000476
    21       H      0.001518     0.000608     0.001084
    22       H     -0.000026     0.000419     0.000620
 


          GRADIENT NORM =   0.02805


          TIME FOR SCF CALCULATION =    0.00

          TIME FOR DERIVATIVES     =    0.00

          MOLECULAR WEIGHT =  132.20



          ROTATIONAL CONSTANTS IN CM(-1)

          A =    0.14195421   B =    0.01945383   C =    0.01721977



           PRINCIPAL MOMENTS OF INERTIA IN UNITS OF 10**(-40)*GRAM-CM**2

          A =      197.1958   B =     1438.9340   C =     1625.6185


          ORIENTATION OF MOLECULE IN FORCE CALCULATION

    NO.       ATOM         X         Y         Z

     1          C      -0.9525   -1.0093    0.0004
     2          C       4.3408   -1.0093    0.0004
     3          C      -0.4154    0.3855    0.0004
     4          C      -2.4326   -1.1200   -0.0007
     5          C       3.2517   -0.0098   -0.0001
     6          C       0.9080    0.6571    0.0008
     7          C      -1.3665    1.4889   -0.0002
     8          C      -3.2423   -0.0527   -0.0013
     9          C       1.9547   -0.3450    0.0014
    10          C      -2.6953    1.2863   -0.0010
    11          H      -0.5635   -1.5535    0.8872
    12          H      -0.5623   -1.5540   -0.8856
    13          H       4.9761   -0.8860   -0.8874
    14          H       3.9747   -2.0447    0.0047
    15          H       4.9809   -0.8803    0.8838
    16          H      -2.8385   -2.1378   -0.0008
    17          H       3.5633    1.0425   -0.0018
    18          H       1.6531   -1.4009    0.0031
    19          H      -3.3981    2.1257   -0.0015
    20          H      -4.3316   -0.1604   -0.0021
    21          H       1.2398    1.7053    0.0007
    22          H      -0.9563    2.5061    0.0000


    FIRST DERIVATIVES WILL BE USED IN THE CALCULATION OF SECOND DERIVATIVES

          ESTIMATED TIME TO COMPLETE CALCULATION =        2.06 SECONDS

    FOR POINT-GROUP C1   THERE ARE   1 UNIQUE SYMMETRY FUNCTIONS.

 STEP:   1 TIME =     0.02 SECS, INTEGRAL =      0.02 TIME LEFT: 172799.97
 STEP:   2 TIME =     0.02 SECS, INTEGRAL =      0.04 TIME LEFT: 172799.95
 STEP:   3 TIME =     0.02 SECS, INTEGRAL =      0.06 TIME LEFT: 172799.93
 STEP:   4 TIME =     0.02 SECS, INTEGRAL =      0.08 TIME LEFT: 172799.91
 STEP:   5 TIME =     0.02 SECS, INTEGRAL =      0.10 TIME LEFT: 172799.89
 STEP:   6 TIME =     0.02 SECS, INTEGRAL =      0.12 TIME LEFT: 172799.87
 STEP:   7 TIME =     0.02 SECS, INTEGRAL =      0.14 TIME LEFT: 172799.85
 STEP:   8 TIME =     0.02 SECS, INTEGRAL =      0.16 TIME LEFT: 172799.83
 STEP:   9 TIME =     0.02 SECS, INTEGRAL =      0.18 TIME LEFT: 172799.81
 STEP:  10 TIME =     0.02 SECS, INTEGRAL =      0.20 TIME LEFT: 172799.79
 STEP:  11 TIME =     0.02 SECS, INTEGRAL =      0.22 TIME LEFT: 172799.77
 STEP:  12 TIME =     0.02 SECS, INTEGRAL =      0.24 TIME LEFT: 172799.75
 STEP:  13 TIME =     0.02 SECS, INTEGRAL =      0.27 TIME LEFT: 172799.73
 STEP:  14 TIME =     0.02 SECS, INTEGRAL =      0.29 TIME LEFT: 172799.71
 STEP:  15 TIME =     0.02 SECS, INTEGRAL =      0.31 TIME LEFT: 172799.68
 STEP:  16 TIME =     0.02 SECS, INTEGRAL =      0.33 TIME LEFT: 172799.66
 STEP:  17 TIME =     0.02 SECS, INTEGRAL =      0.35 TIME LEFT: 172799.64
 STEP:  18 TIME =     0.02 SECS, INTEGRAL =      0.37 TIME LEFT: 172799.62
 STEP:  19 TIME =     0.02 SECS, INTEGRAL =      0.39 TIME LEFT: 172799.61
 STEP:  20 TIME =     0.02 SECS, INTEGRAL =      0.41 TIME LEFT: 172799.59
 STEP:  21 TIME =     0.02 SECS, INTEGRAL =      0.43 TIME LEFT: 172799.57
 STEP:  22 TIME =     0.02 SECS, INTEGRAL =      0.45 TIME LEFT: 172799.54
 STEP:  23 TIME =     0.02 SECS, INTEGRAL =      0.47 TIME LEFT: 172799.52
 STEP:  24 TIME =     0.02 SECS, INTEGRAL =      0.49 TIME LEFT: 172799.50
 STEP:  25 TIME =     0.02 SECS, INTEGRAL =      0.51 TIME LEFT: 172799.48
 STEP:  26 TIME =     0.02 SECS, INTEGRAL =      0.54 TIME LEFT: 172799.46
 STEP:  27 TIME =     0.02 SECS, INTEGRAL =      0.55 TIME LEFT: 172799.44
 STEP:  28 TIME =     0.02 SECS, INTEGRAL =      0.58 TIME LEFT: 172799.41
 STEP:  29 TIME =     0.02 SECS, INTEGRAL =      0.60 TIME LEFT: 172799.39
 STEP:  30 TIME =     0.02 SECS, INTEGRAL =      0.62 TIME LEFT: 172799.37
 STEP:  31 TIME =     0.02 SECS, INTEGRAL =      0.64 TIME LEFT: 172799.35
 STEP:  32 TIME =     0.02 SECS, INTEGRAL =      0.66 TIME LEFT: 172799.33
 STEP:  33 TIME =     0.02 SECS, INTEGRAL =      0.68 TIME LEFT: 172799.31
 STEP:  34 TIME =     0.02 SECS, INTEGRAL =      0.71 TIME LEFT: 172799.29
 STEP:  35 TIME =     0.02 SECS, INTEGRAL =      0.73 TIME LEFT: 172799.27
 STEP:  36 TIME =     0.02 SECS, INTEGRAL =      0.75 TIME LEFT: 172799.25
 STEP:  37 TIME =     0.02 SECS, INTEGRAL =      0.77 TIME LEFT: 172799.22
 STEP:  38 TIME =     0.02 SECS, INTEGRAL =      0.79 TIME LEFT: 172799.20
 STEP:  39 TIME =     0.02 SECS, INTEGRAL =      0.81 TIME LEFT: 172799.18
 STEP:  40 TIME =     0.02 SECS, INTEGRAL =      0.83 TIME LEFT: 172799.16
 STEP:  41 TIME =     0.02 SECS, INTEGRAL =      0.85 TIME LEFT: 172799.14
 STEP:  42 TIME =     0.02 SECS, INTEGRAL =      0.87 TIME LEFT: 172799.12
 STEP:  43 TIME =     0.02 SECS, INTEGRAL =      0.89 TIME LEFT: 172799.10
 STEP:  44 TIME =     0.02 SECS, INTEGRAL =      0.91 TIME LEFT: 172799.08
 STEP:  45 TIME =     0.02 SECS, INTEGRAL =      0.93 TIME LEFT: 172799.06
 STEP:  46 TIME =     0.02 SECS, INTEGRAL =      0.95 TIME LEFT: 172799.04
 STEP:  47 TIME =     0.02 SECS, INTEGRAL =      0.97 TIME LEFT: 172799.02
 STEP:  48 TIME =     0.02 SECS, INTEGRAL =      1.00 TIME LEFT: 172799.00
 STEP:  49 TIME =     0.02 SECS, INTEGRAL =      1.02 TIME LEFT: 172798.98
 STEP:  50 TIME =     0.02 SECS, INTEGRAL =      1.04 TIME LEFT: 172798.96
 STEP:  51 TIME =     0.02 SECS, INTEGRAL =      1.06 TIME LEFT: 172798.93
 STEP:  52 TIME =     0.02 SECS, INTEGRAL =      1.08 TIME LEFT: 172798.91
 STEP:  53 TIME =     0.02 SECS, INTEGRAL =      1.10 TIME LEFT: 172798.89
 STEP:  54 TIME =     0.02 SECS, INTEGRAL =      1.12 TIME LEFT: 172798.87
 STEP:  55 TIME =     0.02 SECS, INTEGRAL =      1.14 TIME LEFT: 172798.85
 STEP:  56 TIME =     0.02 SECS, INTEGRAL =      1.16 TIME LEFT: 172798.83
 STEP:  57 TIME =     0.02 SECS, INTEGRAL =      1.18 TIME LEFT: 172798.81
 STEP:  58 TIME =     0.02 SECS, INTEGRAL =      1.20 TIME LEFT: 172798.79
 STEP:  59 TIME =     0.02 SECS, INTEGRAL =      1.22 TIME LEFT: 172798.77
 STEP:  60 TIME =     0.02 SECS, INTEGRAL =      1.24 TIME LEFT: 172798.75
 STEP:  61 TIME =     0.02 SECS, INTEGRAL =      1.26 TIME LEFT: 172798.73
 STEP:  62 TIME =     0.02 SECS, INTEGRAL =      1.28 TIME LEFT: 172798.71
 STEP:  63 TIME =     0.02 SECS, INTEGRAL =      1.30 TIME LEFT: 172798.69
 STEP:  64 TIME =     0.02 SECS, INTEGRAL =      1.32 TIME LEFT: 172798.67
 STEP:  65 TIME =     0.02 SECS, INTEGRAL =      1.34 TIME LEFT: 172798.65
 STEP:  66 TIME =     0.02 SECS, INTEGRAL =      1.37 TIME LEFT: 172798.62

(To convert to Hartree/Bohr^2, multiply by (10^(-21) x N x a0^2)/(4.184 x 627.51) =  0.0642)


           FORCE MATRIX IN MILLIDYNES/ANGSTROM


                  C  1       C  2       C  3       C  4       C  5       C  6
 ------------------------------------------------------------------------------
     C    1  14.978744
     C    2   0.006093  14.711060
     C    3   4.699297   0.021061  18.381412
     C    4   5.015478   0.000492   0.691023  18.024655
     C    5   0.013649   5.285675   0.143469   0.004222  17.971116
     C    6   0.762243   0.144729   9.438684   0.073987   1.162359  18.237134
     C    7   0.618142   0.014658   5.354958   0.226892   0.047251   1.224814
     C    8   0.866749   0.000820   0.189186  10.205827   0.008148   0.080963
     C    9   0.105215   0.863506   1.082572   0.015659  10.240989   5.648273
     C   10   0.144098   0.002523   1.118578   1.210318   0.020213   0.188253
     H   11   4.338713   0.001217   0.420374   0.413948   0.002535   0.033079
     H   12   4.339078   0.001218   0.420488   0.413943   0.002592   0.033026
     H   13   0.000643   4.697790   0.002488   0.000326   0.437436   0.020546
     H   14   0.000557   4.725115   0.001278   0.000231   0.479111   0.002445
     H   15   0.000651   4.698493   0.002598   0.000324   0.437589   0.020467
     H   16   0.421977   0.000414   0.049473   4.829900   0.000388   0.008845
     H   17   0.005356   0.423527   0.006293   0.000696   4.773947   0.087533
     H   18   0.042331   0.082032   0.024829   0.003096   0.464999   0.442699
     H   19   0.004210   0.000727   0.119309   0.048142   0.000574   0.007444
     H   20   0.121383   0.000269   0.002473   0.444572   0.000290   0.001137
     H   21   0.105158   0.003152   0.449659   0.007397   0.047845   4.705827
     H   22   0.041860   0.000758   0.446237   0.011303   0.000693   0.056745


                  C  7       C  8       C  9       C 10       H 11       H 12
 ------------------------------------------------------------------------------
     C    7  18.314988
     C    8   1.191407  18.393936
     C    9   0.166322   0.026630  18.343668
     C   10   9.888528   5.736059   0.059776  18.259386
     H   11   0.027632   0.041563   0.017462   0.015434   4.926673
     H   12   0.027619   0.041508   0.017438   0.015414   0.562687   4.926959
     H   13   0.001949   0.000366   0.035527   0.000517   0.000130   0.000199
     H   14   0.000448   0.000315   0.041112   0.000383   0.000223   0.000220
     H   15   0.001970   0.000332   0.035688   0.000507   0.000186   0.000142
     H   16   0.010829   0.443989   0.002568   0.123522   0.030609   0.030624
     H   17   0.004844   0.000701   0.468155   0.001069   0.001785   0.001770
     H   18   0.004801   0.002133   4.733990   0.001625   0.028826   0.028866
     H   19   0.439703   0.434397   0.010418   4.861584   0.000887   0.000881
     H   20   0.048850   4.861735   0.000800   0.435507   0.015456   0.015448
     H   21   0.093473   0.006545   0.443108   0.006565   0.011771   0.011718
     H   22   4.790139   0.123116   0.003499   0.439251   0.004087   0.004074


                  H 13       H 14       H 15       H 16       H 17       H 18
 ------------------------------------------------------------------------------
     H   13   5.418945
     H   14   0.564732   5.449969
     H   15   0.575595   0.564475   5.419338
     H   16   0.000117   0.000088   0.000135   5.205383
     H   17   0.023984   0.041099   0.024152   0.000209   5.153774
     H   18   0.009150   0.029872   0.009092   0.000591   0.103910   5.120294
     H   19   0.000198   0.000078   0.000201   0.007427   0.000459   0.000471
     H   20   0.000102   0.000090   0.000103   0.064690   0.000205   0.000371
     H   21   0.000691   0.000695   0.000709   0.003418   0.029951   0.035446
     H   22   0.000153   0.000157   0.000153   0.009317   0.000682   0.000767


                  H 19       H 20       H 21       H 22
 ------------------------------------------------------
     H   19   5.223843
     H   20   0.031541   5.228152
     H   21   0.004944   0.000529   5.083945
     H   22   0.063980   0.007015   0.027993   5.163437


          HEAT OF FORMATION =      43.748237 KCALS/MOLE

          ZERO POINT ENERGY     117.436 KCAL/MOL


           NORMAL COORDINATE ANALYSIS (Total motion = 1 Angstrom)


   Root No.       1         2         3         4         5         6         7         8

                 1 A       2 A       3 A       4 A       5 A       6 A       7 A       8 A   

                  54.0      87.7     117.3     120.3     147.2     243.4     309.3     338.9
  
           1    0.0000   -0.0001    0.0019   -0.0303   -0.0005   -0.0000   -0.0232   -0.0000
           2    0.0000   -0.0000    0.0012   -0.0192   -0.0003    0.0000   -0.0255    0.0001
           3   -0.0400    0.0468    0.0104    0.0007    0.0033    0.0172   -0.0000    0.0117
           4   -0.0000    0.0002   -0.0025    0.0395    0.0006    0.0000   -0.0171    0.0001
           5   -0.0001    0.0001   -0.0033    0.0515    0.0007    0.0000   -0.0264   -0.0000
           6    0.0390   -0.0013    0.0347    0.0036   -0.0230   -0.0187    0.0000    0.0146
           7    0.0000   -0.0000    0.0002   -0.0040   -0.0001    0.0000    0.0031   -0.0000
           8    0.0000   -0.0001    0.0019   -0.0301   -0.0005    0.0000   -0.0331    0.0001
           9   -0.0320    0.0121   -0.0033   -0.0004    0.0034   -0.0304    0.0000    0.0176
          10   -0.0000   -0.0001    0.0022   -0.0338   -0.0005    0.0000   -0.0304    0.0000
          11   -0.0000    0.0000   -0.0008    0.0124    0.0002   -0.0000    0.0009    0.0000
          12    0.0128   -0.0004   -0.0216   -0.0021    0.0091   -0.0353   -0.0001   -0.0287
          13    0.0001    0.0001    0.0000    0.0000    0.0001   -0.0000    0.0418    0.0001
          14    0.0000    0.0000   -0.0004    0.0072    0.0002   -0.0000    0.0434   -0.0001
          15    0.0300    0.0180   -0.0234   -0.0030    0.0492    0.0257   -0.0001   -0.0283
          16    0.0000   -0.0000    0.0001   -0.0022   -0.0000    0.0000   -0.0023    0.0000
          17    0.0000   -0.0001    0.0026   -0.0412   -0.0006   -0.0000    0.0076   -0.0000
          18   -0.0361   -0.0242   -0.0334   -0.0031    0.0074   -0.0132    0.0001    0.0511
          19   -0.0000    0.0000   -0.0011    0.0171    0.0003    0.0000    0.0099   -0.0001
          20    0.0000   -0.0000    0.0007   -0.0109   -0.0002    0.0000   -0.0265    0.0000
          21   -0.0131    0.0180    0.0263    0.0024   -0.0063   -0.0359   -0.0001   -0.0305
          22   -0.0000   -0.0000    0.0008   -0.0130   -0.0002   -0.0000   -0.0176   -0.0001
          23   -0.0000    0.0001   -0.0018    0.0284    0.0004   -0.0000    0.0112   -0.0000
          24    0.0452   -0.0260   -0.0110   -0.0008   -0.0019    0.0163    0.0000    0.0274
          25   -0.0000    0.0000   -0.0005    0.0088    0.0002    0.0000    0.0375    0.0000
          26    0.0000   -0.0001    0.0020   -0.0297   -0.0004   -0.0000    0.0560   -0.0001
          27   -0.0385   -0.0433   -0.0176   -0.0012   -0.0179    0.0345    0.0000   -0.0395
          28   -0.0000    0.0000   -0.0009    0.0132    0.0002   -0.0000    0.0067   -0.0001
          29   -0.0000    0.0000   -0.0011    0.0175    0.0003   -0.0000    0.0001   -0.0000
          30    0.0262   -0.0031    0.0283    0.0028   -0.0142    0.0387   -0.0000   -0.0001
          31    0.0323   -0.0295   -0.0185   -0.0415    0.0041   -0.0467   -0.0326   -0.0388
          32   -0.0186    0.0360    0.0191   -0.0252   -0.0014    0.0550   -0.0331    0.0213
          33   -0.0656    0.0816    0.0305    0.0017    0.0005    0.0721   -0.0010    0.0423
          34   -0.0322    0.0291    0.0235   -0.0379   -0.0054    0.0466   -0.0325    0.0387
          35    0.0186   -0.0361   -0.0157   -0.0281    0.0005   -0.0549   -0.0332   -0.0210
          36   -0.0657    0.0817    0.0304    0.0030    0.0005    0.0722    0.0010    0.0424
          37    0.0279    0.0437   -0.0435    0.0329   -0.1365   -0.0200   -0.0085    0.0239
          38    0.0229    0.0652   -0.1028    0.0700   -0.0707    0.0278   -0.0729   -0.0310
          39    0.0622    0.0389   -0.0084    0.0013   -0.1316   -0.0294    0.0000    0.0279
          40   -0.0002    0.0001   -0.0051    0.0813    0.0015    0.0001   -0.0876    0.0001
          41   -0.0001   -0.0002   -0.0019    0.0371    0.0010   -0.0001   -0.0025    0.0001
          42    0.0006   -0.0951    0.1661    0.0136    0.1169   -0.0436   -0.0004    0.0424
          43   -0.0278   -0.0432    0.0389    0.0360    0.1369    0.0199   -0.0088   -0.0235
          44   -0.0230   -0.0644    0.0921    0.0861    0.0721   -0.0276   -0.0737    0.0308
          45    0.0625    0.0395   -0.0093    0.0012   -0.1328   -0.0294    0.0005    0.0278
          46    0.0000   -0.0002    0.0035   -0.0549   -0.0009    0.0001   -0.0468    0.0001
          47   -0.0000    0.0001   -0.0013    0.0208    0.0003   -0.0000    0.0074   -0.0000
          48    0.0236   -0.0118   -0.0509   -0.0048    0.0210   -0.0974   -0.0001   -0.0813
          49    0.0002    0.0000    0.0023   -0.0354   -0.0004   -0.0000    0.0811    0.0001
          50    0.0001    0.0001   -0.0012    0.0182    0.0005    0.0000    0.0300   -0.0000
          51    0.0847    0.0873   -0.0660   -0.0086    0.1425    0.0252   -0.0003   -0.0030
          52   -0.0001    0.0000   -0.0016    0.0253    0.0004   -0.0000    0.0476    0.0001
          53   -0.0000   -0.0002    0.0023   -0.0338   -0.0006    0.0000    0.0516   -0.0002
          54   -0.0947   -0.1098    0.0170    0.0036   -0.1068    0.0552    0.0002   -0.0984
          55   -0.0001    0.0001   -0.0020    0.0307    0.0005   -0.0001    0.0249   -0.0001
          56   -0.0000    0.0001   -0.0020    0.0321    0.0005   -0.0000    0.0153   -0.0001
          57    0.0443   -0.0034    0.0565    0.0056   -0.0278    0.0879   -0.0000   -0.0264
          58   -0.0001   -0.0000    0.0010   -0.0151   -0.0002   -0.0000   -0.0194   -0.0001
          59   -0.0000    0.0001   -0.0032    0.0500    0.0008    0.0000    0.0294   -0.0001
          60    0.0848   -0.0620   -0.0322   -0.0026   -0.0003    0.0156    0.0001    0.0578
          61    0.0000   -0.0000    0.0002   -0.0041   -0.0001    0.0000   -0.0399    0.0001
          62    0.0000   -0.0001    0.0026   -0.0397   -0.0006   -0.0000    0.0200   -0.0000
          63   -0.0309   -0.0402   -0.0551   -0.0052    0.0214   -0.0384    0.0001    0.1238
          64   -0.0000    0.0001   -0.0024    0.0375    0.0006    0.0000    0.0216   -0.0001
          65    0.0000   -0.0001    0.0012   -0.0189   -0.0003    0.0000   -0.0307    0.0001
          66   -0.0283    0.0348    0.0493    0.0044   -0.0108   -0.0768   -0.0002   -0.0993


   Root No.       9        10        11        12        13        14        15        16

                 9 A      10 A      11 A      12 A      13 A      14 A      15 A      16 A   

                 354.2     443.0     525.8     555.0     571.1     605.1     751.0     802.1
  
           1   -0.0199    0.0000    0.0000    0.0067   -0.0402   -0.0401    0.0000   -0.0000
           2    0.0355   -0.0000   -0.0000   -0.0383    0.0370    0.0011    0.0000    0.0000
           3   -0.0001   -0.0012    0.0115    0.0000   -0.0000   -0.0000   -0.0070    0.0273
           4    0.0679    0.0000   -0.0000    0.0388   -0.0096    0.0210   -0.0000    0.0000
           5   -0.0205    0.0000    0.0000   -0.0082    0.0101   -0.0119   -0.0000   -0.0000
           6   -0.0001   -0.0035    0.0000   -0.0000    0.0000   -0.0000   -0.0011   -0.0037
           7   -0.0003   -0.0001   -0.0000   -0.0096    0.0415   -0.0524   -0.0000    0.0000
           8    0.0292   -0.0000    0.0000   -0.0241    0.0154    0.0206    0.0000    0.0000
           9   -0.0000    0.0502    0.0666    0.0000    0.0001    0.0000    0.0248   -0.0129
          10   -0.0212    0.0000    0.0000    0.0015   -0.0474   -0.0252    0.0000   -0.0000
          11    0.0070    0.0000    0.0000   -0.0003   -0.0288   -0.0761    0.0000   -0.0000
          12    0.0001   -0.0412    0.0045   -0.0000   -0.0001   -0.0000   -0.0198    0.0069
          13    0.0473   -0.0000    0.0000   -0.0092   -0.0204    0.0185   -0.0000   -0.0000
          14   -0.0319   -0.0000    0.0000   -0.0509   -0.0130    0.0012   -0.0000   -0.0000
          15    0.0001    0.0110    0.0001    0.0001    0.0000    0.0000   -0.0041   -0.0079
          16    0.0128   -0.0000    0.0000   -0.0242    0.0346   -0.0419    0.0000    0.0000
          17    0.0034   -0.0000   -0.0000    0.0583    0.0475   -0.0258    0.0000    0.0000
          18   -0.0001   -0.0361   -0.0084    0.0000   -0.0000    0.0000    0.0095    0.0103
          19   -0.0409   -0.0000   -0.0000    0.0036    0.0473    0.0162    0.0000    0.0000
          20    0.0020    0.0000   -0.0000   -0.0151   -0.0064    0.0875   -0.0000    0.0000
          21    0.0001    0.0234   -0.0379   -0.0000    0.0000   -0.0000   -0.0201   -0.0230
          22   -0.0466    0.0000   -0.0000    0.0158   -0.0322    0.0572   -0.0000   -0.0000
          23   -0.0128    0.0000    0.0000    0.0124   -0.0218   -0.0178   -0.0000   -0.0000
          24   -0.0001    0.0475   -0.0196   -0.0000    0.0000    0.0000   -0.0221    0.0173
          25    0.0334   -0.0000    0.0000   -0.0323   -0.0197    0.0085   -0.0000    0.0000
          26    0.0048    0.0000   -0.0000    0.0459    0.0027    0.0186    0.0000    0.0000
          27    0.0002    0.0084   -0.0038   -0.0001   -0.0000   -0.0000    0.0010    0.0091
          28   -0.0430    0.0000   -0.0001    0.0033    0.0564    0.0329    0.0000    0.0000
          29   -0.0143    0.0000    0.0000    0.0152   -0.0555    0.0038   -0.0000    0.0000
          30   -0.0000   -0.0382    0.0327    0.0000    0.0000    0.0000   -0.0091   -0.0269
          31   -0.0189   -0.0377    0.0485   -0.0006   -0.0503   -0.0122   -0.0501    0.0524
          32    0.0364   -0.0326   -0.1131   -0.0445    0.0363    0.0228    0.0029   -0.0578
          33   -0.0001   -0.0046   -0.0825   -0.0005    0.0029    0.0004    0.0178   -0.0335
          34   -0.0192    0.0377   -0.0483   -0.0006   -0.0503   -0.0121    0.0500   -0.0523
          35    0.0366    0.0325    0.1130   -0.0445    0.0364    0.0230   -0.0029    0.0578
          36   -0.0003   -0.0045   -0.0826    0.0005   -0.0030   -0.0006    0.0178   -0.0336
          37    0.0673   -0.0109   -0.0003    0.0332   -0.0136    0.0241    0.0087    0.0215
          38   -0.0079    0.0127    0.0001    0.0414    0.0293   -0.0184   -0.0084   -0.0203
          39    0.0008   -0.0099   -0.0002    0.0016   -0.0003    0.0010    0.0043    0.0096
          40    0.0890    0.0001   -0.0000    0.1128    0.0146    0.0163   -0.0000   -0.0000
          41   -0.0273   -0.0001    0.0000   -0.0319    0.0023   -0.0103    0.0000    0.0001
          42   -0.0000   -0.0146    0.0001    0.0001    0.0001   -0.0000    0.0061    0.0135
          43    0.0675    0.0109    0.0003    0.0330   -0.0137    0.0241   -0.0087   -0.0214
          44   -0.0079   -0.0126   -0.0001    0.0419    0.0295   -0.0185    0.0084    0.0202
          45   -0.0011   -0.0098   -0.0002   -0.0019    0.0003   -0.0010    0.0043    0.0096
          46    0.0049    0.0000    0.0001   -0.0278   -0.0180   -0.0410   -0.0001    0.0001
          47   -0.0035    0.0000    0.0000    0.0112   -0.0400   -0.0691    0.0000   -0.0000
          48    0.0003   -0.0945   -0.0436   -0.0000   -0.0001    0.0001    0.1845   -0.1643
          49    0.0591   -0.0000    0.0000    0.0107   -0.0280    0.0372    0.0000    0.0000
          50   -0.0347   -0.0000    0.0000   -0.0550   -0.0099   -0.0046    0.0000    0.0001
          51   -0.0001   -0.0025    0.0047    0.0000    0.0000   -0.0001    0.0188    0.0369
          52    0.0216   -0.0000    0.0000   -0.0853   -0.0630    0.0276   -0.0000   -0.0000
          53    0.0079    0.0001   -0.0000    0.0608    0.0160    0.0124   -0.0000   -0.0001
          54    0.0005    0.0444   -0.0048   -0.0001   -0.0001    0.0001   -0.0236   -0.0489
          55   -0.0475    0.0001   -0.0001    0.0116    0.0749   -0.0230   -0.0001   -0.0001
          56   -0.0173    0.0000    0.0000    0.0216   -0.0396   -0.0424    0.0000    0.0000
          57   -0.0001   -0.1638    0.0643    0.0001   -0.0001    0.0001    0.1782    0.1081
          58   -0.0452   -0.0001    0.0001    0.0153   -0.0381    0.0520   -0.0001    0.0000
          59   -0.0256    0.0000   -0.0000    0.0153    0.0417    0.0285   -0.0000    0.0000
          60   -0.0002    0.1490   -0.1172   -0.0001   -0.0000   -0.0001    0.1823   -0.0036
          61    0.0176   -0.0000    0.0001   -0.0575    0.0460   -0.0489    0.0000    0.0000
          62    0.0016   -0.0000   -0.0000    0.0682    0.0439   -0.0228   -0.0000    0.0000
          63   -0.0003   -0.1314   -0.1171    0.0002   -0.0001   -0.0001   -0.0874   -0.0504
          64   -0.0680    0.0000    0.0000    0.0242    0.0142    0.0198   -0.0000   -0.0001
          65    0.0127   -0.0000   -0.0000   -0.0228    0.0072    0.0854   -0.0000   -0.0000
          66    0.0003   -0.0003   -0.1662   -0.0001   -0.0001   -0.0001    0.0685    0.1971


   Root No.      17        18        19        20        21        22        23        24

                17 A      18 A      19 A      20 A      21 A      22 A      23 A      24 A   

                 836.5     870.5     898.5     911.9     947.4     949.1     972.8     973.8
  
           1    0.0000    0.0178   -0.0000    0.0000   -0.0272    0.0003    0.0000    0.0034
           2    0.0000    0.0228   -0.0000    0.0000    0.0653   -0.0007   -0.0000   -0.0087
           3    0.0131   -0.0000    0.0302   -0.0275   -0.0002   -0.0179    0.0132   -0.0000
           4   -0.0000    0.0086    0.0000    0.0000   -0.0047    0.0001   -0.0000   -0.0435
           5    0.0000   -0.0091   -0.0000    0.0000   -0.0049    0.0000   -0.0000   -0.0160
           6    0.0143   -0.0001   -0.0114   -0.0031   -0.0002   -0.0142   -0.0034    0.0000
           7   -0.0000   -0.0390    0.0000    0.0000   -0.0059    0.0000    0.0000    0.0059
           8   -0.0000   -0.0123    0.0000    0.0000   -0.0147    0.0002    0.0000    0.0028
           9    0.0094   -0.0001   -0.0102    0.0226    0.0004    0.0267    0.0042    0.0000
          10    0.0000    0.0322   -0.0000   -0.0000    0.0071   -0.0001    0.0000   -0.0037
          11    0.0001    0.0554   -0.0000   -0.0000   -0.0186    0.0002    0.0000   -0.0008
          12   -0.0018    0.0000   -0.0112    0.0124    0.0001    0.0073   -0.0318    0.0000
          13    0.0000   -0.0010   -0.0000   -0.0000   -0.0008    0.0000    0.0000    0.0063
          14   -0.0000   -0.0025    0.0000   -0.0000   -0.0021    0.0000    0.0000   -0.0040
          15    0.0216   -0.0001   -0.0106   -0.0104    0.0001    0.0080    0.0024   -0.0000
          16   -0.0001   -0.0537    0.0000    0.0000   -0.0133    0.0001    0.0000    0.0099
          17   -0.0001   -0.0358    0.0000    0.0000   -0.0147    0.0001   -0.0000   -0.0111
          18   -0.0154    0.0000   -0.0247   -0.0039   -0.0007   -0.0418   -0.0120   -0.0000
          19    0.0000    0.0304   -0.0000   -0.0000   -0.0012    0.0000    0.0000   -0.0019
          20    0.0000    0.0113    0.0000   -0.0001   -0.0623    0.0007    0.0000    0.0107
          21   -0.0099    0.0000    0.0093   -0.0106    0.0000    0.0021   -0.0372    0.0000
          22   -0.0001   -0.0501    0.0000    0.0000    0.0384   -0.0004   -0.0000   -0.0042
          23   -0.0000   -0.0094    0.0000    0.0000    0.0032   -0.0000    0.0000   -0.0003
          24   -0.0019   -0.0000   -0.0181    0.0183    0.0002    0.0140    0.0214    0.0000
          25   -0.0000   -0.0094   -0.0000   -0.0000   -0.0019    0.0000    0.0000    0.0161
          26    0.0000    0.0254   -0.0000   -0.0000    0.0122   -0.0001    0.0000    0.0128
          27   -0.0287    0.0001    0.0073   -0.0247    0.0006    0.0329    0.0042    0.0000
          28    0.0001    0.0441   -0.0000   -0.0000   -0.0083    0.0001   -0.0000   -0.0031
          29   -0.0001   -0.0497    0.0000    0.0000    0.0230   -0.0003   -0.0000    0.0005
          30   -0.0101    0.0001    0.0045   -0.0129   -0.0003   -0.0209    0.0290   -0.0001
          31    0.0125    0.0355    0.0444   -0.0556   -0.0027   -0.0425   -0.0298    0.0050
          32   -0.0311    0.0346   -0.0593    0.0418    0.1103    0.0212   -0.0569   -0.0139
          33   -0.0119    0.0012   -0.0273    0.0246    0.0146    0.0155   -0.0091   -0.0036
          34   -0.0123    0.0355   -0.0443    0.0556   -0.0015    0.0425    0.0298    0.0050
          35    0.0313    0.0346    0.0591   -0.0416    0.1099   -0.0235    0.0567   -0.0140
          36   -0.0120   -0.0012   -0.0274    0.0246   -0.0143    0.0159   -0.0091    0.0037
          37   -0.0719    0.0095    0.0485    0.0154   -0.0093    0.0505    0.0118   -0.0815
          38    0.0670    0.0056   -0.0448   -0.0150    0.0269   -0.0450   -0.0104    0.1619
          39   -0.0302    0.0018    0.0187    0.0063    0.0005    0.0171    0.0040   -0.0034
          40    0.0002    0.0379   -0.0002   -0.0002    0.0402   -0.0006    0.0001    0.1837
          41   -0.0003   -0.0188    0.0002    0.0001   -0.0195    0.0004   -0.0000   -0.0898
          42   -0.0417    0.0002    0.0255    0.0094    0.0004    0.0221    0.0050    0.0002
          43    0.0715    0.0087   -0.0481   -0.0152   -0.0112   -0.0499   -0.0118   -0.0826
          44   -0.0665    0.0063    0.0443    0.0147    0.0286    0.0440    0.0105    0.1630
          45   -0.0302   -0.0016    0.0186    0.0063    0.0001    0.0171    0.0039    0.0032
          46    0.0002    0.1058   -0.0001    0.0000    0.0723   -0.0007   -0.0001   -0.0171
          47    0.0000    0.0273    0.0000   -0.0000   -0.0442    0.0005    0.0000    0.0044
          48   -0.0198   -0.0000    0.0131   -0.0177    0.0000   -0.0097    0.1633   -0.0001
          49    0.0000    0.0241   -0.0001    0.0000    0.0206   -0.0004    0.0000    0.1063
          50   -0.0003   -0.0101    0.0003    0.0003   -0.0083    0.0001   -0.0000   -0.0321
          51   -0.1388    0.0007    0.1394    0.1754   -0.0009   -0.0540   -0.0066    0.0004
          52    0.0001    0.0243   -0.0001    0.0000    0.0096   -0.0002    0.0000    0.0676
          53    0.0002    0.0151    0.0001    0.0003    0.0087   -0.0003   -0.0000   -0.0010
          54    0.0989   -0.0000    0.0690    0.2165   -0.0024   -0.1403   -0.0134    0.0001
          55    0.0001    0.0797   -0.0000    0.0000    0.0377   -0.0004    0.0000   -0.0173
          56   -0.0000   -0.0224   -0.0000    0.0001    0.0601   -0.0006   -0.0001   -0.0108
          57    0.0749   -0.0002   -0.0111    0.0657    0.0015    0.1051   -0.1421    0.0002
          58   -0.0001   -0.0489   -0.0001    0.0001    0.0423   -0.0004    0.0000   -0.0048
          59   -0.0000   -0.0163    0.0000    0.0000   -0.0147    0.0001    0.0000    0.0014
          60    0.0420   -0.0001    0.1161   -0.1071   -0.0010   -0.0682   -0.1131   -0.0000
          61   -0.0001   -0.1087    0.0000    0.0000   -0.0514    0.0005    0.0000    0.0258
          62   -0.0000   -0.0197    0.0000    0.0000   -0.0034    0.0001   -0.0000   -0.0162
          63    0.1468   -0.0004    0.1383    0.0267    0.0025    0.1497    0.0623    0.0002
          64    0.0000    0.0357   -0.0000    0.0000    0.0678   -0.0007   -0.0001   -0.0146
          65   -0.0000    0.0095    0.0000   -0.0001   -0.0910    0.0010    0.0000    0.0159
          66    0.0345   -0.0000   -0.0556    0.0430   -0.0004   -0.0254    0.1733   -0.0002


   Root No.      25        26        27        28        29        30        31        32

                25 A      26 A      27 A      28 A      29 A      30 A      31 A      32 A   

                1015.5    1029.5    1042.3    1074.7    1086.4    1150.2    1156.8    1167.8
  
           1   -0.0000    0.0000    0.0389    0.0000    0.0011    0.0015    0.0045    0.0019
           2    0.0000   -0.0000   -0.0093   -0.0000    0.0115    0.0048    0.0013   -0.0001
           3   -0.0220    0.0088    0.0000    0.0013   -0.0000    0.0000    0.0000    0.0000
           4   -0.0000   -0.0000    0.0025   -0.0000    0.0014    0.0005   -0.0033   -0.0051
           5   -0.0000   -0.0001   -0.0016   -0.0000   -0.0025    0.0027    0.0049    0.0383
           6   -0.0129   -0.0365    0.0000   -0.0008    0.0000   -0.0000   -0.0000   -0.0001
           7    0.0000    0.0000   -0.0084    0.0000   -0.0019    0.0005    0.0067   -0.0099
           8   -0.0000    0.0000    0.0097    0.0000    0.0045   -0.0094   -0.0159    0.0077
           9    0.0222   -0.0120    0.0000   -0.0360   -0.0000    0.0000   -0.0000   -0.0000
          10   -0.0000   -0.0000   -0.0322   -0.0000    0.0047   -0.0094   -0.0027    0.0051
          11   -0.0000   -0.0000   -0.0309   -0.0000    0.0169    0.0083   -0.0018    0.0012
          12    0.0354   -0.0118   -0.0000    0.0368    0.0000   -0.0000    0.0000    0.0000
          13    0.0000    0.0000   -0.0020   -0.0000   -0.0011   -0.0015    0.0038    0.0052
          14    0.0000    0.0001    0.0014    0.0000    0.0016   -0.0032   -0.0076   -0.0283
          15    0.0164    0.0536   -0.0001    0.0027   -0.0000    0.0000    0.0000    0.0000
          16    0.0000    0.0000   -0.0053    0.0000   -0.0071    0.0018    0.0056   -0.0039
          17   -0.0000   -0.0000    0.0029    0.0000   -0.0064    0.0021   -0.0019   -0.0150
          18   -0.0078    0.0182   -0.0000    0.0085   -0.0000    0.0000    0.0000    0.0000
          19    0.0000   -0.0000   -0.0035   -0.0000   -0.0129    0.0118   -0.0011   -0.0041
          20    0.0000   -0.0000   -0.0082   -0.0000   -0.0277    0.0034    0.0074   -0.0059
          21   -0.0298    0.0100   -0.0000    0.0116   -0.0000    0.0000    0.0000    0.0000
          22    0.0000   -0.0000   -0.0250   -0.0000    0.0399   -0.0043   -0.0071    0.0034
          23   -0.0000    0.0000    0.0035   -0.0000    0.0248    0.0013    0.0030   -0.0006
          24   -0.0366    0.0098   -0.0000   -0.0106    0.0000    0.0000   -0.0000    0.0000
          25    0.0000   -0.0000   -0.0021   -0.0000   -0.0009   -0.0024    0.0048   -0.0089
          26    0.0000   -0.0000   -0.0033   -0.0000    0.0001    0.0031    0.0013    0.0117
          27   -0.0039   -0.0316    0.0001   -0.0035    0.0000    0.0000   -0.0000    0.0000
          28   -0.0000   -0.0000   -0.0011   -0.0000    0.0102   -0.0014   -0.0057   -0.0003
          29    0.0000    0.0000    0.0100    0.0000   -0.0439   -0.0003    0.0081   -0.0075
          30    0.0336   -0.0093    0.0000   -0.0001    0.0000   -0.0000   -0.0000    0.0000
          31   -0.0166    0.0201    0.1831   -0.2955    0.0068    0.0697   -0.0119   -0.0109
          32    0.0488   -0.0097    0.0754   -0.2189    0.0265    0.0604   -0.0165   -0.0059
          33    0.0163   -0.0063   -0.0100   -0.0037    0.0048    0.0030   -0.0017    0.0019
          34    0.0164   -0.0197    0.1830    0.2955    0.0070    0.0697   -0.0119   -0.0109
          35   -0.0488    0.0099    0.0753    0.2189    0.0266    0.0605   -0.0165   -0.0059
          36    0.0163   -0.0063    0.0103   -0.0033   -0.0047   -0.0029    0.0017   -0.0020
          37    0.0413    0.1151    0.0048    0.0022    0.0026    0.0011   -0.0100   -0.0131
          38   -0.0363   -0.1010   -0.0074   -0.0019   -0.0018   -0.0036    0.0084    0.0000
          39    0.0128    0.0348    0.0007    0.0006    0.0008   -0.0004   -0.0034   -0.0097
          40   -0.0000   -0.0002    0.0020    0.0001    0.0077   -0.0104   -0.0214   -0.1265
          41    0.0001    0.0003   -0.0020   -0.0000   -0.0049    0.0064    0.0118    0.0829
          42    0.0164    0.0447   -0.0001    0.0009   -0.0000    0.0000    0.0000    0.0002
          43   -0.0412   -0.1146    0.0051   -0.0023    0.0026    0.0012   -0.0100   -0.0130
          44    0.0363    0.1006   -0.0076    0.0019   -0.0018   -0.0037    0.0084   -0.0001
          45    0.0128    0.0348   -0.0008    0.0006   -0.0008    0.0004    0.0034    0.0098
          46    0.0001   -0.0002   -0.0451    0.0000   -0.1638   -0.1439    0.2090   -0.0185
          47   -0.0000    0.0000   -0.0248   -0.0001    0.0885    0.0639   -0.0870    0.0111
          48   -0.1234    0.0350   -0.0001   -0.0551   -0.0001   -0.0001    0.0001   -0.0000
          49   -0.0000   -0.0002   -0.0031    0.0000   -0.0068    0.0064   -0.0077    0.2724
          50   -0.0000   -0.0001    0.0015   -0.0000    0.0031   -0.0056   -0.0043   -0.1066
          51   -0.0385   -0.1267    0.0001   -0.0143    0.0000    0.0000    0.0000   -0.0000
          52   -0.0000    0.0001    0.0498    0.0001    0.0150    0.0076   -0.0388   -0.0767
          53    0.0000    0.0001   -0.0182   -0.0000   -0.0046    0.0003    0.0136    0.0298
          54    0.0105    0.0872   -0.0002   -0.0042   -0.0000   -0.0000    0.0000   -0.0000
          55   -0.0000    0.0001    0.0839    0.0001   -0.0660   -0.1797   -0.1692    0.0310
          56   -0.0000    0.0001    0.0822    0.0001   -0.1090   -0.1501   -0.1260    0.0179
          57   -0.1141    0.0290   -0.0000   -0.0032   -0.0001   -0.0000   -0.0000    0.0000
          58   -0.0001   -0.0000   -0.0422   -0.0000    0.0249    0.0053   -0.0312   -0.0002
          59   -0.0001    0.0002    0.1529    0.0000    0.1867   -0.1125    0.2342    0.0386
          60    0.1278   -0.0305    0.0001    0.0158    0.0001   -0.0000   -0.0000    0.0000
          61    0.0000    0.0002    0.0153    0.0001   -0.0446    0.0224   -0.0334    0.1483
          62   -0.0000   -0.0001   -0.0035    0.0000    0.0043   -0.0037    0.0103   -0.0645
          63    0.0235   -0.0527    0.0001   -0.0130    0.0000   -0.0000   -0.0000    0.0001
          64    0.0000   -0.0000    0.0197    0.0002   -0.1836    0.1833    0.0705    0.0176
          65   -0.0000    0.0000   -0.0168   -0.0001    0.0364   -0.0647   -0.0214   -0.0155
          66    0.1043   -0.0331    0.0001   -0.0399   -0.0000    0.0001    0.0000    0.0000


   Root No.      33        34        35        36        37        38        39        40

                33 A      34 A      35 A      36 A      37 A      38 A      39 A      40 A   

                1181.4    1219.6    1239.1    1258.9    1318.7    1338.3    1383.7    1395.4
  
           1   -0.0013   -0.0131    0.0053    0.0124    0.0313    0.0149   -0.0433    0.0377
           2    0.0004   -0.0065    0.0084    0.0046    0.0307   -0.0267   -0.0101   -0.0002
           3   -0.0000   -0.0000    0.0000    0.0000    0.0000    0.0000   -0.0000    0.0000
           4    0.0119    0.0030   -0.0040    0.0018    0.0004   -0.0012   -0.0359   -0.0179
           5   -0.0181    0.0073    0.0121   -0.0070    0.0074    0.0030    0.0098   -0.0140
           6    0.0000   -0.0000   -0.0000    0.0000    0.0000    0.0000    0.0001   -0.0050
           7   -0.0120    0.0060   -0.0020    0.0108    0.0311    0.0121    0.0110   -0.0156
           8    0.0121   -0.0147    0.0080    0.0001    0.0030   -0.0256   -0.0140    0.0231
           9   -0.0000    0.0000    0.0000    0.0000    0.0000    0.0000    0.0000   -0.0000
          10    0.0074   -0.0114    0.0095   -0.0002   -0.0084    0.0164    0.0198   -0.0238
          11    0.0033    0.0037   -0.0019   -0.0062   -0.0195   -0.0026    0.0136   -0.0084
          12    0.0000   -0.0000    0.0000    0.0000   -0.0000    0.0000    0.0000   -0.0000
          13   -0.0171   -0.0136    0.0036   -0.0130   -0.0282   -0.0078   -0.0030    0.0123
          14    0.0313    0.0003   -0.0187    0.0408   -0.0141   -0.0048   -0.0148   -0.0028
          15   -0.0000    0.0000    0.0000   -0.0000    0.0000    0.0000    0.0000   -0.0001
          16   -0.0113   -0.0019   -0.0030    0.0074    0.0127    0.0052    0.0196   -0.0162
          17    0.0139    0.0170    0.0201   -0.0024   -0.0486   -0.0022   -0.0043    0.0056
          18   -0.0000   -0.0000   -0.0000    0.0000    0.0000    0.0000    0.0000   -0.0000
          19   -0.0045    0.0100   -0.0076    0.0004    0.0116    0.0029   -0.0132    0.0057
          20   -0.0086   -0.0030    0.0051    0.0054   -0.0020    0.0174    0.0199   -0.0196
          21   -0.0000    0.0000   -0.0000   -0.0000    0.0000    0.0000   -0.0000    0.0000
          22    0.0049    0.0007    0.0005   -0.0057   -0.0130   -0.0126    0.0094   -0.0022
          23   -0.0017    0.0125   -0.0108   -0.0067   -0.0107   -0.0200   -0.0077    0.0171
          24    0.0000    0.0000    0.0000   -0.0000   -0.0000   -0.0000    0.0000   -0.0000
          25   -0.0200   -0.0128    0.0077   -0.0116   -0.0247   -0.0050    0.0042    0.0075
          26   -0.0031   -0.0098   -0.0168   -0.0305    0.0524    0.0113    0.0120   -0.0105
          27    0.0000    0.0000   -0.0000    0.0000   -0.0000   -0.0000   -0.0000   -0.0000
          28    0.0000    0.0081   -0.0050   -0.0038   -0.0047   -0.0072   -0.0142    0.0137
          29   -0.0093    0.0090   -0.0063    0.0057    0.0245    0.0135   -0.0158    0.0030
          30   -0.0000    0.0000   -0.0000   -0.0000   -0.0000   -0.0000   -0.0000    0.0000
          31   -0.0452    0.0449   -0.0495   -0.0160   -0.0351   -0.1128    0.0695   -0.0616
          32   -0.0359    0.0234   -0.0367   -0.0008   -0.0843    0.1791    0.0130   -0.0024
          33   -0.0031   -0.0060   -0.0041    0.0081   -0.0361    0.1563   -0.0298    0.0356
          34   -0.0453    0.0449   -0.0496   -0.0160   -0.0351   -0.1126    0.0695   -0.0616
          35   -0.0360    0.0234   -0.0368   -0.0009   -0.0843    0.1791    0.0131   -0.0025
          36    0.0030    0.0061    0.0041   -0.0081    0.0362   -0.1566    0.0299   -0.0357
          37    0.0429    0.0187   -0.0218    0.0521    0.0468    0.0126    0.1515    0.1200
          38   -0.0361   -0.0284    0.0064   -0.0347   -0.0454   -0.0145    0.0036    0.1253
          39    0.0156    0.0046   -0.0112    0.0255    0.0212    0.0060    0.1172    0.1083
          40    0.0876   -0.0032   -0.0524    0.0919    0.0200    0.0077    0.0122   -0.0911
          41   -0.0473    0.0076    0.0290   -0.0404   -0.0025   -0.0014   -0.0028    0.0266
          42   -0.0001    0.0000    0.0001   -0.0001   -0.0001   -0.0001   -0.0006    0.0498
          43    0.0428    0.0188   -0.0218    0.0520    0.0468    0.0126    0.1510    0.1099
          44   -0.0362   -0.0285    0.0064   -0.0349   -0.0457   -0.0145    0.0035    0.0660
          45   -0.0157   -0.0045    0.0113   -0.0256   -0.0212   -0.0060   -0.1182   -0.0974
          46    0.0119    0.0912   -0.0571   -0.0402   -0.0675   -0.0402    0.0064    0.0216
          47    0.0017   -0.0378    0.0249    0.0094    0.0023    0.0195    0.0211   -0.0283
          48    0.0000    0.0001   -0.0000   -0.0000   -0.0000   -0.0000   -0.0000    0.0000
          49    0.0302    0.1113    0.0321    0.1857   -0.0224   -0.0093   -0.0197   -0.0098
          50    0.0183   -0.0375   -0.0291   -0.0163   -0.0178   -0.0050   -0.0116    0.0036
          51   -0.0000   -0.0000    0.0000   -0.0001    0.0000    0.0000    0.0000   -0.0003
          52    0.1066    0.1540    0.1633   -0.1470    0.0907    0.0532    0.0163   -0.0015
          53   -0.0384   -0.0584   -0.0625    0.0055    0.0222   -0.0046    0.0098   -0.0091
          54    0.0000    0.0000    0.0001    0.0001   -0.0001   -0.0000   -0.0000    0.0002
          55    0.0029   -0.0526    0.0364   -0.0029   -0.0435    0.0006    0.0473   -0.0281
          56   -0.0081   -0.0410    0.0277    0.0074   -0.0045    0.0229    0.0357   -0.0336
          57    0.0000   -0.0000    0.0000   -0.0000   -0.0000    0.0000    0.0000   -0.0000
          58   -0.0017    0.0103   -0.0060   -0.0088   -0.0164   -0.0217    0.0056    0.0045
          59    0.0689   -0.0808    0.0537    0.0151    0.0014    0.0543    0.0455   -0.0553
          60   -0.0000   -0.0000   -0.0000   -0.0000   -0.0000   -0.0000   -0.0000    0.0000
          61    0.1790   -0.0210   -0.1356   -0.1560   -0.0383    0.0283   -0.0076   -0.0021
          62   -0.0446    0.0231    0.0634    0.0477   -0.0355   -0.0098    0.0050    0.0012
          63    0.0001    0.0000   -0.0000   -0.0000    0.0000   -0.0000   -0.0000    0.0000
          64    0.0880   -0.1192    0.1028    0.0231   -0.0426   -0.0291    0.0436   -0.0141
          65   -0.0465    0.0479   -0.0376   -0.0023    0.0205    0.0318   -0.0015   -0.0132
          66    0.0000   -0.0000    0.0000    0.0000   -0.0000   -0.0000    0.0000   -0.0000


   Root No.      41        42        43        44        45        46        47        48

                41 A      42 A      43 A      44 A      45 A      46 A      47 A      48 A   

                1395.6    1414.8    1437.9    1511.4    1824.8    1839.5    1864.7    1874.9
  
           1   -0.0090    0.0124    0.0118   -0.0679   -0.0088    0.0004   -0.0227   -0.0171
           2    0.0001   -0.0260    0.0225   -0.0693    0.0024   -0.0130   -0.0025   -0.0081
           3   -0.0000    0.0000    0.0000   -0.0000   -0.0000    0.0000   -0.0000   -0.0000
           4    0.0041   -0.0164   -0.0403   -0.0000   -0.0043   -0.0124   -0.0110    0.0160
           5    0.0029    0.0275    0.0393    0.0010    0.0026    0.0079    0.0069   -0.0099
           6   -0.0382   -0.0001   -0.0001   -0.0000   -0.0000   -0.0000   -0.0000    0.0000
           7    0.0037    0.0004   -0.0243   -0.0187   -0.0306    0.1047    0.0713    0.0958
           8   -0.0055    0.0372   -0.0173    0.1258    0.0090    0.0270   -0.0005    0.0222
           9    0.0000   -0.0000   -0.0000   -0.0000   -0.0000    0.0000    0.0000    0.0000
          10    0.0057   -0.0269    0.0085    0.0578    0.0676   -0.0550    0.0712    0.0307
          11    0.0020    0.0053   -0.0082    0.0035   -0.0721    0.0505   -0.0668   -0.0303
          12   -0.0000   -0.0000    0.0000    0.0000    0.0001   -0.0000    0.0000    0.0000
          13   -0.0029   -0.0016    0.0266    0.0001    0.0286    0.0742    0.0742   -0.1264
          14    0.0007   -0.0140   -0.0194   -0.0022    0.0016    0.0009    0.0026   -0.0087
          15   -0.0007    0.0000   -0.0000    0.0000   -0.0000   -0.0001   -0.0001    0.0001
          16    0.0038    0.0102   -0.0240    0.0087    0.0103   -0.1041   -0.0426   -0.1189
          17   -0.0013   -0.0156    0.0254   -0.0189    0.0035   -0.0047   -0.0075    0.0115
          18   -0.0001    0.0000   -0.0000    0.0000    0.0000   -0.0000   -0.0000   -0.0000
          19   -0.0013   -0.0155    0.0156    0.0461    0.1557    0.0462   -0.0770    0.0014
          20    0.0046   -0.0061   -0.0094   -0.0681    0.0018    0.0034    0.0084    0.0037
          21    0.0000   -0.0000    0.0000    0.0000    0.0001    0.0000   -0.0000   -0.0000
          22    0.0005    0.0157   -0.0136   -0.0311   -0.0311    0.0409   -0.0505   -0.0181
[...]
 TRAVEL      0.0930         C  1 -- C  4         +10.6% ( 41.8%)     92.1%
 RED. MASS   0.5238         C  1 -- H 12          +8.3% ( 36.9%)      1.7%
 EFF. MASS   5.6377

 VIBRATION   40   40A         ATOM PAIR      ENERGY CONTRIBUTION    RADIAL
 FREQ.      1395.43         C  2 -- H 13         +14.3% ( 45.5%)      0.7%
 T-DIPOLE    0.1386         C  1 -- C  4         +11.0% ( 39.9%)     99.7%
 TRAVEL      0.0979         C  2 -- H 15          +9.1% ( 36.3%)      4.9%
 RED. MASS   0.3787         C  1 -- C  3          +8.6% ( 35.2%)      0.2%
 EFF. MASS   5.0426

 VIBRATION   41   41A         ATOM PAIR      ENERGY CONTRIBUTION    RADIAL
 FREQ.      1395.57         C  2 -- H 14         +50.8% ( 62.5%)      0.1%
 T-DIPOLE    0.0677         C  2 -- H 15         +24.8% ( 43.7%)      7.0%
 TRAVEL      0.1700         C  2 -- H 13         +15.3% ( 34.2%)     18.5%
 RED. MASS   0.4096         C  2 -- C  5          +4.9% ( 19.4%)      0.9%
 EFF. MASS   1.6716

 VIBRATION   42   42A         ATOM PAIR      ENERGY CONTRIBUTION    RADIAL
 FREQ.      1414.81         C  8 -- C 10         +10.9% ( 45.0%)     97.7%
 T-DIPOLE    0.0691         C  1 -- C  3          +9.0% ( 40.8%)     72.3%
 TRAVEL      0.0799         C  2 -- H 14          +6.6% ( 35.1%)      8.9%
 RED. MASS   0.6011         C  4 -- C  8          +6.3% ( 34.1%)      0.5%
 EFF. MASS   7.4678

 VIBRATION   43   43A         ATOM PAIR      ENERGY CONTRIBUTION    RADIAL
 FREQ.      1437.94         C  2 -- C  5         +13.5% ( 53.1%)    100.0%
 T-DIPOLE    0.0307         C  2 -- H 14         +11.6% ( 49.1%)      4.7%
 TRAVEL      0.0758         C  6 -- C  9          +9.6% ( 44.6%)     99.5%
 RED. MASS   0.9214         C  2 -- H 15          +9.2% ( 43.7%)      3.6%
 EFF. MASS   8.1518

 VIBRATION   44   44A         ATOM PAIR      ENERGY CONTRIBUTION    RADIAL
 FREQ.      1511.36         C  1 -- C  3         +19.1% ( 66.4%)     98.6%
 T-DIPOLE    0.0606         C  3 -- C  7         +19.1% ( 66.3%)     85.6%
 TRAVEL      0.0627         C  3 -- C  6         +10.0% ( 48.0%)      0.0%
 RED. MASS   2.3743         C  1 -- C  4          +9.5% ( 46.7%)     81.0%
 EFF. MASS  11.3498

 VIBRATION   45   45A         ATOM PAIR      ENERGY CONTRIBUTION    RADIAL
 FREQ.      1824.82         C  7 -- C 10         +28.9% ( 80.7%)     99.5%
 T-DIPOLE    0.3334         C  8 -- C 10         +15.8% ( 59.6%)     96.3%
 TRAVEL      0.0556         C  4 -- C  8         +13.1% ( 54.4%)     97.5%
 RED. MASS   3.0698         C  3 -- C  7          +9.7% ( 46.8%)     46.5%
 EFF. MASS  11.9448

 VIBRATION   46   46A         ATOM PAIR      ENERGY CONTRIBUTION    RADIAL
 FREQ.      1839.54         C  3 -- C  6         +21.7% ( 68.5%)     99.7%
 T-DIPOLE    0.6149         C  4 -- C  8         +10.5% ( 47.8%)     99.5%
 TRAVEL      0.0556         C  5 -- C  9          +8.0% ( 41.7%)     98.5%
 RED. MASS   1.8649         C  3 -- C  7          +7.5% ( 40.4%)     10.3%
 EFF. MASS  11.8633

 VIBRATION   47   47A         ATOM PAIR      ENERGY CONTRIBUTION    RADIAL
 FREQ.      1864.67         C  4 -- C  8         +18.0% ( 62.1%)     99.7%
 T-DIPOLE    0.4876         C  5 -- C  9          +9.9% ( 46.2%)     96.8%
 TRAVEL      0.0553         C  7 -- C 10          +9.3% ( 44.6%)     97.2%
 RED. MASS   1.6043         C  3 -- C  7          +7.8% ( 41.0%)     48.7%
 EFF. MASS  11.8162

 VIBRATION   48   48A         ATOM PAIR      ENERGY CONTRIBUTION    RADIAL
 FREQ.      1874.89         C  5 -- C  9         +24.7% ( 73.8%)     94.6%
 T-DIPOLE    0.3672         C  6 -- C  9         +17.4% ( 62.0%)     57.7%
 TRAVEL      0.0552         C  3 -- C  6         +15.1% ( 57.8%)     97.7%
 RED. MASS   2.6899         C  9 -- H 18          +9.0% ( 44.5%)      1.8%
 EFF. MASS  11.8112

 VIBRATION   49   49A         ATOM PAIR      ENERGY CONTRIBUTION    RADIAL
 FREQ.      2916.34         C  1 -- H 11         +49.0% ( 72.6%)     96.5%
 T-DIPOLE    0.0789         C  1 -- H 12         +48.9% ( 72.5%)     96.5%
 TRAVEL      0.1228         C  1 -- C  3          +1.1% ( 10.8%)      0.0%
 RED. MASS   0.5175         C  1 -- C  4          +1.1% ( 10.8%)      0.0%
 EFF. MASS   1.5339

 VIBRATION   50   50A         ATOM PAIR      ENERGY CONTRIBUTION    RADIAL
 FREQ.      2995.34         C  1 -- H 12         +48.9% ( 68.9%)     97.8%
 T-DIPOLE    0.1318         C  1 -- H 11         +48.8% ( 68.8%)     97.8%
 TRAVEL      0.1327         C  1 -- C  4          +0.7% (  8.0%)     19.9%
 RED. MASS   0.4750         C  1 -- C  3          +0.6% (  7.9%)     27.7%
 EFF. MASS   1.2791

 VIBRATION   51   51A         ATOM PAIR      ENERGY CONTRIBUTION    RADIAL
 FREQ.      3015.55         C  6 -- H 21         +87.5% ( 95.0%)    100.0%
 T-DIPOLE    0.2407         C  9 -- H 18          +9.0% ( 30.5%)    100.0%
 TRAVEL      0.1212         C  6 -- C  9          +1.5% ( 12.5%)     17.5%
 RED. MASS   0.7659         C  3 -- C  6          +1.3% ( 11.6%)     32.2%
 EFF. MASS   1.5233

 VIBRATION   52   52A         ATOM PAIR      ENERGY CONTRIBUTION    RADIAL
 FREQ.      3029.34         C  9 -- H 18         +87.8% ( 94.9%)    100.0%
 T-DIPOLE    0.3125         C  6 -- H 21          +8.9% ( 30.2%)    100.0%
 TRAVEL      0.1217         C  5 -- C  9          +1.3% ( 11.7%)     37.2%
 RED. MASS   0.7646         C  6 -- C  9          +1.2% ( 11.3%)     20.2%
 EFF. MASS   1.5020

 VIBRATION   53   53A         ATOM PAIR      ENERGY CONTRIBUTION    RADIAL
 FREQ.      3038.70         C  5 -- H 17         +94.2% ( 98.5%)    100.0%
 T-DIPOLE    0.2725         C  2 -- H 14          +1.5% ( 12.2%)     98.0%
 TRAVEL      0.1211         C  5 -- C  9          +1.4% ( 12.2%)     38.0%
 RED. MASS   0.8767         C  2 -- C  5          +1.4% ( 11.9%)     11.5%
 EFF. MASS   1.5129

 VIBRATION   54   54A         ATOM PAIR      ENERGY CONTRIBUTION    RADIAL
 FREQ.      3040.66         C  7 -- H 22         +83.2% ( 92.6%)    100.0%
 T-DIPOLE    0.2770         C 10 -- H 19         +13.3% ( 37.1%)     99.9%
 TRAVEL      0.1221         C  7 -- C 10          +1.3% ( 11.5%)      9.4%
 RED. MASS   0.6984         C  3 -- C  7          +1.2% ( 11.2%)     19.7%
 EFF. MASS   1.4884

 VIBRATION   55   55A         ATOM PAIR      ENERGY CONTRIBUTION    RADIAL
 FREQ.      3051.27         C  4 -- H 16         +63.6% ( 81.0%)    100.0%
 T-DIPOLE    0.2449         C  8 -- H 20         +31.7% ( 57.2%)    100.0%
 TRAVEL      0.1227         C  4 -- C  8          +1.1% ( 10.7%)      1.8%
 RED. MASS   0.4952         C 10 -- H 19          +1.0% ( 10.3%)     99.7%
 EFF. MASS   1.4680

 VIBRATION   56   56A         ATOM PAIR      ENERGY CONTRIBUTION    RADIAL
 FREQ.      3064.80         C 10 -- H 19         +53.7% ( 74.5%)    100.0%
 T-DIPOLE    0.3428         C  4 -- H 16         +17.0% ( 42.0%)     99.9%
 TRAVEL      0.1187         C  8 -- H 20         +16.8% ( 41.6%)     99.8%
 RED. MASS   0.3522         C  7 -- H 22          +8.9% ( 30.3%)     99.7%
 EFF. MASS   1.5617

 VIBRATION   57   57A         ATOM PAIR      ENERGY CONTRIBUTION    RADIAL
 FREQ.      3067.83         C  2 -- H 13         +49.4% ( 72.5%)     97.1%
 T-DIPOLE    0.0342         C  2 -- H 15         +48.7% ( 72.0%)     97.0%
 TRAVEL      0.1210         C  2 -- C  5          +1.0% ( 10.2%)      0.0%
 RED. MASS   0.5092         C  2 -- H 14          +0.9% (  9.9%)      0.0%
 EFF. MASS   1.5005

 VIBRATION   58   58A         ATOM PAIR      ENERGY CONTRIBUTION    RADIAL
 FREQ.      3075.16         C  2 -- H 14         +61.9% ( 81.1%)     98.9%
 T-DIPOLE    0.0879         C  2 -- H 15         +17.7% ( 43.4%)     85.4%
 TRAVEL      0.1206         C  2 -- H 13         +17.1% ( 42.6%)     84.9%
 RED. MASS   0.4718         C  5 -- H 17          +2.1% ( 14.9%)    100.0%
 EFF. MASS   1.5081

 VIBRATION   59   59A         ATOM PAIR      ENERGY CONTRIBUTION    RADIAL
 FREQ.      3076.33         C  8 -- H 20         +48.2% ( 70.4%)    100.0%
 T-DIPOLE    0.4530         C 10 -- H 19         +28.8% ( 54.4%)    100.0%
 TRAVEL      0.1171         C  4 -- H 16         +15.7% ( 40.2%)     99.8%
 RED. MASS   0.3419         C  7 -- H 22          +3.5% ( 18.9%)     99.6%
 EFF. MASS   1.5984

 VIBRATION   60   60A         ATOM PAIR      ENERGY CONTRIBUTION    RADIAL
 FREQ.      3168.46         C  2 -- H 14         +35.3% ( 57.2%)     97.3%
 T-DIPOLE    0.1033         C  2 -- H 15         +32.2% ( 54.7%)     97.0%
 TRAVEL      0.1367         C  2 -- H 13         +32.2% ( 54.6%)     97.0%
 RED. MASS   0.3275         C  2 -- C  5          +0.3% (  5.4%)     99.9%
 EFF. MASS   1.1395

      SYMMETRY NUMBER FOR POINT-GROUP C1  =  1


          SYSTEM IS A GROUND STATE



 InChI=1S/C10H12/c1-2-3-7-10-8-5-4-6-9-10/h2-8H,9H2,1H3


          MOLECULE IS NOT LINEAR

          THERE ARE 60 GENUINE VIBRATIONS IN THIS SYSTEM
          THIS THERMODYNAMICS CALCULATION IS LIMITED TO
          MOLECULES WHICH HAVE NO INTERNAL ROTATIONS




                    CALCULATED THERMODYNAMIC PROPERTIES
                                          *
   TEMP. (K)   PARTITION FUNCTION   H.O.F.    ENTHALPY  HEAT CAPACITY ENTROPY
                                   KCAL/MOL   CAL/MOLE    CAL/K/MOL  CAL/K/MOL


 298.00  VIB.     0.6770D+03                  4500.1880    31.3306    28.0532
         ROT.     0.7662D+06                   888.2813     2.9808    29.9058
         INT.     0.5187D+09                  5388.4693    34.3114    57.9590
         TRA.     0.1470D+28                  1480.4688     4.9680    40.5480
         TOT.                       43.748    6868.9381    39.2794    98.5069

 200.00  VIB.     0.5691D+02                  1998.2863    20.0028    18.0226
         ROT.     0.4212D+06                   596.1620     2.9808    28.7171
         INT.     0.2397D+08                  2594.4482    22.9837    46.7397
         TRA.     0.8080D+27                   993.6033     4.9680    38.5668
         TOT.                       40.467    3588.0515    27.9517    85.3065

 210.00  VIB.     0.7318D+02                  2203.6240    21.0691    19.0242
         ROT.     0.4532D+06                   625.9700     2.9808    28.8625
         INT.     0.3317D+08                  2829.5941    24.0499    47.8868
         TRA.     0.8694D+27                  1043.2834     4.9680    38.8092
         TOT.                       40.752    3872.8775    29.0179    86.6960

 220.00  VIB.     0.9410D+02                  2419.7545    22.1612    20.0295
         ROT.     0.4860D+06                   655.7781     2.9808    29.0012
         INT.     0.4573D+08                  3075.5326    25.1420    49.0307
         TRA.     0.9322D+27                  1092.9636     4.9680    39.0403
         TOT.                       41.048    4168.4962    30.1101    88.0710

 230.00  VIB.     0.1210D+03                  2646.9306    23.2779    21.0391
         ROT.     0.5195D+06                   685.5862     2.9808    29.1337
         INT.     0.6288D+08                  3332.5168    26.2587    50.1728
         TRA.     0.9965D+27                  1142.6437     4.9680    39.2612
         TOT.                       41.354    4475.1605    31.2268    89.4340

 240.00  VIB.     0.1557D+03                  2885.3885    24.4172    22.0538
         ROT.     0.5537D+06                   715.3943     2.9808    29.2605
         INT.     0.8622D+08                  3600.7828    27.3980    51.3144
         TRA.     0.1062D+28                  1192.3239     4.9680    39.4726
         TOT.                       41.672    4793.1067    32.3661    90.7870

 250.00  VIB.     0.2004D+03                  3135.3424    25.5767    23.0740
         ROT.     0.5887D+06                   745.2024     2.9808    29.3822
         INT.     0.1180D+09                  3880.5449    28.5575    52.4563
         TRA.     0.1129D+28                  1242.0041     4.9680    39.6754
         TOT.                       42.002    5122.5489    33.5255    92.1317

 260.00  VIB.     0.2580D+03                  3396.9803    26.7535    24.1000
         ROT.     0.6244D+06                   775.0105     2.9808    29.4991
         INT.     0.1611D+09                  4171.9908    29.7343    53.5992
         TRA.     0.1198D+28                  1291.6842     4.9680    39.8703
         TOT.                       42.343    5463.6751    34.7024    93.4694

 270.00  VIB.     0.3323D+03                  3670.4612    27.9448    25.1320
         ROT.     0.6608D+06                   804.8186     2.9808    29.6116
         INT.     0.2196D+09                  4475.2798    30.9256    54.7437
         TRA.     0.1267D+28                  1341.3644     4.9680    40.0578
         TOT.                       42.696    5816.6442    35.8936    94.8014

 280.00  VIB.     0.4282D+03                  3955.9136    29.1473    26.1700
         ROT.     0.6978D+06                   834.6267     2.9808    29.7200
         INT.     0.2988D+09                  4790.5403    32.1281    55.8901
         TRA.     0.1338D+28                  1391.0445     4.9680    40.2384
         TOT.                       43.061    6181.5849    37.0962    96.1285

 290.00  VIB.     0.5522D+03                  4253.4351    30.3581    27.2139
         ROT.     0.7355D+06                   864.4348     2.9808    29.8246
         INT.     0.4061D+09                  5117.8699    33.3389    57.0386
         TRA.     0.1411D+28                  1440.7247     4.9680    40.4128
         TOT.                       43.438    6558.5946    38.3069    97.4513

 300.00  VIB.     0.7124D+03                  4563.0925    31.5740    28.2636
         ROT.     0.7739D+06                   894.2429     2.9808    29.9257
         INT.     0.5513D+09                  5457.3354    34.5548    58.1893
         TRA.     0.1484D+28                  1490.4049     4.9680    40.5812
         TOT.                       43.827    6947.7403    39.5228    98.7705

 310.00  VIB.     0.9198D+03                  4884.9229    32.7922    29.3188
         ROT.     0.8129D+06                   924.0510     2.9808    30.0234
         INT.     0.7477D+09                  5808.9739    35.7730    59.3422
         TRA.     0.1559D+28                  1540.0850     4.9680    40.7441
         TOT.                       44.228    7349.0590    40.7410   100.0863

 320.00  VIB.     0.1188D+04                  5218.9350    34.0099    30.3791
         ROT.     0.8525D+06                   953.8591     2.9808    30.1181
         INT.     0.1013D+10                  6172.7942    36.9907    60.4972
         TRA.     0.1635D+28                  1589.7652     4.9680    40.9018
         TOT.                       44.642    7762.5594    41.9587   101.3990

 330.00  VIB.     0.1536D+04                  5565.1110    35.2246    31.4443
         ROT.     0.8928D+06                   983.6672     2.9808    30.2098
         INT.     0.1372D+10                  6548.7782    38.2054    61.6541
         TRA.     0.1713D+28                  1639.4454     4.9680    41.0547
         TOT.                       45.068    8188.2236    43.1734   102.7088

 340.00  VIB.     0.1987D+04                  5923.4084    36.4338    32.5138
         ROT.     0.9337D+06                  1013.4753     2.9808    30.2988
         INT.     0.1856D+10                  6936.8838    39.4146    62.8126
         TRA.     0.1791D+28                  1689.1255     4.9680    41.2030
         TOT.                       45.505    8626.0093    44.3827   104.0156

 350.00  VIB.     0.2573D+04                  6293.7627    37.6356    33.5873
         ROT.     0.9752D+06                  1043.2834     2.9808    30.3852
         INT.     0.2509D+10                  7337.0461    40.6164    63.9725
         TRA.     0.1871D+28                  1738.8057     4.9680    41.3470
         TOT.                       45.955    9075.8518    45.5844   105.3195

 360.00  VIB.     0.3333D+04                  6676.0889    38.8279    34.6642
         ROT.     0.1017D+07                  1073.0915     2.9808    30.4692
         INT.     0.3391D+10                  7749.1804    41.8087    65.1334
         TRA.     0.1951D+28                  1788.4859     4.9680    41.4870
         TOT.                       46.417    9537.6662    46.7768   106.6204

 370.00  VIB.     0.4321D+04                  7070.2843    40.0092    35.7442
         ROT.     0.1060D+07                  1102.8996     2.9808    30.5508
         INT.     0.4580D+10                  8173.1840    42.9900    66.2951
         TRA.     0.2033D+28                  1838.1660     4.9680    41.6231
         TOT.                       46.891   10011.3500    47.9580   107.9182

 380.00  VIB.     0.5605D+04                  7476.2308    41.1779    36.8267
         ROT.     0.1103D+07                  1132.7077     2.9808    30.6303
         INT.     0.6184D+10                  8608.9385    44.1587    67.4571
         TRA.     0.2116D+28                  1887.8462     4.9680    41.7556
         TOT.                       47.376   10496.7847    49.1267   109.2127

 390.00  VIB.     0.7276D+04                  7893.7964    42.3328    37.9113
         ROT.     0.1147D+07                  1162.5158     2.9808    30.7078
         INT.     0.8346D+10                  9056.3122    45.3136    68.6191
         TRA.     0.2200D+28                  1937.5263     4.9680    41.8846
         TOT.                       47.873   10993.8385    50.2816   110.5037

 400.00  VIB.     0.9450D+04                  8322.8375    43.4729    38.9975
         ROT.     0.1191D+07                  1192.3239     2.9808    30.7832
         INT.     0.1126D+11                  9515.1614    46.4537    69.7807
         TRA.     0.2285D+28                  1987.2065     4.9680    42.0104
         TOT.                       48.382   11502.3679    51.4217   111.7911

   *: NOTE: HEATS OF FORMATION ARE RELATIVE TO THE
            ELEMENTS IN THEIR STANDARD STATE AT 298K
              (=  Standard Enthalpy of Formation).

            Hvib:  Zero-point energy is not included.
                   frequencies of less than zero cm-1 are not included.
            Hrot = (3/2)RT
            Htra = (3/2)RT + pV = (5/2)RT

            Heat capacity is Cp, not Cv

          For more information, see: HTTP://OpenMOPAC.net/Manual/thermochemistry.html


           FORCE CONSTANT IN CARTESIAN COORDINATES (Millidynes/A)

    ATOM   CHEMICAL       X               Y               Z
   NUMBER   SYMBOL  FORCE CONSTANT  FORCE CONSTANT  FORCE CONSTANT

      1       C        9.469176        8.809692        7.543443
      2       C        8.750696        8.762564        7.923195
      3       C       14.940361       10.333199        2.625441
      4       C       11.280067       13.376751        2.375830
      5       C       14.894438        9.663547        2.365360
      6       C       15.050546       10.045972        2.188883
      7       C       14.972472       10.242960        2.206109
      8       C       12.298500       13.166638        2.202905
      9       C       15.058839       10.174788        2.177941
     10       C       14.647828       10.654908        2.206729
     11       H        1.138836        1.577806        3.420579
     12       H        1.142251        1.579786        3.415806
     13       H        2.133301        0.751948        3.769124
     14       H        1.325442        4.786741        0.654652
     15       H        2.156867        0.759100        3.739524
     16       H        1.386344        4.520280        0.348485
     17       H        1.130846        4.738291        0.352853
     18       H        1.150613        4.723155        0.346747
     19       H        2.562899        3.355661        0.343919
     20       H        5.116414        0.804503        0.348480
     21       H        1.208676        4.628802        0.336634
     22       H        1.374166        4.511482        0.344348

 **********************
 *                    *
 * JOB ENDED NORMALLY *
 *                    *
 **********************



 TOTAL JOB TIME:             3.28 SECONDS

 == MOPAC DONE ==
