 *******************************************************************************
 ** Site#: 14399        For non-commercial use only    Version 18.184L 64BITS **
 *******************************************************************************
 ** Cite this program as: MOPAC2016, Version: 18.184L, James J. P. Stewart,   **
 ** Stewart Computational Chemistry, web: HTTP://OpenMOPAC.net. Days left:  18**
 *******************************************************************************
 **                                                                           **
 **                                MOPAC2016                                  **
 **                                                                           **
 *******************************************************************************

                              PM3 CALCULATION RESULTS

 *******************************************************************************
 *  CALCULATION DONE:                                Sat Jun 15 15:06:54 2019  *
 *  PM3        - The PM3 Hamiltonian to be used
 *  PRECISE    - CRITERIA TO BE INCREASED BY 100 TIMES
 *  NOSYM      - POINT-GROUP SYMMETRY SET TO C1
 *  THREADS=1  - MULTI-THREADING NOT USED
 *  T=         - A TIME OF 172800.0 SECONDS REQUESTED
 *  DUMP=N     - RESTART FILE WRITTEN EVERY  7200.000 SECONDS
 *******************************************************************************
pm3  precise nosym THREADS=1
 InChI=1S/C7H12/c1-6(2)7-4-3-5-7/h3-4,6-7H,5H2,1-2H3

   ATOM   CHEMICAL          X               Y               Z
  NUMBER   SYMBOL      (ANGSTROMS)     (ANGSTROMS)     (ANGSTROMS)
 
     1       C         -0.69170000  *  -0.09140000  *   0.37980000  *
     2       C          0.54310000  *   0.17110000  *  -0.51940000  *
     3       C          1.60230000  *  -0.79960000  *  -0.40400000  *
     4       C         -1.48550000  *  -1.30060000  *  -0.13550000  *
     5       C         -1.60420000  *   1.14280000  *   0.42220000  *
     6       C          1.47290000  *   1.20500000  *   0.04210000  *
     7       C          2.49810000  *   0.26590000  *   0.13520000  *
     8       H         -0.36170000  *  -0.30910000  *   1.42120000  *
     9       H          0.27300000  *   0.40050000  *  -1.57560000  *
    10       H          1.44050000  *  -1.60230000  *   0.34920000  *
    11       H          1.96190000  *  -1.17790000  *  -1.38620000  *
    12       H         -1.83720000  *  -1.12380000  *  -1.17480000  *
    13       H         -2.36730000  *  -1.48620000  *   0.51440000  *
    14       H         -1.06800000  *   2.00760000  *   0.86610000  *
    15       H         -1.94220000  *   1.41600000  *  -0.60060000  *
    16       H         -0.85710000  *  -2.21560000  *  -0.12290000  *
    17       H         -2.49650000  *   0.93970000  *   1.05210000  *
    18       H          3.52990000  *   0.29560000  *   0.46790000  *
    19       H          1.39000000  *   2.26240000  *   0.26900000  *
 


          CARTESIAN COORDINATES 

    NO.       ATOM           X           Y           Z

     1         C         -0.6917     -0.0914      0.3798
     2         C          0.5431      0.1711     -0.5194
     3         C          1.6023     -0.7996     -0.4040
     4         C         -1.4855     -1.3006     -0.1355
     5         C         -1.6042      1.1428      0.4222
     6         C          1.4729      1.2050      0.0421
     7         C          2.4981      0.2659      0.1352
     8         H         -0.3617     -0.3091      1.4212
     9         H          0.2730      0.4005     -1.5756
    10         H          1.4405     -1.6023      0.3492
    11         H          1.9619     -1.1779     -1.3862
    12         H         -1.8372     -1.1238     -1.1748
    13         H         -2.3673     -1.4862      0.5144
    14         H         -1.0680      2.0076      0.8661
    15         H         -1.9422      1.4160     -0.6006
    16         H         -0.8571     -2.2156     -0.1229
    17         H         -2.4965      0.9397      1.0521
    18         H          3.5299      0.2956      0.4679
    19         H          1.3900      2.2624      0.2690

  H: (PM3): J. J. P. STEWART, J. COMP. CHEM. 10, 209 (1989).
  C: (PM3): J. J. P. STEWART, J. COMP. CHEM. 10, 209 (1989).

           Empirical Formula: C7 H12  =    19 atoms



      MOLECULAR POINT GROUP   :   C1  


      RHF CALCULATION, NO. OF DOUBLY OCCUPIED LEVELS = 20


          Geometry optimization using EF

          DIAGONAL MATRIX USED AS START HESSIAN

 CYCLE:     1 TIME:   0.008 TIME LEFT:  2.00D  GRAD.:   209.773 HEAT:  32.51364
 CYCLE:     2 TIME:   0.004 TIME LEFT:  2.00D  GRAD.:    64.386 HEAT:  23.60129
 CYCLE:     3 TIME:   0.008 TIME LEFT:  2.00D  GRAD.:    66.489 HEAT:  22.72290
 CYCLE:     4 TIME:   0.004 TIME LEFT:  2.00D  GRAD.:    38.215 HEAT:  21.91947
 CYCLE:     5 TIME:   0.004 TIME LEFT:  2.00D  GRAD.:    38.036 HEAT:  21.54907
 CYCLE:     6 TIME:   0.004 TIME LEFT:  2.00D  GRAD.:    38.718 HEAT:  21.33823
 CYCLE:     7 TIME:   0.004 TIME LEFT:  2.00D  GRAD.:    37.733 HEAT:  21.08464
 CYCLE:     8 TIME:   0.004 TIME LEFT:  2.00D  GRAD.:    13.641 HEAT:  20.72427
 CYCLE:     9 TIME:   0.004 TIME LEFT:  2.00D  GRAD.:    12.588 HEAT:  20.67820
 CYCLE:    10 TIME:   0.004 TIME LEFT:  2.00D  GRAD.:     9.918 HEAT:  20.61622
 CYCLE:    11 TIME:   0.004 TIME LEFT:  2.00D  GRAD.:    13.700 HEAT:  20.59576
 CYCLE:    12 TIME:   0.004 TIME LEFT:  2.00D  GRAD.:    12.514 HEAT:  20.55398
 CYCLE:    13 TIME:   0.008 TIME LEFT:  2.00D  GRAD.:     8.567 HEAT:  20.51740
 CYCLE:    14 TIME:   0.000 TIME LEFT:  2.00D  GRAD.:     8.123 HEAT:  20.50436
 CYCLE:    15 TIME:   0.008 TIME LEFT:  2.00D  GRAD.:     4.716 HEAT:  20.48824
 CYCLE:    16 TIME:   0.004 TIME LEFT:  2.00D  GRAD.:     4.465 HEAT:  20.48227
 CYCLE:    17 TIME:   0.000 TIME LEFT:  2.00D  GRAD.:     2.759 HEAT:  20.47076
 CYCLE:    18 TIME:   0.004 TIME LEFT:  2.00D  GRAD.:     4.488 HEAT:  20.46853
 CYCLE:    19 TIME:   0.004 TIME LEFT:  2.00D  GRAD.:     3.367 HEAT:  20.46042
 CYCLE:    20 TIME:   0.004 TIME LEFT:  2.00D  GRAD.:     5.729 HEAT:  20.46001
 CYCLE:    21 TIME:   0.004 TIME LEFT:  2.00D  GRAD.:     2.281 HEAT:  20.44894
 CYCLE:    22 TIME:   0.004 TIME LEFT:  2.00D  GRAD.:     2.632 HEAT:  20.44701
 CYCLE:    23 TIME:   0.004 TIME LEFT:  2.00D  GRAD.:     1.441 HEAT:  20.44335
 CYCLE:    24 TIME:   0.000 TIME LEFT:  2.00D  GRAD.:     2.268 HEAT:  20.44212
 CYCLE:    25 TIME:   0.004 TIME LEFT:  2.00D  GRAD.:     1.310 HEAT:  20.43997
 CYCLE:    26 TIME:   0.004 TIME LEFT:  2.00D  GRAD.:     1.299 HEAT:  20.43830
 CYCLE:    27 TIME:   0.004 TIME LEFT:  2.00D  GRAD.:     1.069 HEAT:  20.43666
 CYCLE:    28 TIME:   0.004 TIME LEFT:  2.00D  GRAD.:     1.450 HEAT:  20.43512
 CYCLE:    29 TIME:   0.000 TIME LEFT:  2.00D  GRAD.:     0.952 HEAT:  20.43396
 CYCLE:    30 TIME:   0.004 TIME LEFT:  2.00D  GRAD.:     0.935 HEAT:  20.43266
 CYCLE:    31 TIME:   0.004 TIME LEFT:  2.00D  GRAD.:     1.015 HEAT:  20.43066
 CYCLE:    32 TIME:   0.004 TIME LEFT:  2.00D  GRAD.:     0.733 HEAT:  20.42963
 CYCLE:    33 TIME:   0.004 TIME LEFT:  2.00D  GRAD.:     0.554 HEAT:  20.42908
 CYCLE:    34 TIME:   0.000 TIME LEFT:  2.00D  GRAD.:     0.601 HEAT:  20.42881
 CYCLE:    35 TIME:   0.008 TIME LEFT:  2.00D  GRAD.:     0.389 HEAT:  20.42856
 CYCLE:    36 TIME:   0.000 TIME LEFT:  2.00D  GRAD.:     0.368 HEAT:  20.42826
 CYCLE:    37 TIME:   0.004 TIME LEFT:  2.00D  GRAD.:     0.541 HEAT:  20.42763
 CYCLE:    38 TIME:   0.004 TIME LEFT:  2.00D  GRAD.:     0.528 HEAT:  20.42716
 CYCLE:    39 TIME:   0.004 TIME LEFT:  2.00D  GRAD.:     0.521 HEAT:  20.42649
 CYCLE:    40 TIME:   0.004 TIME LEFT:  2.00D  GRAD.:     0.481 HEAT:  20.42611
 CYCLE:    41 TIME:   0.000 TIME LEFT:  2.00D  GRAD.:     0.411 HEAT:  20.42547
 CYCLE:    42 TIME:   0.004 TIME LEFT:  2.00D  GRAD.:     0.353 HEAT:  20.42522
 CYCLE:    43 TIME:   0.004 TIME LEFT:  2.00D  GRAD.:     0.312 HEAT:  20.42483
 CYCLE:    44 TIME:   0.004 TIME LEFT:  2.00D  GRAD.:     0.302 HEAT:  20.42452
 CYCLE:    45 TIME:   0.004 TIME LEFT:  2.00D  GRAD.:     0.193 HEAT:  20.42435
 CYCLE:    46 TIME:   0.004 TIME LEFT:  2.00D  GRAD.:     0.108 HEAT:  20.42430
 CYCLE:    47 TIME:   0.000 TIME LEFT:  2.00D  GRAD.:     0.097 HEAT:  20.42428
 CYCLE:    48 TIME:   0.004 TIME LEFT:  2.00D  GRAD.:     0.229 HEAT:  20.42426
 CYCLE:    49 TIME:   0.004 TIME LEFT:  2.00D  GRAD.:     0.094 HEAT:  20.42421
 CYCLE:    50 TIME:   0.004 TIME LEFT:  2.00D  GRAD.:     0.063 HEAT:  20.42420
 CYCLE:    51 TIME:   0.004 TIME LEFT:  2.00D  GRAD.:     0.076 HEAT:  20.42418
 CYCLE:    52 TIME:   0.004 TIME LEFT:  2.00D  GRAD.:     0.080 HEAT:  20.42417
 CYCLE:    53 TIME:   0.000 TIME LEFT:  2.00D  GRAD.:     0.064 HEAT:  20.42415
 CYCLE:    54 TIME:   0.004 TIME LEFT:  2.00D  GRAD.:     0.048 HEAT:  20.42415

     GRADIENT =  0.04772  IS LESS THAN CUTOFF =  0.05000



 -------------------------------------------------------------------------------
 pm3  precise nosym THREADS=1
 InChI=1S/C7H12/c1-6(2)7-4-3-5-7/h3-4,6-7H,5H2,1-2H3



     GEOMETRY OPTIMISED USING EIGENVECTOR FOLLOWING (EF).     
     SCF FIELD WAS ACHIEVED                                   


                              PM3 CALCULATION
                                                       MOPAC2016 (Version: 18.184L)
                                                       Sat Jun 15 15:06:54 2019
                                                       No. of days remaining =  18




          FINAL HEAT OF FORMATION =         20.42415 KCAL/MOL =      85.45463 KJ/MOL


          TOTAL ENERGY            =      -1013.58938 EV
          ELECTRONIC ENERGY       =      -4922.99702 EV  POINT GROUP:     C1  
          CORE-CORE REPULSION     =       3909.40764 EV
          COSMO AREA              =        151.74 SQUARE ANGSTROMS
          COSMO VOLUME            =        149.77 CUBIC ANGSTROMS

          GRADIENT NORM           =          0.04772 = 0.01095 PER ATOM
          IONIZATION POTENTIAL    =          9.835314 EV
          HOMO LUMO ENERGIES (EV) =         -9.835  1.038
          NO. OF FILLED LEVELS    =         20
          MOLECULAR WEIGHT        =         96.1718

          MOLECULAR DIMENSIONS (Angstroms)

            Atom       Atom       Distance
            H    18    H    13     6.17620
            H    14    H    11     4.59406
            H     9    H     8     2.85266


          SCF CALCULATIONS        =         62
 
          WALL-CLOCK TIME         =          0.203 SECONDS
          COMPUTATION TIME        =          0.185 SECONDS




   ATOM   CHEMICAL          X               Y               Z
  NUMBER   SYMBOL      (ANGSTROMS)     (ANGSTROMS)     (ANGSTROMS)
 
     1       C         -0.71756675  *  -0.07868869  *   0.37522257  *
     2       C          0.49512479  *   0.19367280  *  -0.49974912  *
     3       C          1.67006823  *  -0.85237993  *  -0.39535940  *
     4       C         -1.48689316  *  -1.28191366  *  -0.14636134  *
     5       C         -1.62060878  *   1.14354594  *   0.42212978  *
     6       C          1.50350297  *   1.19568907  *   0.05697275  *
     7       C          2.50694711  *   0.29932924  *   0.12791865  *
     8       H         -0.36562022  *  -0.30227688  *   1.41225311  *
     9       H          0.18620329  *   0.41152142  *  -1.54338178  *
    10       H          1.50596642  *  -1.67508020  *   0.31615670  *
    11       H          2.00197371  *  -1.28374157  *  -1.34989957  *
    12       H         -1.86012056  *  -1.11379216  *  -1.16562760  *
    13       H         -2.35391363  *  -1.50433759  *   0.48900890  *
    14       H         -1.08125322  *   2.02249440  *   0.79942470  *
    15       H         -2.00964531  *   1.39848878  *  -0.57293172  *
    16       H         -0.85466556  *  -2.17942027  *  -0.17137544  *
    17       H         -2.48330511  *   0.97485315  *   1.07949816  *
    18       H          3.54546778  *   0.32298253  *   0.42849144  *
    19       H          1.38044829  *   2.24526525  *   0.28785084  *

                             CARTESIAN COORDINATES

   1    C       -0.717566749    -0.078688692     0.375222566
   2    C        0.495124793     0.193672804    -0.499749122
   3    C        1.670068227    -0.852379932    -0.395359397
   4    C       -1.486893164    -1.281913660    -0.146361343
   5    C       -1.620608777     1.143545939     0.422129776
   6    C        1.503502973     1.195689067     0.056972748
   7    C        2.506947110     0.299329239     0.127918652
   8    H       -0.365620223    -0.302276875     1.412253107
   9    H        0.186203288     0.411521425    -1.543381781
  10    H        1.505966420    -1.675080204     0.316156701
  11    H        2.001973713    -1.283741569    -1.349899569
  12    H       -1.860120562    -1.113792157    -1.165627604
  13    H       -2.353913628    -1.504337593     0.489008902
  14    H       -1.081253225     2.022494396     0.799424702
  15    H       -2.009645306     1.398488781    -0.572931723
  16    H       -0.854665564    -2.179420267    -0.171375439
  17    H       -2.483305111     0.974853154     1.079498159
  18    H        3.545467782     0.322982529     0.428491437
  19    H        1.380448293     2.245265251     0.287850840


           Empirical Formula: C7 H12  =    19 atoms



      MOLECULAR POINT GROUP   :   C1  


                  EIGENVALUES  
 -40.89745 -34.49850 -27.47290 -24.50702 -24.00945 -20.17419 -17.98053 -17.52806
 -15.86048 -15.13317 -14.89246 -13.88065 -13.45311 -13.09885 -12.64617 -12.46616
 -11.79942 -11.68788 -11.48373  -9.83531   1.03762   3.21969   3.30313   3.38378
   3.72443   3.82352   3.87524   4.11904   4.13914   4.37900   4.41298   4.45638
   4.51904   4.62873   4.71308   4.92796   5.09074   5.21368   5.27112   6.17762


              NET ATOMIC CHARGES AND DIPOLE CONTRIBUTIONS

  ATOM NO.   TYPE          CHARGE      No. of ELECS.   s-Pop       p-Pop       
    1          C          -0.063762        4.0638     1.17018     2.89358
    2          C          -0.068607        4.0686     1.19176     2.87684
    3          C          -0.084811        4.0848     1.17207     2.91274
    4          C          -0.112673        4.1127     1.14204     2.97063
    5          C          -0.111505        4.1115     1.14170     2.96981
    6          C          -0.161892        4.1619     1.22081     2.94108
    7          C          -0.159260        4.1593     1.21763     2.94163
    8          H           0.066158        0.9338     0.93384
    9          H           0.078930        0.9211     0.92107
   10          H           0.065960        0.9340     0.93404
   11          H           0.061211        0.9388     0.93879
   12          H           0.039967        0.9600     0.96003
   13          H           0.039768        0.9602     0.96023
   14          H           0.041137        0.9589     0.95886
   15          H           0.039591        0.9604     0.96041
   16          H           0.040292        0.9597     0.95971
   17          H           0.039456        0.9605     0.96054
   18          H           0.124090        0.8759     0.87591
   19          H           0.125950        0.8741     0.87405
 DIPOLE           X         Y         Z       TOTAL
 POINT-CHG.    -0.108    -0.140     0.008     0.177
 HYBRID         0.026     0.034    -0.020     0.047
 SUM           -0.082    -0.106    -0.011     0.134


          ATOMIC ORBITAL ELECTRON POPULATIONS

     Atom    s        px        py        pz   
    1  C   1.17018   0.94740   0.95435   0.99183
    2  C   1.19176   0.93381   0.95204   0.99099
    3  C   1.17207   0.95393   0.95393   1.00489
    4  C   1.14204   0.99342   0.97265   1.00456
    5  C   1.14170   0.98689   0.97239   1.01053
    6  C   1.22081   0.96269   0.97469   1.00370
    7  C   1.21763   0.97562   0.96450   1.00151
    8  H   0.93384
    9  H   0.92107
   10  H   0.93404
   11  H   0.93879
   12  H   0.96003
   13  H   0.96023
   14  H   0.95886
   15  H   0.96041
   16  H   0.95971
   17  H   0.96054
   18  H   0.87591
   19  H   0.87405
 *******************************************************************************
 ** Site#: 14399        For non-commercial use only    Version 18.184L 64BITS **
 *******************************************************************************
 ** Cite this program as: MOPAC2016, Version: 18.184L, James J. P. Stewart,   **
 ** Stewart Computational Chemistry, web: HTTP://OpenMOPAC.net. Days left:  18**
 *******************************************************************************
 **                                                                           **
 **                                MOPAC2016                                  **
 **                                                                           **
 *******************************************************************************

                              PM3 CALCULATION RESULTS

 *******************************************************************************
 *  CALCULATION DONE:                                Sat Jun 15 15:06:54 2019  *
 *  PM3        - The PM3 Hamiltonian to be used
 *  OLDGEO     - PREVIOUS GEOMETRY TO BE USED
 *  PRECISE    - CRITERIA TO BE INCREASED BY 100 TIMES
 *  NOSYM      - POINT-GROUP SYMMETRY SET TO C1
 *  THREADS=1  - MULTI-THREADING NOT USED
 *  T=         - A TIME OF 172800.0 SECONDS REQUESTED
 *  DUMP=N     - RESTART FILE WRITTEN EVERY  7200.000 SECONDS
 *  THERMO     - THERMODYNAMIC QUANTITIES TO BE CALCULATED
 *******************************************************************************
oldgeo thermo nosym precise THREADS=1  pm3
 InChI=1S/C7H12/c1-6(2)7-4-3-5-7/h3-4,6-7H,5H2,1-2H3

   ATOM   CHEMICAL          X               Y               Z
  NUMBER   SYMBOL      (ANGSTROMS)     (ANGSTROMS)     (ANGSTROMS)
 
     1       C         -0.71756675  *  -0.07868869  *   0.37522257  *
     2       C          0.49512479  *   0.19367280  *  -0.49974912  *
     3       C          1.67006823  *  -0.85237993  *  -0.39535940  *
     4       C         -1.48689316  *  -1.28191366  *  -0.14636134  *
     5       C         -1.62060878  *   1.14354594  *   0.42212978  *
     6       C          1.50350297  *   1.19568907  *   0.05697275  *
     7       C          2.50694711  *   0.29932924  *   0.12791865  *
     8       H         -0.36562022  *  -0.30227688  *   1.41225311  *
     9       H          0.18620329  *   0.41152142  *  -1.54338178  *
    10       H          1.50596642  *  -1.67508020  *   0.31615670  *
    11       H          2.00197371  *  -1.28374157  *  -1.34989957  *
    12       H         -1.86012056  *  -1.11379216  *  -1.16562760  *
    13       H         -2.35391363  *  -1.50433759  *   0.48900890  *
    14       H         -1.08125322  *   2.02249440  *   0.79942470  *
    15       H         -2.00964531  *   1.39848878  *  -0.57293172  *
    16       H         -0.85466556  *  -2.17942027  *  -0.17137544  *
    17       H         -2.48330511  *   0.97485315  *   1.07949816  *
    18       H          3.54546778  *   0.32298253  *   0.42849144  *
    19       H          1.38044829  *   2.24526525  *   0.28785084  *
 


          CARTESIAN COORDINATES 

    NO.       ATOM           X           Y           Z

     1         C         -0.7176     -0.0787      0.3752
     2         C          0.4951      0.1937     -0.4997
     3         C          1.6701     -0.8524     -0.3954
     4         C         -1.4869     -1.2819     -0.1464
     5         C         -1.6206      1.1435      0.4221
     6         C          1.5035      1.1957      0.0570
     7         C          2.5069      0.2993      0.1279
     8         H         -0.3656     -0.3023      1.4123
     9         H          0.1862      0.4115     -1.5434
    10         H          1.5060     -1.6751      0.3162
    11         H          2.0020     -1.2837     -1.3499
    12         H         -1.8601     -1.1138     -1.1656
    13         H         -2.3539     -1.5043      0.4890
    14         H         -1.0813      2.0225      0.7994
    15         H         -2.0096      1.3985     -0.5729
    16         H         -0.8547     -2.1794     -0.1714
    17         H         -2.4833      0.9749      1.0795
    18         H          3.5455      0.3230      0.4285
    19         H          1.3804      2.2453      0.2879

  H: (PM3): J. J. P. STEWART, J. COMP. CHEM. 10, 209 (1989).
  C: (PM3): J. J. P. STEWART, J. COMP. CHEM. 10, 209 (1989).

           Empirical Formula: C7 H12  =    19 atoms



      MOLECULAR POINT GROUP   :   C1  


      RHF CALCULATION, NO. OF DOUBLY OCCUPIED LEVELS = 20



          HEAT OF FORMATION =      20.424146 KCALS/MOLE


          CARTESIAN COORDINATE DERIVATIVES

   NUMBER  ATOM         X            Y            Z

     1       C     -0.007774    -0.007646     0.003296
     2       C     -0.009630    -0.003754    -0.000711
     3       C     -0.013268    -0.001059     0.004958
     4       C      0.000322    -0.008825    -0.002603
     5       C     -0.005546    -0.003426    -0.002862
     6       C     -0.006490    -0.001487     0.005550
     7       C     -0.007586     0.002894     0.005962
     8       H      0.017314     0.008503    -0.005990
     9       H      0.010066     0.004395    -0.004940
    10       H     -0.008610     0.000759     0.000782
    11       H     -0.003298     0.007590     0.002434
    12       H      0.012339     0.004077    -0.003004
    13       H      0.013512     0.000290    -0.008588
    14       H     -0.001927    -0.000748     0.000983
    15       H     -0.000274    -0.000730     0.000794
    16       H      0.007791    -0.001941    -0.003099
    17       H     -0.007321     0.002883     0.003713
    18       H      0.016339     0.000793    -0.000309
    19       H     -0.005958    -0.002569     0.003633
 


          GRADIENT NORM =   0.04865

          MOLECULAR WEIGHT =   96.17



          ROTATIONAL CONSTANTS IN CM(-1)

          A =    0.16044140   B =    0.06596231   C =    0.05082072



           PRINCIPAL MOMENTS OF INERTIA IN UNITS OF 10**(-40)*GRAM-CM**2

          A =      174.4735   B =      424.3753   C =      550.8143


          ORIENTATION OF MOLECULE IN FORCE CALCULATION

    NO.       ATOM         X         Y         Z

     1          C      -1.0336   -0.1763    0.2036
     2          C       0.4864   -0.1763    0.2036
     3          C       1.1763    1.2414    0.2036
     4          C      -1.5628    0.2930    1.5495
     5          C      -1.5621   -1.5660   -0.1142
     6          C       1.1500   -0.3618   -1.1587
     7          C       1.7491    0.8449   -1.1437
     8          H      -1.3898    0.5301   -0.5859
     9          H       0.8797   -0.8613    0.9834
    10          H       0.4883    2.0996    0.1875
    11          H       1.9132    1.4058    1.0019
    12          H      -1.2437   -0.3707    2.3644
    13          H      -2.6601    0.3194    1.5571
    14          H      -1.1915   -1.9201   -1.0853
    15          H      -1.2540   -2.2997    0.6428
    16          H      -1.2048    1.3032    1.7887
    17          H      -2.6590   -1.5743   -0.1534
    18          H       2.4089    1.3892   -1.8054
    19          H       1.1070   -1.2004   -1.8407


    FIRST DERIVATIVES WILL BE USED IN THE CALCULATION OF SECOND DERIVATIVES

    FOR POINT-GROUP C1   THERE ARE   1 UNIQUE SYMMETRY FUNCTIONS.

 STEP:   1 TIME =     0.02 SECS, INTEGRAL =      0.02 TIME LEFT: 172799.98
 STEP:   2 TIME =     0.01 SECS, INTEGRAL =      0.03 TIME LEFT: 172799.97
 STEP:   3 TIME =     0.02 SECS, INTEGRAL =      0.04 TIME LEFT: 172799.96
 STEP:   4 TIME =     0.01 SECS, INTEGRAL =      0.05 TIME LEFT: 172799.95
 STEP:   5 TIME =     0.02 SECS, INTEGRAL =      0.07 TIME LEFT: 172799.93
 STEP:   6 TIME =     0.01 SECS, INTEGRAL =      0.08 TIME LEFT: 172799.92
 STEP:   7 TIME =     0.02 SECS, INTEGRAL =      0.10 TIME LEFT: 172799.90
 STEP:   8 TIME =     0.01 SECS, INTEGRAL =      0.11 TIME LEFT: 172799.89
 STEP:   9 TIME =     0.02 SECS, INTEGRAL =      0.12 TIME LEFT: 172799.88
 STEP:  10 TIME =     0.01 SECS, INTEGRAL =      0.14 TIME LEFT: 172799.86
 STEP:  11 TIME =     0.02 SECS, INTEGRAL =      0.15 TIME LEFT: 172799.85
 STEP:  12 TIME =     0.01 SECS, INTEGRAL =      0.16 TIME LEFT: 172799.84
 STEP:  13 TIME =     0.02 SECS, INTEGRAL =      0.18 TIME LEFT: 172799.82
 STEP:  14 TIME =     0.01 SECS, INTEGRAL =      0.19 TIME LEFT: 172799.81
 STEP:  15 TIME =     0.02 SECS, INTEGRAL =      0.21 TIME LEFT: 172799.79
 STEP:  16 TIME =     0.01 SECS, INTEGRAL =      0.22 TIME LEFT: 172799.78
 STEP:  17 TIME =     0.01 SECS, INTEGRAL =      0.23 TIME LEFT: 172799.77
 STEP:  18 TIME =     0.01 SECS, INTEGRAL =      0.24 TIME LEFT: 172799.76
 STEP:  19 TIME =     0.02 SECS, INTEGRAL =      0.26 TIME LEFT: 172799.74
 STEP:  20 TIME =     0.02 SECS, INTEGRAL =      0.27 TIME LEFT: 172799.73
 STEP:  21 TIME =     0.01 SECS, INTEGRAL =      0.29 TIME LEFT: 172799.71
 STEP:  22 TIME =     0.02 SECS, INTEGRAL =      0.30 TIME LEFT: 172799.70
 STEP:  23 TIME =     0.01 SECS, INTEGRAL =      0.31 TIME LEFT: 172799.69
 STEP:  24 TIME =     0.02 SECS, INTEGRAL =      0.33 TIME LEFT: 172799.67
 STEP:  25 TIME =     0.02 SECS, INTEGRAL =      0.34 TIME LEFT: 172799.66
 STEP:  26 TIME =     0.01 SECS, INTEGRAL =      0.36 TIME LEFT: 172799.64
 STEP:  27 TIME =     0.02 SECS, INTEGRAL =      0.37 TIME LEFT: 172799.63
 STEP:  28 TIME =     0.01 SECS, INTEGRAL =      0.38 TIME LEFT: 172799.62
 STEP:  29 TIME =     0.01 SECS, INTEGRAL =      0.39 TIME LEFT: 172799.61
 STEP:  30 TIME =     0.01 SECS, INTEGRAL =      0.41 TIME LEFT: 172799.59
 STEP:  31 TIME =     0.01 SECS, INTEGRAL =      0.42 TIME LEFT: 172799.58
 STEP:  32 TIME =     0.02 SECS, INTEGRAL =      0.43 TIME LEFT: 172799.57
 STEP:  33 TIME =     0.01 SECS, INTEGRAL =      0.45 TIME LEFT: 172799.55
 STEP:  34 TIME =     0.02 SECS, INTEGRAL =      0.46 TIME LEFT: 172799.54
 STEP:  35 TIME =     0.01 SECS, INTEGRAL =      0.47 TIME LEFT: 172799.53
 STEP:  36 TIME =     0.02 SECS, INTEGRAL =      0.49 TIME LEFT: 172799.51
 STEP:  37 TIME =     0.01 SECS, INTEGRAL =      0.50 TIME LEFT: 172799.50
 STEP:  38 TIME =     0.01 SECS, INTEGRAL =      0.51 TIME LEFT: 172799.49
 STEP:  39 TIME =     0.01 SECS, INTEGRAL =      0.52 TIME LEFT: 172799.48
 STEP:  40 TIME =     0.01 SECS, INTEGRAL =      0.54 TIME LEFT: 172799.46
 STEP:  41 TIME =     0.02 SECS, INTEGRAL =      0.55 TIME LEFT: 172799.45
 STEP:  42 TIME =     0.01 SECS, INTEGRAL =      0.56 TIME LEFT: 172799.44
 STEP:  43 TIME =     0.02 SECS, INTEGRAL =      0.58 TIME LEFT: 172799.42
 STEP:  44 TIME =     0.01 SECS, INTEGRAL =      0.59 TIME LEFT: 172799.41
 STEP:  45 TIME =     0.01 SECS, INTEGRAL =      0.60 TIME LEFT: 172799.40
 STEP:  46 TIME =     0.02 SECS, INTEGRAL =      0.62 TIME LEFT: 172799.38
 STEP:  47 TIME =     0.01 SECS, INTEGRAL =      0.63 TIME LEFT: 172799.37
 STEP:  48 TIME =     0.02 SECS, INTEGRAL =      0.64 TIME LEFT: 172799.36
 STEP:  49 TIME =     0.01 SECS, INTEGRAL =      0.66 TIME LEFT: 172799.34
 STEP:  50 TIME =     0.02 SECS, INTEGRAL =      0.67 TIME LEFT: 172799.33
 STEP:  51 TIME =     0.01 SECS, INTEGRAL =      0.68 TIME LEFT: 172799.32
 STEP:  52 TIME =     0.02 SECS, INTEGRAL =      0.70 TIME LEFT: 172799.30
 STEP:  53 TIME =     0.02 SECS, INTEGRAL =      0.71 TIME LEFT: 172799.29
 STEP:  54 TIME =     0.01 SECS, INTEGRAL =      0.73 TIME LEFT: 172799.27
 STEP:  55 TIME =     0.02 SECS, INTEGRAL =      0.74 TIME LEFT: 172799.26
 STEP:  56 TIME =     0.01 SECS, INTEGRAL =      0.75 TIME LEFT: 172799.25
 STEP:  57 TIME =     0.02 SECS, INTEGRAL =      0.77 TIME LEFT: 172799.23

(To convert to Hartree/Bohr^2, multiply by (10^(-21) x N x a0^2)/(4.184 x 627.51) =  0.0642)


           FORCE MATRIX IN MILLIDYNES/ANGSTROM


                  C  1       C  2       C  3       C  4       C  5       C  6
 ------------------------------------------------------------------------------
     C    1  14.498113
     C    2   4.096347  14.367258
     C    3   0.477011   2.841710  14.268107
     C    4   4.180995   0.660739   0.039202  14.366195
     C    5   4.183961   0.660884   0.047874   0.678683  14.369562
     C    6   0.527304   3.848416   2.265373   0.048367   0.044458  18.326477
     C    7   0.048360   2.240726   4.173401   0.008653   0.006459  10.359037
     H    8   4.213851   0.431823   0.021713   0.418204   0.418207   0.017003
     H    9   0.440612   4.419554   0.414029   0.023615   0.022743   0.414460
     H   10   0.022110   0.432302   4.680169   0.011389   0.002224   0.040641
     H   11   0.026540   0.421520   4.720197   0.001688   0.005544   0.040070
     H   12   0.467630   0.023428   0.002406   4.715631   0.022557   0.001565
     H   13   0.455773   0.050628   0.002336   4.743973   0.026331   0.008631
     H   14   0.455291   0.027403   0.002398   0.051515   4.727248   0.009185
     H   15   0.468052   0.022457   0.001323   0.022992   4.714867   0.002860
     H   16   0.455431   0.025215   0.010439   4.725263   0.051676   0.001736
     H   17   0.456004   0.050403   0.008052   0.025653   4.744472   0.003262
     H   18   0.015875   0.114482   0.341455   0.002150   0.001152   0.424319
     H   19   0.009679   0.338353   0.113155   0.002573   0.009023   5.271303


                  C  7       H  8       H  9       H 10       H 11       H 12
 ------------------------------------------------------------------------------
     C    7  18.437296
     H    8   0.003482   4.687267
     H    9   0.042901   0.041047   4.935118
     H   10   0.433613   0.018041   0.024007   5.303229
     H   11   0.434586   0.001333   0.026173   0.531615   5.337658
     H   12   0.000863   0.044696   0.016858   0.000484   0.000421   5.458241
     H   13   0.001484   0.029856   0.001745   0.000595   0.000327   0.571880
     H   14   0.000553   0.028810   0.001822   0.000434   0.000324   0.002038
     H   15   0.000740   0.044988   0.015468   0.000496   0.000304   0.016387
     H   16   0.001419   0.029371   0.001845   0.020931   0.000888   0.569701
     H   17   0.000789   0.030306   0.001673   0.000573   0.000995   0.001748
     H   18   5.282147   0.001239   0.013870   0.005785   0.005633   0.000186
     H   19   0.422625   0.002271   0.005579   0.014996   0.014635   0.000727


                  H 13       H 14       H 15       H 16       H 17       H 18
 ------------------------------------------------------------------------------
     H   13   5.479145
     H   14   0.002077   5.464223
     H   15   0.001819   0.570327   5.457463
     H   16   0.566715   0.008975   0.002068   5.463507
     H   17   0.019691   0.564991   0.571888   0.002087   5.478671
     H   18   0.000443   0.000541   0.000252   0.000488   0.000215   5.667415
     H   19   0.000641   0.016716   0.000632   0.000602   0.000875   0.029654


                  H 19
 ------------------
     H   19   5.658912


          HEAT OF FORMATION =      20.424146 KCALS/MOLE

          ZERO POINT ENERGY     107.124 KCAL/MOL


           NORMAL COORDINATE ANALYSIS (Total motion = 1 Angstrom)


   Root No.       1         2         3         4         5         6         7         8

                 1 A       2 A       3 A       4 A       5 A       6 A       7 A       8 A   

                  90.8     191.6     199.6     211.2     236.7     356.7     432.2     445.7
  
           1   -0.0003   -0.0004   -0.0160   -0.0052   -0.0170   -0.0172    0.0213   -0.0200
           2   -0.0130   -0.0024   -0.0004   -0.0093    0.0101    0.0068   -0.0007    0.0416
           3   -0.0121   -0.0023   -0.0055   -0.0048    0.0080   -0.0049    0.0405   -0.0129
           4   -0.0003   -0.0005   -0.0165   -0.0057   -0.0174   -0.0235    0.0192   -0.0174
           5   -0.0187    0.0009    0.0083   -0.0033    0.0278   -0.0028   -0.0311   -0.0093
           6   -0.0173    0.0002   -0.0204   -0.0174   -0.0119    0.0020   -0.0081   -0.0281
           7    0.0110   -0.0008   -0.0120   -0.0280    0.0282   -0.0258   -0.0316   -0.0108
           8   -0.0245    0.0011    0.0060    0.0088    0.0048   -0.0089   -0.0153   -0.0262
           9    0.0315    0.0008   -0.0071   -0.0092   -0.0085    0.0108   -0.0111    0.0041
          10    0.0007   -0.0053    0.0112    0.0270   -0.0308    0.0417   -0.0301   -0.0125
          11    0.0332    0.0056   -0.0048   -0.0042   -0.0183    0.0349    0.0189   -0.0069
          12   -0.0281   -0.0072    0.0079    0.0075    0.0125    0.0071    0.0173    0.0127
          13   -0.0015    0.0063   -0.0131   -0.0266    0.0271    0.0465    0.0165    0.0252
          14   -0.0242   -0.0071   -0.0049   -0.0040   -0.0100   -0.0094    0.0172    0.0214
          15    0.0372    0.0064    0.0086    0.0111    0.0125   -0.0330   -0.0041    0.0197
          16   -0.0101   -0.0001    0.0091    0.0227   -0.0305   -0.0287    0.0036    0.0400
          17    0.0271    0.0012    0.0058    0.0040    0.0147   -0.0083    0.0017   -0.0189
          18   -0.0285    0.0006   -0.0069   -0.0041   -0.0176    0.0045   -0.0306   -0.0054
          19   -0.0003    0.0007    0.0372    0.0180    0.0369   -0.0124    0.0121   -0.0127
          20    0.0217    0.0008   -0.0081    0.0065   -0.0193   -0.0166   -0.0027    0.0078
          21    0.0133    0.0015    0.0181    0.0119    0.0015    0.0182    0.0045   -0.0070
          22    0.0002   -0.0009   -0.0361   -0.0129   -0.0383   -0.0331    0.0370   -0.0363
          23   -0.0392   -0.0073   -0.0037   -0.0090    0.0045    0.0032    0.0136    0.0467
          24   -0.0355   -0.0064    0.0013   -0.0009    0.0136   -0.0007    0.0434    0.0021
          25   -0.0006   -0.0006   -0.0146   -0.0011   -0.0130   -0.0300    0.0500   -0.0530
          26   -0.0490    0.0023    0.0078    0.0019    0.0191   -0.0076   -0.0412   -0.0271
          27   -0.0437    0.0015   -0.0201   -0.0148   -0.0202    0.0020   -0.0339   -0.0244
          28    0.0190   -0.0003   -0.0115   -0.0428    0.0537   -0.0245   -0.0781    0.0035
          29   -0.0174    0.0015    0.0060   -0.0031    0.0246   -0.0074   -0.0508   -0.0148
          30    0.0669   -0.0012   -0.0467   -0.0434   -0.0262   -0.0070   -0.0581    0.0512
          31    0.0172   -0.0022   -0.0459   -0.0586    0.0188   -0.0402   -0.0719    0.0040
          32   -0.0611    0.0013    0.0157    0.0323   -0.0132   -0.0041    0.0467   -0.0712
          33    0.0335    0.0019    0.0219    0.0139    0.0040    0.0227    0.0115    0.0011
          34    0.0038   -0.1403    0.1005   -0.0363   -0.0707    0.0574   -0.0643    0.0003
          35    0.0625   -0.0788    0.0399   -0.0582   -0.0559    0.0395    0.0422   -0.0403
          36   -0.0055   -0.0233    0.0095   -0.0114   -0.0024    0.0046    0.0480   -0.0186
          37    0.0005   -0.0020    0.0096    0.0295   -0.0302    0.0441   -0.0318   -0.0130
          38    0.0301    0.1585   -0.0865    0.0923    0.0150    0.0706    0.0069   -0.0219
          39   -0.0279   -0.0634    0.0614    0.0016   -0.0125    0.0537   -0.0392    0.0226
          40    0.0016   -0.1147   -0.0910    0.0318    0.0914    0.0977    0.0261    0.0453
          41   -0.0599    0.0521    0.0271   -0.0540   -0.0307    0.0243    0.0542    0.0075
          42    0.0514   -0.0611   -0.0326    0.0516    0.0444   -0.0272   -0.0147    0.0325
          43   -0.0051    0.1388    0.0718   -0.1069   -0.0030    0.0599    0.0071    0.0607
          44    0.0029   -0.0315   -0.0155    0.0145    0.0168   -0.0064   -0.0121    0.0595
          45    0.0651   -0.0709   -0.0361    0.0617    0.0513   -0.0356   -0.0293    0.0442
          46   -0.0031    0.1224   -0.0522    0.1148   -0.0038    0.0864   -0.0566   -0.0229
          47    0.0427   -0.0555    0.0278   -0.0434   -0.0378    0.0279    0.0297   -0.0145
          48   -0.0625    0.0609   -0.0356    0.0426    0.0536   -0.0250    0.0111    0.0567
          49   -0.0014    0.0012   -0.0165   -0.0241    0.0299    0.0495    0.0172    0.0265
          50   -0.0245   -0.0458   -0.0303    0.0329   -0.0335   -0.0630    0.0223   -0.0324
          51    0.0339    0.1592    0.1068   -0.0674   -0.0525   -0.0700   -0.0177    0.0208
          52    0.0003    0.0016    0.0775    0.0370    0.0816    0.0040    0.0339   -0.0372
          53    0.0414    0.0008   -0.0232    0.0078   -0.0532   -0.0241    0.0066    0.0399
          54    0.0301    0.0023    0.0458    0.0318    0.0182    0.0288    0.0338   -0.0050
          55   -0.0221   -0.0022    0.0091    0.0451   -0.0744   -0.0385   -0.0012    0.1188
          56    0.0526    0.0016    0.0106    0.0038    0.0273   -0.0031    0.0235   -0.0418
          57   -0.0592    0.0004   -0.0125   -0.0052   -0.0306   -0.0013   -0.0570    0.0181


   Root No.       9        10        11        12        13        14        15        16

                 9 A      10 A      11 A      12 A      13 A      14 A      15 A      16 A   

                 511.8     758.5     839.9     899.8     912.9     956.9     959.6     967.1
  
           1   -0.0255    0.0221   -0.0224   -0.0051    0.0072    0.0015   -0.0088    0.0105
           2   -0.0280   -0.0077    0.0101    0.0039   -0.0049    0.0104   -0.0058    0.0095
           3    0.0328    0.0082   -0.0106   -0.0006    0.0065    0.0035    0.0156   -0.0052
           4   -0.0135   -0.0040    0.0117    0.0063   -0.0148    0.0056   -0.0152   -0.0025
           5    0.0085    0.0132   -0.0332   -0.0111    0.0112    0.0150   -0.0283   -0.0096
           6   -0.0134   -0.0130    0.0314   -0.0189    0.0085    0.0024   -0.0054   -0.0168
           7    0.0218   -0.0165    0.0134    0.0421   -0.0050   -0.0009    0.0012   -0.0051
           8    0.0003    0.0110   -0.0116    0.0335   -0.0408   -0.0074    0.0183    0.0144
           9   -0.0072    0.0039   -0.0140    0.0253   -0.0015    0.0058   -0.0135    0.0027
          10   -0.0145    0.0079   -0.0090   -0.0037    0.0088    0.0030    0.0181    0.0177
          11    0.0264   -0.0046    0.0059    0.0015   -0.0082    0.0272   -0.0173    0.0179
          12    0.0269   -0.0076    0.0030    0.0003   -0.0099   -0.0086   -0.0273    0.0160
          13   -0.0128    0.0062   -0.0101   -0.0065    0.0106   -0.0061   -0.0091   -0.0096
          14   -0.0276    0.0061   -0.0051   -0.0043    0.0071   -0.0186    0.0218   -0.0189
          15   -0.0222    0.0036   -0.0049   -0.0010    0.0071    0.0181    0.0293   -0.0156
          16    0.0311   -0.0238   -0.0086   -0.0261   -0.0253    0.0014    0.0013    0.0005
          17    0.0029   -0.0018    0.0269   -0.0067    0.0372   -0.0042    0.0057    0.0049
          18    0.0018   -0.0126    0.0112   -0.0202    0.0176   -0.0097    0.0234    0.0225
          19    0.0066   -0.0246    0.0022   -0.0154    0.0310    0.0006    0.0015    0.0064
          20    0.0152   -0.0013    0.0213   -0.0147    0.0106   -0.0037    0.0048    0.0026
          21   -0.0164    0.0007   -0.0219    0.0269   -0.0280   -0.0019    0.0057   -0.0064
          22   -0.0515    0.0240    0.0132   -0.0078   -0.0067   -0.0031   -0.0190    0.0133
          23   -0.0311   -0.0070    0.0140    0.0086   -0.0157   -0.0653    0.0005    0.0366
          24    0.0407    0.0057   -0.0202    0.0055    0.0008   -0.0614    0.0229    0.0193
          25   -0.0104    0.0315   -0.0008    0.0329   -0.0336    0.0056   -0.0190   -0.0092
          26    0.0110    0.0115   -0.0588   -0.0846   -0.0326    0.0235   -0.0611   -0.0664
          27   -0.0114   -0.0305    0.0121   -0.0994   -0.0176    0.0098   -0.0324   -0.0631
          28    0.0566    0.0225   -0.0645    0.0042   -0.0040   -0.0266    0.0287   -0.0196
          29    0.0265    0.0407   -0.0726    0.0055   -0.0398   -0.0267    0.0378    0.0024
          30    0.0392    0.1009   -0.0118   -0.1191   -0.0809    0.0148    0.0044    0.0475
          31    0.0518    0.0414    0.0454   -0.0304   -0.1022   -0.0027    0.0281   -0.0103
          32   -0.0572   -0.0683    0.0773    0.1579   -0.0595    0.0145   -0.0191   -0.0168
          33   -0.0210   -0.0290   -0.0653    0.0604    0.0890    0.0032   -0.0309    0.0135
          34   -0.0274   -0.0157    0.0350    0.0027   -0.0081    0.0484   -0.0128   -0.0474
          35    0.0633    0.0065   -0.0218   -0.0041    0.0067   -0.0948    0.0017   -0.0036
          36    0.0602    0.0098   -0.0349   -0.0069    0.0080   -0.1211   -0.0015    0.0232
          37   -0.0136    0.0068   -0.0071   -0.0037    0.0083    0.0013    0.0167    0.0124
          38    0.0559   -0.0127    0.0139    0.0008   -0.0080   -0.0519   -0.0254   -0.0514
          39    0.0306   -0.0488    0.0718    0.0086   -0.0387    0.0093   -0.0902   -0.1106
          40    0.0139   -0.0116    0.0182    0.0101   -0.0067    0.0296    0.0947   -0.0206
          41    0.0283    0.0087   -0.0118    0.0029    0.0226    0.1015    0.1750   -0.0738
          42   -0.0337   -0.0038    0.0080    0.0024   -0.0049   -0.0156    0.0098    0.0006
          43   -0.0233   -0.0181    0.0338    0.0104   -0.0239   -0.0529    0.0189    0.0168
          44   -0.0650   -0.0143    0.0317    0.0045   -0.0264   -0.1286   -0.0327    0.0246
          45   -0.0559   -0.0071    0.0150    0.0012   -0.0128   -0.0738   -0.0366    0.0181
          46    0.0108   -0.0099    0.0158   -0.0005    0.0045   -0.0543    0.0080   -0.0816
          47    0.0317    0.0018   -0.0064   -0.0005   -0.0024    0.0050   -0.0078    0.0284
          48   -0.0279   -0.0088    0.0184    0.0035   -0.0277    0.1548   -0.0552    0.1116
          49   -0.0115    0.0051   -0.0081   -0.0054    0.0093   -0.0045   -0.0034   -0.0095
          50   -0.0373    0.0497   -0.0766   -0.0369    0.0621   -0.0020   -0.0688   -0.0569
          51   -0.0507    0.0081   -0.0071   -0.0063    0.0058   -0.0460   -0.0493    0.0023
          52   -0.0051    0.1756    0.1332   -0.0970   -0.0440   -0.0035   -0.0011    0.0037
          53    0.0221   -0.1036   -0.0578   -0.0027    0.0302    0.0163   -0.0451   -0.0665
          54   -0.0230    0.1167    0.0426   -0.0442   -0.0868    0.0105   -0.0382   -0.0657
          55    0.0905    0.1383    0.0560    0.1823    0.0588    0.0011   -0.0080   -0.0612
          56   -0.0202   -0.0912   -0.0001   -0.0772   -0.0837   -0.0132    0.0533   -0.0030
          57    0.0266    0.0874    0.0409    0.0525    0.1624    0.0011   -0.0346    0.0358


   Root No.      17        18        19        20        21        22        23        24

                17 A      18 A      19 A      20 A      21 A      22 A      23 A      24 A   

                 985.7     993.8    1004.5    1025.5    1037.7    1121.6    1136.8    1144.8
  
           1   -0.0009   -0.0067   -0.0028    0.0017    0.0012   -0.0019    0.0085    0.0037
           2   -0.0036    0.0017   -0.0044    0.0010    0.0014    0.0210    0.0246    0.0074
           3   -0.0029   -0.0001    0.0049   -0.0009    0.0039    0.0267   -0.0199    0.0032
           4   -0.0039    0.0076    0.0232    0.0037    0.0014    0.0027   -0.0011   -0.0117
           5   -0.0097    0.0295    0.0132   -0.0002   -0.0039    0.0130   -0.0043    0.0570
           6   -0.0170   -0.0117   -0.0050   -0.0004   -0.0110    0.0134   -0.0053    0.0334
           7    0.0003    0.0144   -0.0162    0.0199    0.0085   -0.0087   -0.0012   -0.0200
           8    0.0164   -0.0146    0.0064   -0.0041    0.0011   -0.0090    0.0115   -0.0250
           9    0.0064    0.0266    0.0153    0.0202   -0.0118    0.0001    0.0038    0.0099
          10   -0.0187    0.0121   -0.0139   -0.0029   -0.0048   -0.0001   -0.0062    0.0050
          11    0.0001   -0.0130   -0.0026    0.0016    0.0016    0.0030   -0.0129   -0.0080
          12    0.0006   -0.0041   -0.0065    0.0025   -0.0029   -0.0421    0.0150    0.0072
          13    0.0259   -0.0046   -0.0183   -0.0029   -0.0014    0.0021   -0.0040   -0.0079
          14    0.0037    0.0040    0.0073   -0.0024   -0.0014   -0.0323   -0.0264   -0.0041
          15    0.0051    0.0056    0.0002    0.0018    0.0013   -0.0005    0.0173   -0.0030
          16    0.0081    0.0134    0.0024    0.0223    0.0108    0.0037    0.0001    0.0127
          17   -0.0010   -0.0116   -0.0025   -0.0104   -0.0112   -0.0016    0.0004   -0.0054
          18    0.0197   -0.0040   -0.0059    0.0068    0.0148    0.0013   -0.0132    0.0021
          19    0.0001   -0.0097    0.0118   -0.0441   -0.0169   -0.0002    0.0050   -0.0042
          20    0.0021    0.0015   -0.0070    0.0205    0.0114   -0.0030   -0.0009   -0.0111
          21   -0.0045   -0.0151   -0.0104   -0.0300   -0.0015   -0.0020   -0.0032   -0.0098
          22   -0.0279   -0.1129    0.0394    0.0139    0.0171   -0.0556    0.1871    0.1110
          23   -0.0396   -0.0061    0.0072    0.0015    0.0123    0.2483    0.1182   -0.0418
          24   -0.0235    0.0389   -0.0030   -0.0052    0.0067    0.2538   -0.0170   -0.0895
          25   -0.0119   -0.0341    0.1104   -0.0203    0.0343    0.0359   -0.1255    0.0054
          26   -0.0927    0.0149    0.0128    0.0303   -0.1004   -0.0303   -0.0090   -0.1678
          27   -0.0863   -0.0045   -0.0478    0.0397   -0.1119   -0.0402    0.0500   -0.1728
          28   -0.0373   -0.1185   -0.0185    0.0837    0.0809    0.0081   -0.0151    0.0265
          29   -0.0132   -0.1152    0.0051    0.0462    0.0567    0.0050    0.0027    0.0127
          30    0.0499    0.0347    0.0802   -0.1498   -0.1061   -0.0075    0.0345   -0.0571
          31    0.0116    0.0106   -0.0398   -0.1659    0.0011    0.0047   -0.0101    0.0476
          32    0.0227    0.1248   -0.0456   -0.0451   -0.0079   -0.0054    0.0154    0.0246
          33   -0.0067   -0.0016    0.0508    0.1979   -0.0043   -0.0126    0.0111   -0.0637
          34    0.0338   -0.0422    0.0352    0.0031    0.0136    0.0548   -0.0181   -0.0091
          35   -0.0095    0.0383   -0.0083   -0.0044   -0.0110   -0.0358    0.0500    0.0167
          36   -0.0266    0.0558   -0.0293   -0.0043   -0.0201   -0.0954    0.0693    0.0317
          37   -0.0159    0.0102   -0.0108   -0.0026   -0.0041    0.0007   -0.0040    0.0062
          38    0.0335   -0.0007    0.0291   -0.0015    0.0013    0.0011    0.0337    0.0024
          39    0.0963   -0.0731    0.0767    0.0114    0.0180    0.0092    0.0286   -0.0234
          40   -0.0376    0.0127    0.0423    0.0068    0.0053   -0.0382    0.0132    0.0020
          41   -0.0078    0.0345    0.0325    0.0108    0.0058   -0.0570    0.0467   -0.0080
          42   -0.0142    0.0006    0.0131    0.0003    0.0007   -0.0038   -0.0048    0.0018
          43   -0.0541   -0.0046    0.0456   -0.0002    0.0020   -0.0422   -0.0367    0.0070
          44   -0.0515   -0.0089    0.0441   -0.0087   -0.0053   -0.0558   -0.1055    0.0029
          45   -0.0186   -0.0079    0.0117   -0.0056   -0.0036   -0.0041   -0.0477   -0.0014
          46    0.0321   -0.0010    0.0374    0.0004    0.0068    0.0274    0.0239    0.0100
          47   -0.0117    0.0040   -0.0135   -0.0006   -0.0035   -0.0084   -0.0036   -0.0014
          48   -0.0225   -0.0522   -0.0328    0.0056    0.0002   -0.0273   -0.0576   -0.0274
          49    0.0218   -0.0044   -0.0145   -0.0023   -0.0006    0.0002   -0.0017   -0.0073
          50    0.1413   -0.0132   -0.1032   -0.0130   -0.0160    0.0206   -0.0193   -0.0331
          51    0.0226   -0.0120   -0.0223   -0.0059   -0.0086    0.0146   -0.0277   -0.0029
          52    0.0127    0.0440   -0.0124    0.1267    0.0421   -0.0007    0.0002    0.0008
          53   -0.0834   -0.0111   -0.0368   -0.1509    0.1732   -0.0101    0.0045   -0.0145
          54   -0.0621    0.0283   -0.0588   -0.0007    0.1900   -0.0078   -0.0044   -0.0058
          55   -0.0572   -0.0748   -0.0491   -0.0163   -0.1850    0.0337   -0.0274    0.0662
          56    0.0160   -0.0324   -0.0457    0.0647   -0.0933    0.0330   -0.0360    0.0798
          57    0.0025    0.0262    0.0495   -0.0835    0.1270   -0.0421    0.0317   -0.1037


   Root No.      25        26        27        28        29        30        31        32

                25 A      26 A      27 A      28 A      29 A      30 A      31 A      32 A   

                1165.0    1191.3    1208.6    1244.9    1285.1    1310.6    1392.7    1403.2
  
           1    0.0111   -0.0146    0.0008    0.0603   -0.0114    0.0115   -0.0244   -0.0005
           2   -0.0323    0.0213    0.0038    0.0074    0.0381    0.0404   -0.0014   -0.0054
           3    0.0352   -0.0282    0.0028   -0.0090    0.0383    0.0315    0.0025   -0.0046
           4   -0.0465   -0.0031   -0.0007    0.0250   -0.0029   -0.0004    0.0373   -0.0001
           5    0.0112   -0.0013    0.0067    0.0208    0.0022   -0.0198    0.0061    0.0013
           6   -0.0386   -0.0224    0.0035   -0.0319    0.0135   -0.0257   -0.0159    0.0014
           7    0.0210    0.0088    0.0301   -0.0005    0.0176   -0.0154   -0.0064    0.0005
           8   -0.0149   -0.0261    0.0267   -0.0198    0.0010    0.0006    0.0093    0.0008
           9    0.0021   -0.0115   -0.0317   -0.0222   -0.0344    0.0288    0.0116    0.0000
          10   -0.0026    0.0019    0.0005   -0.0194    0.0046   -0.0045   -0.0043   -0.0143
          11    0.0085   -0.0073   -0.0030    0.0003   -0.0099   -0.0069    0.0068    0.0180
          12   -0.0150    0.0152   -0.0012    0.0026   -0.0058   -0.0004    0.0226   -0.0038
          13    0.0000    0.0042   -0.0011   -0.0188    0.0016   -0.0008   -0.0023    0.0126
          14    0.0111   -0.0133   -0.0018   -0.0022   -0.0050   -0.0015   -0.0201    0.0001
          15   -0.0077    0.0110   -0.0015    0.0000   -0.0089   -0.0065   -0.0037    0.0190
          16    0.0030   -0.0087   -0.0215   -0.0179    0.0146   -0.0110   -0.0091    0.0001
          17   -0.0008    0.0029   -0.0154    0.0035   -0.0015    0.0015   -0.0011   -0.0001
          18    0.0187    0.0346    0.0287    0.0289   -0.0238    0.0215    0.0094   -0.0005
          19   -0.0078   -0.0098    0.0032   -0.0128   -0.0134    0.0123    0.0004   -0.0001
          20    0.0088    0.0090   -0.0177    0.0086    0.0178   -0.0102   -0.0032   -0.0005
          21    0.0050    0.0177   -0.0211    0.0317    0.0395   -0.0308   -0.0007   -0.0000
          22    0.2191    0.0363    0.0117   -0.1003    0.0160   -0.0191    0.0304    0.0004
          23    0.0387    0.0476   -0.0073   -0.0306   -0.0712   -0.0755    0.0111    0.0074
          24    0.0047   -0.0314   -0.0123    0.0315   -0.0718   -0.0580   -0.0109    0.0064
          25   -0.0297    0.2787    0.0000   -0.1141    0.0023    0.0058   -0.0484    0.0003
          26    0.0806    0.1245   -0.0461   -0.0184   -0.0127    0.0521   -0.0060   -0.0027
          27    0.0144   -0.0518   -0.0431    0.0044   -0.0037    0.0359    0.0157   -0.0024
          28   -0.0629   -0.0154   -0.1181   -0.0222   -0.0521    0.0477   -0.0449   -0.0066
          29   -0.0800   -0.0478   -0.0872   -0.0402   -0.0542    0.0510   -0.0301   -0.0052
          30   -0.0130   -0.0433    0.1461   -0.0622    0.0135   -0.0008   -0.0810   -0.0011
          31    0.0266    0.0195   -0.1253    0.0249   -0.0297    0.0223    0.0475    0.0015
          32    0.0703   -0.0140   -0.0760   -0.0668   -0.0715    0.0686   -0.0964   -0.0059
          33   -0.0241   -0.0248    0.1333   -0.0394    0.0237   -0.0191   -0.0233    0.0001
          34    0.0505   -0.0329    0.0015    0.0069    0.0255    0.0284    0.0406   -0.0133
          35   -0.0431    0.0378    0.0058    0.0144   -0.0204   -0.0219   -0.0651    0.0574
          36   -0.0750    0.0626    0.0052    0.0062   -0.0266   -0.0293   -0.0643    0.0448
          37   -0.0004    0.0012    0.0009   -0.0176    0.0073   -0.0010   -0.0009   -0.0095
          38   -0.0117    0.0141    0.0079    0.0363   -0.0120   -0.0073   -0.0195   -0.1871
          39    0.0203   -0.0200    0.0005    0.1011   -0.0647   -0.0357   -0.0996   -0.0127
          40    0.0123   -0.0049   -0.0015    0.0172   -0.0438   -0.0421    0.0156   -0.1776
          41   -0.0173    0.0261   -0.0068    0.0050   -0.0792   -0.0843    0.0689    0.0251
          42    0.0090   -0.0081    0.0004    0.0086   -0.0007    0.0043   -0.0227   -0.0713
          43    0.0452   -0.0325   -0.0006    0.0076   -0.0249   -0.0291    0.0305    0.0251
          44    0.0693   -0.0681   -0.0001   -0.0077   -0.0238   -0.0402    0.0609    0.0415
          45    0.0328   -0.0309    0.0003   -0.0135   -0.0129   -0.0271    0.0514    0.0371
          46    0.0119   -0.0087    0.0037    0.0164    0.0383    0.0455    0.0228    0.1880
          47   -0.0071    0.0057   -0.0013   -0.0088   -0.0065   -0.0082    0.0151   -0.0734
          48    0.0235   -0.0186   -0.0105   -0.0024   -0.0794   -0.0802   -0.0839    0.0484
          49    0.0021    0.0042   -0.0013   -0.0168   -0.0018   -0.0039    0.0002    0.0113
          50   -0.0052    0.0300   -0.0037   -0.1020   -0.0347   -0.0693    0.0877   -0.0273
          51    0.0152   -0.0150    0.0031   -0.0243    0.0001   -0.0098    0.0071   -0.1842
          52   -0.0012   -0.0094    0.0060   -0.0166   -0.0158    0.0137   -0.0001   -0.0003
          53   -0.0089   -0.0201    0.1459   -0.0361   -0.0729    0.0528    0.0062    0.0001
          54   -0.0024   -0.0033    0.1156   -0.0043   -0.0372    0.0215    0.0081    0.0003
          55   -0.0137    0.0186    0.0888    0.0251   -0.0493    0.0288    0.0121    0.0038
          56    0.0166    0.0416    0.0781    0.0343   -0.0500    0.0332    0.0103    0.0014
          57   -0.0009   -0.0117   -0.0940   -0.0080    0.0403   -0.0207   -0.0059   -0.0023


   Root No.      33        34        35        36        37        38        39        40

                33 A      34 A      35 A      36 A      37 A      38 A      39 A      40 A   

                1405.4    1407.3    1409.3    1411.0    1412.9    1427.9    1776.1    2876.1
  
           1    0.0135    0.0022    0.0029    0.0058    0.0003   -0.0572   -0.0057   -0.0210
           2    0.0098   -0.0144    0.0011    0.0003    0.0295   -0.0120    0.0016    0.0418
           3   -0.0004   -0.0127    0.0035   -0.0053    0.0261    0.0177    0.0041   -0.0468
           4   -0.0025   -0.0022   -0.0087   -0.0065   -0.0014    0.0621    0.0149    0.0005
           5    0.0008    0.0028   -0.0040   -0.0021   -0.0058    0.0147   -0.0024   -0.0019
           6   -0.0006    0.0039    0.0037    0.0040   -0.0036   -0.0263   -0.0179    0.0022
           7    0.0008    0.0014    0.0004    0.0008   -0.0019   -0.0077    0.0078   -0.0003
           8   -0.0241   -0.0025    0.0136    0.0062    0.0069   -0.0207   -0.0051    0.0001
           9   -0.0225   -0.0037    0.0126    0.0049    0.0080   -0.0147   -0.0182    0.0001
          10   -0.0106    0.0062   -0.0026   -0.0204    0.0180    0.0099   -0.0002    0.0012
          11   -0.0052    0.0092   -0.0223    0.0019   -0.0086   -0.0093   -0.0003   -0.0019
          12    0.0120    0.0221   -0.0066    0.0021   -0.0356   -0.0240   -0.0008    0.0004
          13   -0.0113   -0.0090    0.0049   -0.0188   -0.0202    0.0093    0.0000    0.0012
          14   -0.0281    0.0197    0.0014    0.0046   -0.0337    0.0205   -0.0005   -0.0002
          15   -0.0002    0.0229    0.0119   -0.0022   -0.0030    0.0043   -0.0003    0.0019
          16   -0.0013    0.0005    0.0030    0.0020    0.0007   -0.0152    0.0919   -0.0003
          17    0.0003    0.0002    0.0003    0.0003   -0.0003   -0.0027    0.1859   -0.0000
          18    0.0031   -0.0014   -0.0041   -0.0030    0.0003    0.0178    0.0033    0.0001
          19   -0.0020   -0.0007    0.0015    0.0006    0.0017   -0.0027   -0.0931    0.0000
          20    0.0064    0.0003   -0.0035   -0.0015   -0.0012    0.0053   -0.1859    0.0000
          21    0.0088    0.0016   -0.0064   -0.0027   -0.0041    0.0128   -0.0010   -0.0000
          22   -0.0246   -0.0048   -0.0060   -0.0178   -0.0019    0.0718    0.0056    0.2561
          23   -0.0151    0.0225   -0.0074    0.0018   -0.0393    0.0096   -0.0009   -0.5069
          24   -0.0049    0.0239    0.0005    0.0057   -0.0344   -0.0197   -0.0027    0.5679
          25   -0.0018   -0.0005    0.0076    0.0110    0.0031   -0.0783   -0.0156   -0.0092
          26   -0.0045   -0.0068    0.0047    0.0021    0.0088   -0.0180    0.0280    0.0254
          27   -0.0046   -0.0050    0.0038   -0.0006    0.0071    0.0136    0.0143   -0.0287
          28    0.0922    0.0057   -0.0446   -0.0218   -0.0187    0.0670   -0.0001    0.0005
          29    0.0632    0.0027   -0.0296   -0.0148   -0.0104    0.0458   -0.0159   -0.0028
          30    0.1205    0.0154   -0.0608   -0.0224   -0.0319    0.0443    0.0365   -0.0005
          31   -0.0749   -0.0096    0.0377    0.0149    0.0207   -0.0350   -0.0374   -0.0004
          32    0.1429    0.0136   -0.0672   -0.0283   -0.0322    0.0564    0.0006   -0.0004
          33    0.0253    0.0044   -0.0115   -0.0036   -0.0080    0.0020    0.0165   -0.0003
          34    0.0947   -0.0565    0.1326    0.1151   -0.1284    0.0098   -0.0001   -0.0072
          35    0.0076   -0.1197    0.0700    0.0928    0.0323    0.0712    0.0003    0.0129
          36   -0.0268   -0.0707    0.0080    0.0282    0.0698    0.0491   -0.0002   -0.0095
          37   -0.0036    0.0013    0.0038   -0.0089    0.0074    0.0081   -0.0005   -0.0102
          38    0.0584    0.0013    0.1825   -0.0406   -0.0261    0.0244   -0.0001   -0.0009
          39   -0.0728    0.0044   -0.0475   -0.0910    0.1444    0.0008   -0.0001   -0.0037
          40    0.0045   -0.0319   -0.1010    0.1331    0.0404   -0.0249   -0.0006    0.0052
          41    0.0771   -0.1318   -0.0078   -0.0817    0.0153   -0.0876   -0.0011    0.0001
          42   -0.0287    0.0486   -0.0324    0.0829    0.0032    0.0239    0.0003   -0.0093
          43    0.0762    0.1682    0.0358    0.0964    0.1489    0.0094   -0.0002   -0.0070
          44    0.0756   -0.0609    0.0167   -0.0577    0.0596   -0.0459    0.0001    0.0080
          45    0.0491   -0.1272    0.0050   -0.0995    0.0038   -0.0533    0.0002   -0.0140
          46    0.0055   -0.0572   -0.0920    0.1231   -0.0327   -0.0303   -0.0001    0.0052
          47   -0.0022    0.0557    0.0052   -0.0628   -0.0050   -0.0171   -0.0005    0.0095
          48   -0.0117   -0.1202    0.0808    0.0762    0.0390    0.1038   -0.0002   -0.0012
          49   -0.0043    0.0035    0.0062   -0.0089   -0.0070    0.0079   -0.0002   -0.0105
          50    0.0869    0.0438   -0.0133    0.0746    0.1474    0.0054    0.0024    0.0039
          51   -0.0461   -0.1622   -0.1207    0.0501   -0.0520   -0.0156    0.0008    0.0004
          52   -0.0024   -0.0009    0.0022    0.0010    0.0020   -0.0041   -0.1179    0.0002
          53   -0.0117   -0.0024    0.0070    0.0025    0.0053   -0.0094   -0.0661    0.0001
          54   -0.0062   -0.0006    0.0021    0.0005    0.0010    0.0025    0.1505   -0.0002
          55   -0.0030    0.0022    0.0003   -0.0029   -0.0020    0.0167   -0.0189   -0.0001
          56    0.0004    0.0000   -0.0021   -0.0032   -0.0006    0.0160    0.1326   -0.0000
          57    0.0042   -0.0009   -0.0017    0.0010    0.0003   -0.0052    0.1515   -0.0001


   Root No.      41        42        43        44        45        46        47        48

                41 A      42 A      43 A      44 A      45 A      46 A      47 A      48 A   

                2956.6    3045.6    3077.2    3077.5    3082.4    3082.9    3102.8    3176.0
  
           1   -0.0017   -0.0002   -0.0002   -0.0004   -0.0003   -0.0003    0.0000   -0.0003
           2    0.0022   -0.0003    0.0003    0.0009   -0.0000    0.0002    0.0001   -0.0002
           3   -0.0025    0.0000   -0.0004   -0.0010   -0.0002    0.0000   -0.0001    0.0001
           4   -0.0224    0.0010    0.0000    0.0001    0.0002    0.0002   -0.0004    0.0000
           5    0.0407   -0.0018   -0.0000   -0.0000   -0.0001    0.0003   -0.0009    0.0001
           6   -0.0467    0.0018   -0.0000    0.0001   -0.0003   -0.0000   -0.0004   -0.0001
           7    0.0038    0.0455   -0.0005    0.0007   -0.0008   -0.0001   -0.0060    0.0001
           8   -0.0009   -0.0254   -0.0001    0.0001   -0.0002   -0.0001   -0.0298   -0.0001
           9    0.0014    0.0236   -0.0005    0.0008   -0.0009   -0.0002   -0.0274    0.0000
          10   -0.0000   -0.0006   -0.0009   -0.0083   -0.0412   -0.0019    0.0010   -0.0045
          11    0.0002   -0.0016   -0.0176    0.0296   -0.0135   -0.0062    0.0016    0.0037
          12   -0.0001    0.0001    0.0060   -0.0139   -0.0123    0.0013   -0.0004    0.0096
          13    0.0000    0.0001   -0.0056   -0.0073    0.0040   -0.0420   -0.0000   -0.0052
          14    0.0000   -0.0000    0.0102    0.0063   -0.0026    0.0134    0.0000   -0.0116
          15   -0.0002    0.0000   -0.0337   -0.0147    0.0047    0.0145   -0.0000   -0.0030
          16    0.0004    0.0003   -0.0000   -0.0000    0.0000    0.0001    0.0001   -0.0001
          17    0.0007   -0.0002   -0.0002   -0.0001    0.0000    0.0003   -0.0001   -0.0008
          18   -0.0007    0.0002   -0.0002   -0.0000    0.0000    0.0002   -0.0002   -0.0006
          19   -0.0007    0.0003   -0.0000    0.0000   -0.0000    0.0000   -0.0001   -0.0002
          20   -0.0004   -0.0002    0.0000    0.0000   -0.0000   -0.0000   -0.0006   -0.0001
          21    0.0002    0.0001    0.0000    0.0000   -0.0000   -0.0000   -0.0005    0.0002
          22    0.0161   -0.0010    0.0012    0.0034   -0.0003   -0.0004    0.0004    0.0002
          23   -0.0237   -0.0004   -0.0062   -0.0094   -0.0011   -0.0023   -0.0014   -0.0015
          24    0.0263   -0.0006    0.0018    0.0121    0.0024    0.0016    0.0012    0.0016
          25    0.2811   -0.0089    0.0002    0.0001    0.0006    0.0007    0.0003    0.0002
          26   -0.4988    0.0234    0.0004    0.0015   -0.0010   -0.0005   -0.0018   -0.0009
          27    0.5662   -0.0220    0.0000   -0.0018    0.0006    0.0010    0.0007    0.0010
          28   -0.0223   -0.2940    0.0000   -0.0002   -0.0005   -0.0005   -0.2612   -0.0012
          29    0.0226    0.3787   -0.0003    0.0006    0.0001    0.0004    0.3060    0.0016
          30   -0.0002   -0.0012   -0.0003    0.0004   -0.0005   -0.0001   -0.0227   -0.0000
          31   -0.0176   -0.2562    0.0057   -0.0088    0.0103    0.0017    0.3367    0.0003
          32   -0.0008   -0.0699    0.0012   -0.0019    0.0021    0.0003    0.0567    0.0000
          33   -0.0224   -0.2856    0.0061   -0.0094    0.0110    0.0018    0.3503    0.0002
          34   -0.0007   -0.0025   -0.0465    0.0916    0.0209   -0.0140    0.0042   -0.0454
          35   -0.0009    0.0036    0.0857   -0.1806   -0.0925    0.0236   -0.0067    0.0901
          36    0.0025   -0.0052   -0.1074    0.2237    0.0945   -0.0305    0.0088   -0.1002
          37   -0.0024    0.0044    0.0046    0.0850    0.3914    0.0174   -0.0116    0.1512
          38    0.0001   -0.0009   -0.0092    0.0137   -0.0139   -0.0041    0.0011   -0.0012
          39   -0.0001    0.0001    0.0031   -0.0060    0.0004    0.0004   -0.0004    0.0066
          40   -0.0001   -0.0001   -0.0910   -0.0332    0.0081    0.0918   -0.0001   -0.0621
          41    0.0005    0.0002    0.0818    0.0287   -0.0064   -0.0911    0.0001    0.0466
          42    0.0003    0.0005    0.2075    0.0675   -0.0127   -0.2809    0.0001    0.1514
          43   -0.0008   -0.0001    0.0926    0.0461   -0.0168    0.0123    0.0001   -0.0515
          44   -0.0021    0.0006   -0.2077   -0.1084    0.0403   -0.0684   -0.0002    0.1047
          45    0.0009   -0.0006    0.2123    0.1118   -0.0427    0.0883    0.0002   -0.1192
          46   -0.0001    0.0055    0.0529   -0.0779    0.0793    0.0191   -0.0052   -0.0515
          47   -0.0000    0.0160    0.1368   -0.1860    0.2670    0.0512   -0.0139   -0.1338
          48   -0.0004    0.0041    0.0344   -0.0502    0.0522    0.0122   -0.0031   -0.0246
          49   -0.0026   -0.0009    0.0648    0.0743   -0.0396    0.3976    0.0005    0.1766
          50    0.0001   -0.0000    0.0043    0.0022   -0.0001    0.0000    0.0000   -0.0079
          51   -0.0002   -0.0000   -0.0152   -0.0051    0.0016    0.0206   -0.0000    0.0046
          52   -0.0048    0.0010    0.0001    0.0000   -0.0001   -0.0003   -0.0010    0.0025
          53   -0.0034   -0.0001    0.0001    0.0000   -0.0001   -0.0003   -0.0008    0.0021
          54    0.0043    0.0001   -0.0002   -0.0000    0.0001    0.0003    0.0008   -0.0025
          55   -0.0007    0.0004    0.0001    0.0000   -0.0000   -0.0000    0.0006    0.0004
          56    0.0010    0.0006    0.0023    0.0007    0.0002   -0.0025    0.0138    0.0085
          57    0.0002    0.0009    0.0018    0.0005    0.0002   -0.0020    0.0113    0.0069


   Root No.      49        50        51

                49 A      50 A      51 A   

                3177.4    3193.2    3213.8
  
           1   -0.0000   -0.0000    0.0000
           2    0.0004   -0.0000   -0.0000
           3    0.0004   -0.0000   -0.0000
           4    0.0000    0.0002   -0.0011
           5   -0.0000    0.0003   -0.0010
           6   -0.0000   -0.0004    0.0014
           7    0.0001    0.0000    0.0000
           8   -0.0002    0.0010    0.0019
           9   -0.0001    0.0008    0.0018
          10   -0.0053   -0.0000    0.0000
          11    0.0041   -0.0000   -0.0000
          12    0.0112    0.0000    0.0000
          13    0.0045    0.0002    0.0000
          14    0.0099    0.0009    0.0004
          15    0.0024    0.0006    0.0004
          16    0.0001   -0.0018   -0.0044
          17    0.0007   -0.0307   -0.0341
          18    0.0005   -0.0245   -0.0229
          19    0.0002   -0.0206    0.0281
          20    0.0001   -0.0168    0.0268
          21   -0.0002    0.0208   -0.0252
          22    0.0000   -0.0000   -0.0001
          23    0.0005    0.0001    0.0000
          24    0.0007   -0.0001   -0.0000
          25    0.0000    0.0007   -0.0012
          26    0.0001   -0.0017    0.0014
          27    0.0002    0.0016   -0.0020
          28   -0.0018    0.0047    0.0048
          29    0.0023   -0.0060   -0.0051
          30   -0.0001    0.0004    0.0003
          31    0.0007   -0.0057   -0.0053
          32    0.0001   -0.0012   -0.0006
          33    0.0007   -0.0056   -0.0059
          34   -0.0536   -0.0001   -0.0001
          35    0.1067    0.0001    0.0002
          36   -0.1183   -0.0001   -0.0002
          37    0.1786    0.0001   -0.0001
          38   -0.0012    0.0000    0.0000
          39    0.0081    0.0000    0.0000
          40    0.0526    0.0067    0.0033
          41   -0.0395   -0.0048   -0.0022
          42   -0.1281   -0.0155   -0.0072
          43    0.0443    0.0035    0.0012
          44   -0.0900   -0.0072   -0.0023
          45    0.1029    0.0084    0.0028
          46   -0.0598    0.0000   -0.0000
          47   -0.1553    0.0000   -0.0001
          48   -0.0285   -0.0000   -0.0000
          49   -0.1521   -0.0125   -0.0045
          50    0.0071    0.0006    0.0002
          51   -0.0038   -0.0001    0.0000
          52   -0.0021    0.2465   -0.2838
          53   -0.0018    0.2034   -0.2343
          54    0.0022   -0.2475    0.2846
          55   -0.0004    0.0172    0.0155
          56   -0.0073    0.3559    0.3155
          57   -0.0059    0.2899    0.2568


           MASS-WEIGHTED COORDINATE ANALYSIS (NORMAL COORDINATES)


   Root No.       1         2         3         4         5         6         7         8

                 1 A       2 A       3 A       4 A       5 A       6 A       7 A       8 A   

                  90.8     191.6     199.6     211.2     236.7     356.7     432.2     445.7
  
           1   -0.0023   -0.0037   -0.1610   -0.0513   -0.1497   -0.1418    0.1886   -0.1741
           2   -0.1139   -0.0216   -0.0036   -0.0914    0.0888    0.0562   -0.0063    0.3627
           3   -0.1056   -0.0204   -0.0558   -0.0475    0.0704   -0.0401    0.3583   -0.1123
           4   -0.0028   -0.0047   -0.1662   -0.0568   -0.1529   -0.1940    0.1702   -0.1520
           5   -0.1636    0.0079    0.0838   -0.0322    0.2439   -0.0227   -0.2747   -0.0814
           6   -0.1511    0.0018   -0.2054   -0.1721   -0.1042    0.0163   -0.0713   -0.2450
           7    0.0965   -0.0074   -0.1210   -0.2771    0.2480   -0.2129   -0.2796   -0.0940
           8   -0.2139    0.0096    0.0606    0.0871    0.0426   -0.0730   -0.1353   -0.2291
           9    0.2757    0.0068   -0.0715   -0.0905   -0.0743    0.0886   -0.0979    0.0355
          10    0.0057   -0.0467    0.1126    0.2665   -0.2702    0.3433   -0.2662   -0.1091
          11    0.2906    0.0493   -0.0484   -0.0418   -0.1603    0.2879    0.1676   -0.0605
          12   -0.2454   -0.0633    0.0795    0.0745    0.1096    0.0583    0.1533    0.1108
          13   -0.0133    0.0557   -0.1317   -0.2631    0.2378    0.3831    0.1463    0.2200
          14   -0.2120   -0.0623   -0.0492   -0.0400   -0.0880   -0.0779    0.1519    0.1865
          15    0.3256    0.0566    0.0865    0.1094    0.1100   -0.2723   -0.0359    0.1718
          16   -0.0887   -0.0005    0.0920    0.2239   -0.2678   -0.2362    0.0320    0.3494
          17    0.2367    0.0106    0.0589    0.0394    0.1288   -0.0684    0.0153   -0.1653
          18   -0.2495    0.0053   -0.0691   -0.0408   -0.1545    0.0375   -0.2709   -0.0467
          19   -0.0028    0.0066    0.3747    0.1781    0.3237   -0.1025    0.1071   -0.1111
          20    0.1899    0.0071   -0.0816    0.0640   -0.1695   -0.1367   -0.0235    0.0680
          21    0.1160    0.0133    0.1825    0.1171    0.0129    0.1498    0.0402   -0.0614
          22    0.0004   -0.0023   -0.1053   -0.0369   -0.0975   -0.0791    0.0948   -0.0919
          23   -0.0992   -0.0188   -0.0107   -0.0256    0.0114    0.0076    0.0348    0.1180
          24   -0.0899   -0.0165    0.0038   -0.0026    0.0345   -0.0017    0.1111    0.0052
          25   -0.0016   -0.0016   -0.0426   -0.0031   -0.0330   -0.0717    0.1281   -0.1339
          26   -0.1242    0.0059    0.0227    0.0056    0.0487   -0.0181   -0.1056   -0.0686
          27   -0.1108    0.0038   -0.0588   -0.0425   -0.0513    0.0047   -0.0868   -0.0616
          28    0.0483   -0.0008   -0.0335   -0.1225    0.1367   -0.0586   -0.2000    0.0088
          29   -0.0441    0.0038    0.0174   -0.0090    0.0625   -0.0178   -0.1302   -0.0373
          30    0.1696   -0.0029   -0.1364   -0.1243   -0.0667   -0.0168   -0.1489    0.1294
          31    0.0435   -0.0055   -0.1340   -0.1679    0.0479   -0.0960   -0.1842    0.0102
          32   -0.1548    0.0034    0.0457    0.0924   -0.0336   -0.0097    0.1195   -0.1800
          33    0.0848    0.0050    0.0640    0.0397    0.0101    0.0542    0.0294    0.0029
          34    0.0096   -0.3588    0.2931   -0.1039   -0.1798    0.1371   -0.1647    0.0006
          35    0.1584   -0.2015    0.1165   -0.1667   -0.1421    0.0943    0.1080   -0.1020
          36   -0.0140   -0.0595    0.0277   -0.0326   -0.0060    0.0110    0.1229   -0.0469
          37    0.0014   -0.0051    0.0280    0.0846   -0.0769    0.1053   -0.0815   -0.0328
          38    0.0762    0.4054   -0.2523    0.2643    0.0381    0.1687    0.0177   -0.0555
          39   -0.0708   -0.1622    0.1792    0.0047   -0.0317    0.1282   -0.1005    0.0570
          40    0.0041   -0.2933   -0.2654    0.0910    0.2326    0.2333    0.0668    0.1145
          41   -0.1518    0.1332    0.0791   -0.1545   -0.0780    0.0581    0.1389    0.0189
          42    0.1303   -0.1561   -0.0950    0.1478    0.1130   -0.0649   -0.0377    0.0823
          43   -0.0129    0.3549    0.2095   -0.3060   -0.0077    0.1431    0.0183    0.1535
          44    0.0073   -0.0804   -0.0451    0.0416    0.0428   -0.0153   -0.0310    0.1505
          45    0.1650   -0.1812   -0.1054    0.1768    0.1304   -0.0850   -0.0751    0.1116
          46   -0.0079    0.3130   -0.1523    0.3288   -0.0096    0.2062   -0.1449   -0.0579
          47    0.1083   -0.1418    0.0812   -0.1243   -0.0962    0.0667    0.0760   -0.0367
          48   -0.1584    0.1556   -0.1039    0.1219    0.1363   -0.0597    0.0285    0.1433
          49   -0.0035    0.0031   -0.0481   -0.0690    0.0760    0.1182    0.0440    0.0670
          50   -0.0620   -0.1170   -0.0883    0.0942   -0.0852   -0.1504    0.0571   -0.0820
          51    0.0859    0.4071    0.3114   -0.1930   -0.1336   -0.1671   -0.0453    0.0525
          52    0.0008    0.0040    0.2261    0.1059    0.2076    0.0096    0.0868   -0.0941
          53    0.1050    0.0020   -0.0678    0.0222   -0.1352   -0.0575    0.0169    0.1010
          54    0.0763    0.0059    0.1337    0.0910    0.0464    0.0688    0.0865   -0.0127
          55   -0.0560   -0.0056    0.0265    0.1291   -0.1892   -0.0918   -0.0030    0.3003
          56    0.1334    0.0040    0.0309    0.0109    0.0694   -0.0075    0.0602   -0.1057
          57   -0.1500    0.0010   -0.0366   -0.0149   -0.0779   -0.0032   -0.1461    0.0457


   Root No.       9        10        11        12        13        14        15        16

                 9 A      10 A      11 A      12 A      13 A      14 A      15 A      16 A   

                 511.8     758.5     839.9     899.8     912.9     956.9     959.6     967.1
  
           1   -0.2257    0.1945   -0.2075   -0.0398    0.0604    0.0142   -0.0798    0.1079
           2   -0.2474   -0.0674    0.0933    0.0302   -0.0411    0.0989   -0.0527    0.0978
           3    0.2903    0.0720   -0.0987   -0.0043    0.0539    0.0332    0.1421   -0.0539
           4   -0.1191   -0.0353    0.1089    0.0497   -0.1240    0.0537   -0.1387   -0.0260
           5    0.0750    0.1164   -0.3078   -0.0869    0.0939    0.1430   -0.2575   -0.0992
           6   -0.1189   -0.1143    0.2913   -0.1478    0.0714    0.0226   -0.0494   -0.1732
           7    0.1928   -0.1454    0.1247    0.3299   -0.0421   -0.0087    0.0111   -0.0525
           8    0.0027    0.0967   -0.1079    0.2621   -0.3410   -0.0704    0.1668    0.1484
           9   -0.0639    0.0342   -0.1295    0.1979   -0.0124    0.0556   -0.1230    0.0283
          10   -0.1279    0.0692   -0.0834   -0.0293    0.0733    0.0288    0.1647    0.1825
          11    0.2332   -0.0405    0.0547    0.0121   -0.0682    0.2600   -0.1570    0.1846
          12    0.2377   -0.0672    0.0275    0.0027   -0.0824   -0.0819   -0.2484    0.1655
          13   -0.1131    0.0547   -0.0937   -0.0507    0.0886   -0.0579   -0.0830   -0.0991
          14   -0.2444    0.0537   -0.0477   -0.0333    0.0594   -0.1780    0.1986   -0.1953
          15   -0.1962    0.0321   -0.0456   -0.0080    0.0594    0.1730    0.2666   -0.1612
          16    0.2750   -0.2088   -0.0794   -0.2040   -0.2116    0.0134    0.0119    0.0055
          17    0.0255   -0.0159    0.2494   -0.0523    0.3108   -0.0404    0.0519    0.0505
          18    0.0162   -0.1106    0.1043   -0.1580    0.1468   -0.0927    0.2130    0.2322
          19    0.0580   -0.2166    0.0200   -0.1202    0.2593    0.0059    0.0132    0.0662
          20    0.1347   -0.0117    0.1974   -0.1151    0.0890   -0.0356    0.0437    0.0266
          21   -0.1454    0.0059   -0.2032    0.2108   -0.2342   -0.0182    0.0523   -0.0658
          22   -0.1320    0.0612    0.0355   -0.0176   -0.0162   -0.0085   -0.0501    0.0399
          23   -0.0798   -0.0179    0.0378    0.0196   -0.0379   -0.1807    0.0013    0.1094
          24    0.1043    0.0146   -0.0544    0.0125    0.0020   -0.1698    0.0602    0.0576
          25   -0.0266    0.0801   -0.0021    0.0746   -0.0813    0.0156   -0.0501   -0.0275
          26    0.0283    0.0294   -0.1581   -0.1918   -0.0789    0.0650   -0.1611   -0.1986
          27   -0.0293   -0.0777    0.0324   -0.2254   -0.0425    0.0270   -0.0853   -0.1887
          28    0.1450    0.0573   -0.1733    0.0096   -0.0098   -0.0736    0.0756   -0.0587
          29    0.0679    0.1037   -0.1951    0.0125   -0.0964   -0.0738    0.0996    0.0070
          30    0.1004    0.2569   -0.0318   -0.2702   -0.1959    0.0411    0.0115    0.1421
          31    0.1328    0.1055    0.1220   -0.0689   -0.2475   -0.0076    0.0741   -0.0309
          32   -0.1465   -0.1739    0.2079    0.3581   -0.1439    0.0402   -0.0502   -0.0503
          33   -0.0539   -0.0738   -0.1757    0.1370    0.2155    0.0088   -0.0815    0.0403
          34   -0.0701   -0.0400    0.0942    0.0062   -0.0195    0.1338   -0.0338   -0.1417
          35    0.1622    0.0165   -0.0585   -0.0093    0.0161   -0.2622    0.0044   -0.0106
          36    0.1544    0.0249   -0.0938   -0.0157    0.0193   -0.3349   -0.0038    0.0693
          37   -0.0349    0.0172   -0.0190   -0.0084    0.0201    0.0036    0.0439    0.0370
          38    0.1434   -0.0324    0.0374    0.0019   -0.0193   -0.1436   -0.0669   -0.1535
          39    0.0783   -0.1243    0.1930    0.0194   -0.0937    0.0258   -0.2376   -0.3307
          40    0.0357   -0.0295    0.0489    0.0229   -0.0161    0.0818    0.2496   -0.0615
          41    0.0726    0.0222   -0.0316    0.0067    0.0546    0.2808    0.4612   -0.2205
          42   -0.0864   -0.0097    0.0216    0.0054   -0.0119   -0.0431    0.0259    0.0019
          43   -0.0596   -0.0460    0.0908    0.0236   -0.0579   -0.1463    0.0499    0.0503
          44   -0.1665   -0.0363    0.0853    0.0101   -0.0640   -0.3556   -0.0862    0.0734
          45   -0.1433   -0.0182    0.0402    0.0028   -0.0310   -0.2040   -0.0964    0.0540
          46    0.0277   -0.0252    0.0424   -0.0010    0.0108   -0.1501    0.0211   -0.2440
          47    0.0811    0.0045   -0.0173   -0.0012   -0.0058    0.0137   -0.0205    0.0849
          48   -0.0716   -0.0223    0.0495    0.0079   -0.0671    0.4282   -0.1453    0.3336
          49   -0.0295    0.0130   -0.0218   -0.0123    0.0225   -0.0124   -0.0090   -0.0285
          50   -0.0955    0.1265   -0.2060   -0.0836    0.1504   -0.0054   -0.1813   -0.1702
          51   -0.1299    0.0206   -0.0192   -0.0142    0.0141   -0.1272   -0.1300    0.0069
          52   -0.0130    0.4470    0.3583   -0.2201   -0.1065   -0.0098   -0.0029    0.0112
          53    0.0567   -0.2639   -0.1555   -0.0061    0.0730    0.0450   -0.1189   -0.1989
          54   -0.0589    0.2972    0.1144   -0.1002   -0.2102    0.0291   -0.1005   -0.1964
          55    0.2319    0.3522    0.1505    0.4135    0.1424    0.0030   -0.0212   -0.1829
          56   -0.0519   -0.2322   -0.0002   -0.1750   -0.2027   -0.0364    0.1404   -0.0090
          57    0.0680    0.2226    0.1101    0.1190    0.3931    0.0031   -0.0911    0.1069


   Root No.      17        18        19        20        21        22        23        24

                17 A      18 A      19 A      20 A      21 A      22 A      23 A      24 A   

                 985.7     993.8    1004.5    1025.5    1037.7    1121.6    1136.8    1144.8
  
           1   -0.0099   -0.0656   -0.0306    0.0131    0.0097   -0.0138    0.0790    0.0293
           2   -0.0379    0.0168   -0.0487    0.0073    0.0109    0.1558    0.2274    0.0580
           3   -0.0300   -0.0013    0.0534   -0.0067    0.0307    0.1977   -0.1844    0.0255
           4   -0.0405    0.0742    0.2548    0.0281    0.0108    0.0203   -0.0100   -0.0919
           5   -0.1017    0.2874    0.1450   -0.0014   -0.0311    0.0962   -0.0402    0.4481
           6   -0.1788   -0.1134   -0.0544   -0.0027   -0.0875    0.0995   -0.0486    0.2628
           7    0.0033    0.1403   -0.1781    0.1492    0.0677   -0.0644   -0.0113   -0.1573
           8    0.1725   -0.1418    0.0698   -0.0311    0.0085   -0.0666    0.1068   -0.1964
           9    0.0669    0.2592    0.1679    0.1519   -0.0934    0.0008    0.0351    0.0781
          10   -0.1964    0.1177   -0.1531   -0.0217   -0.0379   -0.0007   -0.0569    0.0390
          11    0.0013   -0.1263   -0.0287    0.0119    0.0128    0.0223   -0.1197   -0.0631
          12    0.0066   -0.0401   -0.0715    0.0185   -0.0233   -0.3122    0.1385    0.0569
          13    0.2715   -0.0450   -0.2011   -0.0219   -0.0110    0.0153   -0.0372   -0.0617
          14    0.0389    0.0387    0.0797   -0.0178   -0.0110   -0.2396   -0.2447   -0.0326
[...]
 T-DIPOLE    0.0081         C  2 -- H  9          +8.9% ( 38.8%)      0.0%
 TRAVEL      0.1016         C  2 -- C  6          +8.8% ( 38.5%)     61.7%
 RED. MASS   0.5056         C  2 -- C  3          +8.2% ( 37.1%)      9.9%
 EFF. MASS   4.6916

 VIBRATION   32   32A         ATOM PAIR      ENERGY CONTRIBUTION    RADIAL
 FREQ.      1403.22         C  4 -- H 16         +24.2% ( 43.6%)      1.5%
 T-DIPOLE    0.0381         C  5 -- H 14         +21.2% ( 40.8%)      2.2%
 TRAVEL      0.1690         C  4 -- H 13         +20.1% ( 39.7%)      3.3%
 RED. MASS   0.2252         C  5 -- H 17         +19.9% ( 39.5%)      2.6%
 EFF. MASS   1.6831

 VIBRATION   33   33A         ATOM PAIR      ENERGY CONTRIBUTION    RADIAL
 FREQ.      1405.41         C  3 -- H 10         +16.4% ( 46.1%)      4.5%
 T-DIPOLE    0.0355         C  3 -- H 11         +16.1% ( 45.7%)      4.7%
 TRAVEL      0.1196         C  5 -- H 15         +10.0% ( 36.1%)      5.2%
 RED. MASS   0.3082         C  5 -- H 17          +8.1% ( 32.5%)      3.2%
 EFF. MASS   3.3551

 VIBRATION   34   34A         ATOM PAIR      ENERGY CONTRIBUTION    RADIAL
 FREQ.      1407.29         C  5 -- H 15         +25.5% ( 49.4%)      0.0%
 T-DIPOLE    0.0493         C  5 -- H 17         +16.3% ( 39.5%)      1.1%
 TRAVEL      0.1410         C  4 -- H 12         +12.8% ( 35.0%)      3.2%
 RED. MASS   0.2555         C  5 -- H 14         +11.9% ( 33.8%)     20.3%
 EFF. MASS   2.4116         C  4 -- H 16         +11.6% ( 33.4%)      4.8%

 VIBRATION   35   35A         ATOM PAIR      ENERGY CONTRIBUTION    RADIAL
 FREQ.      1409.28         C  4 -- H 13         +23.6% ( 46.6%)      0.1%
 T-DIPOLE    0.0393         C  4 -- H 12         +15.8% ( 38.1%)      1.4%
 TRAVEL      0.1496         C  4 -- H 16         +10.5% ( 31.1%)     20.7%
 RED. MASS   0.1948         C  5 -- H 17          +9.4% ( 29.4%)      1.0%
 EFF. MASS   2.1370

 VIBRATION   36   36A         ATOM PAIR      ENERGY CONTRIBUTION    RADIAL
 FREQ.      1410.99         C  5 -- H 14         +21.4% ( 42.0%)      0.6%
 T-DIPOLE    0.0768         C  4 -- H 16         +17.8% ( 38.3%)      0.4%
 TRAVEL      0.1612         C  4 -- H 12         +16.4% ( 36.7%)      0.7%
 RED. MASS   0.1875         C  5 -- H 15         +15.7% ( 36.0%)      2.4%
 EFF. MASS   1.8389

 VIBRATION   37   37A         ATOM PAIR      ENERGY CONTRIBUTION    RADIAL
 FREQ.      1412.90         C  5 -- H 15         +12.7% ( 43.4%)      2.7%
 T-DIPOLE    0.0194         C  1 -- C  4         +12.6% ( 43.2%)     94.5%
 TRAVEL      0.1012         C  4 -- H 12         +12.3% ( 42.7%)      3.3%
 RED. MASS   0.5685         C  1 -- C  5         +12.1% ( 42.3%)     95.7%
 EFF. MASS   4.6557         C  5 -- H 17         +12.1% ( 42.3%)      5.3%
                            C  4 -- H 13         +11.8% ( 41.8%)      4.3%

 VIBRATION   38   38A         ATOM PAIR      ENERGY CONTRIBUTION    RADIAL
 FREQ.      1427.94         C  1 -- C  2         +18.2% ( 66.8%)     84.3%
 T-DIPOLE    0.0432         C  2 -- C  6         +10.2% ( 50.0%)     61.0%
 TRAVEL      0.0752         C  2 -- H  9         +10.0% ( 49.5%)      0.1%
 RED. MASS   1.7448         C  2 -- C  3          +9.9% ( 49.2%)     62.1%
 EFF. MASS   8.3472

 VIBRATION   39   39A         ATOM PAIR      ENERGY CONTRIBUTION    RADIAL
 FREQ.      1776.14         C  6 -- C  7         +36.3% (102.1%)    100.0%
 T-DIPOLE    0.0787         C  2 -- C  7         +11.2% ( 56.7%)     59.1%
 TRAVEL      0.0563         C  3 -- C  6         +11.1% ( 56.4%)     58.6%
 RED. MASS   5.0040         C  3 -- C  7         +10.9% ( 56.0%)      0.1%
 EFF. MASS  11.9857         C  2 -- C  6         +10.9% ( 56.0%)      0.2%

 VIBRATION   40   40A         ATOM PAIR      ENERGY CONTRIBUTION    RADIAL
 FREQ.      2876.06         C  1 -- H  8         +96.4% ( 99.8%)    100.0%
 T-DIPOLE    0.0347         C  1 -- C  2          +1.1% ( 10.4%)      9.7%
 TRAVEL      0.1274         C  1 -- C  5          +1.0% ( 10.4%)      9.1%
 RED. MASS   0.9223         C  1 -- C  4          +1.0% ( 10.4%)      9.1%
 EFF. MASS   1.4447

 VIBRATION   41   41A         ATOM PAIR      ENERGY CONTRIBUTION    RADIAL
 FREQ.      2956.59         C  2 -- H  9         +95.4% ( 99.7%)    100.0%
 T-DIPOLE    0.1017         C  2 -- C  3          +1.0% ( 10.3%)     14.2%
 TRAVEL      0.1260         C  2 -- C  7          +1.0% ( 10.3%)     31.1%
 RED. MASS   0.9200         C  2 -- C  6          +1.0% ( 10.2%)     16.3%
 EFF. MASS   1.4377

 VIBRATION   42   42A         ATOM PAIR      ENERGY CONTRIBUTION    RADIAL
 FREQ.      3045.63         C  3 -- H 10         +57.3% ( 78.7%)     97.9%
 T-DIPOLE    0.0773         C  3 -- H 11         +39.1% ( 65.1%)     95.8%
 TRAVEL      0.1200         C  3 -- C  6          +1.1% ( 10.9%)      0.4%
 RED. MASS   0.5313         C  3 -- C  7          +1.1% ( 10.9%)      0.2%
 EFF. MASS   1.5374

 VIBRATION   43   43A         ATOM PAIR      ENERGY CONTRIBUTION    RADIAL
 FREQ.      3077.23         C  5 -- H 15         +46.6% ( 70.4%)     98.3%
 T-DIPOLE    0.0151         C  5 -- H 14         +28.3% ( 54.9%)     94.5%
 TRAVEL      0.1209         C  4 -- H 16         +11.0% ( 34.2%)     97.3%
 RED. MASS   0.3390         C  4 -- H 12         +10.2% ( 32.9%)     96.8%
 EFF. MASS   1.4999

 VIBRATION   44   44A         ATOM PAIR      ENERGY CONTRIBUTION    RADIAL
 FREQ.      3077.51         C  4 -- H 12         +49.3% ( 72.4%)     98.6%
 T-DIPOLE    0.0093         C  4 -- H 16         +23.8% ( 50.3%)     92.8%
 TRAVEL      0.1206         C  5 -- H 15         +14.3% ( 39.0%)     99.0%
 RED. MASS   0.3435         C  4 -- H 13          +4.6% ( 22.1%)     59.1%
 EFF. MASS   1.5061

 VIBRATION   45   45A         ATOM PAIR      ENERGY CONTRIBUTION    RADIAL
 FREQ.      3082.43         C  4 -- H 13         +58.6% ( 79.0%)     98.5%
 T-DIPOLE    0.0117         C  4 -- H 16         +30.8% ( 57.2%)     93.0%
 TRAVEL      0.1204         C  4 -- H 12          +7.4% ( 28.1%)     65.8%
 RED. MASS   0.4720         C  5 -- H 15          +1.4% ( 12.2%)     98.6%
 EFF. MASS   1.5080

 VIBRATION   46   46A         ATOM PAIR      ENERGY CONTRIBUTION    RADIAL
 FREQ.      3082.88         C  5 -- H 17         +57.3% ( 78.1%)     98.4%
 T-DIPOLE    0.0132         C  5 -- H 14         +34.6% ( 60.7%)     94.2%
 TRAVEL      0.1204         C  5 -- H 15          +5.2% ( 23.5%)     55.0%
 RED. MASS   0.4797         C  4 -- H 16          +1.1% ( 11.0%)     98.6%
 EFF. MASS   1.5099

 VIBRATION   47   47A         ATOM PAIR      ENERGY CONTRIBUTION    RADIAL
 FREQ.      3102.84         C  3 -- H 11         +58.7% ( 76.1%)     98.1%
 T-DIPOLE    0.1235         C  3 -- H 10         +39.0% ( 62.1%)     95.3%
 TRAVEL      0.1301         C  3 -- C  6          +0.7% (  8.3%)     98.0%
 RED. MASS   0.4989         C  2 -- C  3          +0.7% (  8.3%)     50.7%
 EFF. MASS   1.2832

 VIBRATION   48   48A         ATOM PAIR      ENERGY CONTRIBUTION    RADIAL
 FREQ.      3176.04         C  5 -- H 17         +20.6% ( 43.7%)     97.4%
 T-DIPOLE    0.0228         C  5 -- H 14         +18.9% ( 41.9%)     97.0%
 TRAVEL      0.1367         C  5 -- H 15         +18.1% ( 41.0%)     96.7%
 RED. MASS   0.1676         C  4 -- H 13         +15.1% ( 37.4%)     97.4%
 EFF. MASS   1.1367         C  4 -- H 16         +13.8% ( 35.8%)     97.0%
                            C  4 -- H 12         +13.1% ( 34.9%)     96.6%

 VIBRATION   49   49A         ATOM PAIR      ENERGY CONTRIBUTION    RADIAL
 FREQ.      3177.42         C  4 -- H 13         +20.9% ( 44.0%)     97.6%
 T-DIPOLE    0.0343         C  4 -- H 16         +18.5% ( 41.4%)     96.9%
 TRAVEL      0.1368         C  4 -- H 12         +18.3% ( 41.1%)     96.8%
 RED. MASS   0.1679         C  5 -- H 17         +15.2% ( 37.5%)     97.6%
 EFF. MASS   1.1338         C  5 -- H 14         +13.4% ( 35.3%)     96.9%
                            C  5 -- H 15         +13.4% ( 35.2%)     96.9%

 VIBRATION   50   50A         ATOM PAIR      ENERGY CONTRIBUTION    RADIAL
 FREQ.      3193.22         C  6 -- H 19         +53.9% ( 75.2%)    100.0%
 T-DIPOLE    0.4728         C  7 -- H 18         +41.7% ( 66.1%)    100.0%
 TRAVEL      0.1201         C  6 -- C  7          +1.1% ( 10.6%)      0.8%
 RED. MASS   0.4709         C  3 -- C  6          +0.9% (  9.8%)     99.8%
 EFF. MASS   1.4645

 VIBRATION   51   51A         ATOM PAIR      ENERGY CONTRIBUTION    RADIAL
 FREQ.      3213.76         C  7 -- H 18         +52.4% ( 74.9%)     99.9%
 T-DIPOLE    0.3712         C  6 -- H 19         +40.2% ( 65.6%)     99.9%
 TRAVEL      0.1099         C  6 -- C  7          +3.0% ( 17.9%)     99.7%
 RED. MASS   0.4778         C  2 -- C  7          +1.2% ( 11.4%)     98.4%
 EFF. MASS   1.7367

      SYMMETRY NUMBER FOR POINT-GROUP C1  =  1


          SYSTEM IS A GROUND STATE



 InChI=1S/C7H12/c1-6(2)7-4-3-5-7/h3-4,6-7H,5H2,1-2H3


          MOLECULE IS NOT LINEAR

          THERE ARE 51 GENUINE VIBRATIONS IN THIS SYSTEM
          THIS THERMODYNAMICS CALCULATION IS LIMITED TO
          MOLECULES WHICH HAVE NO INTERNAL ROTATIONS




                    CALCULATED THERMODYNAMIC PROPERTIES
                                          *
   TEMP. (K)   PARTITION FUNCTION   H.O.F.    ENTHALPY  HEAT CAPACITY ENTROPY
                                   KCAL/MOL   CAL/MOLE    CAL/K/MOL  CAL/K/MOL


 298.00  VIB.     0.3545D+02                  3032.0652    22.9127    17.2654
         ROT.     0.2278D+06                   888.2813     2.9808    27.4956
         INT.     0.8077D+07                  3920.3465    25.8935    44.7610
         TRA.     0.9118D+27                  1480.4688     4.9680    39.5994
         TOT.                       20.424    5400.8154    30.8615    84.3604

 200.00  VIB.     0.7068D+01                  1246.7727    13.8901    10.1201
         ROT.     0.1253D+06                   596.1620     2.9808    26.3069
         INT.     0.8854D+06                  1842.9346    16.8709    36.4270
         TRA.     0.5013D+27                   993.6033     4.9680    37.6183
         TOT.                       17.860    2836.5379    21.8389    74.0453

 210.00  VIB.     0.8276D+01                  1389.7014    14.7002    10.8173
         ROT.     0.1348D+06                   625.9700     2.9808    26.4523
         INT.     0.1115D+07                  2015.6715    17.6810    37.2696
         TRA.     0.5394D+27                  1043.2834     4.9680    37.8607
         TOT.                       18.082    3058.9549    22.6490    75.1303

 220.00  VIB.     0.9706D+01                  1540.8686    15.5379    11.5204
         ROT.     0.1445D+06                   655.7781     2.9808    26.5910
         INT.     0.1403D+07                  2196.6467    18.5187    38.1113
         TRA.     0.5784D+27                  1092.9636     4.9680    38.0918
         TOT.                       18.313    3289.6103    23.4867    76.2031

 230.00  VIB.     0.1140D+02                  1700.5530    16.4036    12.2300
         ROT.     0.1545D+06                   685.5862     2.9808    26.7235
         INT.     0.1761D+07                  2386.1393    19.3844    38.9535
         TRA.     0.6182D+27                  1142.6437     4.9680    38.3126
         TOT.                       18.552    3528.7830    24.3525    77.2662

 240.00  VIB.     0.1341D+02                  1869.0325    17.2967    12.9469
         ROT.     0.1647D+06                   715.3943     2.9808    26.8504
         INT.     0.2209D+07                  2584.4269    20.2776    39.7973
         TRA.     0.6590D+27                  1192.3239     4.9680    38.5241
         TOT.                       18.800    3776.7508    25.2456    78.3214

 250.00  VIB.     0.1580D+02                  2046.5746    18.2158    13.6716
         ROT.     0.1751D+06                   745.2024     2.9808    26.9720
         INT.     0.2767D+07                  2791.7771    21.1967    40.6436
         TRA.     0.7006D+27                  1242.0041     4.9680    38.7269
         TOT.                       19.057    4033.7811    26.1647    79.3705

 260.00  VIB.     0.1865D+02                  2233.4292    19.1589    14.4043
         ROT.     0.1857D+06                   775.0105     2.9808    27.0889
         INT.     0.3462D+07                  3008.4398    22.1397    41.4933
         TRA.     0.7431D+27                  1291.6842     4.9680    38.9217
         TOT.                       19.323    4300.1240    27.1077    80.4150

 270.00  VIB.     0.2204D+02                  2429.8233    20.1233    15.1454
         ROT.     0.1965D+06                   804.8186     2.9808    27.2014
         INT.     0.4330D+07                  3234.6419    23.1041    42.3468
         TRA.     0.7864D+27                  1341.3644     4.9680    39.1092
         TOT.                       19.599    4576.0063    28.0721    81.4561

 280.00  VIB.     0.2608D+02                  2635.9568    21.1063    15.8949
         ROT.     0.2075D+06                   834.6267     2.9808    27.3098
         INT.     0.5412D+07                  3470.5835    24.0871    43.2048
         TRA.     0.8304D+27                  1391.0445     4.9680    39.2899
         TOT.                       19.885    4861.6280    29.0551    82.4947

 290.00  VIB.     0.3091D+02                  2852.0002    22.1048    16.6530
         ROT.     0.2187D+06                   864.4348     2.9808    27.4145
         INT.     0.6761D+07                  3716.4350    25.0856    44.0674
         TRA.     0.8753D+27                  1440.7247     4.9680    39.4642
         TOT.                       20.180    5157.1597    30.0536    83.5316

 300.00  VIB.     0.3669D+02                  3078.0936    23.1157    17.4194
         ROT.     0.2301D+06                   894.2429     2.9808    27.5155
         INT.     0.8443D+07                  3972.3365    26.0965    44.9349
         TRA.     0.9210D+27                  1490.4049     4.9680    39.6326
         TOT.                       20.486    5462.7414    31.0646    84.5675

 310.00  VIB.     0.4362D+02                  3314.3460    24.1361    18.1939
         ROT.     0.2417D+06                   924.0510     2.9808    27.6132
         INT.     0.1054D+08                  4238.3970    27.1169    45.8072
         TRA.     0.9674D+27                  1540.0850     4.9680    39.7955
         TOT.                       20.802    5778.4821    32.0849    85.6027

 320.00  VIB.     0.5192D+02                  3560.8362    25.1628    18.9764
         ROT.     0.2535D+06                   953.8591     2.9808    27.7079
         INT.     0.1316D+08                  4514.6954    28.1436    46.6843
         TRA.     0.1015D+28                  1589.7652     4.9680    39.9533
         TOT.                       21.128    6104.4606    33.1116    86.6376

 330.00  VIB.     0.6189D+02                  3817.6138    26.1931    19.7665
         ROT.     0.2655D+06                   983.6672     2.9808    27.7996
         INT.     0.1643D+08                  4801.2810    29.1739    47.5661
         TRA.     0.1063D+28                  1639.4454     4.9680    40.1062
         TOT.                       21.464    6440.7264    34.1419    87.6723

 340.00  VIB.     0.7388D+02                  4084.7007    27.2242    20.5638
         ROT.     0.2776D+06                  1013.4753     2.9808    27.8886
         INT.     0.2051D+08                  5098.1760    30.2050    48.4523
         TRA.     0.1111D+28                  1689.1255     4.9680    40.2545
         TOT.                       21.811    6787.3015    35.1731    88.7068

 350.00  VIB.     0.8832D+02                  4362.0932    28.2538    21.3678
         ROT.     0.2900D+06                  1043.2834     2.9808    27.9750
         INT.     0.2561D+08                  5405.3766    31.2346    49.3428
         TRA.     0.1161D+28                  1738.8057     4.9680    40.3985
         TOT.                       22.168    7144.1823    36.2026    89.7412

 360.00  VIB.     0.1057D+03                  4649.7641    29.2795    22.1781
         ROT.     0.3025D+06                  1073.0915     2.9808    28.0590
         INT.     0.3198D+08                  5722.8556    32.2604    50.2371
         TRA.     0.1211D+28                  1788.4859     4.9680    40.5384
         TOT.                       22.535    7511.3414    37.2284    90.7755

 370.00  VIB.     0.1267D+03                  4947.6646    30.2994    22.9943
         ROT.     0.3152D+06                  1102.8996     2.9808    28.1406
         INT.     0.3994D+08                  6050.5642    33.2802    51.1349
         TRA.     0.1261D+28                  1838.1660     4.9680    40.6745
         TOT.                       22.912    7888.7302    38.2483    91.8094

 380.00  VIB.     0.1521D+03                  5255.7271    31.3117    23.8157
         ROT.     0.3280D+06                  1132.7077     2.9808    28.2201
         INT.     0.4990D+08                  6388.4348    34.2925    52.0359
         TRA.     0.1313D+28                  1887.8462     4.9680    40.8070
         TOT.                       23.300    8276.2810    39.2605    92.8429

 390.00  VIB.     0.1828D+03                  5573.8670    32.3147    24.6421
         ROT.     0.3411D+06                  1162.5158     2.9808    28.2976
         INT.     0.6235D+08                  6736.3828    35.2955    52.9396
         TRA.     0.1365D+28                  1937.5263     4.9680    40.9361
         TOT.                       23.697    8673.9091    40.2635    93.8757

 400.00  VIB.     0.2199D+03                  5901.9850    33.3071    25.4727
         ROT.     0.3543D+06                  1192.3239     2.9808    28.3730
         INT.     0.7792D+08                  7094.3089    36.2879    53.8458
         TRA.     0.1418D+28                  1987.2065     4.9680    41.0619
         TOT.                       24.105    9081.5154    41.2559    94.9076

   *: NOTE: HEATS OF FORMATION ARE RELATIVE TO THE
            ELEMENTS IN THEIR STANDARD STATE AT 298K
              (=  Standard Enthalpy of Formation).

            Hvib:  Zero-point energy is not included.
                   frequencies of less than zero cm-1 are not included.
            Hrot = (3/2)RT
            Htra = (3/2)RT + pV = (5/2)RT

            Heat capacity is Cp, not Cv

          For more information, see: HTTP://OpenMOPAC.net/Manual/thermochemistry.html


           FORCE CONSTANT IN CARTESIAN COORDINATES (Millidynes/A)

    ATOM   CHEMICAL       X               Y               Z
   NUMBER   SYMBOL  FORCE CONSTANT  FORCE CONSTANT  FORCE CONSTANT

      1       C        8.341655        8.384343        8.384528
      2       C        8.928032        7.054234        8.341815
      3       C        7.374115        8.287270        8.338415
      4       C        8.418171        8.365342        8.095158
      5       C        8.425794        8.107001        8.351549
      6       C        4.921818       13.910031        7.643233
      7       C        7.116830       11.838507        7.732050
      8       H        1.117316        2.260139        2.647165
      9       H        1.257462        2.254723        2.706008
     10       H        2.466974        3.441079        0.656456
     11       H        2.737859        0.797678        3.043670
     12       H        1.108245        2.466070        3.199348
     13       H        5.386565        0.677070        0.724554
     14       H        1.250163        1.152709        4.372491
     15       H        1.078939        2.714826        2.976810
     16       H        1.211562        4.656340        0.909117
     17       H        5.382832        0.728863        0.675130
     18       H        2.306699        1.850974        2.439872
     19       H        0.457204        3.578553        2.557738

 **********************
 *                    *
 * JOB ENDED NORMALLY *
 *                    *
 **********************



 TOTAL JOB TIME:             1.21 SECONDS

 == MOPAC DONE ==
