 *******************************************************************************
 ** Site#: 14399        For non-commercial use only    Version 18.184L 64BITS **
 *******************************************************************************
 ** Cite this program as: MOPAC2016, Version: 18.184L, James J. P. Stewart,   **
 ** Stewart Computational Chemistry, web: HTTP://OpenMOPAC.net. Days left:  18**
 *******************************************************************************
 **                                                                           **
 **                                MOPAC2016                                  **
 **                                                                           **
 *******************************************************************************

                              PM3 CALCULATION RESULTS

 *******************************************************************************
 *  CALCULATION DONE:                                Sat Jun 15 10:14:00 2019  *
 *  PM3        - The PM3 Hamiltonian to be used
 *  PRECISE    - CRITERIA TO BE INCREASED BY 100 TIMES
 *  NOSYM      - POINT-GROUP SYMMETRY SET TO C1
 *  THREADS=1  - MULTI-THREADING NOT USED
 *  T=         - A TIME OF 172800.0 SECONDS REQUESTED
 *  DUMP=N     - RESTART FILE WRITTEN EVERY  7200.000 SECONDS
 *******************************************************************************
pm3  precise nosym THREADS=1
 InChI=1S/C10H10/c1-8-6-7-9-4-2-3-5-10(8)9/h2-5H,1,6-7H2

   ATOM   CHEMICAL          X               Y               Z
  NUMBER   SYMBOL      (ANGSTROMS)     (ANGSTROMS)     (ANGSTROMS)
 
     1       C         -2.06800000  *  -0.58200000  *  -0.08250000  *
     2       C         -0.96690000  *  -1.64880000  *   0.11100000  *
     3       C          0.30740000  *  -0.87070000  *   0.11620000  *
     4       C         -1.33060000  *   0.72010000  *  -0.17200000  *
     5       C          0.09470000  *   0.47730000  *  -0.04520000  *
     6       C          1.59920000  *  -1.38190000  *   0.26280000  *
     7       C          1.15990000  *   1.38480000  *  -0.06870000  *
     8       C          2.46480000  *   0.88870000  *   0.07710000  *
     9       C          2.68410000  *  -0.49130000  *   0.24250000  *
    10       C         -1.91460000  *   1.90560000  *  -0.34190000  *
    11       H         -2.76210000  *  -0.57160000  *   0.78570000  *
    12       H         -2.63480000  *  -0.76780000  *  -1.02040000  *
    13       H         -1.09490000  *  -2.18020000  *   1.07850000  *
    14       H         -0.96760000  *  -2.37650000  *  -0.72880000  *
    15       H          0.99310000  *   2.44580000  *  -0.19570000  *
    16       H          3.30540000  *   1.57030000  *   0.06230000  *
    17       H          1.76200000  *  -2.44440000  *   0.38970000  *
    18       H          3.69260000  *  -0.86760000  *   0.35440000  *
    19       H         -2.99160000  *   1.97530000  *  -0.42540000  *
    20       H         -1.33230000  *   2.81500000  *  -0.39970000  *
 


          CARTESIAN COORDINATES 

    NO.       ATOM           X           Y           Z

     1         C         -2.0680     -0.5820     -0.0825
     2         C         -0.9669     -1.6488      0.1110
     3         C          0.3074     -0.8707      0.1162
     4         C         -1.3306      0.7201     -0.1720
     5         C          0.0947      0.4773     -0.0452
     6         C          1.5992     -1.3819      0.2628
     7         C          1.1599      1.3848     -0.0687
     8         C          2.4648      0.8887      0.0771
     9         C          2.6841     -0.4913      0.2425
    10         C         -1.9146      1.9056     -0.3419
    11         H         -2.7621     -0.5716      0.7857
    12         H         -2.6348     -0.7678     -1.0204
    13         H         -1.0949     -2.1802      1.0785
    14         H         -0.9676     -2.3765     -0.7288
    15         H          0.9931      2.4458     -0.1957
    16         H          3.3054      1.5703      0.0623
    17         H          1.7620     -2.4444      0.3897
    18         H          3.6926     -0.8676      0.3544
    19         H         -2.9916      1.9753     -0.4254
    20         H         -1.3323      2.8150     -0.3997

  H: (PM3): J. J. P. STEWART, J. COMP. CHEM. 10, 209 (1989).
  C: (PM3): J. J. P. STEWART, J. COMP. CHEM. 10, 209 (1989).

           Empirical Formula: C10 H10  =    20 atoms



      MOLECULAR POINT GROUP   :   C1  


      RHF CALCULATION, NO. OF DOUBLY OCCUPIED LEVELS = 25


          Geometry optimization using EF

          DIAGONAL MATRIX USED AS START HESSIAN

 CYCLE:     1 TIME:   0.008 TIME LEFT:  2.00D  GRAD.:    91.167 HEAT:  34.56311
 CYCLE:     2 TIME:   0.012 TIME LEFT:  2.00D  GRAD.:    50.873 HEAT:  33.31558
 CYCLE:     3 TIME:   0.004 TIME LEFT:  2.00D  GRAD.:    66.164 HEAT:  33.30657
 CYCLE:     4 TIME:   0.004 TIME LEFT:  2.00D  GRAD.:    47.595 HEAT:  32.89228
 CYCLE:     5 TIME:   0.004 TIME LEFT:  2.00D  GRAD.:    48.683 HEAT:  32.82938
 CYCLE:     6 TIME:   0.008 TIME LEFT:  2.00D  GRAD.:    24.894 HEAT:  32.44912
 CYCLE:     7 TIME:   0.004 TIME LEFT:  2.00D  GRAD.:    28.463 HEAT:  32.44687
 CYCLE:     8 TIME:   0.004 TIME LEFT:  2.00D  GRAD.:    14.888 HEAT:  32.28211
 CYCLE:     9 TIME:   0.008 TIME LEFT:  2.00D  GRAD.:    13.106 HEAT:  32.25307
 CYCLE:    10 TIME:   0.008 TIME LEFT:  2.00D  GRAD.:     5.557 HEAT:  32.20945
 CYCLE:    11 TIME:   0.008 TIME LEFT:  2.00D  GRAD.:     4.772 HEAT:  32.19941
 CYCLE:    12 TIME:   0.004 TIME LEFT:  2.00D  GRAD.:     3.278 HEAT:  32.18779
 CYCLE:    13 TIME:   0.004 TIME LEFT:  2.00D  GRAD.:     3.428 HEAT:  32.17564
 CYCLE:    14 TIME:   0.004 TIME LEFT:  2.00D  GRAD.:     4.447 HEAT:  32.17354
 CYCLE:    15 TIME:   0.004 TIME LEFT:  2.00D  GRAD.:     3.751 HEAT:  32.17245
 CYCLE:    16 TIME:   0.004 TIME LEFT:  2.00D  GRAD.:     5.498 HEAT:  32.17482
 CYCLE:    17 TIME:   0.004 TIME LEFT:  2.00D  GRAD.:     3.039 HEAT:  32.17063
 CYCLE:    18 TIME:   0.004 TIME LEFT:  2.00D  GRAD.:     3.425 HEAT:  32.17035
 CYCLE:    19 TIME:   0.004 TIME LEFT:  2.00D  GRAD.:     1.887 HEAT:  32.16806
 CYCLE:    20 TIME:   0.004 TIME LEFT:  2.00D  GRAD.:     1.448 HEAT:  32.16760
 CYCLE:    21 TIME:   0.004 TIME LEFT:  2.00D  GRAD.:     1.255 HEAT:  32.16722
 CYCLE:    22 TIME:   0.008 TIME LEFT:  2.00D  GRAD.:     1.112 HEAT:  32.16692
 CYCLE:    23 TIME:   0.004 TIME LEFT:  2.00D  GRAD.:     1.076 HEAT:  32.16678
 CYCLE:    24 TIME:   0.004 TIME LEFT:  2.00D  GRAD.:     1.069 HEAT:  32.16671
 CYCLE:    25 TIME:   0.004 TIME LEFT:  2.00D  GRAD.:     0.485 HEAT:  32.16641
 CYCLE:    26 TIME:   0.004 TIME LEFT:  2.00D  GRAD.:     0.353 HEAT:  32.16629
 CYCLE:    27 TIME:   0.004 TIME LEFT:  2.00D  GRAD.:     0.267 HEAT:  32.16617
 CYCLE:    28 TIME:   0.004 TIME LEFT:  2.00D  GRAD.:     0.287 HEAT:  32.16606
 CYCLE:    29 TIME:   0.004 TIME LEFT:  2.00D  GRAD.:     0.205 HEAT:  32.16603
 CYCLE:    30 TIME:   0.004 TIME LEFT:  2.00D  GRAD.:     0.166 HEAT:  32.16600
 CYCLE:    31 TIME:   0.004 TIME LEFT:  2.00D  GRAD.:     0.115 HEAT:  32.16598
 CYCLE:    32 TIME:   0.004 TIME LEFT:  2.00D  GRAD.:     0.104 HEAT:  32.16596
 CYCLE:    33 TIME:   0.004 TIME LEFT:  2.00D  GRAD.:     0.077 HEAT:  32.16595
 CYCLE:    34 TIME:   0.004 TIME LEFT:  2.00D  GRAD.:     0.058 HEAT:  32.16595
 CYCLE:    35 TIME:   0.004 TIME LEFT:  2.00D  GRAD.:     0.074 HEAT:  32.16594
 CYCLE:    36 TIME:   0.008 TIME LEFT:  2.00D  GRAD.:     0.060 HEAT:  32.16594
 CYCLE:    37 TIME:   0.004 TIME LEFT:  2.00D  GRAD.:     0.046 HEAT:  32.16593

     GRADIENT =  0.04612  IS LESS THAN CUTOFF =  0.05000



 -------------------------------------------------------------------------------
 pm3  precise nosym THREADS=1
 InChI=1S/C10H10/c1-8-6-7-9-4-2-3-5-10(8)9/h2-5H,1,6-7H2



     GEOMETRY OPTIMISED USING EIGENVECTOR FOLLOWING (EF).     
     SCF FIELD WAS ACHIEVED                                   


                              PM3 CALCULATION
                                                       MOPAC2016 (Version: 18.184L)
                                                       Sat Jun 15 10:14:00 2019
                                                       No. of days remaining =  18




          FINAL HEAT OF FORMATION =         32.16593 KCAL/MOL =     134.58227 KJ/MOL


          TOTAL ENERGY            =      -1338.33609 EV
          ELECTRONIC ENERGY       =      -7071.79944 EV  POINT GROUP:     C1  
          CORE-CORE REPULSION     =       5733.46335 EV
          COSMO AREA              =        172.67 SQUARE ANGSTROMS
          COSMO VOLUME            =        172.86 CUBIC ANGSTROMS

          GRADIENT NORM           =          0.04612 = 0.01031 PER ATOM
          IONIZATION POTENTIAL    =          8.933913 EV
          HOMO LUMO ENERGIES (EV) =         -8.934 -0.070
          NO. OF FILLED LEVELS    =         25
          MOLECULAR WEIGHT        =        130.1890

          MOLECULAR DIMENSIONS (Angstroms)

            Atom       Atom       Distance
            H    19    H    18     7.33961
            H    16    H    14     5.36381
            H    13    H    12     1.88335


          SCF CALCULATIONS        =         44
 
          WALL-CLOCK TIME         =          0.188 SECONDS
          COMPUTATION TIME        =          0.172 SECONDS




   ATOM   CHEMICAL          X               Y               Z
  NUMBER   SYMBOL      (ANGSTROMS)     (ANGSTROMS)     (ANGSTROMS)
 
     1       C         -2.05187587  *  -0.58197602  *  -0.08138908  *
     2       C         -0.96197973  *  -1.65335758  *   0.11197331  *
     3       C          0.32496304  *  -0.89482787  *   0.12013639  *
     4       C         -1.33750078  *   0.74025162  *  -0.17461566  *
     5       C          0.09841393  *   0.48550033  *  -0.04569529  *
     6       C          1.60971381  *  -1.38769170  *   0.26403643  *
     7       C          1.15889606  *   1.37746632  *  -0.06785580  *
     8       C          2.45387881  *   0.87631200  *   0.07773283  *
     9       C          2.67624058  *  -0.48593412  *   0.24121775  *
    10       C         -1.92573743  *   1.92146629  *  -0.34457706  *
    11       H         -2.77023765  *  -0.57697454  *   0.75869864  *
    12       H         -2.64641536  *  -0.76747675  *  -0.99459659  *
    13       H         -1.09656191  *  -2.21418516  *   1.05504152  *
    14       H         -0.97299201  *  -2.40503570  *  -0.69850161  *
    15       H          0.98443086  *   2.45089469  *  -0.19663833  *
    16       H          3.30333063  *   1.56701450  *   0.06259141  *
    17       H          1.78630984  *  -2.45989638  *   0.39286879  *
    18       H          3.69941878  *  -0.85930457  *   0.35370357  *
    19       H         -3.00233918  *   2.02838293  *  -0.43216308  *
    20       H         -1.36696809  *   2.85072856  *  -0.40614803  *

                             CARTESIAN COORDINATES

   1    C       -2.051875874    -0.581976017    -0.081389075
   2    C       -0.961979728    -1.653357580     0.111973307
   3    C        0.324963043    -0.894827873     0.120136392
   4    C       -1.337500776     0.740251620    -0.174615658
   5    C        0.098413933     0.485500326    -0.045695288
   6    C        1.609713809    -1.387691700     0.264036430
   7    C        1.158896062     1.377466321    -0.067855798
   8    C        2.453878808     0.876312000     0.077732833
   9    C        2.676240575    -0.485934121     0.241217754
  10    C       -1.925737430     1.921466288    -0.344577058
  11    H       -2.770237647    -0.576974538     0.758698637
  12    H       -2.646415363    -0.767476755    -0.994596590
  13    H       -1.096561915    -2.214185155     1.055041519
  14    H       -0.972992006    -2.405035702    -0.698501610
  15    H        0.984430863     2.450894693    -0.196638331
  16    H        3.303330630     1.567014504     0.062591410
  17    H        1.786309840    -2.459896379     0.392868795
  18    H        3.699418784    -0.859304575     0.353703574
  19    H       -3.002339180     2.028382932    -0.432163080
  20    H       -1.366968088     2.850728564    -0.406148026


           Empirical Formula: C10 H10  =    20 atoms



      MOLECULAR POINT GROUP   :   C1  


                  EIGENVALUES  
 -41.46281 -35.70620 -31.88920 -28.30276 -27.37690 -23.49267 -21.76293 -20.41893
 -19.08736 -17.25224 -16.48632 -16.02205 -15.67601 -14.97123 -14.73690 -14.05383
 -13.26705 -13.17114 -12.82271 -12.67700 -12.35506 -12.14824 -10.75248  -9.59585
  -8.93391  -0.07000   0.39632   1.53397   2.91058   3.06730   3.22722   3.38766
   3.45317   3.54965   3.70569   3.86939   3.97834   4.01781   4.03816   4.17008
   4.60192   4.79654   4.87165   4.99195   5.12885   5.33678   5.58000   5.91715
   6.23391   6.46470


              NET ATOMIC CHARGES AND DIPOLE CONTRIBUTIONS

  ATOM NO.   TYPE          CHARGE      No. of ELECS.   s-Pop       p-Pop       
    1          C          -0.059291        4.0593     1.15376     2.90553
    2          C          -0.047149        4.0471     1.14912     2.89803
    3          C          -0.076757        4.0768     1.18801     2.88874
    4          C          -0.062935        4.0629     1.18440     2.87854
    5          C          -0.051250        4.0513     1.16914     2.88211
    6          C          -0.093193        4.0932     1.17226     2.92094
    7          C          -0.072327        4.0723     1.17178     2.90054
    8          C          -0.109760        4.1098     1.17946     2.93030
    9          C          -0.095673        4.0957     1.17924     2.91644
   10          C          -0.159020        4.1590     1.17621     2.98281
   11          H           0.059482        0.9405     0.94052
   12          H           0.059483        0.9405     0.94052
   13          H           0.059811        0.9402     0.94019
   14          H           0.059811        0.9402     0.94019
   15          H           0.107502        0.8925     0.89250
   16          H           0.102021        0.8980     0.89798
   17          H           0.106318        0.8937     0.89368
   18          H           0.101051        0.8989     0.89895
   19          H           0.085120        0.9149     0.91488
   20          H           0.086756        0.9132     0.91324
 DIPOLE           X         Y         Z       TOTAL
 POINT-CHG.    -0.218    -0.371     0.025     0.431
 HYBRID         0.001     0.015    -0.002     0.015
 SUM           -0.217    -0.355     0.023     0.417


          ATOMIC ORBITAL ELECTRON POPULATIONS

     Atom    s        px        py        pz   
    1  C   1.15376   0.96459   0.92677   1.01416
    2  C   1.14912   0.92203   0.96301   1.01299
    3  C   1.18801   0.94958   0.95021   0.98895
    4  C   1.18440   0.92898   0.95461   0.99495
    5  C   1.16914   0.93135   0.94287   1.00789
    6  C   1.17226   0.92879   0.98066   1.01148
    7  C   1.17178   0.92993   0.97740   0.99321
    8  C   1.17946   0.96430   0.95706   1.00895
    9  C   1.17924   0.97535   0.94344   0.99764
   10  C   1.17621   0.99942   0.96113   1.02226
   11  H   0.94052
   12  H   0.94052
   13  H   0.94019
   14  H   0.94019
   15  H   0.89250
   16  H   0.89798
   17  H   0.89368
   18  H   0.89895
   19  H   0.91488
   20  H   0.91324
 *******************************************************************************
 ** Site#: 14399        For non-commercial use only    Version 18.184L 64BITS **
 *******************************************************************************
 ** Cite this program as: MOPAC2016, Version: 18.184L, James J. P. Stewart,   **
 ** Stewart Computational Chemistry, web: HTTP://OpenMOPAC.net. Days left:  18**
 *******************************************************************************
 **                                                                           **
 **                                MOPAC2016                                  **
 **                                                                           **
 *******************************************************************************

                              PM3 CALCULATION RESULTS

 *******************************************************************************
 *  CALCULATION DONE:                                Sat Jun 15 10:14:00 2019  *
 *  PM3        - The PM3 Hamiltonian to be used
 *  OLDGEO     - PREVIOUS GEOMETRY TO BE USED
 *  PRECISE    - CRITERIA TO BE INCREASED BY 100 TIMES
 *  NOSYM      - POINT-GROUP SYMMETRY SET TO C1
 *  THREADS=1  - MULTI-THREADING NOT USED
 *  T=         - A TIME OF 172800.0 SECONDS REQUESTED
 *  DUMP=N     - RESTART FILE WRITTEN EVERY  7200.000 SECONDS
 *  THERMO     - THERMODYNAMIC QUANTITIES TO BE CALCULATED
 *******************************************************************************
oldgeo thermo nosym precise THREADS=1  pm3
 InChI=1S/C10H10/c1-8-6-7-9-4-2-3-5-10(8)9/h2-5H,1,6-7H2

   ATOM   CHEMICAL          X               Y               Z
  NUMBER   SYMBOL      (ANGSTROMS)     (ANGSTROMS)     (ANGSTROMS)
 
     1       C         -2.05187587  *  -0.58197602  *  -0.08138908  *
     2       C         -0.96197973  *  -1.65335758  *   0.11197331  *
     3       C          0.32496304  *  -0.89482787  *   0.12013639  *
     4       C         -1.33750078  *   0.74025162  *  -0.17461566  *
     5       C          0.09841393  *   0.48550033  *  -0.04569529  *
     6       C          1.60971381  *  -1.38769170  *   0.26403643  *
     7       C          1.15889606  *   1.37746632  *  -0.06785580  *
     8       C          2.45387881  *   0.87631200  *   0.07773283  *
     9       C          2.67624058  *  -0.48593412  *   0.24121775  *
    10       C         -1.92573743  *   1.92146629  *  -0.34457706  *
    11       H         -2.77023765  *  -0.57697454  *   0.75869864  *
    12       H         -2.64641536  *  -0.76747675  *  -0.99459659  *
    13       H         -1.09656191  *  -2.21418516  *   1.05504152  *
    14       H         -0.97299201  *  -2.40503570  *  -0.69850161  *
    15       H          0.98443086  *   2.45089469  *  -0.19663833  *
    16       H          3.30333063  *   1.56701450  *   0.06259141  *
    17       H          1.78630984  *  -2.45989638  *   0.39286879  *
    18       H          3.69941878  *  -0.85930457  *   0.35370357  *
    19       H         -3.00233918  *   2.02838293  *  -0.43216308  *
    20       H         -1.36696809  *   2.85072856  *  -0.40614803  *
 


          CARTESIAN COORDINATES 

    NO.       ATOM           X           Y           Z

     1         C         -2.0519     -0.5820     -0.0814
     2         C         -0.9620     -1.6534      0.1120
     3         C          0.3250     -0.8948      0.1201
     4         C         -1.3375      0.7403     -0.1746
     5         C          0.0984      0.4855     -0.0457
     6         C          1.6097     -1.3877      0.2640
     7         C          1.1589      1.3775     -0.0679
     8         C          2.4539      0.8763      0.0777
     9         C          2.6762     -0.4859      0.2412
    10         C         -1.9257      1.9215     -0.3446
    11         H         -2.7702     -0.5770      0.7587
    12         H         -2.6464     -0.7675     -0.9946
    13         H         -1.0966     -2.2142      1.0550
    14         H         -0.9730     -2.4050     -0.6985
    15         H          0.9844      2.4509     -0.1966
    16         H          3.3033      1.5670      0.0626
    17         H          1.7863     -2.4599      0.3929
    18         H          3.6994     -0.8593      0.3537
    19         H         -3.0023      2.0284     -0.4322
    20         H         -1.3670      2.8507     -0.4061

  H: (PM3): J. J. P. STEWART, J. COMP. CHEM. 10, 209 (1989).
  C: (PM3): J. J. P. STEWART, J. COMP. CHEM. 10, 209 (1989).

           Empirical Formula: C10 H10  =    20 atoms



      MOLECULAR POINT GROUP   :   C1  


      RHF CALCULATION, NO. OF DOUBLY OCCUPIED LEVELS = 25



          HEAT OF FORMATION =      32.165936 KCALS/MOLE


          CARTESIAN COORDINATE DERIVATIVES

   NUMBER  ATOM         X            Y            Z

     1       C     -0.002667     0.001874     0.001258
     2       C     -0.001306     0.001477     0.001517
     3       C     -0.018031    -0.003150    -0.000098
     4       C     -0.008397    -0.002780     0.010734
     5       C      0.009396    -0.022553     0.005920
     6       C      0.016407     0.021530    -0.015327
     7       C      0.015972     0.017300    -0.007427
     8       C     -0.023941     0.004803     0.000291
     9       C      0.004769    -0.017725     0.011332
    10       C      0.008904     0.011368    -0.010003
    11       H      0.007120    -0.004711    -0.000567
    12       H      0.006625    -0.007889    -0.003887
    13       H     -0.013330    -0.008727     0.004013
    14       H     -0.010035    -0.008102    -0.002468
    15       H     -0.001556    -0.008727     0.002691
    16       H     -0.004197    -0.000100    -0.000155
    17       H     -0.002784     0.000241     0.003048
    18       H      0.007050     0.017817    -0.003507
    19       H      0.004109     0.005045     0.001660
    20       H      0.005894     0.003009     0.000975
 


          GRADIENT NORM =   0.07316

          MOLECULAR WEIGHT =  130.19



          ROTATIONAL CONSTANTS IN CM(-1)

          A =    0.08466461   B =    0.04245795   C =    0.02857942



           PRINCIPAL MOMENTS OF INERTIA IN UNITS OF 10**(-40)*GRAM-CM**2

          A =      330.6313   B =      659.3058   C =      979.4730


          ORIENTATION OF MOLECULE IN FORCE CALCULATION

    NO.       ATOM         X         Y         Z

     1          C      -1.1569   -1.9992   -0.0001
     2          C       0.3836   -1.9992   -0.0001
     3          C       0.7676   -0.5555   -0.0001
     4          C      -1.5828   -0.5549    0.0002
     5          C      -0.3735    0.2704    0.0002
     6          C       2.0374   -0.0061   -0.0004
     7          C      -0.2463    1.6504    0.0003
     8          C       1.0367    2.2010    0.0002
     9          C       2.1619    1.3852   -0.0002
    10          C      -2.8418   -0.1247    0.0002
    11          H      -1.5632   -2.5241    0.8837
    12          H      -1.5631   -2.5238   -0.8842
    13          H       0.7968   -2.5184    0.8840
    14          H       0.7968   -2.5184   -0.8842
    15          H      -1.1325    2.2938    0.0006
    16          H       1.1554    3.2895    0.0003
    17          H       2.9242   -0.6472   -0.0006
    18          H       3.1596    1.8363   -0.0004
    19          H      -3.6888   -0.8035    0.0001
    20          H      -3.1005    0.9301    0.0003


    FIRST DERIVATIVES WILL BE USED IN THE CALCULATION OF SECOND DERIVATIVES

    FOR POINT-GROUP C1   THERE ARE   1 UNIQUE SYMMETRY FUNCTIONS.

 STEP:   1 TIME =     0.02 SECS, INTEGRAL =      0.02 TIME LEFT: 172799.98
 STEP:   2 TIME =     0.02 SECS, INTEGRAL =      0.04 TIME LEFT: 172799.96
 STEP:   3 TIME =     0.02 SECS, INTEGRAL =      0.05 TIME LEFT: 172799.95
 STEP:   4 TIME =     0.02 SECS, INTEGRAL =      0.07 TIME LEFT: 172799.93
 STEP:   5 TIME =     0.02 SECS, INTEGRAL =      0.09 TIME LEFT: 172799.91
 STEP:   6 TIME =     0.02 SECS, INTEGRAL =      0.11 TIME LEFT: 172799.89
 STEP:   7 TIME =     0.02 SECS, INTEGRAL =      0.13 TIME LEFT: 172799.87
 STEP:   8 TIME =     0.02 SECS, INTEGRAL =      0.15 TIME LEFT: 172799.85
 STEP:   9 TIME =     0.02 SECS, INTEGRAL =      0.16 TIME LEFT: 172799.84
 STEP:  10 TIME =     0.02 SECS, INTEGRAL =      0.18 TIME LEFT: 172799.82
 STEP:  11 TIME =     0.02 SECS, INTEGRAL =      0.20 TIME LEFT: 172799.80
 STEP:  12 TIME =     0.02 SECS, INTEGRAL =      0.22 TIME LEFT: 172799.78
 STEP:  13 TIME =     0.02 SECS, INTEGRAL =      0.24 TIME LEFT: 172799.76
 STEP:  14 TIME =     0.02 SECS, INTEGRAL =      0.26 TIME LEFT: 172799.74
 STEP:  15 TIME =     0.02 SECS, INTEGRAL =      0.28 TIME LEFT: 172799.72
 STEP:  16 TIME =     0.02 SECS, INTEGRAL =      0.30 TIME LEFT: 172799.70
 STEP:  17 TIME =     0.02 SECS, INTEGRAL =      0.32 TIME LEFT: 172799.68
 STEP:  18 TIME =     0.02 SECS, INTEGRAL =      0.34 TIME LEFT: 172799.66
 STEP:  19 TIME =     0.02 SECS, INTEGRAL =      0.36 TIME LEFT: 172799.64
 STEP:  20 TIME =     0.02 SECS, INTEGRAL =      0.38 TIME LEFT: 172799.62
 STEP:  21 TIME =     0.02 SECS, INTEGRAL =      0.40 TIME LEFT: 172799.60
 STEP:  22 TIME =     0.02 SECS, INTEGRAL =      0.42 TIME LEFT: 172799.58
 STEP:  23 TIME =     0.02 SECS, INTEGRAL =      0.44 TIME LEFT: 172799.56
 STEP:  24 TIME =     0.02 SECS, INTEGRAL =      0.46 TIME LEFT: 172799.54
 STEP:  25 TIME =     0.02 SECS, INTEGRAL =      0.48 TIME LEFT: 172799.52
 STEP:  26 TIME =     0.02 SECS, INTEGRAL =      0.50 TIME LEFT: 172799.50
 STEP:  27 TIME =     0.02 SECS, INTEGRAL =      0.52 TIME LEFT: 172799.48
 STEP:  28 TIME =     0.02 SECS, INTEGRAL =      0.53 TIME LEFT: 172799.47
 STEP:  29 TIME =     0.02 SECS, INTEGRAL =      0.55 TIME LEFT: 172799.45
 STEP:  30 TIME =     0.02 SECS, INTEGRAL =      0.57 TIME LEFT: 172799.43
 STEP:  31 TIME =     0.02 SECS, INTEGRAL =      0.59 TIME LEFT: 172799.41
 STEP:  32 TIME =     0.02 SECS, INTEGRAL =      0.61 TIME LEFT: 172799.39
 STEP:  33 TIME =     0.02 SECS, INTEGRAL =      0.63 TIME LEFT: 172799.37
 STEP:  34 TIME =     0.02 SECS, INTEGRAL =      0.65 TIME LEFT: 172799.35
 STEP:  35 TIME =     0.02 SECS, INTEGRAL =      0.66 TIME LEFT: 172799.34
 STEP:  36 TIME =     0.02 SECS, INTEGRAL =      0.68 TIME LEFT: 172799.32
 STEP:  37 TIME =     0.02 SECS, INTEGRAL =      0.70 TIME LEFT: 172799.30
 STEP:  38 TIME =     0.02 SECS, INTEGRAL =      0.72 TIME LEFT: 172799.28
 STEP:  39 TIME =     0.02 SECS, INTEGRAL =      0.74 TIME LEFT: 172799.26
 STEP:  40 TIME =     0.02 SECS, INTEGRAL =      0.76 TIME LEFT: 172799.24
 STEP:  41 TIME =     0.02 SECS, INTEGRAL =      0.78 TIME LEFT: 172799.22
 STEP:  42 TIME =     0.02 SECS, INTEGRAL =      0.80 TIME LEFT: 172799.20
 STEP:  43 TIME =     0.02 SECS, INTEGRAL =      0.82 TIME LEFT: 172799.18
 STEP:  44 TIME =     0.02 SECS, INTEGRAL =      0.83 TIME LEFT: 172799.17
 STEP:  45 TIME =     0.02 SECS, INTEGRAL =      0.85 TIME LEFT: 172799.15
 STEP:  46 TIME =     0.02 SECS, INTEGRAL =      0.87 TIME LEFT: 172799.13
 STEP:  47 TIME =     0.02 SECS, INTEGRAL =      0.89 TIME LEFT: 172799.11
 STEP:  48 TIME =     0.02 SECS, INTEGRAL =      0.91 TIME LEFT: 172799.09
 STEP:  49 TIME =     0.02 SECS, INTEGRAL =      0.93 TIME LEFT: 172799.07
 STEP:  50 TIME =     0.02 SECS, INTEGRAL =      0.94 TIME LEFT: 172799.06
 STEP:  51 TIME =     0.02 SECS, INTEGRAL =      0.96 TIME LEFT: 172799.04
 STEP:  52 TIME =     0.02 SECS, INTEGRAL =      0.98 TIME LEFT: 172799.02
 STEP:  53 TIME =     0.02 SECS, INTEGRAL =      1.00 TIME LEFT: 172799.00
 STEP:  54 TIME =     0.02 SECS, INTEGRAL =      1.02 TIME LEFT: 172798.98
 STEP:  55 TIME =     0.02 SECS, INTEGRAL =      1.04 TIME LEFT: 172798.96
 STEP:  56 TIME =     0.02 SECS, INTEGRAL =      1.05 TIME LEFT: 172798.95
 STEP:  57 TIME =     0.02 SECS, INTEGRAL =      1.07 TIME LEFT: 172798.93
 STEP:  58 TIME =     0.02 SECS, INTEGRAL =      1.09 TIME LEFT: 172798.91
 STEP:  59 TIME =     0.02 SECS, INTEGRAL =      1.11 TIME LEFT: 172798.89
 STEP:  60 TIME =     0.02 SECS, INTEGRAL =      1.12 TIME LEFT: 172798.88

(To convert to Hartree/Bohr^2, multiply by (10^(-21) x N x a0^2)/(4.184 x 627.51) =  0.0642)


           FORCE MATRIX IN MILLIDYNES/ANGSTROM


                  C  1       C  2       C  3       C  4       C  5       C  6
 ------------------------------------------------------------------------------
     C    1  14.489629
     C    2   3.651422  14.632138
     C    3   0.885753   4.715847  18.401965
     C    4   4.350807   0.785111   1.190761  19.309618
     C    5   0.896537   0.972849   6.301608   5.177930  18.841438
     C    6   0.049085   0.567764   7.320212   0.097201   2.198188  17.513069
     C    7   0.045748   0.083949   2.200221   0.657496   7.215198   1.620560
     C    8   0.009336   0.014222   1.750477   0.113112   2.435948   2.374764
     C    9   0.008714   0.100084   2.439632   0.020127   1.675997   6.835101
     C   10   0.708136   0.055213   0.073147  10.686558   0.885260   0.023106
     H   11   4.536693   0.438351   0.026524   0.433663   0.027849   0.003897
     H   12   4.536480   0.438353   0.026446   0.433684   0.027853   0.003897
     H   13   0.437199   4.528825   0.436216   0.027631   0.029532   0.017960
     H   14   0.437093   4.529018   0.436276   0.027606   0.029528   0.018005
     H   15   0.002801   0.008059   0.089190   0.040915   0.449307   0.010784
     H   16   0.001361   0.007516   0.007646   0.007314   0.087272   0.087904
     H   17   0.001730   0.038050   0.448781   0.008279   0.089537   4.879820
     H   18   0.001411   0.007234   0.087708   0.008608   0.008159   0.433531
     H   19   0.082008   0.002475   0.007850   0.474751   0.130691   0.005565
     H   20   0.118142   0.006426   0.006286   0.478336   0.092118   0.003065


                  C  7       C  8       C  9       C 10       H 11       H 12
 ------------------------------------------------------------------------------
     C    7  17.492380
     C    8   6.843846  17.176026
     C    9   2.322052   7.096710  17.265696
     C   10   0.067563   0.016208   0.008040  17.976506
     H   11   0.002967   0.000871   0.000870   0.021839   5.135446
     H   12   0.002950   0.000878   0.000860   0.021800   0.567877   5.135213
     H   13   0.010133   0.002974   0.010820   0.004654   0.030089   0.025957
     H   14   0.010146   0.002980   0.010787   0.004635   0.025949   0.030105
     H   15   4.849787   0.436476   0.085877   0.013157   0.000397   0.000392
     H   16   0.434376   4.858854   0.434857   0.000740   0.000174   0.000175
     H   17   0.010210   0.086033   0.438300   0.001746   0.000362   0.000364
     H   18   0.087913   0.435671   4.859054   0.000916   0.000179   0.000176
     H   19   0.005950   0.004996   0.000923   5.113339   0.010350   0.010350
     H   20   0.015666   0.004642   0.001081   5.088290   0.012285   0.012268


                  H 13       H 14       H 15       H 16       H 17       H 18
 ------------------------------------------------------------------------------
     H   13   5.130206
     H   14   0.567426   5.130342
     H   15   0.000939   0.000940   5.220776
     H   16   0.000998   0.000987   0.039586   5.224220
     H   17   0.005611   0.005610   0.008281   0.006610   5.248035
     H   18   0.000693   0.000711   0.006725   0.043425   0.039317   5.221889
     H   19   0.000655   0.000657   0.004374   0.000470   0.000700   0.000508
     H   20   0.001334   0.001326   0.021022   0.000438   0.000312   0.000363


                  H 19       H 20
 ------------------------------
     H   19   5.488995
     H   20   0.405852   5.468205


          HEAT OF FORMATION =      32.165936 KCALS/MOLE

          ZERO POINT ENERGY     105.534 KCAL/MOL


           NORMAL COORDINATE ANALYSIS (Total motion = 1 Angstrom)


   Root No.       1         2         3         4         5         6         7         8

                 1 A       2 A       3 A       4 A       5 A       6 A       7 A       8 A   

                  93.7     139.0     216.7     281.4     377.6     440.0     470.9     533.5
  
           1   -0.0000    0.0000   -0.0000   -0.0035   -0.0000    0.0000   -0.0354    0.0000
           2   -0.0000    0.0000    0.0000   -0.0138   -0.0000   -0.0000    0.0227    0.0000
           3    0.0608   -0.0295   -0.0148    0.0000   -0.0050   -0.0021   -0.0000    0.0032
           4   -0.0000    0.0000   -0.0000    0.0040   -0.0000   -0.0000   -0.0330    0.0000
           5   -0.0000    0.0000   -0.0000   -0.0235   -0.0000   -0.0000   -0.0248    0.0000
           6   -0.0163    0.0465   -0.0440   -0.0000   -0.0030    0.0007    0.0000   -0.0065
           7   -0.0000   -0.0000   -0.0000    0.0186    0.0000    0.0000    0.0316   -0.0000
           8   -0.0000    0.0000   -0.0000   -0.0238   -0.0000   -0.0000   -0.0288    0.0000
           9   -0.0136    0.0163    0.0475   -0.0000    0.0159    0.0682   -0.0000   -0.0112
          10    0.0000   -0.0000    0.0000    0.0120    0.0000    0.0000    0.0131    0.0000
          11    0.0000   -0.0000   -0.0000   -0.0117   -0.0000    0.0000    0.0281    0.0000
          12    0.0041   -0.0013    0.0207   -0.0000    0.0535   -0.0413    0.0000    0.0621
          13    0.0000   -0.0000    0.0000    0.0176    0.0000    0.0000    0.0378   -0.0000
          14    0.0000    0.0000   -0.0000   -0.0302   -0.0000    0.0000   -0.0149    0.0000
          15    0.0087    0.0301    0.0569   -0.0000    0.0519   -0.0017   -0.0000   -0.0259
          16   -0.0000   -0.0000    0.0000    0.0053   -0.0000   -0.0000    0.0184   -0.0000
          17    0.0000   -0.0000   -0.0000    0.0111    0.0000    0.0000    0.0168   -0.0001
          18   -0.0271   -0.0318    0.0440    0.0000   -0.0530   -0.0056    0.0000    0.0255
          19    0.0000    0.0000    0.0000   -0.0251    0.0000    0.0000    0.0107   -0.0001
          20   -0.0000   -0.0000    0.0000   -0.0280   -0.0000    0.0000   -0.0151    0.0000
          21    0.0305    0.0436    0.0186    0.0000   -0.0533   -0.0303   -0.0000   -0.0207
          22    0.0000    0.0000   -0.0000   -0.0420   -0.0000    0.0000   -0.0081   -0.0000
          23    0.0000   -0.0000    0.0000    0.0009    0.0000    0.0000    0.0214   -0.0000
          24    0.0234    0.0074   -0.0520    0.0000    0.0031    0.0441    0.0000    0.0299
          25   -0.0000   -0.0000   -0.0000   -0.0305   -0.0000   -0.0000   -0.0063   -0.0001
          26    0.0000   -0.0000   -0.0000    0.0159    0.0000   -0.0000    0.0255   -0.0001
          27   -0.0087   -0.0436   -0.0254   -0.0000    0.0398   -0.0330   -0.0000   -0.0320
          28   -0.0000    0.0000    0.0000    0.0451    0.0000   -0.0000   -0.0046    0.0000
          29   -0.0000    0.0000   -0.0000    0.0846    0.0000   -0.0000   -0.0241    0.0000
          30   -0.0605   -0.0287   -0.0176    0.0000   -0.0158    0.0110   -0.0000   -0.0106
          31    0.0463   -0.0463    0.0184   -0.0058   -0.0064    0.0044   -0.0584   -0.0124
          32    0.0544   -0.0359   -0.0147   -0.0110   -0.0529    0.0446    0.0388   -0.0930
          33    0.1148   -0.0725   -0.0150    0.0003   -0.0402    0.0272   -0.0005   -0.0600
          34   -0.0463    0.0464   -0.0184   -0.0058    0.0063   -0.0044   -0.0583    0.0125
          35   -0.0544    0.0359    0.0147   -0.0111    0.0529   -0.0446    0.0389    0.0931
          36    0.1148   -0.0725   -0.0150   -0.0002   -0.0401    0.0272    0.0004   -0.0600
          37    0.0457   -0.0459    0.0208   -0.0025   -0.0009    0.0062   -0.0614    0.0111
          38   -0.0164    0.0381   -0.0763   -0.0281   -0.0129   -0.0739   -0.0462   -0.0042
          39   -0.0475    0.0908   -0.0993    0.0001   -0.0103   -0.0469    0.0002   -0.0147
          40   -0.0457    0.0459   -0.0208   -0.0026    0.0009   -0.0062   -0.0614   -0.0110
          41    0.0164   -0.0381    0.0762   -0.0281    0.0129    0.0738   -0.0463    0.0042
          42   -0.0475    0.0908   -0.0993   -0.0001   -0.0103   -0.0469   -0.0001   -0.0147
          43    0.0000    0.0000    0.0000   -0.0434   -0.0000   -0.0000   -0.0125   -0.0001
          44   -0.0000    0.0000    0.0000   -0.0527   -0.0000    0.0000   -0.0470    0.0000
          45    0.0523    0.0730    0.0206    0.0001   -0.1606   -0.1074    0.0000   -0.0224
          46    0.0000    0.0000   -0.0000   -0.0635   -0.0000    0.0000   -0.0304    0.0001
          47   -0.0000   -0.0000    0.0000    0.0030    0.0000    0.0000    0.0236   -0.0000
          48    0.0417    0.0128   -0.1252   -0.0000    0.0080    0.1215    0.0000    0.1162
          49   -0.0000   -0.0000    0.0000    0.0250   -0.0000   -0.0000    0.0443    0.0000
          50    0.0000   -0.0000   -0.0000    0.0386    0.0001    0.0000    0.0525   -0.0001
          51   -0.0494   -0.0611    0.0661    0.0001   -0.1575   -0.0618    0.0000    0.0991
          52   -0.0000   -0.0000   -0.0000   -0.0401    0.0000   -0.0000   -0.0117   -0.0001
          53   -0.0000   -0.0000   -0.0000    0.0375    0.0000   -0.0000    0.0383   -0.0001
          54   -0.0180   -0.0887   -0.0664   -0.0001    0.1097   -0.1114   -0.0001   -0.0944
          55    0.0000    0.0000    0.0000   -0.0178   -0.0000    0.0000    0.0464    0.0000
          56   -0.0000    0.0000   -0.0000    0.1649    0.0001   -0.0000   -0.0900   -0.0000
          57   -0.0745   -0.0663   -0.0703    0.0000   -0.0854    0.0380    0.0000    0.0336
          58   -0.0000    0.0000   -0.0000    0.1401    0.0001   -0.0000   -0.0830    0.0000
          59   -0.0000    0.0000   -0.0000    0.1092    0.0000   -0.0000   -0.0449    0.0000
          60   -0.1043   -0.0156   -0.0003    0.0000   -0.0181    0.0416   -0.0001   -0.1461


   Root No.       9        10        11        12        13        14        15        16

                 9 A      10 A      11 A      12 A      13 A      14 A      15 A      16 A   

                 550.6     553.6     613.0     658.8     716.2     783.7     827.5     831.5
  
           1   -0.0196   -0.0272   -0.0000   -0.0473    0.0000    0.0000    0.0000   -0.0067
           2   -0.0531   -0.0351   -0.0000   -0.0303    0.0000    0.0000   -0.0000   -0.0258
           3   -0.0000    0.0000   -0.0012   -0.0000   -0.0112   -0.0088   -0.0234    0.0000
           4   -0.0293   -0.0119   -0.0000   -0.0555    0.0000    0.0000    0.0000   -0.0017
           5   -0.0346    0.0124   -0.0000    0.0563    0.0000   -0.0000    0.0000    0.0159
           6   -0.0000   -0.0000    0.0035   -0.0000   -0.0187   -0.0002   -0.0235    0.0000
           7   -0.0365    0.0091   -0.0000    0.0179    0.0000   -0.0000    0.0000    0.0324
           8   -0.0148    0.0140    0.0000    0.0425   -0.0000   -0.0000   -0.0000   -0.0017
           9   -0.0000   -0.0000    0.0264    0.0000   -0.0289    0.0025    0.0261   -0.0000
          10    0.0349   -0.0517    0.0000    0.0299   -0.0000    0.0000   -0.0000   -0.0311
          11   -0.0328   -0.0388   -0.0000   -0.0297    0.0000    0.0000   -0.0000   -0.0165
          12    0.0000    0.0001   -0.0119    0.0000   -0.0134   -0.0094    0.0256   -0.0000
          13    0.0012   -0.0242   -0.0000    0.0023    0.0000    0.0000    0.0000    0.0178
          14    0.0258   -0.0389    0.0000    0.0127   -0.0000   -0.0000    0.0000    0.0033
          15   -0.0000   -0.0000   -0.0073    0.0000    0.0509    0.0342   -0.0194    0.0000
          16   -0.0533    0.0075   -0.0000    0.0487    0.0000   -0.0000    0.0000    0.0567
          17    0.0161    0.0551    0.0000   -0.0059   -0.0000   -0.0000   -0.0000   -0.0398
          18    0.0000    0.0001   -0.0152   -0.0000    0.0132   -0.0158    0.0123   -0.0000
          19    0.0325    0.0456    0.0000   -0.0348    0.0000   -0.0000    0.0000    0.0200
          20    0.0385   -0.0449    0.0000    0.0134   -0.0000   -0.0000    0.0000    0.0246
          21    0.0000   -0.0000    0.0166   -0.0000   -0.0011   -0.0123   -0.0121    0.0000
          22    0.0268    0.0320    0.0000   -0.0135    0.0000   -0.0000   -0.0000    0.0032
          23    0.0618    0.0034    0.0000   -0.0377    0.0000   -0.0000    0.0000    0.0647
          24    0.0000    0.0000   -0.0145    0.0000    0.0155   -0.0231   -0.0096   -0.0000
          25   -0.0090    0.0633    0.0000    0.0176   -0.0000    0.0000   -0.0000   -0.0563
          26    0.0151    0.0535   -0.0000   -0.0051   -0.0000    0.0000   -0.0000   -0.0260
          27   -0.0000   -0.0001    0.0162   -0.0000   -0.0042   -0.0292    0.0049    0.0000
          28    0.0484   -0.0416    0.0000    0.0433   -0.0000    0.0000   -0.0000   -0.0418
          29   -0.0160    0.0099   -0.0000   -0.0203   -0.0000    0.0000    0.0000   -0.0061
          30   -0.0000   -0.0000   -0.0003   -0.0000    0.0007    0.0001    0.0032   -0.0000
          31   -0.0332   -0.0080   -0.0175   -0.0516    0.0364    0.0100    0.0903    0.0213
          32   -0.0482   -0.0536   -0.0268   -0.0365    0.0451    0.0320    0.0536   -0.0557
          33   -0.0023   -0.0018   -0.0264   -0.0038    0.0343    0.0158    0.0537   -0.0040
          34   -0.0332   -0.0080    0.0175   -0.0517   -0.0364   -0.0100   -0.0902    0.0214
          35   -0.0482   -0.0533    0.0268   -0.0366   -0.0451   -0.0320   -0.0537   -0.0556
          36    0.0023    0.0017   -0.0264    0.0039    0.0342    0.0158    0.0537    0.0039
          37   -0.0230   -0.0115    0.0066   -0.0556   -0.0348   -0.0139   -0.0920    0.0031
          38   -0.0301    0.0149   -0.0378    0.0672    0.0884   -0.0034    0.0561    0.0204
          39   -0.0003    0.0007   -0.0228    0.0048    0.0525    0.0047    0.0564    0.0006
          40   -0.0230   -0.0116   -0.0066   -0.0555    0.0348    0.0138    0.0920    0.0030
          41   -0.0301    0.0150    0.0378    0.0672   -0.0884    0.0033   -0.0561    0.0205
          42    0.0003   -0.0008   -0.0228   -0.0047    0.0525    0.0047    0.0564   -0.0007
          43    0.0378    0.0555    0.0000   -0.0247   -0.0000    0.0000    0.0000    0.0061
          44    0.0465   -0.0306    0.0000    0.0270    0.0000   -0.0000   -0.0000    0.0059
          45    0.0001   -0.0000    0.0403   -0.0001   -0.1530    0.0690    0.1135    0.0000
          46    0.0462   -0.0285    0.0000   -0.0053    0.0000   -0.0000    0.0000    0.0683
          47    0.0599    0.0104    0.0000   -0.0384    0.0000   -0.0000    0.0000    0.0590
          48    0.0000    0.0003   -0.0665    0.0000   -0.0331    0.2206    0.0511    0.0000
          49   -0.0546    0.0046   -0.0000    0.0411    0.0000   -0.0000   -0.0000    0.1018
          50    0.0142    0.0503    0.0000   -0.0161    0.0000   -0.0001    0.0000    0.0202
          51    0.0001    0.0002   -0.0848   -0.0000    0.0350    0.1625   -0.1103    0.0002
          52    0.0145    0.0629    0.0000   -0.0032   -0.0000    0.0001   -0.0000   -0.0583
          53   -0.0364    0.0548   -0.0000    0.0414   -0.0000    0.0000   -0.0000   -0.0213
          54   -0.0000   -0.0002    0.0451   -0.0000   -0.0855    0.2227   -0.0165    0.0001
          55    0.0300   -0.0936   -0.0000    0.0372   -0.0000    0.0000   -0.0000   -0.1123
          56    0.0087    0.0752    0.0000   -0.0112    0.0000   -0.0000    0.0000    0.0814
          57   -0.0001    0.0001    0.2476   -0.0001    0.1067    0.0541   -0.0261   -0.0000
          58    0.0874    0.0283    0.0001    0.0683    0.0000   -0.0000   -0.0000    0.0343
          59   -0.0066    0.0286    0.0000   -0.0152    0.0000   -0.0000    0.0000    0.0155
          60    0.0001   -0.0003   -0.2303    0.0000   -0.0771   -0.0314   -0.0433    0.0001


   Root No.      17        18        19        20        21        22        23        24

                17 A      18 A      19 A      20 A      21 A      22 A      23 A      24 A   

                 887.3     899.3     922.4     951.5     980.4    1008.6    1019.5    1068.3
  
           1   -0.0027   -0.0000    0.0133   -0.0000    0.0000   -0.0000   -0.0000    0.0612
           2    0.0077   -0.0000    0.0576    0.0000   -0.0000   -0.0000   -0.0000    0.0087
           3    0.0000   -0.0168   -0.0000   -0.0186    0.0214   -0.0005   -0.0195   -0.0000
           4   -0.0096    0.0000   -0.0115    0.0000   -0.0000    0.0000    0.0000   -0.0590
           5    0.0614   -0.0000    0.0111   -0.0000    0.0000   -0.0000    0.0000    0.0101
           6    0.0000    0.0011   -0.0000    0.0190   -0.0237    0.0022    0.0219    0.0000
           7   -0.0107   -0.0000   -0.0013    0.0000    0.0000   -0.0000   -0.0000    0.0017
           8    0.0063   -0.0000   -0.0021    0.0000   -0.0000    0.0000   -0.0000   -0.0037
           9   -0.0000    0.0191    0.0000   -0.0115    0.0234    0.0051   -0.0261   -0.0000
          10    0.0109   -0.0000    0.0081    0.0000   -0.0000    0.0000   -0.0000   -0.0044
          11    0.0015    0.0000   -0.0129    0.0000    0.0000   -0.0000    0.0000   -0.0050
          12   -0.0000    0.0187    0.0000    0.0052   -0.0071    0.0107    0.0280   -0.0000
          13    0.0049   -0.0000   -0.0016   -0.0000   -0.0000   -0.0000    0.0000   -0.0045
          14   -0.0282    0.0000   -0.0045    0.0000   -0.0000    0.0000   -0.0000    0.0027
          15   -0.0000   -0.0275   -0.0000    0.0193    0.0028   -0.0140    0.0022   -0.0000
          16   -0.0276   -0.0000   -0.0122   -0.0000   -0.0000    0.0000    0.0000   -0.0007
          17   -0.0105    0.0000   -0.0004    0.0000    0.0000    0.0000   -0.0000   -0.0024
          18   -0.0000   -0.0299   -0.0000   -0.0276   -0.0170   -0.0221    0.0235    0.0000
          19    0.0423    0.0000    0.0082   -0.0000   -0.0000    0.0000    0.0000    0.0006
          20   -0.0534    0.0000   -0.0158    0.0000    0.0000    0.0000   -0.0000   -0.0026
          21   -0.0000    0.0225   -0.0000   -0.0362   -0.0206    0.0296   -0.0059    0.0000
          22    0.0013    0.0000    0.0009    0.0000    0.0000   -0.0000    0.0000    0.0022
          23    0.0257   -0.0000    0.0012   -0.0000   -0.0000    0.0000    0.0000   -0.0009
          24   -0.0000    0.0220    0.0000    0.0115    0.0199   -0.0390    0.0139    0.0000
          25   -0.0322    0.0000   -0.0051    0.0000   -0.0000    0.0000   -0.0000    0.0011
          26   -0.0142    0.0000   -0.0001    0.0000    0.0000   -0.0000    0.0000    0.0043
          27    0.0000   -0.0134   -0.0000    0.0303   -0.0015    0.0363   -0.0201   -0.0000
          28    0.0227    0.0000    0.0035    0.0000    0.0000    0.0000   -0.0000    0.0015
          29    0.0088    0.0000   -0.0571    0.0000    0.0000    0.0000    0.0000    0.0113
          30    0.0000    0.0060   -0.0000    0.0053   -0.0265   -0.0228   -0.0378    0.0000
          31    0.0166    0.0461   -0.0129   -0.0117    0.0360    0.0396    0.0055    0.1653
          32   -0.0033    0.0358    0.0934    0.0672   -0.0879   -0.0200    0.0581   -0.0729
          33    0.0017    0.0278    0.0085    0.0172   -0.0153    0.0066    0.0193    0.0012
          34    0.0166   -0.0461   -0.0129    0.0117   -0.0360   -0.0396   -0.0055    0.1651
          35   -0.0033   -0.0358    0.0934   -0.0672    0.0879    0.0200   -0.0582   -0.0729
          36   -0.0017    0.0278   -0.0084    0.0172   -0.0152    0.0066    0.0192   -0.0012
          37    0.0215   -0.0554   -0.0432   -0.0076   -0.0122   -0.0448   -0.0318   -0.1582
          38    0.1053   -0.0324   -0.0090   -0.0678    0.0702   -0.0333   -0.0879   -0.0722
          39    0.0093    0.0087    0.0024   -0.0187    0.0254    0.0042   -0.0161    0.0003
          40    0.0214    0.0554   -0.0431    0.0076    0.0122    0.0448    0.0319   -0.1584
          41    0.1053    0.0324   -0.0090    0.0678   -0.0702    0.0333    0.0879   -0.0722
          42   -0.0094    0.0087   -0.0024   -0.0187    0.0254    0.0042   -0.0161   -0.0003
          43   -0.0026   -0.0000    0.0074    0.0000    0.0000   -0.0000   -0.0000    0.0085
          44   -0.1185    0.0000   -0.0173    0.0000   -0.0000    0.0000   -0.0000    0.0082
          45   -0.0000   -0.1109   -0.0000    0.1608    0.0923   -0.1035    0.0082   -0.0000
          46   -0.0415   -0.0000   -0.0196   -0.0000   -0.0000   -0.0000    0.0000   -0.0181
          47    0.0294    0.0000    0.0031   -0.0000    0.0000   -0.0000    0.0000    0.0014
          48   -0.0000   -0.1389   -0.0001   -0.0489   -0.0851    0.1378   -0.0433   -0.0000
          49   -0.0464    0.0000   -0.0174    0.0000    0.0000    0.0000   -0.0000    0.0121
          50   -0.0350   -0.0000   -0.0068    0.0000   -0.0000   -0.0000    0.0000    0.0156
          51    0.0001    0.1438    0.0001    0.1277    0.0764    0.0700   -0.0851   -0.0000
          52   -0.0103    0.0000    0.0014   -0.0000   -0.0000   -0.0000    0.0000   -0.0028
          53   -0.0668    0.0000   -0.0158    0.0000    0.0000   -0.0000    0.0000    0.0132
          54   -0.0000    0.0910    0.0000   -0.1484    0.0083   -0.1284    0.0653    0.0000
          55    0.0800    0.0000   -0.1448    0.0000    0.0000    0.0000    0.0000    0.0253
          56   -0.0632   -0.0000    0.1353   -0.0000   -0.0001   -0.0000   -0.0000   -0.0186
          57   -0.0000   -0.0436    0.0000   -0.0034    0.1044    0.0826    0.1522   -0.0000
          58   -0.0468   -0.0001    0.2595   -0.0000   -0.0000    0.0000   -0.0000   -0.0354
          59   -0.0104    0.0000    0.0083    0.0000   -0.0000   -0.0000   -0.0000    0.0021
          60   -0.0000   -0.0360    0.0001   -0.0442    0.1259    0.0938    0.1341   -0.0000


   Root No.      25        26        27        28        29        30        31        32

                25 A      26 A      27 A      28 A      29 A      30 A      31 A      32 A   

                1078.3    1084.7    1094.8    1105.9    1138.2    1151.8    1189.0    1252.2
  
           1    0.0000   -0.0004    0.0000   -0.0025   -0.0042    0.0029   -0.0120   -0.0425
           2   -0.0000    0.0103   -0.0000   -0.0034   -0.0139    0.0033    0.0054    0.0033
           3   -0.0249   -0.0000    0.0395    0.0000    0.0000    0.0000    0.0000    0.0000
           4   -0.0000    0.0028   -0.0000   -0.0065   -0.0146   -0.0024    0.0085    0.0517
           5   -0.0000    0.0050   -0.0000    0.0121    0.0041    0.0002    0.0133    0.0191
           6   -0.0065   -0.0000   -0.0469   -0.0000   -0.0000   -0.0000    0.0000   -0.0000
           7    0.0000   -0.0040   -0.0000    0.0061   -0.0040   -0.0069    0.0284   -0.0022
           8    0.0000   -0.0031    0.0000   -0.0169   -0.0246    0.0023   -0.0092    0.0250
           9    0.0259    0.0000    0.0044    0.0000    0.0000   -0.0000   -0.0000    0.0000
          10   -0.0000   -0.0007   -0.0000    0.0017    0.0092   -0.0008   -0.0021    0.0075
          11   -0.0000   -0.0094   -0.0000    0.0091    0.0350   -0.0030   -0.0017    0.0238
          12    0.0301    0.0000    0.0075    0.0000    0.0000   -0.0000    0.0000    0.0000
          13    0.0000   -0.0236   -0.0000    0.0230    0.0345    0.0046    0.0204    0.0009
          14    0.0000   -0.0079    0.0000   -0.0020    0.0096   -0.0091   -0.0225    0.0107
          15   -0.0150   -0.0000   -0.0030   -0.0000   -0.0000    0.0000   -0.0000   -0.0000
          16    0.0000   -0.0067    0.0000   -0.0242   -0.0188   -0.0048   -0.0043   -0.0104
          17    0.0000    0.0090   -0.0000    0.0235    0.0010    0.0086    0.0206    0.0086
          18   -0.0098   -0.0000   -0.0023   -0.0000    0.0000    0.0000    0.0000    0.0000
          19   -0.0000    0.0214    0.0000   -0.0209    0.0104    0.0066   -0.0150    0.0182
          20    0.0000   -0.0132   -0.0000    0.0072    0.0054   -0.0033   -0.0061   -0.0061
          21    0.0061    0.0000    0.0009    0.0000   -0.0000   -0.0000    0.0000   -0.0000
          22   -0.0000    0.0044   -0.0000    0.0031   -0.0039    0.0030   -0.0177    0.0019
          23    0.0000   -0.0246    0.0000   -0.0147   -0.0226   -0.0047    0.0009   -0.0157
          24   -0.0036   -0.0000   -0.0004   -0.0000   -0.0000   -0.0000    0.0000   -0.0000
          25    0.0000   -0.0335   -0.0000    0.0040    0.0009   -0.0070   -0.0136   -0.0158
          26    0.0000   -0.0090    0.0000   -0.0038    0.0004    0.0026    0.0132   -0.0129
          27    0.0047    0.0000    0.0005    0.0000    0.0000    0.0000    0.0000    0.0000
          28   -0.0000    0.0117    0.0000   -0.0074   -0.0140    0.0012   -0.0042    0.0015
          29    0.0000    0.0039    0.0000   -0.0046   -0.0124    0.0000    0.0000   -0.0097
          30   -0.0151   -0.0000   -0.0021   -0.0000   -0.0000    0.0000   -0.0000   -0.0000
          31   -0.0928   -0.0150   -0.2380    0.0281    0.0518    0.0040    0.0186    0.0264
          32    0.1210    0.0302    0.0763   -0.0320   -0.0710    0.0066   -0.0261   -0.1166
          33    0.0034    0.0043   -0.0250   -0.0026   -0.0075    0.0022   -0.0040   -0.0347
          34    0.0928   -0.0149    0.2380    0.0284    0.0519    0.0040    0.0186    0.0264
          35   -0.1210    0.0301   -0.0763   -0.0321   -0.0710    0.0066   -0.0261   -0.1166
          36    0.0034   -0.0043   -0.0250    0.0025    0.0074   -0.0022    0.0040    0.0347
          37    0.1567    0.0018   -0.1774    0.0138    0.0584   -0.0062   -0.0245   -0.0791
          38    0.1224    0.0083   -0.0192    0.0392    0.0748   -0.0012   -0.0069   -0.1387
          39   -0.0091    0.0018    0.0249    0.0056    0.0068    0.0008    0.0029   -0.0279
          40   -0.1567    0.0017    0.1772    0.0140    0.0584   -0.0062   -0.0245   -0.0791
          41   -0.1224    0.0082    0.0191    0.0393    0.0748   -0.0012   -0.0069   -0.1387
          42   -0.0091   -0.0018    0.0249   -0.0056   -0.0068   -0.0008   -0.0030    0.0279
          43   -0.0001    0.1654    0.0001   -0.0839    0.0461   -0.0669    0.1387   -0.0138
          44   -0.0001    0.1813    0.0000   -0.0790    0.0532   -0.1078    0.2049   -0.0533
          45   -0.0148   -0.0000   -0.0023    0.0000   -0.0000    0.0000   -0.0000   -0.0000
          46   -0.0000    0.0804   -0.0002    0.1709   -0.0995    0.3356    0.1101   -0.0268
          47    0.0000   -0.0337    0.0000   -0.0350   -0.0132   -0.0406   -0.0127   -0.0148
          48    0.0063    0.0000    0.0009   -0.0000    0.0000   -0.0000   -0.0000   -0.0000
          49   -0.0000    0.1383   -0.0001    0.0663   -0.0219   -0.0890   -0.1415   -0.0021
          50   -0.0001    0.2119   -0.0001    0.1508   -0.0010   -0.1044   -0.1678    0.0236
          51    0.0296    0.0000    0.0093    0.0001    0.0000   -0.0000    0.0000   -0.0000
          52    0.0000   -0.0702   -0.0000    0.0742   -0.0530   -0.1308    0.0453   -0.0243
          53    0.0000    0.0690    0.0001   -0.1568    0.1174    0.2774   -0.1198    0.0000
          54   -0.0083    0.0000   -0.0016   -0.0000    0.0000    0.0000   -0.0000    0.0000
          55   -0.0000    0.0490    0.0000   -0.0344   -0.0658    0.0000    0.0006   -0.0058
          56   -0.0000   -0.0415   -0.0000    0.0284    0.0520    0.0015   -0.0065    0.0016
          57    0.0552    0.0000    0.0047    0.0000   -0.0000   -0.0000   -0.0000   -0.0000
          58   -0.0000    0.0028   -0.0000    0.0046    0.0278   -0.0020   -0.0017    0.0500
          59   -0.0000   -0.0003    0.0000   -0.0004    0.0001   -0.0007    0.0002    0.0019
          60    0.0410    0.0000    0.0111    0.0000    0.0000   -0.0000    0.0000    0.0000


   Root No.      33        34        35        36        37        38        39        40

                33 A      34 A      35 A      36 A      37 A      38 A      39 A      40 A   

                1274.6    1317.2    1339.6    1364.4    1390.4    1408.4    1456.5    1591.8
  
           1   -0.0349    0.0262    0.0266   -0.0141   -0.0013    0.0276    0.0074   -0.0008
           2    0.0362   -0.0274   -0.0234   -0.0038   -0.0391    0.0372   -0.0161    0.0006
           3    0.0000   -0.0000   -0.0000    0.0000   -0.0000    0.0000    0.0000    0.0000
           4   -0.0033   -0.0375    0.0138   -0.0089   -0.0139   -0.0279    0.0136    0.0167
           5   -0.0140   -0.0396    0.0164    0.0029    0.0422    0.0188    0.0367    0.0365
           6   -0.0000    0.0000    0.0000    0.0000   -0.0000    0.0000   -0.0000   -0.0000
           7   -0.0026   -0.0151    0.0069   -0.0163    0.0212    0.0013   -0.0659   -0.0422
           8   -0.0150    0.0501   -0.0159    0.0119   -0.0128   -0.0066   -0.0158   -0.0855
           9    0.0000    0.0000   -0.0000   -0.0000    0.0000   -0.0000    0.0000   -0.0000
          10   -0.0145    0.0101   -0.0195   -0.0178    0.0029   -0.0101    0.0138   -0.0078
          11   -0.0033    0.0592    0.0084   -0.0315    0.0175   -0.0291    0.0409   -0.0155
          12   -0.0000    0.0000    0.0000   -0.0000    0.0000   -0.0000    0.0000   -0.0000
          13   -0.0193   -0.0192    0.0166    0.0404   -0.0028    0.0152    0.0039   -0.0238
          14   -0.0063    0.0021   -0.0002   -0.0148    0.0146   -0.0061   -0.0614    0.0566
          15    0.0000    0.0000   -0.0000   -0.0000   -0.0000   -0.0000   -0.0000    0.0000
          16    0.0105    0.0342   -0.0121    0.0069   -0.0190   -0.0045    0.0142    0.0440
          17   -0.0142    0.0208    0.0001    0.0441   -0.0262    0.0084   -0.0154   -0.0337
          18   -0.0000   -0.0000    0.0000    0.0000    0.0000    0.0000   -0.0000   -0.0000
          19   -0.0154    0.0252   -0.0035    0.0334   -0.0221    0.0029   -0.0135    0.0789
          20    0.0013   -0.0275    0.0114    0.0406   -0.0207    0.0130    0.0020    0.0241
          21    0.0000   -0.0000    0.0000   -0.0000    0.0000   -0.0000   -0.0000   -0.0000
          22    0.0038   -0.0248    0.0038   -0.0265    0.0241   -0.0023   -0.0617   -0.0780
          23    0.0177   -0.0083   -0.0030   -0.0173    0.0022   -0.0020    0.0554   -0.0454
          24    0.0000    0.0000   -0.0000    0.0000   -0.0000   -0.0000    0.0000    0.0000
          25    0.0145   -0.0192    0.0033   -0.0029   -0.0034    0.0022    0.0718   -0.0073
          26    0.0088   -0.0001   -0.0031   -0.0397    0.0246   -0.0095   -0.0317    0.0883
          27   -0.0000    0.0000   -0.0000   -0.0000    0.0000   -0.0000   -0.0000    0.0000
          28    0.0048   -0.0106   -0.0277   -0.0093   -0.0083    0.0000    0.0082    0.0076
          29   -0.0005   -0.0074    0.0092    0.0074    0.0003    0.0053   -0.0103    0.0006
          30    0.0000    0.0000    0.0000   -0.0000   -0.0000    0.0000   -0.0000   -0.0000
          31    0.1110   -0.0197   -0.0884    0.0794    0.0232   -0.1162   -0.0162   -0.0117
          32   -0.0613   -0.0212    0.0112    0.0990    0.0912   -0.1000    0.0028    0.0048
          33    0.0079   -0.0153   -0.0281    0.0908    0.0772   -0.1280   -0.0014   -0.0025
          34    0.1110   -0.0197   -0.0884    0.0794    0.0232   -0.1162   -0.0162   -0.0117
          35   -0.0613   -0.0212    0.0112    0.0990    0.0913   -0.1000    0.0028    0.0048
          36   -0.0079    0.0153    0.0281   -0.0908   -0.0772    0.1280    0.0015    0.0025
          37    0.0755    0.0708   -0.0784    0.0351    0.0799    0.1124   -0.0277   -0.0125
          38    0.0240   -0.0117    0.0259   -0.0474   -0.1243   -0.0772   -0.0497   -0.0077
          39   -0.0126   -0.0295    0.0427   -0.0440   -0.1231   -0.1062   -0.0276   -0.0093
          40    0.0756    0.0708   -0.0785    0.0351    0.0799    0.1124   -0.0277   -0.0125
          41    0.0240   -0.0117    0.0259   -0.0474   -0.1243   -0.0772   -0.0497   -0.0077
          42    0.0126    0.0295   -0.0427    0.0440    0.1231    0.1062    0.0276    0.0093
          43   -0.0151    0.0310   -0.0162   -0.0140    0.0030   -0.0049    0.0429    0.0118
          44    0.0051   -0.0260   -0.0044   -0.0263    0.0148    0.0029    0.0848   -0.0829
          45    0.0000   -0.0000    0.0000    0.0000   -0.0000    0.0000    0.0000   -0.0000
          46    0.0192    0.0690   -0.0229   -0.0538    0.0117   -0.0172    0.0625    0.0734
          47    0.0183   -0.0209   -0.0002   -0.0171    0.0043   -0.0006    0.0503   -0.0713
          48   -0.0000   -0.0000    0.0000    0.0000   -0.0000    0.0000   -0.0000   -0.0000
          49    0.0232   -0.0038   -0.0100   -0.0309    0.0040   -0.0100    0.0732    0.0375
          50   -0.0006   -0.0334    0.0047   -0.0039    0.0057    0.0026    0.0584   -0.0633
          51   -0.0000   -0.0000    0.0000    0.0000   -0.0000    0.0000    0.0000   -0.0000
          52    0.0143    0.0242   -0.0080   -0.0175    0.0009   -0.0066    0.0403    0.0794
          53    0.0151   -0.1001    0.0217   -0.0144    0.0172    0.0089    0.0601   -0.0908
          54    0.0000   -0.0000    0.0000    0.0000    0.0000    0.0000   -0.0000   -0.0000
          55    0.1063    0.0199    0.1074    0.0402    0.0075    0.0128   -0.0298    0.0079
          56   -0.1184   -0.0392   -0.1511   -0.0540   -0.0180   -0.0118    0.0378    0.0010
          57   -0.0000   -0.0000   -0.0000    0.0000   -0.0000    0.0000    0.0000    0.0000
          58    0.1491    0.1242    0.1849    0.0259    0.0380   -0.0182   -0.0032   -0.0105
          59    0.0291    0.0246    0.0564    0.0139    0.0116    0.0002   -0.0123   -0.0044
          60    0.0000    0.0000   -0.0000   -0.0000    0.0000   -0.0000    0.0000    0.0000


   Root No.      41        42        43        44        45        46        47        48

                41 A      42 A      43 A      44 A      45 A      46 A      47 A      48 A   

                1606.6    1798.3    1823.5    1910.7    2971.9    2986.4    3054.3    3054.6
  
           1   -0.0063   -0.0065   -0.0009   -0.0157    0.0000   -0.0000    0.0104   -0.0016
           2    0.0155   -0.0024    0.0029    0.0235    0.0000   -0.0000    0.0129   -0.0021
           3    0.0000    0.0000    0.0000    0.0000    0.0293   -0.0323   -0.0000    0.0000
           4    0.0038   -0.0077    0.0132   -0.0028   -0.0000   -0.0000    0.0140   -0.0018
           5   -0.0314   -0.0081    0.0186    0.0092    0.0000    0.0000   -0.0174    0.0022
           6   -0.0000    0.0000   -0.0000    0.0000   -0.0324   -0.0291   -0.0000    0.0000
           7   -0.0377    0.1211   -0.1091   -0.0231    0.0000   -0.0000   -0.0002    0.0002
           8    0.0859   -0.0184   -0.0764   -0.0083    0.0000    0.0000   -0.0004   -0.0001
           9    0.0000   -0.0000    0.0000    0.0000   -0.0000   -0.0001    0.0000    0.0000
          10   -0.0085    0.0163   -0.0009    0.2442   -0.0000    0.0000   -0.0004    0.0000
          11   -0.0503   -0.0198   -0.0283   -0.0668    0.0000   -0.0000    0.0004    0.0000
          12   -0.0000   -0.0000   -0.0000   -0.0000    0.0000   -0.0001   -0.0000   -0.0000
          13    0.1110   -0.0568    0.0412   -0.0423    0.0000    0.0000   -0.0001    0.0001
          14    0.0456    0.1106    0.1269   -0.0388   -0.0000    0.0000    0.0001   -0.0005
          15   -0.0000    0.0000    0.0000    0.0000   -0.0000   -0.0002    0.0000   -0.0000
          16   -0.0366   -0.0544    0.0960    0.0119    0.0000    0.0000   -0.0009   -0.0058
          17   -0.0778    0.0187    0.1027    0.0004   -0.0000   -0.0000    0.0006    0.0034
          18   -0.0000    0.0000   -0.0000   -0.0000   -0.0000   -0.0000    0.0000    0.0000
          19   -0.0041    0.0348   -0.0689    0.0029    0.0000    0.0000   -0.0014   -0.0122
          20   -0.0564   -0.0460   -0.1220    0.0160   -0.0000   -0.0000    0.0011    0.0099
          21   -0.0000   -0.0000   -0.0000    0.0000   -0.0000   -0.0000    0.0000    0.0000
          22   -0.0391   -0.1110    0.0550    0.0121   -0.0000   -0.0000   -0.0004   -0.0029
          23    0.0051    0.0397    0.0280   -0.0038   -0.0000   -0.0000   -0.0032   -0.0247
          24    0.0000    0.0000   -0.0000   -0.0000    0.0000    0.0000   -0.0000   -0.0000
          25    0.0225    0.0722   -0.0109   -0.0083   -0.0000   -0.0000    0.0026    0.0195
          26    0.0443   -0.0933   -0.0586    0.0111   -0.0000   -0.0000    0.0012    0.0094
          27   -0.0000   -0.0000   -0.0000    0.0000   -0.0000   -0.0000   -0.0000   -0.0000
          28   -0.0291   -0.0169   -0.0113   -0.1766    0.0000   -0.0000    0.0000   -0.0001
          29    0.0133    0.0086    0.0068    0.0592   -0.0000   -0.0000    0.0000    0.0004
          30   -0.0000    0.0000    0.0000    0.0000    0.0001   -0.0001   -0.0000   -0.0000
          31    0.0090    0.0023   -0.0025    0.0216    0.0813   -0.0943   -0.0594    0.0096
          32    0.0004   -0.0007    0.0025   -0.0106    0.1079   -0.1189   -0.0776    0.0124
          33   -0.0003    0.0071   -0.0006   -0.0012   -0.1764    0.1939    0.1497   -0.0240
          34    0.0090    0.0023   -0.0025    0.0216   -0.0814    0.0944   -0.0594    0.0095
          35    0.0004   -0.0007    0.0024   -0.0106   -0.1079    0.1189   -0.0774    0.0124
          36    0.0003   -0.0071    0.0006    0.0012   -0.1767    0.1941   -0.1496    0.0240
          37   -0.0051    0.0145   -0.0136   -0.0020    0.0924    0.0871   -0.0826    0.0105
          38   -0.0067    0.0132   -0.0064    0.0005   -0.1183   -0.1062    0.1039   -0.0132
          39    0.0153    0.0032    0.0006   -0.0077    0.1954    0.1750   -0.2032    0.0258
          40   -0.0051    0.0145   -0.0136   -0.0020   -0.0923   -0.0871   -0.0826    0.0105
          41   -0.0067    0.0132   -0.0064    0.0005    0.1183    0.1062    0.1040   -0.0132
          42   -0.0153   -0.0032   -0.0006    0.0077    0.1953    0.1748    0.2033   -0.0258
          43    0.0770    0.0583    0.0501   -0.0152   -0.0000   -0.0000    0.0167    0.1450
          44    0.0404   -0.0322    0.0320   -0.0047    0.0000    0.0000   -0.0124   -0.1077
          45   -0.0000   -0.0000    0.0000    0.0000    0.0000   -0.0000   -0.0000   -0.0000
          46    0.0718    0.0530   -0.0049   -0.0055    0.0000    0.0000    0.0042    0.0318
          47   -0.0070    0.0271    0.0398   -0.0018    0.0000    0.0000    0.0377    0.2879
          48   -0.0000   -0.0000    0.0000   -0.0000    0.0000    0.0000    0.0000    0.0000
          49    0.0690   -0.0487   -0.0126    0.0089   -0.0000   -0.0000    0.0108    0.0644
          50    0.0674    0.0450   -0.0582   -0.0092    0.0000    0.0000   -0.0079   -0.0447
          51   -0.0000    0.0000   -0.0000    0.0000    0.0001    0.0000   -0.0000   -0.0000
          52    0.0461    0.0092   -0.0395   -0.0005    0.0000    0.0000   -0.0309   -0.2286
          53    0.0081    0.0589   -0.0086   -0.0072    0.0000    0.0000   -0.0142   -0.1048
          54   -0.0000   -0.0000    0.0000   -0.0000    0.0000    0.0000    0.0000    0.0000
          55    0.0121    0.0010    0.0039   -0.0749   -0.0000    0.0000    0.0007   -0.0001
          56   -0.0442   -0.0171   -0.0157   -0.1173    0.0000   -0.0000    0.0008    0.0001
          57   -0.0000   -0.0000   -0.0000   -0.0000   -0.0002    0.0002   -0.0000   -0.0000
          58    0.0030    0.0002   -0.0041    0.0200   -0.0000   -0.0000    0.0001    0.0013
          59    0.0220    0.0158    0.0103    0.1396    0.0000    0.0000   -0.0008   -0.0048
          60    0.0000   -0.0000    0.0000    0.0000    0.0004   -0.0004    0.0000   -0.0000


   Root No.      49        50        51        52        53        54

                49 A      50 A      51 A      52 A      53 A      54 A   

                3058.1    3061.2    3070.8    3079.4    3137.5    3145.5
  
           1    0.0147    0.0004    0.0000   -0.0001   -0.0002   -0.0004
           2    0.0195    0.0005    0.0000   -0.0001    0.0003    0.0002
           3   -0.0000    0.0000   -0.0000   -0.0000    0.0000   -0.0000
           4   -0.0108    0.0000    0.0001   -0.0002    0.0001   -0.0000
           5    0.0143    0.0001    0.0000   -0.0000   -0.0000    0.0001
           6    0.0000    0.0000    0.0000    0.0000    0.0000    0.0000
           7   -0.0003   -0.0004   -0.0013    0.0015    0.0002   -0.0001
           8    0.0001   -0.0004   -0.0004    0.0011   -0.0000    0.0001
           9    0.0000    0.0000    0.0000   -0.0000    0.0000    0.0000
          10    0.0001    0.0001   -0.0001   -0.0001   -0.0061    0.0033
          11    0.0003    0.0002   -0.0001   -0.0001    0.0018   -0.0016
          12   -0.0000    0.0000    0.0000    0.0000   -0.0000    0.0000
          13    0.0000   -0.0004    0.0002    0.0006    0.0001    0.0006
          14   -0.0007   -0.0013    0.0014    0.0008   -0.0002   -0.0001
          15    0.0000    0.0000    0.0000   -0.0000    0.0000    0.0000
          16   -0.0003    0.0122    0.0224   -0.0235   -0.0001    0.0000
          17    0.0001   -0.0076   -0.0156    0.0177   -0.0000   -0.0000
          18    0.0000   -0.0000   -0.0000    0.0000   -0.0000    0.0000
          19    0.0001   -0.0230    0.0204    0.0096   -0.0015   -0.0004
          20   -0.0000    0.0174   -0.0140   -0.0062    0.0012    0.0003
          21   -0.0000    0.0000   -0.0000   -0.0000    0.0000   -0.0000
          22   -0.0000    0.0010   -0.0036   -0.0014    0.0001    0.0000
          23   -0.0002   -0.0086   -0.0253   -0.0192    0.0001    0.0001
          24    0.0000   -0.0000   -0.0000   -0.0000    0.0000   -0.0000
          25    0.0007   -0.0238   -0.0038   -0.0212   -0.0000    0.0000
          26    0.0004   -0.0100    0.0005   -0.0098   -0.0000    0.0000
          27   -0.0000    0.0000    0.0000    0.0000    0.0000   -0.0000
          28    0.0000   -0.0002    0.0002    0.0000    0.0322   -0.0453
          29   -0.0000    0.0008   -0.0007   -0.0003   -0.0472   -0.0521
          30    0.0000    0.0000    0.0000    0.0000   -0.0000   -0.0000
          31   -0.0909   -0.0021   -0.0002    0.0003   -0.0005    0.0000
          32   -0.1161   -0.0027   -0.0002    0.0003   -0.0002    0.0007
          33    0.2253    0.0052    0.0004   -0.0007    0.0006   -0.0009
          34   -0.0908   -0.0021   -0.0001    0.0003   -0.0005    0.0000
          35   -0.1159   -0.0027   -0.0002    0.0003   -0.0002    0.0007
          36   -0.2251   -0.0052   -0.0004    0.0007   -0.0006    0.0009
          37    0.0686    0.0004    0.0001    0.0005    0.0000    0.0001
          38   -0.0847   -0.0003    0.0001   -0.0008    0.0000   -0.0002
          39    0.1665    0.0008   -0.0001    0.0014   -0.0000    0.0004
          40    0.0687    0.0004    0.0001    0.0005    0.0000    0.0002
          41   -0.0848   -0.0003    0.0001   -0.0008    0.0000   -0.0002
          42   -0.1666   -0.0008    0.0001   -0.0014    0.0000   -0.0004
          43   -0.0015    0.2668   -0.2216   -0.0990    0.0174    0.0050
          44    0.0011   -0.1950    0.1595    0.0707   -0.0120   -0.0031
          45    0.0000   -0.0001    0.0001    0.0000   -0.0000   -0.0000
          46    0.0004    0.0070    0.0322    0.0216   -0.0003   -0.0001
          47    0.0028    0.0977    0.2832    0.2050   -0.0009   -0.0008
          48   -0.0000    0.0000    0.0000    0.0000    0.0000    0.0000
          49    0.0032   -0.1375   -0.2526    0.2624    0.0003   -0.0004
          50   -0.0020    0.0974    0.1824   -0.1913   -0.0002    0.0003
          51   -0.0000    0.0000    0.0001   -0.0001   -0.0000    0.0000
          52   -0.0081    0.2712    0.0328    0.2287    0.0004   -0.0006
          53   -0.0037    0.1209    0.0111    0.1041    0.0002   -0.0003
          54    0.0000   -0.0001   -0.0000   -0.0000   -0.0000    0.0000
          55    0.0003    0.0003   -0.0001    0.0005   -0.1532    0.5589
          56    0.0007    0.0006   -0.0004    0.0002   -0.1429    0.4484
          57    0.0000   -0.0000   -0.0000    0.0000   -0.0000    0.0001
          58    0.0000    0.0026   -0.0023   -0.0010   -0.1585   -0.0604
          59   -0.0003   -0.0096    0.0085    0.0037    0.6814    0.1883
          60   -0.0000   -0.0000    0.0000    0.0000    0.0001    0.0000


           MASS-WEIGHTED COORDINATE ANALYSIS (NORMAL COORDINATES)


   Root No.       1         2         3         4         5         6         7         8

                 1 A       2 A       3 A       4 A       5 A       6 A       7 A       8 A   

                  93.7     139.0     216.7     281.4     377.6     440.0     470.9     533.5
  
           1   -0.0000    0.0000   -0.0000   -0.0229   -0.0000    0.0000   -0.2898    0.0004
           2   -0.0000    0.0000    0.0000   -0.0906   -0.0001   -0.0000    0.1856    0.0003
           3    0.4809   -0.2396   -0.1062    0.0001   -0.0354   -0.0168   -0.0000    0.0268
           4   -0.0000    0.0000   -0.0000    0.0260   -0.0000   -0.0000   -0.2696    0.0003
           5   -0.0000    0.0000   -0.0000   -0.1547   -0.0002   -0.0001   -0.2026    0.0001
           6   -0.1285    0.3778   -0.3160   -0.0000   -0.0213    0.0054    0.0000   -0.0541
           7   -0.0000   -0.0000   -0.0000    0.1222    0.0000    0.0000    0.2582   -0.0002
           8   -0.0000    0.0000   -0.0000   -0.1566   -0.0001   -0.0001   -0.2357    0.0000
           9   -0.1071    0.1324    0.3412   -0.0000    0.1121    0.5383   -0.0001   -0.0925
          10    0.0000   -0.0000    0.0000    0.0789    0.0000    0.0000    0.1068    0.0003
          11    0.0001   -0.0000   -0.0000   -0.0770   -0.0001    0.0001    0.2298    0.0002
          12    0.0326   -0.0104    0.1485   -0.0003    0.3779   -0.3259    0.0003    0.5138
          13    0.0000   -0.0000    0.0000    0.1155    0.0001    0.0001    0.3089   -0.0000
          14    0.0000    0.0000   -0.0000   -0.1986   -0.0002    0.0000   -0.1217    0.0003
          15    0.0690    0.2447    0.4092   -0.0002    0.3665   -0.0135   -0.0002   -0.2148
          16   -0.0000   -0.0001    0.0000    0.0345   -0.0002   -0.0001    0.1501   -0.0000
          17    0.0000   -0.0000   -0.0000    0.0730    0.0002    0.0000    0.1375   -0.0005
          18   -0.2140   -0.2580    0.3164    0.0002   -0.3743   -0.0446    0.0001    0.2114
          19    0.0001    0.0000    0.0000   -0.1649    0.0000    0.0001    0.0875   -0.0005
          20   -0.0000   -0.0000    0.0001   -0.1838   -0.0001    0.0001   -0.1231    0.0004
          21    0.2408    0.3543    0.1338    0.0002   -0.3770   -0.2390   -0.0000   -0.1715
          22    0.0001    0.0000   -0.0001   -0.2761   -0.0001    0.0001   -0.0665   -0.0002
          23    0.0000   -0.0001    0.0000    0.0057    0.0001    0.0002    0.1749   -0.0002
          24    0.1846    0.0601   -0.3739    0.0001    0.0220    0.3483    0.0001    0.2473
          25   -0.0000   -0.0001   -0.0000   -0.2002   -0.0000   -0.0002   -0.0514   -0.0005
          26    0.0000   -0.0000   -0.0000    0.1045    0.0001   -0.0000    0.2083   -0.0005
          27   -0.0688   -0.3538   -0.1829   -0.0002    0.2811   -0.2602   -0.0001   -0.2649
          28   -0.0000    0.0000    0.0000    0.2961    0.0002   -0.0000   -0.0377    0.0003
          29   -0.0001    0.0000   -0.0000    0.5558    0.0003   -0.0001   -0.1967    0.0000
          30   -0.4779   -0.2329   -0.1263    0.0000   -0.1116    0.0867   -0.0000   -0.0878
          31    0.1060   -0.1090    0.0383   -0.0111   -0.0130    0.0100   -0.1382   -0.0298
          32    0.1246   -0.0845   -0.0306   -0.0210   -0.1084    0.1019    0.0918   -0.2231
          33    0.2628   -0.1705   -0.0312    0.0005   -0.0822    0.0621   -0.0011   -0.1440
          34   -0.1061    0.1091   -0.0383   -0.0111    0.0130   -0.0100   -0.1381    0.0300
          35   -0.1246    0.0846    0.0306   -0.0212    0.1084   -0.1019    0.0921    0.2233
          36    0.2627   -0.1705   -0.0312   -0.0003   -0.0822    0.0621    0.0009   -0.1439
          37    0.1046   -0.1081    0.0434   -0.0048   -0.0019    0.0141   -0.1454    0.0266
          38   -0.0376    0.0896   -0.1588   -0.0535   -0.0265   -0.1688   -0.1095   -0.0101
          39   -0.1086    0.2136   -0.2067    0.0001   -0.0211   -0.1072    0.0004   -0.0353
          40   -0.1046    0.1081   -0.0434   -0.0049    0.0019   -0.0141   -0.1453   -0.0264
          41    0.0376   -0.0896    0.1587   -0.0536    0.0264    0.1688   -0.1096    0.0101
          42   -0.1087    0.2136   -0.2067   -0.0001   -0.0211   -0.1072   -0.0003   -0.0353
          43    0.0000    0.0000    0.0000   -0.0825   -0.0001   -0.0000   -0.0296   -0.0001
          44   -0.0000    0.0000    0.0000   -0.1003   -0.0000    0.0000   -0.1113    0.0001
          45    0.1198    0.1717    0.0429    0.0001   -0.3288   -0.2454    0.0000   -0.0537
          46    0.0000    0.0000   -0.0000   -0.1208   -0.0001    0.0001   -0.0721    0.0001
          47   -0.0000   -0.0000    0.0000    0.0057    0.0000    0.0000    0.0560   -0.0001
          48    0.0955    0.0301   -0.2607   -0.0000    0.0163    0.2776    0.0001    0.2787
          49   -0.0000   -0.0000    0.0000    0.0475   -0.0001   -0.0001    0.1050    0.0000
          50    0.0000   -0.0000   -0.0000    0.0734    0.0001    0.0000    0.1243   -0.0002
          51   -0.1131   -0.1438    0.1377    0.0001   -0.3224   -0.1414    0.0001    0.2376
          52   -0.0000   -0.0000   -0.0000   -0.0764    0.0000   -0.0001   -0.0276   -0.0002
          53   -0.0000   -0.0000   -0.0000    0.0714    0.0000   -0.0000    0.0907   -0.0001
          54   -0.0412   -0.2086   -0.1382   -0.0002    0.2247   -0.2548   -0.0002   -0.2263
          55    0.0000    0.0000    0.0000   -0.0338   -0.0000    0.0000    0.1098    0.0001
          56   -0.0000    0.0000   -0.0000    0.3139    0.0002   -0.0001   -0.2132   -0.0000
          57   -0.1705   -0.1560   -0.1464    0.0001   -0.1749    0.0868    0.0001    0.0805
          58   -0.0000    0.0000   -0.0000    0.2665    0.0001   -0.0001   -0.1966    0.0001
          59   -0.0000    0.0000   -0.0000    0.2079    0.0001   -0.0000   -0.1063    0.0000
          60   -0.2387   -0.0367   -0.0006    0.0000   -0.0370    0.0951   -0.0002   -0.3505


   Root No.       9        10        11        12        13        14        15        16

                 9 A      10 A      11 A      12 A      13 A      14 A      15 A      16 A   

                 550.6     553.6     613.0     658.8     716.2     783.7     827.5     831.5
  
           1   -0.1227   -0.1602   -0.0001   -0.3023    0.0000    0.0000    0.0000   -0.0434
           2   -0.3320   -0.2068   -0.0002   -0.1931    0.0000    0.0001   -0.0001   -0.1683
           3   -0.0000    0.0000   -0.0100   -0.0000   -0.1043   -0.0726   -0.2268    0.0001
           4   -0.1833   -0.0700   -0.0001   -0.3546    0.0000    0.0000    0.0000   -0.0111
           5   -0.2165    0.0728   -0.0000    0.3595    0.0001   -0.0000    0.0001    0.1034
           6   -0.0000   -0.0001    0.0301   -0.0000   -0.1749   -0.0014   -0.2282    0.0002
           7   -0.2284    0.0538   -0.0000    0.1141    0.0000   -0.0000    0.0001    0.2110
           8   -0.0924    0.0827    0.0000    0.2713   -0.0000   -0.0000   -0.0001   -0.0111
           9   -0.0003   -0.0000    0.2285    0.0001   -0.2695    0.0210    0.2530   -0.0001
          10    0.2179   -0.3045    0.0001    0.1910   -0.0001    0.0001   -0.0001   -0.2024
          11   -0.2053   -0.2283   -0.0001   -0.1894    0.0000    0.0001   -0.0000   -0.1077
          12    0.0001    0.0006   -0.1028    0.0000   -0.1253   -0.0779    0.2485   -0.0001
          13    0.0073   -0.1425   -0.0000    0.0149    0.0001    0.0000    0.0001    0.1160
          14    0.1614   -0.2290    0.0001    0.0808   -0.0000   -0.0000    0.0000    0.0217
          15   -0.0001   -0.0002   -0.0634    0.0001    0.4749    0.2833   -0.1879    0.0001
          16   -0.3336    0.0440   -0.0001    0.3106    0.0000   -0.0001    0.0001    0.3699
          17    0.1006    0.3246    0.0000   -0.0376   -0.0001   -0.0000   -0.0002   -0.2596
          18    0.0003    0.0003   -0.1314   -0.0001    0.1230   -0.1310    0.1191   -0.0003
          19    0.2032    0.2685    0.0000   -0.2220    0.0001   -0.0001    0.0001    0.1303
          20    0.2406   -0.2642    0.0001    0.0857   -0.0000   -0.0001    0.0001    0.1601
          21    0.0000   -0.0003    0.1435   -0.0001   -0.0100   -0.1022   -0.1172    0.0001
          22    0.1676    0.1882    0.0000   -0.0864    0.0001   -0.0001   -0.0000    0.0209
          23    0.3862    0.0202    0.0001   -0.2406    0.0001   -0.0001    0.0003    0.4215
          24    0.0000    0.0003   -0.1254    0.0001    0.1445   -0.1913   -0.0933   -0.0000
          25   -0.0563    0.3725    0.0000    0.1123   -0.0001    0.0000   -0.0002   -0.3673
          26    0.0943    0.3148   -0.0000   -0.0328   -0.0000    0.0001   -0.0001   -0.1695
          27   -0.0001   -0.0005    0.1402   -0.0001   -0.0390   -0.2415    0.0479    0.0000
          28    0.3025   -0.2449    0.0002    0.2765   -0.0001    0.0001   -0.0001   -0.2724
          29   -0.1001    0.0580   -0.0001   -0.1299   -0.0000    0.0000    0.0000   -0.0397
          30   -0.0000   -0.0001   -0.0026   -0.0000    0.0068    0.0005    0.0313   -0.0000
          31   -0.0601   -0.0136   -0.0438   -0.0954    0.0984    0.0239    0.2540    0.0402
          32   -0.0873   -0.0915   -0.0672   -0.0675    0.1219    0.0767    0.1507   -0.1052
[...]
 T-DIPOLE    0.0600         C  1 -- H 11         +16.1% ( 50.9%)      0.1%
 TRAVEL      0.1037         C  1 -- C  4          +9.2% ( 38.5%)     96.4%
 RED. MASS   0.5942         C  1 -- C  2          +9.2% ( 38.4%)     28.4%
 EFF. MASS   4.9192

 VIBRATION   34   34A         ATOM PAIR      ENERGY CONTRIBUTION    RADIAL
 FREQ.      1317.17         C  2 -- C  3         +12.7% ( 54.5%)    100.0%
 T-DIPOLE    0.1966         C  1 -- C  4         +10.1% ( 48.7%)     98.9%
 TRAVEL      0.0727         C  3 -- C  6          +7.7% ( 42.5%)     34.4%
 RED. MASS   1.1562         C  4 -- C  5          +7.4% ( 41.5%)     77.2%
 EFF. MASS   9.6785

 VIBRATION   35   35A         ATOM PAIR      ENERGY CONTRIBUTION    RADIAL
 FREQ.      1339.56         C 10 -- H 20         +18.9% ( 51.1%)      2.3%
 T-DIPOLE    0.0562         C 10 -- H 19         +17.6% ( 49.3%)      2.6%
 TRAVEL      0.1130         C  1 -- C  4          +9.2% ( 35.6%)     60.4%
 RED. MASS   0.3292         C  1 -- H 12          +8.3% ( 33.9%)      0.0%
 EFF. MASS   3.9420

 VIBRATION   36   36A         ATOM PAIR      ENERGY CONTRIBUTION    RADIAL
 FREQ.      1364.45         C  6 -- C  9         +13.1% ( 53.6%)     99.9%
 T-DIPOLE    0.0695         C  7 -- C  8         +12.8% ( 53.0%)     87.4%
 TRAVEL      0.0774         C  5 -- C  7         +11.0% ( 48.9%)     95.4%
 RED. MASS   0.8567         C  4 -- C  5          +8.1% ( 42.1%)     90.1%
 EFF. MASS   8.2387

 VIBRATION   37   37A         ATOM PAIR      ENERGY CONTRIBUTION    RADIAL
 FREQ.      1390.38         C  2 -- H 14         +11.9% ( 46.3%)      5.6%
 T-DIPOLE    0.0345         C  2 -- H 13         +11.9% ( 46.3%)      5.6%
 TRAVEL      0.0897         C  1 -- C  2          +8.8% ( 39.7%)      2.4%
 RED. MASS   0.4810         C  2 -- C  3          +7.3% ( 36.1%)     45.7%
 EFF. MASS   6.0240

 VIBRATION   38   38A         ATOM PAIR      ENERGY CONTRIBUTION    RADIAL
 FREQ.      1408.42         C  1 -- H 12         +17.5% ( 47.4%)      6.2%
 T-DIPOLE    0.1177         C  1 -- H 11         +17.5% ( 47.4%)      6.2%
 TRAVEL      0.1084         C  1 -- C  4         +11.8% ( 39.0%)     48.2%
 RED. MASS   0.4215         C  2 -- H 13         +11.6% ( 38.6%)      4.8%
 EFF. MASS   4.0779         C  2 -- H 14         +11.6% ( 38.6%)      4.8%
                            C  1 -- C  2         +11.2% ( 37.9%)     90.1%

 VIBRATION   39   39A         ATOM PAIR      ENERGY CONTRIBUTION    RADIAL
 FREQ.      1456.53         C  8 -- C  9         +22.0% ( 74.7%)     99.8%
 T-DIPOLE    0.5473         C  3 -- C  5         +11.3% ( 53.5%)     99.8%
 TRAVEL      0.0650         C  2 -- C  3          +8.1% ( 45.2%)     55.8%
 RED. MASS   1.7741         C  4 -- C  5          +7.6% ( 44.0%)     41.1%
 EFF. MASS  10.9532

 VIBRATION   40   40A         ATOM PAIR      ENERGY CONTRIBUTION    RADIAL
 FREQ.      1591.82         C  7 -- C  8         +15.8% ( 59.2%)    100.0%
 T-DIPOLE    0.5759         C  8 -- C  9         +11.4% ( 50.3%)      2.0%
 TRAVEL      0.0609         C  3 -- C  5         +11.3% ( 50.0%)     22.8%
 RED. MASS   1.7640         C  3 -- C  6         +10.5% ( 48.2%)     98.3%
 EFF. MASS  11.4253         C  6 -- C  9         +10.0% ( 47.2%)     78.0%

 VIBRATION   41   41A         ATOM PAIR      ENERGY CONTRIBUTION    RADIAL
 FREQ.      1606.58         C  3 -- C  5         +18.7% ( 64.3%)     87.5%
 T-DIPOLE    0.3716         C  5 -- C  7         +14.9% ( 57.4%)     53.1%
 TRAVEL      0.0605         C  4 -- C  5         +13.4% ( 54.4%)     99.4%
 RED. MASS   2.1744         C  3 -- C  6         +11.9% ( 51.2%)     15.3%
 EFF. MASS  11.4498

 VIBRATION   42   42A         ATOM PAIR      ENERGY CONTRIBUTION    RADIAL
 FREQ.      1798.35         C  3 -- C  5         +17.2% ( 58.1%)    100.0%
 T-DIPOLE    0.1904         C  8 -- C  9         +16.1% ( 56.2%)    100.0%
 TRAVEL      0.0562         C  5 -- C  7         +10.7% ( 45.7%)     66.1%
 RED. MASS   2.2990         C  3 -- C  6         +10.4% ( 45.2%)     66.6%
 EFF. MASS  11.8889

 VIBRATION   43   43A         ATOM PAIR      ENERGY CONTRIBUTION    RADIAL
 FREQ.      1823.52         C  5 -- C  7         +18.0% ( 60.2%)     89.8%
 T-DIPOLE    0.4178         C  3 -- C  6         +18.0% ( 60.2%)     90.7%
 TRAVEL      0.0557         C  3 -- C  5         +13.9% ( 53.0%)      0.0%
 RED. MASS   2.4012         C  7 -- C  8          +9.1% ( 42.8%)     79.1%
 EFF. MASS  11.9049

 VIBRATION   44   44A         ATOM PAIR      ENERGY CONTRIBUTION    RADIAL
 FREQ.      1910.75         C  4 -- C 10         +42.5% ( 96.8%)     99.9%
 T-DIPOLE    0.2694         C  4 -- C  5         +19.8% ( 66.1%)     58.9%
 TRAVEL      0.0544         C  1 -- C  4         +18.3% ( 63.6%)     33.9%
 RED. MASS   5.5050         C 10 -- H 20          +8.3% ( 42.7%)     11.3%
 EFF. MASS  11.9113

 VIBRATION   45   45A         ATOM PAIR      ENERGY CONTRIBUTION    RADIAL
 FREQ.      2971.86         C  2 -- H 13         +26.9% ( 54.0%)     96.5%
 T-DIPOLE    0.0053         C  2 -- H 14         +26.9% ( 54.0%)     96.4%
 TRAVEL      0.1208         C  1 -- H 12         +21.9% ( 48.8%)     96.4%
 RED. MASS   0.2623         C  1 -- H 11         +21.9% ( 48.7%)     96.4%
 EFF. MASS   1.5549

 VIBRATION   46   46A         ATOM PAIR      ENERGY CONTRIBUTION    RADIAL
 FREQ.      2986.41         C  1 -- H 12         +27.0% ( 53.8%)     96.7%
 T-DIPOLE    0.0870         C  1 -- H 11         +27.0% ( 53.7%)     96.7%
 TRAVEL      0.1216         C  2 -- H 13         +22.0% ( 48.5%)     96.7%
 RED. MASS   0.2618         C  2 -- H 14         +22.0% ( 48.5%)     96.7%
 EFF. MASS   1.5281

 VIBRATION   47   47A         ATOM PAIR      ENERGY CONTRIBUTION    RADIAL
 FREQ.      3054.30         C  2 -- H 14         +31.4% ( 55.3%)     97.5%
 T-DIPOLE    0.0719         C  2 -- H 13         +31.4% ( 55.3%)     97.5%
 TRAVEL      0.1309         C  1 -- H 11         +17.0% ( 40.7%)     97.5%
 RED. MASS   0.2543         C  1 -- H 12         +17.0% ( 40.7%)     97.5%
 EFF. MASS   1.2885

 VIBRATION   48   48A         ATOM PAIR      ENERGY CONTRIBUTION    RADIAL
 FREQ.      3054.58         C  8 -- H 16         +43.1% ( 66.7%)    100.0%
 T-DIPOLE    0.0262         C  9 -- H 18         +32.5% ( 58.0%)    100.0%
 TRAVEL      0.1217         C  7 -- H 15         +16.8% ( 41.7%)    100.0%
 RED. MASS   0.3148         C  6 -- H 17          +3.2% ( 18.1%)     99.9%
 EFF. MASS   1.4898

 VIBRATION   49   49A         ATOM PAIR      ENERGY CONTRIBUTION    RADIAL
 FREQ.      3058.09         C  1 -- H 11         +31.9% ( 55.7%)     97.6%
 T-DIPOLE    0.1399         C  1 -- H 12         +31.8% ( 55.6%)     97.6%
 TRAVEL      0.1313         C  2 -- H 14         +17.4% ( 41.1%)     97.6%
 RED. MASS   0.2626         C  2 -- H 13         +17.4% ( 41.1%)     97.6%
 EFF. MASS   1.2797

 VIBRATION   50   50A         ATOM PAIR      ENERGY CONTRIBUTION    RADIAL
 FREQ.      3061.18         C  7 -- H 15         +45.0% ( 68.2%)    100.0%
 T-DIPOLE    0.2883         C  9 -- H 18         +36.3% ( 61.2%)    100.0%
 TRAVEL      0.1209         C  6 -- H 17         +11.7% ( 34.8%)     99.9%
 RED. MASS   0.3455         C  8 -- H 16          +3.9% ( 20.2%)     99.3%
 EFF. MASS   1.5077

 VIBRATION   51   51A         ATOM PAIR      ENERGY CONTRIBUTION    RADIAL
 FREQ.      3070.82         C  6 -- H 17         +37.0% ( 61.7%)    100.0%
 T-DIPOLE    0.5157         C  8 -- H 16         +30.9% ( 56.4%)    100.0%
 TRAVEL      0.1194         C  7 -- H 15         +28.4% ( 54.1%)    100.0%
 RED. MASS   0.3107         C  7 -- C  8          +1.1% ( 10.4%)     99.9%
 EFF. MASS   1.5412

 VIBRATION   52   52A         ATOM PAIR      ENERGY CONTRIBUTION    RADIAL
 FREQ.      3079.39         C  6 -- H 17         +45.1% ( 68.1%)    100.0%
 T-DIPOLE    0.3850         C  9 -- H 18         +26.9% ( 52.6%)    100.0%
 TRAVEL      0.1176         C  8 -- H 16         +18.2% ( 43.2%)    100.0%
 RED. MASS   0.3122         C  7 -- H 15          +6.3% ( 25.5%)    100.0%
 EFF. MASS   1.5847

 VIBRATION   53   53A         ATOM PAIR      ENERGY CONTRIBUTION    RADIAL
 FREQ.      3137.46         C 10 -- H 20         +90.5% ( 95.7%)     99.5%
 T-DIPOLE    0.3033         C 10 -- H 19          +7.9% ( 28.3%)     53.5%
 TRAVEL      0.1223         C  4 -- C 10          +1.5% ( 12.2%)     70.2%
 RED. MASS   0.7961
 EFF. MASS   1.4373

 VIBRATION   54   54A         ATOM PAIR      ENERGY CONTRIBUTION    RADIAL
 FREQ.      3145.47         C 10 -- H 19         +89.6% ( 96.4%)     99.8%
 T-DIPOLE    0.2694         C 10 -- H 20          +9.1% ( 30.7%)     77.4%
 TRAVEL      0.1174         C  4 -- C 10          +1.3% ( 11.8%)     17.9%
 RED. MASS   0.8235
 EFF. MASS   1.5548

      SYMMETRY NUMBER FOR POINT-GROUP C1  =  1


          SYSTEM IS A GROUND STATE



 InChI=1S/C10H10/c1-8-6-7-9-4-2-3-5-10(8)9/h2-5H,1,6-7H2


          MOLECULE IS NOT LINEAR

          THERE ARE 54 GENUINE VIBRATIONS IN THIS SYSTEM
          THIS THERMODYNAMICS CALCULATION IS LIMITED TO
          MOLECULES WHICH HAVE NO INTERNAL ROTATIONS




                    CALCULATED THERMODYNAMIC PROPERTIES
                                          *
   TEMP. (K)   PARTITION FUNCTION   H.O.F.    ENTHALPY  HEAT CAPACITY ENTROPY
                                   KCAL/MOL   CAL/MOLE    CAL/K/MOL  CAL/K/MOL


 298.00  VIB.     0.3004D+02                  3146.2446    26.0323    17.3194
         ROT.     0.5213D+06                   888.2813     2.9808    29.1404
         INT.     0.1566D+08                  4034.5259    29.0131    46.4598
         TRA.     0.1436D+28                  1480.4688     4.9680    40.5022
         TOT.                       32.166    5514.9947    33.9811    86.9620

 200.00  VIB.     0.6055D+01                  1172.3545    14.4759     9.4406
         ROT.     0.2866D+06                   596.1620     2.9808    27.9517
         INT.     0.1735D+07                  1768.5164    17.4568    37.3923
         TRA.     0.7896D+27                   993.6033     4.9680    38.5210
         TOT.                       29.413    2762.1197    22.4248    75.9133

 210.00  VIB.     0.7030D+01                  1322.5832    15.5745    10.1733
         ROT.     0.3084D+06                   625.9700     2.9808    28.0972
         INT.     0.2168D+07                  1948.5532    18.5553    38.2705
         TRA.     0.8496D+27                  1043.2834     4.9680    38.7634
         TOT.                       29.643    2991.8367    23.5233    77.0339

 220.00  VIB.     0.8189D+01                  1483.9338    16.6998    10.9237
         ROT.     0.3306D+06                   655.7781     2.9808    28.2358
         INT.     0.2708D+07                  2139.7119    19.6806    39.1595
         TRA.     0.9110D+27                  1092.9636     4.9680    38.9945
         TOT.                       29.884    3232.6755    24.6487    78.1541

 230.00  VIB.     0.9570D+01                  1656.6588    17.8489    11.6913
         ROT.     0.3534D+06                   685.5862     2.9808    28.3683
         INT.     0.3383D+07                  2342.2451    20.8297    40.0597
         TRA.     0.9738D+27                  1142.6437     4.9680    39.2154
         TOT.                       30.136    3484.8888    25.7977    79.2750

 240.00  VIB.     0.1122D+02                  1840.9793    19.0184    12.4756
         ROT.     0.3767D+06                   715.3943     2.9808    28.4952
         INT.     0.4228D+07                  2556.3736    21.9992    40.9708
         TRA.     0.1038D+28                  1192.3239     4.9680    39.4268
         TOT.                       30.400    3748.6975    26.9672    80.3976

 250.00  VIB.     0.1320D+02                  2037.0829    20.2049    13.2760
         ROT.     0.4005D+06                   745.2024     2.9808    28.6169
         INT.     0.5288D+07                  2782.2853    23.1857    41.8929
         TRA.     0.1103D+28                  1242.0041     4.9680    39.6296
         TOT.                       30.675    4024.2894    28.1538    81.5225

 260.00  VIB.     0.1558D+02                  2245.1234    21.4052    14.0918
         ROT.     0.4248D+06                   775.0105     2.9808    28.7338
         INT.     0.6618D+07                  3020.1339    24.3860    42.8256
         TRA.     0.1170D+28                  1291.6842     4.9680    39.8245
         TOT.                       30.963    4311.8181    29.3540    82.6500

 270.00  VIB.     0.1844D+02                  2465.2205    22.6157    14.9223
         ROT.     0.4495D+06                   804.8186     2.9808    28.8463
         INT.     0.8290D+07                  3270.0391    25.5965    43.7686
         TRA.     0.1239D+28                  1341.3644     4.9680    40.0120
         TOT.                       31.262    4611.4035    30.5645    83.7805

 280.00  VIB.     0.2189D+02                  2697.4604    23.8332    15.7668
         ROT.     0.4747D+06                   834.6267     2.9808    28.9547
         INT.     0.1039D+08                  3532.0872    26.8140    44.7214
         TRA.     0.1308D+28                  1391.0445     4.9680    40.1926
         TOT.                       31.574    4923.1317    31.7820    84.9141

 290.00  VIB.     0.2607D+02                  2941.8971    25.0545    16.6244
         ROT.     0.5004D+06                   864.4348     2.9808    29.0593
         INT.     0.1305D+08                  3806.3320    28.0353    45.6837
         TRA.     0.1379D+28                  1440.7247     4.9680    40.3670
         TOT.                       31.898    5247.0567    33.0033    86.0506

 300.00  VIB.     0.3113D+02                  3198.5536    26.2767    17.4944
         ROT.     0.5265D+06                   894.2429     2.9808    29.1603
         INT.     0.1639D+08                  4092.7965    29.2575    46.6547
         TRA.     0.1451D+28                  1490.4049     4.9680    40.5354
         TOT.                       32.234    5583.2014    34.2255    87.1901

 310.00  VIB.     0.3728D+02                  3467.4238    27.4968    18.3759
         ROT.     0.5531D+06                   924.0510     2.9808    29.2581
         INT.     0.2062D+08                  4391.4748    30.4776    47.6340
         TRA.     0.1524D+28                  1540.0850     4.9680    40.6983
         TOT.                       32.583    5931.5598    35.4457    88.3323

 320.00  VIB.     0.4476D+02                  3748.4750    28.7124    19.2681
         ROT.     0.5800D+06                   953.8591     2.9808    29.3527
         INT.     0.2596D+08                  4702.3341    31.6933    48.6208
         TRA.     0.1598D+28                  1589.7652     4.9680    40.8560
         TOT.                       32.943    6292.0993    36.6613    89.4768

 330.00  VIB.     0.5389D+02                  4041.6497    29.9212    20.1701
         ROT.     0.6074D+06                   983.6672     2.9808    29.4444
         INT.     0.3273D+08                  5025.3169    32.9020    49.6146
         TRA.     0.1674D+28                  1639.4454     4.9680    41.0089
         TOT.                       33.316    6664.7623    37.8700    90.6235

 340.00  VIB.     0.6503D+02                  4346.8682    31.1209    21.0812
         ROT.     0.6353D+06                  1013.4753     2.9808    29.5334
         INT.     0.4131D+08                  5360.3435    34.1017    50.6146
         TRA.     0.1750D+28                  1689.1255     4.9680    41.1572
         TOT.                       33.700    7049.4691    39.0697    91.7719

 350.00  VIB.     0.7867D+02                  4664.0308    32.3097    22.0005
         ROT.     0.6635D+06                  1043.2834     2.9808    29.6198
         INT.     0.5220D+08                  5707.3142    35.2905    51.6203
         TRA.     0.1828D+28                  1738.8057     4.9680    41.3012
         TOT.                       34.097    7446.1199    40.2585    92.9216

 360.00  VIB.     0.9539D+02                  4993.0201    33.4860    22.9272
         ROT.     0.6921D+06                  1073.0915     2.9808    29.7038
         INT.     0.6602D+08                  6066.1116    36.4668    52.6310
         TRA.     0.1907D+28                  1788.4859     4.9680    41.4412
         TOT.                       34.506    7854.5975    41.4348    94.0722

 370.00  VIB.     0.1159D+03                  5333.7033    34.6482    23.8606
         ROT.     0.7212D+06                  1102.8996     2.9808    29.7855
         INT.     0.8360D+08                  6436.6029    37.6291    53.6461
         TRA.     0.1987D+28                  1838.1660     4.9680    41.5773
         TOT.                       34.926    8274.7689    42.5971    95.2234

 380.00  VIB.     0.1412D+03                  5685.9343    35.7953    24.7999
         ROT.     0.7506D+06                  1132.7077     2.9808    29.8650
         INT.     0.1060D+09                  6818.6420    38.7761    54.6648
         TRA.     0.2068D+28                  1887.8462     4.9680    41.7098
         TOT.                       35.357    8706.4882    43.7442    96.3746

 390.00  VIB.     0.1723D+03                  6049.5557    36.9262    25.7443
         ROT.     0.7804D+06                  1162.5158     2.9808    29.9424
         INT.     0.1345D+09                  7212.0715    39.9070    55.6867
         TRA.     0.2150D+28                  1937.5263     4.9680    41.8388
         TOT.                       35.801    9149.5978    44.8750    97.5255

 400.00  VIB.     0.2107D+03                  6424.4006    38.0399    26.6933
         ROT.     0.8106D+06                  1192.3239     2.9808    30.0179
         INT.     0.1708D+09                  7616.7245    41.0207    56.7111
         TRA.     0.2233D+28                  1987.2065     4.9680    41.9646
         TOT.                       36.255    9603.9310    45.9887    98.6758

   *: NOTE: HEATS OF FORMATION ARE RELATIVE TO THE
            ELEMENTS IN THEIR STANDARD STATE AT 298K
              (=  Standard Enthalpy of Formation).

            Hvib:  Zero-point energy is not included.
                   frequencies of less than zero cm-1 are not included.
            Hrot = (3/2)RT
            Htra = (3/2)RT + pV = (5/2)RT

            Heat capacity is Cp, not Cv

          For more information, see: HTTP://OpenMOPAC.net/Manual/thermochemistry.html


           FORCE CONSTANT IN CARTESIAN COORDINATES (Millidynes/A)

    ATOM   CHEMICAL       X               Y               Z
   NUMBER   SYMBOL  FORCE CONSTANT  FORCE CONSTANT  FORCE CONSTANT

      1       C        7.929569        8.938864        8.125717
      2       C        7.819669        9.275411        8.111394
      3       C       13.803685       11.751494        2.678098
      4       C       16.379558        9.445995        2.597688
      5       C       11.716993       14.512888        2.520127
      6       C       12.515517       12.026336        2.330669
      7       C       12.080598       12.431941        2.341407
      8       C       12.027202       12.035856        2.340624
      9       C       12.141304       12.046796        2.352473
     10       C       14.708221        9.801642        1.946318
     11       H        1.262080        1.578652        3.561791
     12       H        1.262007        1.577243        3.563082
     13       H        1.277786        1.552501        3.559500
     14       H        1.277967        1.552732        3.559264
     15       H        3.629093        2.275002        0.357521
     16       H        0.812158        5.104989        0.352297
     17       H        3.656149        2.262750        0.355214
     18       H        4.408603        1.507007        0.353115
     19       H        3.555726        2.553243        0.329927
     20       H        0.949014        5.153841        0.331740

 **********************
 *                    *
 * JOB ENDED NORMALLY *
 *                    *
 **********************



 TOTAL JOB TIME:             1.53 SECONDS

 == MOPAC DONE ==
