 *******************************************************************************
 ** Site#: 14399        For non-commercial use only    Version 18.184L 64BITS **
 *******************************************************************************
 ** Cite this program as: MOPAC2016, Version: 18.184L, James J. P. Stewart,   **
 ** Stewart Computational Chemistry, web: HTTP://OpenMOPAC.net. Days left:  18**
 *******************************************************************************
 **                                                                           **
 **                                MOPAC2016                                  **
 **                                                                           **
 *******************************************************************************

                              PM3 CALCULATION RESULTS

 *******************************************************************************
 *  CALCULATION DONE:                                Sat Jun 15 10:12:23 2019  *
 *  PM3        - The PM3 Hamiltonian to be used
 *  PRECISE    - CRITERIA TO BE INCREASED BY 100 TIMES
 *  NOSYM      - POINT-GROUP SYMMETRY SET TO C1
 *  THREADS=1  - MULTI-THREADING NOT USED
 *  T=         - A TIME OF 172800.0 SECONDS REQUESTED
 *  DUMP=N     - RESTART FILE WRITTEN EVERY  7200.000 SECONDS
 *******************************************************************************
pm3  precise nosym THREADS=1
 InChI=1S/C9H12/c1-2-6-9-7-4-3-5-8-9/h2-4,8H,1,5-7H2

   ATOM   CHEMICAL          X               Y               Z
  NUMBER   SYMBOL      (ANGSTROMS)     (ANGSTROMS)     (ANGSTROMS)
 
     1       C          1.60620000  *  -0.82210000  *   0.27940000  *
     2       C         -0.60980000  *   0.09700000  *   1.27710000  *
     3       C         -1.90160000  *  -0.40840000  *  -1.35620000  *
     4       C          0.14480000  *  -0.48110000  *   0.10040000  *
     5       C         -0.45270000  *  -0.71270000  *  -1.08490000  *
     6       C         -2.05400000  *   0.41310000  *   0.99790000  *
     7       C         -2.63480000  *   0.18580000  *  -0.18580000  *
     8       C          2.48170000  *   0.05350000  *  -0.57500000  *
     9       C          2.61740000  *   1.36070000  *  -0.33340000  *
    10       H          1.76760000  *  -1.88620000  *   0.00210000  *
    11       H          1.90900000  *  -0.70970000  *   1.34350000  *
    12       H         -0.10640000  *   1.03290000  *   1.59880000  *
    13       H         -0.56760000  *  -0.62580000  *   2.11900000  *
    14       H         -2.41150000  *  -1.34860000  *  -1.65330000  *
    15       H         -1.95960000  *   0.30250000  *  -2.20690000  *
    16       H          3.02350000  *  -0.39150000  *  -1.40440000  *
    17       H         -2.64820000  *   0.84280000  *   1.79880000  *
    18       H          0.12590000  *  -1.13950000  *  -1.90000000  *
    19       H         -3.68340000  *   0.43790000  *  -0.31220000  *
    20       H          2.09460000  *   1.83360000  *   0.49210000  *
    21       H          3.25870000  *   1.96590000  *  -0.96570000  *
 


          CARTESIAN COORDINATES 

    NO.       ATOM           X           Y           Z

     1         C          1.6062     -0.8221      0.2794
     2         C         -0.6098      0.0970      1.2771
     3         C         -1.9016     -0.4084     -1.3562
     4         C          0.1448     -0.4811      0.1004
     5         C         -0.4527     -0.7127     -1.0849
     6         C         -2.0540      0.4131      0.9979
     7         C         -2.6348      0.1858     -0.1858
     8         C          2.4817      0.0535     -0.5750
     9         C          2.6174      1.3607     -0.3334
    10         H          1.7676     -1.8862      0.0021
    11         H          1.9090     -0.7097      1.3435
    12         H         -0.1064      1.0329      1.5988
    13         H         -0.5676     -0.6258      2.1190
    14         H         -2.4115     -1.3486     -1.6533
    15         H         -1.9596      0.3025     -2.2069
    16         H          3.0235     -0.3915     -1.4044
    17         H         -2.6482      0.8428      1.7988
    18         H          0.1259     -1.1395     -1.9000
    19         H         -3.6834      0.4379     -0.3122
    20         H          2.0946      1.8336      0.4921
    21         H          3.2587      1.9659     -0.9657

  H: (PM3): J. J. P. STEWART, J. COMP. CHEM. 10, 209 (1989).
  C: (PM3): J. J. P. STEWART, J. COMP. CHEM. 10, 209 (1989).

           Empirical Formula: C9 H12  =    21 atoms



      MOLECULAR POINT GROUP   :   C1  


      RHF CALCULATION, NO. OF DOUBLY OCCUPIED LEVELS = 24


          Geometry optimization using EF

          DIAGONAL MATRIX USED AS START HESSIAN

 CYCLE:     1 TIME:   0.008 TIME LEFT:  2.00D  GRAD.:    61.009 HEAT:  34.03002
 CYCLE:     2 TIME:   0.012 TIME LEFT:  2.00D  GRAD.:    75.975 HEAT:  33.69106
 CYCLE:     3 TIME:   0.008 TIME LEFT:  2.00D  GRAD.:    32.195 HEAT:  32.91099
 CYCLE:     4 TIME:   0.004 TIME LEFT:  2.00D  GRAD.:    42.952 HEAT:  32.85007
 CYCLE:     5 TIME:   0.008 TIME LEFT:  2.00D  GRAD.:    27.571 HEAT:  32.54111
 CYCLE:     6 TIME:   0.004 TIME LEFT:  2.00D  GRAD.:    26.631 HEAT:  32.45569
 CYCLE:     7 TIME:   0.004 TIME LEFT:  2.00D  GRAD.:    20.783 HEAT:  32.24146
 CYCLE:     8 TIME:   0.008 TIME LEFT:  2.00D  GRAD.:    29.118 HEAT:  32.23861
 CYCLE:     9 TIME:   0.004 TIME LEFT:  2.00D  GRAD.:    18.724 HEAT:  32.13532
 CYCLE:    10 TIME:   0.004 TIME LEFT:  2.00D  GRAD.:    25.497 HEAT:  32.12653
 CYCLE:    11 TIME:   0.004 TIME LEFT:  2.00D  GRAD.:    21.420 HEAT:  32.06876
 CYCLE:    12 TIME:   0.004 TIME LEFT:  2.00D  GRAD.:    25.972 HEAT:  32.06482
 CYCLE:    13 TIME:   0.004 TIME LEFT:  2.00D  GRAD.:    20.149 HEAT:  32.00204
 CYCLE:    14 TIME:   0.008 TIME LEFT:  2.00D  GRAD.:     9.239 HEAT:  31.90232
 CYCLE:    15 TIME:   0.004 TIME LEFT:  2.00D  GRAD.:     5.714 HEAT:  31.87039
 CYCLE:    16 TIME:   0.008 TIME LEFT:  2.00D  GRAD.:     8.334 HEAT:  31.85999
 CYCLE:    17 TIME:   0.004 TIME LEFT:  2.00D  GRAD.:     7.588 HEAT:  31.84394
 CYCLE:    18 TIME:   0.004 TIME LEFT:  2.00D  GRAD.:     9.927 HEAT:  31.83469
 CYCLE:    19 TIME:   0.004 TIME LEFT:  2.00D  GRAD.:     4.686 HEAT:  31.80274
 CYCLE:    20 TIME:   0.008 TIME LEFT:  2.00D  GRAD.:     6.529 HEAT:  31.80011
 CYCLE:    21 TIME:   0.004 TIME LEFT:  2.00D  GRAD.:     4.146 HEAT:  31.78816
 CYCLE:    22 TIME:   0.008 TIME LEFT:  2.00D  GRAD.:     4.030 HEAT:  31.78477
 CYCLE:    23 TIME:   0.004 TIME LEFT:  2.00D  GRAD.:     2.328 HEAT:  31.77904
 CYCLE:    24 TIME:   0.004 TIME LEFT:  2.00D  GRAD.:     3.573 HEAT:  31.77737
 CYCLE:    25 TIME:   0.004 TIME LEFT:  2.00D  GRAD.:     1.784 HEAT:  31.77274
 CYCLE:    26 TIME:   0.004 TIME LEFT:  2.00D  GRAD.:     3.225 HEAT:  31.77073
 CYCLE:    27 TIME:   0.008 TIME LEFT:  2.00D  GRAD.:     1.910 HEAT:  31.76651
 CYCLE:    28 TIME:   0.004 TIME LEFT:  2.00D  GRAD.:     3.224 HEAT:  31.76572
 CYCLE:    29 TIME:   0.004 TIME LEFT:  2.00D  GRAD.:     1.455 HEAT:  31.76114
 CYCLE:    30 TIME:   0.004 TIME LEFT:  2.00D  GRAD.:     1.397 HEAT:  31.75793
 CYCLE:    31 TIME:   0.004 TIME LEFT:  2.00D  GRAD.:     2.419 HEAT:  31.75313
 CYCLE:    32 TIME:   0.004 TIME LEFT:  2.00D  GRAD.:     2.477 HEAT:  31.74837
 CYCLE:    33 TIME:   0.004 TIME LEFT:  2.00D  GRAD.:     2.093 HEAT:  31.74226
 CYCLE:    34 TIME:   0.004 TIME LEFT:  2.00D  GRAD.:     2.110 HEAT:  31.73324
 CYCLE:    35 TIME:   0.004 TIME LEFT:  2.00D  GRAD.:     2.854 HEAT:  31.72381
 CYCLE:    36 TIME:   0.004 TIME LEFT:  2.00D  GRAD.:     3.487 HEAT:  31.70842
 CYCLE:    37 TIME:   0.004 TIME LEFT:  2.00D  GRAD.:     3.886 HEAT:  31.68922
 CYCLE:    38 TIME:   0.004 TIME LEFT:  2.00D  GRAD.:     4.126 HEAT:  31.65716
 CYCLE:    39 TIME:   0.004 TIME LEFT:  2.00D  GRAD.:     4.986 HEAT:  31.60121
 CYCLE:    40 TIME:   0.008 TIME LEFT:  2.00D  GRAD.:     7.605 HEAT:  31.54665
 CYCLE:    41 TIME:   0.004 TIME LEFT:  2.00D  GRAD.:     7.594 HEAT:  31.52945
 CYCLE:    42 TIME:   0.004 TIME LEFT:  2.00D  GRAD.:     8.031 HEAT:  31.47745
 CYCLE:    43 TIME:   0.004 TIME LEFT:  2.00D  GRAD.:     4.425 HEAT:  31.44582
 CYCLE:    44 TIME:   0.004 TIME LEFT:  2.00D  GRAD.:     3.610 HEAT:  31.41608
 CYCLE:    45 TIME:   0.004 TIME LEFT:  2.00D  GRAD.:     7.273 HEAT:  31.38048
 CYCLE:    46 TIME:   0.004 TIME LEFT:  2.00D  GRAD.:     4.030 HEAT:  31.35513
 CYCLE:    47 TIME:   0.004 TIME LEFT:  2.00D  GRAD.:     3.822 HEAT:  31.33304
 CYCLE:    48 TIME:   0.004 TIME LEFT:  2.00D  GRAD.:     6.936 HEAT:  31.31118
 CYCLE:    49 TIME:   0.004 TIME LEFT:  2.00D  GRAD.:     5.398 HEAT:  31.28349
 CYCLE:    50 TIME:   0.004 TIME LEFT:  2.00D  GRAD.:     3.703 HEAT:  31.24952
 CYCLE:    51 TIME:   0.008 TIME LEFT:  2.00D  GRAD.:     6.522 HEAT:  31.21165
 CYCLE:    52 TIME:   0.004 TIME LEFT:  2.00D  GRAD.:     4.589 HEAT:  31.18621
 CYCLE:    53 TIME:   0.004 TIME LEFT:  2.00D  GRAD.:     5.374 HEAT:  31.15795
 CYCLE:    54 TIME:   0.004 TIME LEFT:  2.00D  GRAD.:     5.599 HEAT:  31.12812
 CYCLE:    55 TIME:   0.004 TIME LEFT:  2.00D  GRAD.:     4.142 HEAT:  31.09861
 CYCLE:    56 TIME:   0.004 TIME LEFT:  2.00D  GRAD.:     5.875 HEAT:  31.06911
 CYCLE:    57 TIME:   0.004 TIME LEFT:  2.00D  GRAD.:     4.072 HEAT:  31.04806
 CYCLE:    58 TIME:   0.004 TIME LEFT:  2.00D  GRAD.:     2.630 HEAT:  31.03196
 CYCLE:    59 TIME:   0.004 TIME LEFT:  2.00D  GRAD.:     3.222 HEAT:  31.02329
 CYCLE:    60 TIME:   0.004 TIME LEFT:  2.00D  GRAD.:     3.078 HEAT:  31.01668
 CYCLE:    61 TIME:   0.008 TIME LEFT:  2.00D  GRAD.:     2.608 HEAT:  31.00789
 CYCLE:    62 TIME:   0.004 TIME LEFT:  2.00D  GRAD.:     2.532 HEAT:  30.99154
 CYCLE:    63 TIME:   0.004 TIME LEFT:  2.00D  GRAD.:     2.599 HEAT:  30.97743
 CYCLE:    64 TIME:   0.004 TIME LEFT:  2.00D  GRAD.:     3.918 HEAT:  30.96279
 CYCLE:    65 TIME:   0.004 TIME LEFT:  2.00D  GRAD.:     3.852 HEAT:  30.94303
 CYCLE:    66 TIME:   0.004 TIME LEFT:  2.00D  GRAD.:     3.886 HEAT:  30.92051
 CYCLE:    67 TIME:   0.004 TIME LEFT:  2.00D  GRAD.:     2.943 HEAT:  30.90220
 CYCLE:    68 TIME:   0.004 TIME LEFT:  2.00D  GRAD.:     5.545 HEAT:  30.89830
 CYCLE:    69 TIME:   0.004 TIME LEFT:  2.00D  GRAD.:     2.905 HEAT:  30.87787
 CYCLE:    70 TIME:   0.004 TIME LEFT:  2.00D  GRAD.:     2.993 HEAT:  30.85955
 CYCLE:    71 TIME:   0.008 TIME LEFT:  2.00D  GRAD.:     2.827 HEAT:  30.82852
 CYCLE:    72 TIME:   0.004 TIME LEFT:  2.00D  GRAD.:     4.498 HEAT:  30.81430
 CYCLE:    73 TIME:   0.004 TIME LEFT:  2.00D  GRAD.:     2.608 HEAT:  30.80172
 CYCLE:    74 TIME:   0.004 TIME LEFT:  2.00D  GRAD.:     2.856 HEAT:  30.78963
 CYCLE:    75 TIME:   0.004 TIME LEFT:  2.00D  GRAD.:     2.178 HEAT:  30.78103
 CYCLE:    76 TIME:   0.004 TIME LEFT:  2.00D  GRAD.:     2.485 HEAT:  30.77440
 CYCLE:    77 TIME:   0.004 TIME LEFT:  2.00D  GRAD.:     1.907 HEAT:  30.76658
 CYCLE:    78 TIME:   0.004 TIME LEFT:  2.00D  GRAD.:     1.746 HEAT:  30.76074
 CYCLE:    79 TIME:   0.004 TIME LEFT:  2.00D  GRAD.:     1.745 HEAT:  30.75617
 CYCLE:    80 TIME:   0.004 TIME LEFT:  2.00D  GRAD.:     1.589 HEAT:  30.75191
 CYCLE:    81 TIME:   0.004 TIME LEFT:  2.00D  GRAD.:     1.747 HEAT:  30.74751
 CYCLE:    82 TIME:   0.008 TIME LEFT:  2.00D  GRAD.:     1.787 HEAT:  30.74331
 CYCLE:    83 TIME:   0.004 TIME LEFT:  2.00D  GRAD.:     1.843 HEAT:  30.73802
 CYCLE:    84 TIME:   0.004 TIME LEFT:  2.00D  GRAD.:     1.957 HEAT:  30.73105
 CYCLE:    85 TIME:   0.004 TIME LEFT:  2.00D  GRAD.:     2.473 HEAT:  30.71937
 CYCLE:    86 TIME:   0.004 TIME LEFT:  2.00D  GRAD.:     2.877 HEAT:  30.70711
 CYCLE:    87 TIME:   0.004 TIME LEFT:  2.00D  GRAD.:     3.934 HEAT:  30.68530
 CYCLE:    88 TIME:   0.004 TIME LEFT:  2.00D  GRAD.:     3.702 HEAT:  30.66263
 CYCLE:    89 TIME:   0.004 TIME LEFT:  2.00D  GRAD.:     6.809 HEAT:  30.64327
 CYCLE:    90 TIME:   0.008 TIME LEFT:  2.00D  GRAD.:     4.839 HEAT:  30.63096
 CYCLE:    91 TIME:   0.004 TIME LEFT:  2.00D  GRAD.:     3.430 HEAT:  30.61069
 CYCLE:    92 TIME:   0.004 TIME LEFT:  2.00D  GRAD.:     2.280 HEAT:  30.60194
 CYCLE:    93 TIME:   0.004 TIME LEFT:  2.00D  GRAD.:     1.983 HEAT:  30.59497
 CYCLE:    94 TIME:   0.008 TIME LEFT:  2.00D  GRAD.:     1.742 HEAT:  30.58847
 CYCLE:    95 TIME:   0.004 TIME LEFT:  2.00D  GRAD.:     1.608 HEAT:  30.58515
 CYCLE:    96 TIME:   0.004 TIME LEFT:  2.00D  GRAD.:     1.504 HEAT:  30.58186
 CYCLE:    97 TIME:   0.004 TIME LEFT:  2.00D  GRAD.:     1.579 HEAT:  30.57910
 CYCLE:    98 TIME:   0.004 TIME LEFT:  2.00D  GRAD.:     1.541 HEAT:  30.57695
 CYCLE:    99 TIME:   0.004 TIME LEFT:  2.00D  GRAD.:     1.324 HEAT:  30.57503
 CYCLE:   100 TIME:   0.004 TIME LEFT:  2.00D  GRAD.:     1.184 HEAT:  30.57128
 CYCLE:   101 TIME:   0.004 TIME LEFT:  2.00D  GRAD.:     0.954 HEAT:  30.56957
 CYCLE:   102 TIME:   0.004 TIME LEFT:  2.00D  GRAD.:     0.840 HEAT:  30.56673
 CYCLE:   103 TIME:   0.004 TIME LEFT:  2.00D  GRAD.:     0.771 HEAT:  30.56573
 CYCLE:   104 TIME:   0.004 TIME LEFT:  2.00D  GRAD.:     1.223 HEAT:  30.56267
 CYCLE:   105 TIME:   0.004 TIME LEFT:  2.00D  GRAD.:     1.091 HEAT:  30.56097
 CYCLE:   106 TIME:   0.008 TIME LEFT:  2.00D  GRAD.:     1.848 HEAT:  30.55424
 CYCLE:   107 TIME:   0.004 TIME LEFT:  2.00D  GRAD.:     2.505 HEAT:  30.55110
 CYCLE:   108 TIME:   0.004 TIME LEFT:  2.00D  GRAD.:     3.918 HEAT:  30.53996
 CYCLE:   109 TIME:   0.004 TIME LEFT:  2.00D  GRAD.:     3.629 HEAT:  30.53150
 CYCLE:   110 TIME:   0.004 TIME LEFT:  2.00D  GRAD.:     5.135 HEAT:  30.50908
 CYCLE:   111 TIME:   0.008 TIME LEFT:  2.00D  GRAD.:     4.931 HEAT:  30.50168
 CYCLE:   112 TIME:   0.004 TIME LEFT:  2.00D  GRAD.:     1.719 HEAT:  30.49026
 CYCLE:   113 TIME:   0.004 TIME LEFT:  2.00D  GRAD.:     1.445 HEAT:  30.48191
 CYCLE:   114 TIME:   0.004 TIME LEFT:  2.00D  GRAD.:     1.728 HEAT:  30.47296
 CYCLE:   115 TIME:   0.004 TIME LEFT:  2.00D  GRAD.:     1.733 HEAT:  30.46832
 CYCLE:   116 TIME:   0.004 TIME LEFT:  2.00D  GRAD.:     1.778 HEAT:  30.45735
 CYCLE:   117 TIME:   0.004 TIME LEFT:  2.00D  GRAD.:     2.174 HEAT:  30.45038
 CYCLE:   118 TIME:   0.008 TIME LEFT:  2.00D  GRAD.:     2.107 HEAT:  30.44346
 CYCLE:   119 TIME:   0.004 TIME LEFT:  2.00D  GRAD.:     1.929 HEAT:  30.43898
 CYCLE:   120 TIME:   0.004 TIME LEFT:  2.00D  GRAD.:     1.188 HEAT:  30.43662
 CYCLE:   121 TIME:   0.004 TIME LEFT:  2.00D  GRAD.:     1.355 HEAT:  30.43353
 CYCLE:   122 TIME:   0.004 TIME LEFT:  2.00D  GRAD.:     0.867 HEAT:  30.43243
 CYCLE:   123 TIME:   0.004 TIME LEFT:  2.00D  GRAD.:     0.580 HEAT:  30.43123
 CYCLE:   124 TIME:   0.004 TIME LEFT:  2.00D  GRAD.:     0.424 HEAT:  30.43086
 CYCLE:   125 TIME:   0.004 TIME LEFT:  2.00D  GRAD.:     0.418 HEAT:  30.43042
 CYCLE:   126 TIME:   0.004 TIME LEFT:  2.00D  GRAD.:     0.578 HEAT:  30.42990
 CYCLE:   127 TIME:   0.008 TIME LEFT:  2.00D  GRAD.:     0.592 HEAT:  30.42931
 CYCLE:   128 TIME:   0.004 TIME LEFT:  2.00D  GRAD.:     0.608 HEAT:  30.42870
 CYCLE:   129 TIME:   0.004 TIME LEFT:  2.00D  GRAD.:     0.367 HEAT:  30.42845
 CYCLE:   130 TIME:   0.004 TIME LEFT:  2.00D  GRAD.:     0.327 HEAT:  30.42804
 CYCLE:   131 TIME:   0.004 TIME LEFT:  2.00D  GRAD.:     0.375 HEAT:  30.42751
 CYCLE:   132 TIME:   0.004 TIME LEFT:  2.00D  GRAD.:     0.483 HEAT:  30.42715
 CYCLE:   133 TIME:   0.004 TIME LEFT:  2.00D  GRAD.:     0.556 HEAT:  30.42696
 CYCLE:   134 TIME:   0.004 TIME LEFT:  2.00D  GRAD.:     0.605 HEAT:  30.42681
 CYCLE:   135 TIME:   0.004 TIME LEFT:  2.00D  GRAD.:     0.643 HEAT:  30.42660
 CYCLE:   136 TIME:   0.004 TIME LEFT:  2.00D  GRAD.:     0.706 HEAT:  30.42616
 CYCLE:   137 TIME:   0.008 TIME LEFT:  2.00D  GRAD.:     1.219 HEAT:  30.42521
 CYCLE:   138 TIME:   0.004 TIME LEFT:  2.00D  GRAD.:     0.974 HEAT:  30.42414
 CYCLE:   139 TIME:   0.004 TIME LEFT:  2.00D  GRAD.:     1.018 HEAT:  30.41982
 CYCLE:   140 TIME:   0.004 TIME LEFT:  2.00D  GRAD.:     1.223 HEAT:  30.41775
 CYCLE:   141 TIME:   0.004 TIME LEFT:  2.00D  GRAD.:     2.543 HEAT:  30.41557
 CYCLE:   142 TIME:   0.004 TIME LEFT:  2.00D  GRAD.:     1.342 HEAT:  30.41357
 CYCLE:   143 TIME:   0.004 TIME LEFT:  2.00D  GRAD.:     0.671 HEAT:  30.41217
 CYCLE:   144 TIME:   0.004 TIME LEFT:  2.00D  GRAD.:     1.048 HEAT:  30.41126
 CYCLE:   145 TIME:   0.004 TIME LEFT:  2.00D  GRAD.:     0.813 HEAT:  30.41043
 CYCLE:   146 TIME:   0.004 TIME LEFT:  2.00D  GRAD.:     0.560 HEAT:  30.40906
 CYCLE:   147 TIME:   0.008 TIME LEFT:  2.00D  GRAD.:     0.467 HEAT:  30.40885
 CYCLE:   148 TIME:   0.004 TIME LEFT:  2.00D  GRAD.:     0.245 HEAT:  30.40862
 CYCLE:   149 TIME:   0.004 TIME LEFT:  2.00D  GRAD.:     0.208 HEAT:  30.40856
 CYCLE:   150 TIME:   0.004 TIME LEFT:  2.00D  GRAD.:     0.299 HEAT:  30.40855
 CYCLE:   151 TIME:   0.004 TIME LEFT:  2.00D  GRAD.:     0.085 HEAT:  30.40848
 CYCLE:   152 TIME:   0.004 TIME LEFT:  2.00D  GRAD.:     0.074 HEAT:  30.40846
 CYCLE:   153 TIME:   0.004 TIME LEFT:  2.00D  GRAD.:     0.049 HEAT:  30.40846

     GRADIENT =  0.04893  IS LESS THAN CUTOFF =  0.05000



 -------------------------------------------------------------------------------
 pm3  precise nosym THREADS=1
 InChI=1S/C9H12/c1-2-6-9-7-4-3-5-8-9/h2-4,8H,1,5-7H2



     GEOMETRY OPTIMISED USING EIGENVECTOR FOLLOWING (EF).     
     SCF FIELD WAS ACHIEVED                                   


                              PM3 CALCULATION
                                                       MOPAC2016 (Version: 18.184L)
                                                       Sat Jun 15 10:12:23 2019
                                                       No. of days remaining =  18




          FINAL HEAT OF FORMATION =         30.40846 KCAL/MOL =     127.22900 KJ/MOL


          TOTAL ENERGY            =      -1250.43725 EV
          ELECTRONIC ENERGY       =      -6433.07901 EV  POINT GROUP:     C1  
          CORE-CORE REPULSION     =       5182.64176 EV
          COSMO AREA              =        174.63 SQUARE ANGSTROMS
          COSMO VOLUME            =        172.65 CUBIC ANGSTROMS

          GRADIENT NORM           =          0.04893 = 0.01068 PER ATOM
          IONIZATION POTENTIAL    =          9.131589 EV
          HOMO LUMO ENERGIES (EV) =         -9.132  0.964
          NO. OF FILLED LEVELS    =         24
          MOLECULAR WEIGHT        =        120.1938

          MOLECULAR DIMENSIONS (Angstroms)

            Atom       Atom       Distance
            H    21    H    19     7.86173
            H    18    H    17     4.77792
            H    11    H    15     3.21866


          SCF CALCULATIONS        =        165
 
          WALL-CLOCK TIME         =          0.699 SECONDS
          COMPUTATION TIME        =          0.644 SECONDS




   ATOM   CHEMICAL          X               Y               Z
  NUMBER   SYMBOL      (ANGSTROMS)     (ANGSTROMS)     (ANGSTROMS)
 
     1       C          1.53345122  *  -0.65577055  *   0.02417834  *
     2       C         -0.56212030  *   0.43529784  *   0.93986987  *
     3       C         -2.12706641  *  -0.85323062  *  -1.20954148  *
     4       C          0.05522043  *  -0.44966802  *  -0.09085070  *
     5       C         -0.65991941  *  -1.02968642  *  -1.06142909  *
     6       C         -2.02445529  *   0.63161143  *   0.77041005  *
     7       C         -2.73206103  *   0.05057388  *  -0.19818832  *
     8       C          2.28141849  *   0.56012820  *  -0.40518542  *
     9       C          3.30730655  *   1.05705089  *   0.27572737  *
    10       H          1.86220177  *  -1.50646018  *  -0.60763682  *
    11       H          1.78506649  *  -0.93859746  *   1.06688681  *
    12       H         -0.05385553  *   1.42198421  *   0.91749124  *
    13       H         -0.36736909  *   0.01291235  *   1.94764585  *
    14       H         -2.61973120  *  -1.84574702  *  -1.15200562  *
    15       H         -2.34468260  *  -0.46207653  *  -2.22471226  *
    16       H          1.93883505  *   1.02615201  *  -1.33687212  *
    17       H         -2.50553942  *   1.29326259  *   1.49949678  *
    18       H         -0.17790513  *  -1.67598559  *  -1.80524790  *
    19       H         -3.81074693  *   0.22034469  *  -0.28801116  *
    20       H          3.67058781  *   0.62727790  *   1.20539752  *
    21       H          3.85871853  *   1.93235932  *  -0.05341998  *

                             CARTESIAN COORDINATES

   1    C        1.533451216    -0.655770551     0.024178339
   2    C       -0.562120305     0.435297839     0.939869868
   3    C       -2.127066413    -0.853230615    -1.209541477
   4    C        0.055220435    -0.449668023    -0.090850703
   5    C       -0.659919408    -1.029686417    -1.061429089
   6    C       -2.024455294     0.631611430     0.770410045
   7    C       -2.732061026     0.050573878    -0.198188319
   8    C        2.281418493     0.560128197    -0.405185420
   9    C        3.307306549     1.057050885     0.275727373
  10    H        1.862201770    -1.506460178    -0.607636819
  11    H        1.785066493    -0.938597456     1.066886813
  12    H       -0.053855532     1.421984214     0.917491238
  13    H       -0.367369093     0.012912345     1.947645853
  14    H       -2.619731202    -1.845747018    -1.152005617
  15    H       -2.344682605    -0.462076535    -2.224712256
  16    H        1.938835051     1.026152012    -1.336872116
  17    H       -2.505539418     1.293262593     1.499496780
  18    H       -0.177905128    -1.675985589    -1.805247896
  19    H       -3.810746931     0.220344686    -0.288011156
  20    H        3.670587813     0.627277897     1.205397524
  21    H        3.858718531     1.932359316    -0.053419978


           Empirical Formula: C9 H12  =    21 atoms



      MOLECULAR POINT GROUP   :   C1  


                  EIGENVALUES  
 -40.38748 -35.30190 -30.41026 -30.08639 -25.25905 -22.65959 -20.26762 -19.62408
 -17.51290 -16.26198 -16.03798 -15.67436 -15.41244 -14.77456 -14.25477 -13.83896
 -13.67816 -13.08297 -12.40387 -12.23379 -11.75352 -10.29175 -10.12115  -9.13159
   0.96426   1.10592   1.20018   3.20905   3.46020   3.48416   3.55784   3.79826
   3.83984   3.94028   4.02705   4.11964   4.28530   4.40071   4.41274   4.56180
   4.67043   4.72903   5.32689   5.41144   5.59297   5.82648   6.00676   6.23537


              NET ATOMIC CHARGES AND DIPOLE CONTRIBUTIONS

  ATOM NO.   TYPE          CHARGE      No. of ELECS.   s-Pop       p-Pop       
    1          C          -0.025011        4.0250     1.13748     2.88753
    2          C          -0.014651        4.0147     1.13131     2.88334
    3          C          -0.017268        4.0173     1.13072     2.88655
    4          C          -0.121766        4.1218     1.19716     2.92461
    5          C          -0.146466        4.1465     1.19246     2.95401
    6          C          -0.144739        4.1447     1.19264     2.95210
    7          C          -0.148533        4.1485     1.19271     2.95583
    8          C          -0.133183        4.1332     1.19539     2.93779
    9          C          -0.170173        4.1702     1.18282     2.98735
   10          H           0.059226        0.9408     0.94077
   11          H           0.058217        0.9418     0.94178
   12          H           0.065156        0.9348     0.93484
   13          H           0.061118        0.9389     0.93888
   14          H           0.059596        0.9404     0.94040
   15          H           0.059153        0.9408     0.94085
   16          H           0.101225        0.8988     0.89877
   17          H           0.097706        0.9023     0.90229
   18          H           0.101070        0.8989     0.89893
   19          H           0.097899        0.9021     0.90210
   20          H           0.081358        0.9186     0.91864
   21          H           0.080063        0.9199     0.91994
 DIPOLE           X         Y         Z       TOTAL
 POINT-CHG.    -0.048    -0.109    -0.014     0.120
 HYBRID         0.020     0.015    -0.011     0.027
 SUM           -0.027    -0.094    -0.025     0.101


          ATOMIC ORBITAL ELECTRON POPULATIONS

     Atom    s        px        py        pz   
    1  C   1.13748   0.91724   0.96052   1.00977
    2  C   1.13131   0.93253   0.98346   0.96735
    3  C   1.13072   0.93232   0.98066   0.97357
    4  C   1.19716   0.95213   0.99452   0.97796
    5  C   1.19246   0.96207   1.00819   0.98374
    6  C   1.19264   0.96258   1.00217   0.98735
    7  C   1.19271   0.98546   0.99438   0.97599
    8  C   1.19539   0.97013   0.97395   0.99372
    9  C   1.18282   0.98236   1.00507   0.99993
   10  H   0.94077
   11  H   0.94178
   12  H   0.93484
   13  H   0.93888
   14  H   0.94040
   15  H   0.94085
   16  H   0.89877
   17  H   0.90229
   18  H   0.89893
   19  H   0.90210
   20  H   0.91864
   21  H   0.91994
 *******************************************************************************
 ** Site#: 14399        For non-commercial use only    Version 18.184L 64BITS **
 *******************************************************************************
 ** Cite this program as: MOPAC2016, Version: 18.184L, James J. P. Stewart,   **
 ** Stewart Computational Chemistry, web: HTTP://OpenMOPAC.net. Days left:  18**
 *******************************************************************************
 **                                                                           **
 **                                MOPAC2016                                  **
 **                                                                           **
 *******************************************************************************

                              PM3 CALCULATION RESULTS

 *******************************************************************************
 *  CALCULATION DONE:                                Sat Jun 15 10:12:23 2019  *
 *  PM3        - The PM3 Hamiltonian to be used
 *  OLDGEO     - PREVIOUS GEOMETRY TO BE USED
 *  PRECISE    - CRITERIA TO BE INCREASED BY 100 TIMES
 *  NOSYM      - POINT-GROUP SYMMETRY SET TO C1
 *  THREADS=1  - MULTI-THREADING NOT USED
 *  T=         - A TIME OF 172800.0 SECONDS REQUESTED
 *  DUMP=N     - RESTART FILE WRITTEN EVERY  7200.000 SECONDS
 *  THERMO     - THERMODYNAMIC QUANTITIES TO BE CALCULATED
 *******************************************************************************
oldgeo thermo nosym precise THREADS=1  pm3
 InChI=1S/C9H12/c1-2-6-9-7-4-3-5-8-9/h2-4,8H,1,5-7H2

   ATOM   CHEMICAL          X               Y               Z
  NUMBER   SYMBOL      (ANGSTROMS)     (ANGSTROMS)     (ANGSTROMS)
 
     1       C          1.53345122  *  -0.65577055  *   0.02417834  *
     2       C         -0.56212030  *   0.43529784  *   0.93986987  *
     3       C         -2.12706641  *  -0.85323062  *  -1.20954148  *
     4       C          0.05522043  *  -0.44966802  *  -0.09085070  *
     5       C         -0.65991941  *  -1.02968642  *  -1.06142909  *
     6       C         -2.02445529  *   0.63161143  *   0.77041005  *
     7       C         -2.73206103  *   0.05057388  *  -0.19818832  *
     8       C          2.28141849  *   0.56012820  *  -0.40518542  *
     9       C          3.30730655  *   1.05705089  *   0.27572737  *
    10       H          1.86220177  *  -1.50646018  *  -0.60763682  *
    11       H          1.78506649  *  -0.93859746  *   1.06688681  *
    12       H         -0.05385553  *   1.42198421  *   0.91749124  *
    13       H         -0.36736909  *   0.01291235  *   1.94764585  *
    14       H         -2.61973120  *  -1.84574702  *  -1.15200562  *
    15       H         -2.34468260  *  -0.46207653  *  -2.22471226  *
    16       H          1.93883505  *   1.02615201  *  -1.33687212  *
    17       H         -2.50553942  *   1.29326259  *   1.49949678  *
    18       H         -0.17790513  *  -1.67598559  *  -1.80524790  *
    19       H         -3.81074693  *   0.22034469  *  -0.28801116  *
    20       H          3.67058781  *   0.62727790  *   1.20539752  *
    21       H          3.85871853  *   1.93235932  *  -0.05341998  *
 


          CARTESIAN COORDINATES 

    NO.       ATOM           X           Y           Z

     1         C          1.5335     -0.6558      0.0242
     2         C         -0.5621      0.4353      0.9399
     3         C         -2.1271     -0.8532     -1.2095
     4         C          0.0552     -0.4497     -0.0909
     5         C         -0.6599     -1.0297     -1.0614
     6         C         -2.0245      0.6316      0.7704
     7         C         -2.7321      0.0506     -0.1982
     8         C          2.2814      0.5601     -0.4052
     9         C          3.3073      1.0571      0.2757
    10         H          1.8622     -1.5065     -0.6076
    11         H          1.7851     -0.9386      1.0669
    12         H         -0.0539      1.4220      0.9175
    13         H         -0.3674      0.0129      1.9476
    14         H         -2.6197     -1.8457     -1.1520
    15         H         -2.3447     -0.4621     -2.2247
    16         H          1.9388      1.0262     -1.3369
    17         H         -2.5055      1.2933      1.4995
    18         H         -0.1779     -1.6760     -1.8052
    19         H         -3.8107      0.2203     -0.2880
    20         H          3.6706      0.6273      1.2054
    21         H          3.8587      1.9324     -0.0534

  H: (PM3): J. J. P. STEWART, J. COMP. CHEM. 10, 209 (1989).
  C: (PM3): J. J. P. STEWART, J. COMP. CHEM. 10, 209 (1989).

           Empirical Formula: C9 H12  =    21 atoms



      MOLECULAR POINT GROUP   :   C1  


      RHF CALCULATION, NO. OF DOUBLY OCCUPIED LEVELS = 24



          HEAT OF FORMATION =      30.408460 KCALS/MOLE


          CARTESIAN COORDINATE DERIVATIVES

   NUMBER  ATOM         X            Y            Z

     1       C      0.003214     0.001939     0.001140
     2       C     -0.001073     0.000365    -0.002817
     3       C      0.000691     0.008044     0.001049
     4       C      0.000180    -0.002348     0.005665
     5       C      0.003982     0.002180    -0.001360
     6       C      0.004734     0.004372     0.001011
     7       C      0.002292     0.003059    -0.002842
     8       C      0.006965     0.011296     0.015373
     9       C      0.001920    -0.021874    -0.001273
    10       H      0.005906    -0.000929     0.000537
    11       H     -0.009703    -0.008463    -0.008027
    12       H     -0.009814    -0.001596     0.002351
    13       H     -0.011548    -0.008054     0.001608
    14       H      0.002348    -0.005261    -0.005723
    15       H     -0.006447    -0.002421     0.003244
    16       H     -0.002362     0.014003    -0.012739
    17       H      0.006414     0.004721    -0.000350
    18       H      0.006073     0.003125    -0.002968
    19       H      0.001601     0.003598     0.001697
    20       H     -0.004659    -0.006522     0.001769
    21       H     -0.000716     0.000764     0.002655
 


          GRADIENT NORM =   0.04883


          TIME FOR SCF CALCULATION =    0.00

          TIME FOR DERIVATIVES     =    0.00

          MOLECULAR WEIGHT =  120.19



          ROTATIONAL CONSTANTS IN CM(-1)

          A =    0.12745479   B =    0.03160136   C =    0.02738142



           PRINCIPAL MOMENTS OF INERTIA IN UNITS OF 10**(-40)*GRAM-CM**2

          A =      219.6291   B =      885.8093   C =     1022.3273


          ORIENTATION OF MOLECULE IN FORCE CALCULATION

    NO.       ATOM         X         Y         Z

     1          C      -1.5625   -0.6924    0.3237
     2          C       0.9714   -0.6924    0.3237
     3          C       0.9340    2.2619    0.3237
     4          C      -0.2927    0.1004    0.3226
     5          C      -0.3018    1.4383    0.3225
     6          C       2.2041    0.1354    0.2959
     7          C       2.1891    1.4682    0.2965
     8          C      -1.8127   -1.3097   -1.0099
     9          C      -2.2010   -2.5702   -1.1628
    10          H      -2.4290   -0.0468    0.5752
    11          H      -1.5155   -1.4604    1.1228
    12          H       0.9678   -1.3758   -0.5512
    13          H       0.9926   -1.3443    1.2218
    14          H       0.9349    2.9139    1.2215
    15          H       0.9156    2.9449   -0.5504
    16          H      -1.6654   -0.6518   -1.8748
    17          H       3.1503   -0.4168    0.2753
    18          H      -1.2475    1.9940    0.3221
    19          H       3.1218    2.0427    0.2769
    20          H      -2.3506   -3.2535   -0.3311
    21          H      -2.3991   -3.0071   -2.1367


    FIRST DERIVATIVES WILL BE USED IN THE CALCULATION OF SECOND DERIVATIVES

          ESTIMATED TIME TO COMPLETE CALCULATION =        1.97 SECONDS

    FOR POINT-GROUP C1   THERE ARE   1 UNIQUE SYMMETRY FUNCTIONS.

 STEP:   1 TIME =     0.02 SECS, INTEGRAL =      0.02 TIME LEFT: 172799.97
 STEP:   2 TIME =     0.02 SECS, INTEGRAL =      0.04 TIME LEFT: 172799.96
 STEP:   3 TIME =     0.02 SECS, INTEGRAL =      0.05 TIME LEFT: 172799.94
 STEP:   4 TIME =     0.02 SECS, INTEGRAL =      0.07 TIME LEFT: 172799.92
 STEP:   5 TIME =     0.02 SECS, INTEGRAL =      0.09 TIME LEFT: 172799.90
 STEP:   6 TIME =     0.02 SECS, INTEGRAL =      0.11 TIME LEFT: 172799.89
 STEP:   7 TIME =     0.02 SECS, INTEGRAL =      0.12 TIME LEFT: 172799.87
 STEP:   8 TIME =     0.02 SECS, INTEGRAL =      0.14 TIME LEFT: 172799.85
 STEP:   9 TIME =     0.02 SECS, INTEGRAL =      0.16 TIME LEFT: 172799.83
 STEP:  10 TIME =     0.02 SECS, INTEGRAL =      0.18 TIME LEFT: 172799.81
 STEP:  11 TIME =     0.02 SECS, INTEGRAL =      0.20 TIME LEFT: 172799.80
 STEP:  12 TIME =     0.02 SECS, INTEGRAL =      0.21 TIME LEFT: 172799.78
 STEP:  13 TIME =     0.02 SECS, INTEGRAL =      0.23 TIME LEFT: 172799.76
 STEP:  14 TIME =     0.02 SECS, INTEGRAL =      0.25 TIME LEFT: 172799.74
 STEP:  15 TIME =     0.02 SECS, INTEGRAL =      0.27 TIME LEFT: 172799.72
 STEP:  16 TIME =     0.02 SECS, INTEGRAL =      0.29 TIME LEFT: 172799.70
 STEP:  17 TIME =     0.02 SECS, INTEGRAL =      0.30 TIME LEFT: 172799.69
 STEP:  18 TIME =     0.02 SECS, INTEGRAL =      0.32 TIME LEFT: 172799.67
 STEP:  19 TIME =     0.02 SECS, INTEGRAL =      0.34 TIME LEFT: 172799.65
 STEP:  20 TIME =     0.02 SECS, INTEGRAL =      0.36 TIME LEFT: 172799.63
 STEP:  21 TIME =     0.02 SECS, INTEGRAL =      0.38 TIME LEFT: 172799.61
 STEP:  22 TIME =     0.02 SECS, INTEGRAL =      0.40 TIME LEFT: 172799.59
 STEP:  23 TIME =     0.02 SECS, INTEGRAL =      0.42 TIME LEFT: 172799.57
 STEP:  24 TIME =     0.02 SECS, INTEGRAL =      0.44 TIME LEFT: 172799.55
 STEP:  25 TIME =     0.02 SECS, INTEGRAL =      0.45 TIME LEFT: 172799.54
 STEP:  26 TIME =     0.02 SECS, INTEGRAL =      0.47 TIME LEFT: 172799.52
 STEP:  27 TIME =     0.02 SECS, INTEGRAL =      0.49 TIME LEFT: 172799.50
 STEP:  28 TIME =     0.02 SECS, INTEGRAL =      0.51 TIME LEFT: 172799.48
 STEP:  29 TIME =     0.02 SECS, INTEGRAL =      0.53 TIME LEFT: 172799.46
 STEP:  30 TIME =     0.02 SECS, INTEGRAL =      0.55 TIME LEFT: 172799.45
 STEP:  31 TIME =     0.02 SECS, INTEGRAL =      0.56 TIME LEFT: 172799.43
 STEP:  32 TIME =     0.02 SECS, INTEGRAL =      0.58 TIME LEFT: 172799.41
 STEP:  33 TIME =     0.02 SECS, INTEGRAL =      0.60 TIME LEFT: 172799.39
 STEP:  34 TIME =     0.02 SECS, INTEGRAL =      0.62 TIME LEFT: 172799.38
 STEP:  35 TIME =     0.02 SECS, INTEGRAL =      0.63 TIME LEFT: 172799.36
 STEP:  36 TIME =     0.02 SECS, INTEGRAL =      0.65 TIME LEFT: 172799.34
 STEP:  37 TIME =     0.02 SECS, INTEGRAL =      0.67 TIME LEFT: 172799.32
 STEP:  38 TIME =     0.02 SECS, INTEGRAL =      0.69 TIME LEFT: 172799.30
 STEP:  39 TIME =     0.02 SECS, INTEGRAL =      0.70 TIME LEFT: 172799.29
 STEP:  40 TIME =     0.02 SECS, INTEGRAL =      0.72 TIME LEFT: 172799.27
 STEP:  41 TIME =     0.02 SECS, INTEGRAL =      0.74 TIME LEFT: 172799.25
 STEP:  42 TIME =     0.02 SECS, INTEGRAL =      0.76 TIME LEFT: 172799.23
 STEP:  43 TIME =     0.02 SECS, INTEGRAL =      0.78 TIME LEFT: 172799.21
 STEP:  44 TIME =     0.02 SECS, INTEGRAL =      0.80 TIME LEFT: 172799.20
 STEP:  45 TIME =     0.02 SECS, INTEGRAL =      0.82 TIME LEFT: 172799.18
 STEP:  46 TIME =     0.02 SECS, INTEGRAL =      0.84 TIME LEFT: 172799.16
 STEP:  47 TIME =     0.02 SECS, INTEGRAL =      0.85 TIME LEFT: 172799.14
 STEP:  48 TIME =     0.02 SECS, INTEGRAL =      0.87 TIME LEFT: 172799.12
 STEP:  49 TIME =     0.02 SECS, INTEGRAL =      0.89 TIME LEFT: 172799.10
 STEP:  50 TIME =     0.02 SECS, INTEGRAL =      0.91 TIME LEFT: 172799.09
 STEP:  51 TIME =     0.02 SECS, INTEGRAL =      0.93 TIME LEFT: 172799.07
 STEP:  52 TIME =     0.02 SECS, INTEGRAL =      0.95 TIME LEFT: 172799.05
 STEP:  53 TIME =     0.02 SECS, INTEGRAL =      0.96 TIME LEFT: 172799.03
 STEP:  54 TIME =     0.02 SECS, INTEGRAL =      0.98 TIME LEFT: 172799.01
 STEP:  55 TIME =     0.02 SECS, INTEGRAL =      1.00 TIME LEFT: 172798.99
 STEP:  56 TIME =     0.02 SECS, INTEGRAL =      1.02 TIME LEFT: 172798.97
 STEP:  57 TIME =     0.02 SECS, INTEGRAL =      1.04 TIME LEFT: 172798.95
 STEP:  58 TIME =     0.02 SECS, INTEGRAL =      1.06 TIME LEFT: 172798.93
 STEP:  59 TIME =     0.02 SECS, INTEGRAL =      1.08 TIME LEFT: 172798.91
 STEP:  60 TIME =     0.02 SECS, INTEGRAL =      1.09 TIME LEFT: 172798.90
 STEP:  61 TIME =     0.02 SECS, INTEGRAL =      1.11 TIME LEFT: 172798.88
 STEP:  62 TIME =     0.02 SECS, INTEGRAL =      1.13 TIME LEFT: 172798.86
 STEP:  63 TIME =     0.02 SECS, INTEGRAL =      1.15 TIME LEFT: 172798.84

(To convert to Hartree/Bohr^2, multiply by (10^(-21) x N x a0^2)/(4.184 x 627.51) =  0.0642)


           FORCE MATRIX IN MILLIDYNES/ANGSTROM


                  C  1       C  2       C  3       C  4       C  5       C  6
 ------------------------------------------------------------------------------
     C    1  14.930178
     C    2   0.597557  15.126591
     C    3   0.131281   0.184639  15.150695
     C    4   4.641445   4.783049   0.824698  18.468216
     C    5   0.805787   0.809607   5.039322  10.405720  18.315768
     C    6   0.049172   5.044041   0.852137   0.713725   0.055531  18.303643
     C    7   0.002539   0.845854   5.050130   0.050624   0.734081  10.744097
     C    8   4.861193   0.038993   0.020850   0.731751   0.033969   0.003616
     C    9   0.830801   0.005328   0.003903   0.044943   0.005591   0.002068
     H   10   4.402219   0.042390   0.002669   0.457610   0.057022   0.007826
     H   11   4.411944   0.032186   0.015413   0.428353   0.037525   0.002025
     H   12   0.026594   4.370926   0.012838   0.431314   0.035709   0.421754
     H   13   0.026120   4.371605   0.012910   0.430498   0.034622   0.420556
     H   14   0.017770   0.012595   4.381055   0.035701   0.419071   0.037278
     H   15   0.017478   0.012479   4.385634   0.036486   0.418945   0.038235
     H   16   0.433220   0.005084   0.001175   0.024051   0.004818   0.001276
     H   17   0.007626   0.422772   0.123942   0.044949   0.003608   4.821936
     H   18   0.078470   0.113122   0.422765   0.458958   4.783232   0.003398
     H   19   0.001279   0.123100   0.424168   0.003202   0.045550   0.445534
     H   20   0.096847   0.000733   0.000643   0.009517   0.001346   0.000723
     H   21   0.136727   0.000898   0.001054   0.017327   0.001174   0.000569


                  C  7       C  8       C  9       H 10       H 11       H 12
 ------------------------------------------------------------------------------
     C    7  18.300269
     C    8   0.001506  18.134794
     C    9   0.001030  11.075451  18.032947
     H   10   0.000960   0.408038   0.032241   4.989538
     H   11   0.001340   0.465329   0.044225   0.556903   5.008895
     H   12   0.037840   0.010215   0.003799   0.001705   0.002085   4.951060
     H   13   0.037008   0.002251   0.000612   0.001408   0.023321   0.560486
     H   14   0.420787   0.002290   0.000578   0.000410   0.002764   0.002407
     H   15   0.421594   0.003381   0.001064   0.000619   0.001568   0.002200
     H   16   0.000651   4.805074   0.452421   0.015504   0.038280   0.001762
     H   17   0.445551   0.001023   0.000748   0.001433   0.000480   0.028751
     H   18   0.045540   0.011863   0.002462   0.029663   0.006942   0.015110
     H   19   4.826327   0.000551   0.000386   0.000283   0.000352   0.015808
     H   20   0.000452   0.490346   5.070690   0.012325   0.028119   0.000703
     H   21   0.000366   0.462505   5.109131   0.018035   0.003819   0.000511


                  H 13       H 14       H 15       H 16       H 17       H 18
 ------------------------------------------------------------------------------
     H   13   4.956839
     H   14   0.002348   4.966368
     H   15   0.002403   0.564483   4.969916
     H   16   0.000557   0.000346   0.000494   5.172806
     H   17   0.027687   0.016069   0.015860   0.000385   5.198530
     H   18   0.014957   0.027584   0.029230   0.001081   0.000848   5.167482
     H   19   0.016050   0.027032   0.028629   0.000296   0.069748   0.006432
     H   20   0.000312   0.000155   0.000162   0.119064   0.000216   0.000406
     H   21   0.000149   0.000131   0.000207   0.080569   0.000148   0.000654


                  H 19       H 20       H 21
 ------------------------------------------
     H   19   5.204345
     H   20   0.000225   5.467292
     H   21   0.000121   0.423086   5.497554


          HEAT OF FORMATION =      30.408460 KCALS/MOLE

          ZERO POINT ENERGY     113.507 KCAL/MOL


           NORMAL COORDINATE ANALYSIS (Total motion = 1 Angstrom)


   Root No.       1         2         3         4         5         6         7         8

                 1 A       2 A       3 A       4 A       5 A       6 A       7 A       8 A   

                  48.3      69.2      93.5     168.1     283.0     338.0     367.8     404.2
  
           1   -0.0207   -0.0146   -0.0035   -0.0063   -0.0050    0.0162   -0.0005    0.0435
           2    0.0308    0.0068    0.0007    0.0008    0.0084   -0.0310   -0.0010   -0.0233
           3   -0.0194    0.0121    0.0175    0.0131   -0.0380    0.0060    0.0013   -0.0173
           4   -0.0215   -0.0161   -0.0033   -0.0119    0.0137   -0.0252   -0.0012   -0.0147
           5    0.0021   -0.0062   -0.0040   -0.0026    0.0021    0.0278    0.0017   -0.0085
           6   -0.0337    0.0458   -0.0317   -0.0155    0.0167    0.0053   -0.0117    0.0007
           7    0.0135    0.0016    0.0012   -0.0030    0.0028    0.0294    0.0023   -0.0111
           8    0.0023   -0.0066   -0.0032   -0.0015    0.0019    0.0115    0.0003    0.0010
           9    0.0317   -0.0015   -0.0274   -0.0352   -0.0125   -0.0012    0.0120    0.0003
          10   -0.0122   -0.0113   -0.0018   -0.0081    0.0069   -0.0197   -0.0014    0.0038
          11    0.0170    0.0015   -0.0016    0.0029   -0.0074    0.0352    0.0018    0.0163
          12   -0.0117    0.0238   -0.0057    0.0285    0.0011   -0.0049    0.0005   -0.0113
          13    0.0036   -0.0038    0.0002   -0.0059    0.0083    0.0041    0.0006   -0.0178
          14    0.0171    0.0014   -0.0016    0.0027   -0.0067    0.0365    0.0019    0.0148
          15    0.0172    0.0067   -0.0061    0.0388    0.0580    0.0119   -0.0008    0.0064
          16   -0.0118   -0.0121   -0.0012   -0.0093    0.0109   -0.0072    0.0012   -0.0151
          17   -0.0122   -0.0146   -0.0054   -0.0070    0.0099   -0.0045    0.0005   -0.0204
          18   -0.0217   -0.0219    0.0215    0.0033    0.0127    0.0013    0.0641    0.0051
          19    0.0040   -0.0042    0.0008   -0.0058    0.0073    0.0201    0.0008   -0.0227
          20   -0.0120   -0.0145   -0.0055   -0.0070    0.0099   -0.0050    0.0005   -0.0205
          21    0.0078   -0.0437    0.0239   -0.0088   -0.0134    0.0012   -0.0640   -0.0030
          22    0.0096   -0.0025   -0.0338    0.0459   -0.0310   -0.0090   -0.0012    0.0233
          23   -0.0162    0.0239    0.0206   -0.0020   -0.0037   -0.0327   -0.0028    0.0288
          24   -0.0034    0.0016    0.0140    0.0036   -0.0292    0.0079    0.0020   -0.0362
          25    0.0342    0.0591    0.0382    0.0040   -0.0092   -0.0132   -0.0009    0.0087
          26   -0.0280    0.0082    0.0005    0.0132   -0.0159   -0.0286   -0.0023    0.0242
          27    0.0313   -0.0235   -0.0013   -0.0125    0.0058   -0.0275   -0.0030    0.0410
          28   -0.0217   -0.0139    0.0039   -0.0159    0.0031   -0.0073   -0.0012    0.0220
          29    0.0477    0.0070   -0.0014   -0.0014    0.0262   -0.0814   -0.0018   -0.0855
          30   -0.0663    0.0133    0.0482   -0.0156   -0.0525    0.0494    0.0011    0.0631
          31   -0.0484   -0.0220    0.0150   -0.0258   -0.0310    0.0857    0.0004    0.1167
          32    0.0597   -0.0021   -0.0103    0.0041    0.0120   -0.0456   -0.0002   -0.0722
          33    0.0101    0.0038    0.0058    0.0168   -0.0327   -0.0111    0.0020   -0.0652
          34   -0.0340   -0.0353    0.0044   -0.0235    0.0301   -0.0350    0.0313   -0.0207
          35    0.0203   -0.0561    0.0405    0.0341   -0.0157    0.0142    0.0885   -0.0172
          36   -0.0480    0.0849   -0.0666   -0.0447    0.0313    0.0159   -0.0814    0.0072
          37   -0.0256   -0.0049   -0.0131   -0.0074    0.0083   -0.0374   -0.0359   -0.0324
          38   -0.0169    0.0451   -0.0500   -0.0406    0.0209    0.0414   -0.0876   -0.0012
          39   -0.0475    0.0828   -0.0649   -0.0434    0.0307    0.0164   -0.0774    0.0073
          40    0.0249    0.0250   -0.0099    0.0183    0.0306    0.0482    0.0400    0.0053
          41   -0.0189   -0.0255    0.0383    0.0624    0.0563    0.0248   -0.0884    0.0037
          42    0.0470    0.0124   -0.0577   -0.0821   -0.0528   -0.0110    0.0781   -0.0018
          43    0.0182   -0.0125    0.0133   -0.0194   -0.0349    0.0388   -0.0321   -0.0053
          44    0.0230    0.0120   -0.0436   -0.0637   -0.0511   -0.0005    0.0866   -0.0015
          45    0.0478    0.0135   -0.0594   -0.0840   -0.0539   -0.0110    0.0821   -0.0018
          46    0.0105   -0.0438   -0.1161    0.1269   -0.0871   -0.0342   -0.0016   -0.0052
          47   -0.0411    0.0509    0.0529   -0.0153   -0.0078   -0.0167   -0.0015    0.0246
          48   -0.0221    0.0150    0.0246    0.0069   -0.0410    0.0151    0.0027   -0.0417
          49   -0.0186   -0.0163   -0.0012   -0.0106    0.0133   -0.0214    0.0023   -0.0147
          50   -0.0231   -0.0207   -0.0067   -0.0100    0.0136   -0.0287   -0.0012   -0.0197
          51   -0.0387   -0.0519    0.0574    0.0241    0.0254    0.0012    0.1564    0.0126
          52    0.0104   -0.0006    0.0009   -0.0045    0.0073    0.0171    0.0016   -0.0215
          53    0.0287    0.0069   -0.0004    0.0050   -0.0078    0.0573    0.0035    0.0074
          54    0.0322   -0.0054    0.0092    0.0804    0.1165    0.0296   -0.0002    0.0213
          55    0.0107   -0.0016    0.0025   -0.0035    0.0042    0.0304   -0.0006   -0.0190
          56   -0.0227   -0.0204   -0.0069   -0.0104    0.0143   -0.0218   -0.0004   -0.0265
          57    0.0159   -0.0925    0.0622   -0.0004   -0.0326    0.0011   -0.1561   -0.0083
          58    0.0348    0.1015    0.1204   -0.0774    0.0507    0.0060   -0.0015    0.0581
          59   -0.0045   -0.0184   -0.0311    0.0249   -0.0079   -0.0642   -0.0063    0.0770
          60    0.0507   -0.0377   -0.0124   -0.0177    0.0235   -0.0538   -0.0065    0.0950
          61    0.0557    0.0718    0.0206    0.0473   -0.0488   -0.0365    0.0002   -0.0575
          62   -0.0623    0.0205    0.0136    0.0159   -0.0366    0.0124    0.0023   -0.0370
          63    0.0423   -0.0317   -0.0036   -0.0225    0.0231   -0.0418   -0.0054    0.0834


   Root No.       9        10        11        12        13        14        15        16

                 9 A      10 A      11 A      12 A      13 A      14 A      15 A      16 A   

                 503.4     531.2     570.8     638.9     723.8     819.6     830.5     884.4
  
           1   -0.0217    0.0215   -0.0111    0.0154    0.0010   -0.0377    0.0215   -0.0249
           2   -0.0236    0.0101   -0.0178    0.0127   -0.0001   -0.0178    0.0067    0.0361
           3   -0.0079   -0.0098    0.0040   -0.0114   -0.0011    0.0172   -0.0070   -0.0118
           4   -0.0033   -0.0025   -0.0168    0.0160    0.0043    0.0187   -0.0078    0.0048
           5    0.0282   -0.0262   -0.0330   -0.0047   -0.0016    0.0024   -0.0021   -0.0120
           6    0.0054    0.0064   -0.0001    0.0099   -0.0118    0.0020    0.0211    0.0150
           7    0.0133   -0.0011    0.0234   -0.0095   -0.0009    0.0024   -0.0014   -0.0022
           8   -0.0185    0.0300    0.0443    0.0106    0.0075    0.0426   -0.0192   -0.0063
           9   -0.0027   -0.0008    0.0004    0.0033   -0.0239   -0.0149   -0.0333   -0.0041
          10   -0.0266    0.0211   -0.0010    0.0202    0.0039   -0.0120    0.0084   -0.0043
          11   -0.0068    0.0049   -0.0215    0.0173    0.0034   -0.0002    0.0018    0.0009
          12    0.0648    0.0425   -0.0040    0.0233    0.0264   -0.0022    0.0050   -0.0046
          13   -0.0017    0.0156    0.0549   -0.0111   -0.0001    0.0126   -0.0083    0.0038
          14   -0.0072    0.0077   -0.0173    0.0197    0.0054    0.0091   -0.0015   -0.0022
          15   -0.0142   -0.0062   -0.0001    0.0021    0.0029   -0.0144   -0.0135    0.0044
          16    0.0126   -0.0222   -0.0519    0.0203    0.0055    0.0399   -0.0194    0.0042
          17    0.0129   -0.0048    0.0219   -0.0176   -0.0044   -0.0199    0.0092    0.0023
          18   -0.0091   -0.0048    0.0012   -0.0012   -0.0190    0.0084    0.0074   -0.0028
          19    0.0324   -0.0234    0.0024   -0.0228   -0.0069   -0.0302    0.0148    0.0003
          20    0.0116   -0.0030    0.0250   -0.0176   -0.0042   -0.0189    0.0087    0.0029
          21    0.0037    0.0026   -0.0004    0.0022   -0.0150    0.0122    0.0119   -0.0051
          22   -0.0039    0.0128   -0.0168   -0.0392   -0.0061    0.0029   -0.0031   -0.0026
          23    0.0086   -0.0147    0.0080    0.0001   -0.0008   -0.0003   -0.0002   -0.0006
          24   -0.0331    0.0010   -0.0110   -0.0024   -0.0055   -0.0112    0.0013    0.0021
          25   -0.0000   -0.0095    0.0046   -0.0011   -0.0016   -0.0001   -0.0010    0.0018
          26    0.0005   -0.0080   -0.0011   -0.0144   -0.0042   -0.0011   -0.0011   -0.0054
          27    0.0116   -0.0083    0.0040   -0.0063   -0.0022   -0.0060    0.0008    0.0099
          28   -0.0344    0.0184   -0.0042    0.0288    0.0014   -0.0521    0.0310   -0.0363
          29   -0.0451    0.0310   -0.0360    0.0069    0.0017   -0.0336    0.0239   -0.0440
          30    0.0009   -0.0698    0.0671    0.0467   -0.0042    0.0075   -0.0169    0.1430
          31   -0.0312   -0.0268    0.0247    0.0481   -0.0117   -0.0551    0.0090    0.1059
          32   -0.0589    0.0323   -0.0538   -0.0113   -0.0087   -0.0297    0.0125   -0.0380
          33   -0.0402    0.0133   -0.0308   -0.0354   -0.0088    0.0068   -0.0013   -0.0865
          34   -0.0377   -0.0357    0.0032   -0.0141   -0.0326    0.0390   -0.0055    0.0097
          35    0.0993    0.0224   -0.0390    0.0390   -0.0570    0.0097    0.0530    0.0231
          36   -0.0518   -0.0333    0.0042   -0.0253    0.0338   -0.0029   -0.0240   -0.0134
          37    0.0431    0.0204   -0.0028    0.0232    0.0371    0.0003   -0.0149    0.0216
          38   -0.0420   -0.0795   -0.0312   -0.0508    0.0553   -0.0032   -0.0605   -0.0529
          39   -0.0488   -0.0339    0.0014   -0.0250    0.0306   -0.0028   -0.0221   -0.0160
          40   -0.0047   -0.0042    0.0108    0.0030    0.0225   -0.0014   -0.0368    0.0018
          41   -0.0226    0.0359    0.0466    0.0322   -0.0887    0.0063   -0.1197   -0.0182
          42    0.0002   -0.0050   -0.0010   -0.0128    0.0496    0.0144    0.0418    0.0048
          43    0.0207    0.0094    0.0090    0.0073   -0.0115    0.0514    0.0163   -0.0202
          44   -0.0162    0.0277    0.0473   -0.0078    0.1034    0.0962    0.0696    0.0022
          45   -0.0010   -0.0032    0.0028   -0.0123    0.0545    0.0259    0.0395    0.0033
          46   -0.0105   -0.0614    0.0352    0.0022   -0.0086    0.0346   -0.0286    0.1259
          47    0.0062    0.0005   -0.0051   -0.0284   -0.0039    0.0108   -0.0029   -0.0836
          48   -0.0341   -0.0007   -0.0111   -0.0169   -0.0080    0.0035   -0.0054   -0.0391
          49    0.0002   -0.0136   -0.0485    0.0297    0.0135    0.0574   -0.0315    0.0127
          50   -0.0073    0.0105    0.0265    0.0001    0.0016    0.0126   -0.0059    0.0171
          51   -0.0360   -0.0286    0.0017   -0.0396    0.1848   -0.0891   -0.1307   -0.0160
          52    0.0103    0.0064    0.0513   -0.0182   -0.0017    0.0120   -0.0074    0.0041
          53    0.0126   -0.0076   -0.0227    0.0077    0.0028    0.0083    0.0002   -0.0017
          54   -0.1056   -0.0725    0.0056   -0.0580    0.0373    0.1346    0.1896   -0.0066
          55    0.0278   -0.0121    0.0285   -0.0278   -0.0022   -0.0318    0.0163   -0.0059
          56    0.0187   -0.0212   -0.0175   -0.0097   -0.0039   -0.0171    0.0062    0.0152
          57    0.0066   -0.0022   -0.0025   -0.0254    0.2140   -0.0398    0.0209    0.0535
          58    0.0213    0.0865   -0.0712   -0.1213   -0.0115    0.0434   -0.0268    0.0673
          59    0.0397   -0.0502    0.0408    0.0124    0.0036    0.0265   -0.0055   -0.0856
          60    0.0493   -0.0262    0.0256   -0.0059    0.0027    0.0261   -0.0079   -0.0459
          61   -0.0177   -0.1353    0.1100    0.1804    0.0172   -0.0550    0.0342   -0.0595
          62   -0.0519    0.0447   -0.0576   -0.0631   -0.0185   -0.0363    0.0024    0.0790
          63    0.0396   -0.0070    0.0084   -0.0221    0.0003    0.0219   -0.0083   -0.0173


   Root No.      17        18        19        20        21        22        23        24

                17 A      18 A      19 A      20 A      21 A      22 A      23 A      24 A   

                 916.4     933.9     948.1     950.7     967.2    1014.1    1018.1    1024.1
  
           1   -0.0007   -0.0054    0.0215    0.0025    0.0019   -0.0031    0.0033   -0.0012
           2   -0.0146   -0.0056   -0.0181    0.0012    0.0288    0.0002   -0.0010    0.0082
           3    0.0039   -0.0235   -0.0071   -0.0022    0.0075    0.0018    0.0051   -0.0012
           4   -0.0008   -0.0039   -0.0113   -0.0014   -0.0134   -0.0078    0.0025   -0.0070
           5    0.0105    0.0185    0.0366    0.0052    0.0349   -0.0136    0.0065   -0.0089
           6    0.0467   -0.0032   -0.0036    0.0203   -0.0016    0.0014   -0.0151   -0.0141
           7    0.0005   -0.0015   -0.0039   -0.0006   -0.0100   -0.0142    0.0032   -0.0052
           8    0.0078    0.0111    0.0081   -0.0009   -0.0056    0.0377   -0.0034   -0.0001
           9    0.0095   -0.0044   -0.0042    0.0363   -0.0039    0.0009    0.0200    0.0165
          10   -0.0046   -0.0111    0.0052    0.0011    0.0045    0.0094    0.0058   -0.0021
          11   -0.0041   -0.0089   -0.0094   -0.0010   -0.0067   -0.0016   -0.0011    0.0040
          12   -0.0368    0.0012    0.0012    0.0056    0.0027   -0.0026    0.0150    0.0136
          13    0.0062    0.0183    0.0171    0.0040    0.0366   -0.0245   -0.0058    0.0104
          14   -0.0044   -0.0132   -0.0152   -0.0025   -0.0227   -0.0003    0.0028   -0.0016
          15    0.0090    0.0019    0.0034   -0.0438    0.0021    0.0010   -0.0188   -0.0175
          16    0.0050    0.0112   -0.0004   -0.0006    0.0038    0.0208   -0.0088    0.0133
          17   -0.0042   -0.0074   -0.0080   -0.0008   -0.0070   -0.0125    0.0023   -0.0025
          18   -0.0119    0.0025    0.0024   -0.0316    0.0010   -0.0012    0.0219    0.0228
          19   -0.0070   -0.0124   -0.0103   -0.0021   -0.0154    0.0490   -0.0055    0.0061
          20   -0.0046   -0.0077   -0.0093   -0.0010   -0.0076    0.0065   -0.0019    0.0042
          21   -0.0276    0.0021    0.0022   -0.0033    0.0041   -0.0010   -0.0261   -0.0220
          22    0.0035    0.0213   -0.0251   -0.0013    0.0098   -0.0034   -0.0077    0.0143
          23    0.0005    0.0022    0.0110    0.0010   -0.0091    0.0011    0.0025   -0.0050
          24    0.0040    0.0054    0.0032   -0.0016   -0.0023   -0.0010   -0.0055    0.0003
          25    0.0014    0.0103   -0.0101   -0.0006    0.0063    0.0106    0.0184   -0.0279
          26    0.0050    0.0070    0.0074   -0.0003   -0.0102   -0.0043   -0.0094    0.0082
          27   -0.0026    0.0381    0.0125    0.0040   -0.0222   -0.0003    0.0001   -0.0006
          28   -0.0026   -0.0348    0.0603    0.0068    0.0294    0.0108    0.0625   -0.0479
          29    0.0011   -0.0429    0.0512    0.0056    0.0306    0.0119    0.0625   -0.0487
          30   -0.0395   -0.0321   -0.0474    0.0008    0.0947    0.0225    0.0497   -0.0197
          31   -0.0138   -0.0034   -0.0598   -0.0059    0.0703   -0.0267   -0.0680    0.0473
          32    0.0245   -0.0420   -0.0125   -0.0094    0.0249   -0.0172   -0.0457    0.0196
          33    0.0412   -0.0579    0.0019   -0.0121    0.0011   -0.0129   -0.0330    0.0072
          34    0.0200   -0.0060   -0.0319   -0.0504   -0.0636   -0.0709    0.0573   -0.0458
          35    0.1300    0.0180    0.0408    0.0523    0.0438   -0.0203   -0.0240   -0.0456
          36   -0.0497   -0.0017   -0.0058   -0.0175   -0.0070    0.0049    0.0094    0.0150
          37   -0.0289   -0.0115   -0.0403    0.0366   -0.0233   -0.0652   -0.0296   -0.0359
          38   -0.1070    0.0310    0.0553   -0.0398    0.0513   -0.0260    0.0437    0.0199
          39   -0.0415    0.0053    0.0098   -0.0146    0.0095   -0.0047    0.0131    0.0086
          40    0.0495   -0.0096   -0.0179   -0.0643   -0.0590   -0.0836    0.0404   -0.0287
          41    0.0342    0.0033   -0.0003    0.0845   -0.0184    0.0536    0.0411    0.0374
          42   -0.0101    0.0021    0.0024   -0.0277    0.0058   -0.0102   -0.0134   -0.0110
          43   -0.0443   -0.0113   -0.0206    0.0498   -0.0554   -0.0835    0.0147   -0.0645
          44   -0.0135    0.0251    0.0200   -0.0844    0.0005    0.0529   -0.0492   -0.0364
          45   -0.0072    0.0064    0.0055   -0.0323    0.0020    0.0137   -0.0166   -0.0117
          46   -0.0207   -0.1585    0.1621    0.0039   -0.0496    0.0083    0.0169   -0.0433
          47    0.0355    0.0108   -0.0520   -0.0116    0.0100   -0.0064   -0.0254    0.0119
          48    0.0262   -0.0195   -0.0132   -0.0104    0.0027   -0.0045   -0.0220    0.0032
          49    0.0020    0.0065   -0.0253    0.0007   -0.0173   -0.0298   -0.0113    0.0108
          50   -0.0088   -0.0151   -0.0499   -0.0061   -0.0422   -0.1038    0.0024   -0.0030
          51   -0.0285   -0.0140   -0.0115    0.1756    0.0023    0.0031   -0.0831   -0.0770
          52    0.0048    0.0140    0.0054    0.0044    0.0252   -0.0820    0.0005    0.0063
          53   -0.0073   -0.0219   -0.0363   -0.0018   -0.0440   -0.0956    0.0139   -0.0087
          54   -0.0382   -0.0057   -0.0135    0.1981   -0.0023   -0.0022    0.0430    0.0451
          55   -0.0012   -0.0140   -0.0042   -0.0040   -0.0285    0.0702    0.0058   -0.0133
          56   -0.0069   -0.0060   -0.0214    0.0004    0.0104   -0.0269   -0.0166    0.0398
          57    0.1902   -0.0039   -0.0053   -0.0476   -0.0165   -0.0011    0.0939    0.0758
          58   -0.0093   -0.1397    0.1173    0.0009   -0.0438   -0.0408   -0.0733    0.0968
          59    0.0328   -0.0871   -0.0680   -0.0182    0.0675    0.0078    0.0042   -0.0223
          60    0.0187   -0.0709   -0.0278   -0.0110    0.0349    0.0005   -0.0049   -0.0032
          61    0.0029    0.0482    0.0600    0.0084   -0.0711   -0.0471   -0.0802    0.1104
          62   -0.0167    0.1742    0.0358    0.0166   -0.0736    0.0134    0.0248   -0.0412
          63    0.0079   -0.0466   -0.0148   -0.0058    0.0222    0.0032    0.0040   -0.0065


   Root No.      25        26        27        28        29        30        31        32

                25 A      26 A      27 A      28 A      29 A      30 A      31 A      32 A   

                1043.4    1053.5    1062.4    1079.8    1112.0    1159.5    1162.3    1193.7
  
           1   -0.0070    0.0017   -0.0054    0.0051    0.0000    0.0017   -0.0071    0.0032
           2    0.0143   -0.0028    0.0010    0.0033    0.0089    0.0009    0.0099   -0.0027
           3    0.0000   -0.0069    0.0105   -0.0044   -0.0051   -0.0000   -0.0481   -0.0197
           4    0.0159    0.0042   -0.0015   -0.0004   -0.0090    0.0016    0.0041   -0.0099
           5    0.0214    0.0042   -0.0015   -0.0002    0.0056    0.0057    0.0031   -0.0048
           6   -0.0016   -0.0040    0.0051   -0.0005   -0.0010   -0.0000   -0.0012   -0.0020
           7    0.0004    0.0007    0.0019   -0.0034    0.0093    0.0032   -0.0004   -0.0028
           8    0.0124    0.0022    0.0010   -0.0025    0.0028   -0.0047   -0.0049    0.0144
           9    0.0019    0.0026   -0.0033    0.0000    0.0006    0.0002   -0.0001    0.0004
          10    0.0024   -0.0021    0.0033   -0.0006    0.0104   -0.0024    0.0124   -0.0301
          11   -0.0087   -0.0019   -0.0024    0.0050   -0.0108    0.0020    0.0042   -0.0191
          12    0.0040   -0.0029   -0.0083    0.0225    0.0062    0.0011    0.0007    0.0126
          13   -0.0171   -0.0017   -0.0077    0.0089   -0.0133   -0.0013    0.0027   -0.0141
          14   -0.0069   -0.0032    0.0024    0.0009   -0.0153   -0.0048    0.0038   -0.0148
          15   -0.0011   -0.0141   -0.0095   -0.0170   -0.0025   -0.0004   -0.0017   -0.0031
          16   -0.0233   -0.0046    0.0018   -0.0010    0.0050   -0.0010   -0.0051    0.0143
          17   -0.0029   -0.0004    0.0020   -0.0027    0.0083    0.0055    0.0015   -0.0025
          18    0.0003    0.0151   -0.0073   -0.0209   -0.0025   -0.0006    0.0009   -0.0007
          19    0.0030   -0.0008    0.0000    0.0018   -0.0059   -0.0018   -0.0022    0.0049
          20   -0.0119   -0.0027    0.0023   -0.0015    0.0053   -0.0054   -0.0004    0.0022
          21   -0.0025    0.0055    0.0198    0.0174    0.0006    0.0002   -0.0001   -0.0001
          22    0.0146   -0.0150    0.0221   -0.0112   -0.0016   -0.0004    0.0030    0.0016
          23   -0.0054    0.0043   -0.0057    0.0025   -0.0006    0.0002   -0.0130   -0.0043
          24   -0.0003    0.0053   -0.0088    0.0044    0.0046   -0.0001    0.0459   -0.0176
          25   -0.0160    0.0137   -0.0173    0.0066    0.0006    0.0003   -0.0039   -0.0026
          26    0.0035   -0.0007    0.0011   -0.0013    0.0004    0.0002   -0.0070   -0.0086
          27   -0.0028   -0.0002    0.0018   -0.0022   -0.0026   -0.0004   -0.0037    0.0113
          28   -0.0160   -0.0444    0.0813   -0.0526   -0.0333    0.0015   -0.0140    0.1038
          29   -0.0094   -0.0440    0.0850   -0.0566   -0.0340    0.0004   -0.0133    0.1000
          30    0.0306   -0.0627    0.0992   -0.0526   -0.0093    0.0012   -0.0190    0.0653
          31    0.0342    0.0556   -0.0887    0.0440    0.0417    0.0055   -0.0756    0.1206
          32    0.0105    0.0439   -0.0616    0.0235    0.0211    0.0060   -0.1610    0.1070
          33   -0.0058    0.0329   -0.0431    0.0126    0.0047    0.0049   -0.2100    0.0767
          34    0.1374   -0.1060   -0.0501    0.1890   -0.0617   -0.0755   -0.0158    0.0268
          35    0.0309   -0.0030    0.0080    0.0004    0.0077    0.0163    0.0048   -0.0164
          36   -0.0084    0.0022   -0.0028   -0.0010   -0.0018   -0.0053   -0.0024    0.0066
          37    0.0945    0.1648   -0.0035   -0.1528   -0.1237   -0.0887   -0.0012   -0.0102
          38    0.0361    0.0178   -0.0141   -0.0012    0.0114    0.0163    0.0082   -0.0077
          39    0.0066    0.0019   -0.0043    0.0029    0.0056    0.0072    0.0021   -0.0031
          40    0.0134    0.1240    0.1776    0.0787    0.1582   -0.0700   -0.0112    0.0313
          41    0.0200    0.0101   -0.0029   -0.0032    0.0061   -0.0164   -0.0108    0.0393
          42   -0.0045   -0.0035   -0.0004    0.0003   -0.0027    0.0060    0.0035   -0.0148
          43    0.0376   -0.1065   -0.1186   -0.1624    0.1601   -0.0766   -0.0104    0.0311
          44    0.0133   -0.0043    0.0075   -0.0063    0.0036   -0.0171   -0.0110    0.0379
          45    0.0026   -0.0001    0.0043    0.0005   -0.0011   -0.0050   -0.0040    0.0151
          46   -0.0441    0.0447   -0.0617    0.0259    0.0041   -0.0009    0.0814    0.0440
          47    0.0035    0.0052   -0.0072   -0.0018    0.0014   -0.0057    0.2477    0.1309
          48   -0.0034    0.0155   -0.0234    0.0073    0.0069   -0.0047    0.2563    0.0894
          49   -0.0566   -0.0100    0.0078   -0.0076    0.0262    0.1535   -0.0088    0.0204
          50   -0.0632   -0.0087    0.0121   -0.0167    0.0479    0.2737   -0.0041    0.0062
          51   -0.0007   -0.0289    0.0176    0.0320    0.0023   -0.0024   -0.0009   -0.0007
          52   -0.0507   -0.0112   -0.0017    0.0084   -0.0949   -0.0019   -0.0003    0.0398
          53   -0.0644   -0.0200    0.0134    0.0001   -0.1591   -0.0052   -0.0016    0.0792
          54    0.0043    0.0337    0.0059    0.0236    0.0077    0.0005    0.0073    0.0112
          55    0.0724    0.0137   -0.0058   -0.0030   -0.0213    0.1560    0.0045    0.0104
          56   -0.1278   -0.0275    0.0108    0.0039    0.0341   -0.2648   -0.0121   -0.0050
          57    0.0054   -0.0062   -0.0373   -0.0265   -0.0001   -0.0025   -0.0004    0.0001
          58    0.0502   -0.0357    0.0438   -0.0173    0.0014   -0.0004    0.0173   -0.0056
          59   -0.0085    0.0212   -0.0313    0.0142    0.0100    0.0010    0.0327   -0.0290
          60   -0.0005    0.0084   -0.0133    0.0061    0.0055    0.0001    0.0372   -0.0069
          61    0.0521   -0.0423    0.0519   -0.0199   -0.0035   -0.0004   -0.0091    0.0106
          62   -0.0301    0.0217   -0.0215    0.0021   -0.0055    0.0000   -0.0461    0.0373
          63   -0.0017    0.0018   -0.0031    0.0020    0.0011   -0.0002    0.0182   -0.0117


   Root No.      33        34        35        36        37        38        39        40

                33 A      34 A      35 A      36 A      37 A      38 A      39 A      40 A   

                1218.0    1229.1    1308.4    1321.6    1361.7    1376.1    1392.8    1396.8
  
           1    0.0111    0.0112   -0.0167   -0.0109   -0.0089   -0.0282    0.0053    0.0244
           2    0.0053   -0.0024   -0.0192   -0.0021   -0.0103   -0.0277    0.0125   -0.0028
           3   -0.0198   -0.0116   -0.0179   -0.0032   -0.0093   -0.0297    0.0072   -0.0492
           4   -0.0012   -0.0276    0.0093    0.0156    0.0027    0.0365    0.0029   -0.0160
           5   -0.0023   -0.0014   -0.0012   -0.0019   -0.0303    0.0153    0.0342   -0.0015
           6   -0.0006    0.0001   -0.0009   -0.0003    0.0002   -0.0015   -0.0004   -0.0003
           7   -0.0082    0.0126    0.0026    0.0099    0.0008    0.0323    0.0098   -0.0120
           8    0.0112    0.0065   -0.0021   -0.0019    0.0278   -0.0060    0.0420    0.0022
           9    0.0000   -0.0000   -0.0000   -0.0002    0.0004   -0.0006    0.0006   -0.0001
          10   -0.0189   -0.0274    0.0007    0.0251   -0.0049    0.0043    0.0148    0.0018
          11   -0.0219    0.0037    0.0121   -0.0077   -0.0017   -0.0000   -0.0198    0.0003
          12    0.0028    0.0015    0.0045    0.0011    0.0020    0.0054   -0.0012    0.0026
          13   -0.0150    0.0031    0.0114   -0.0160   -0.0036   -0.0084   -0.0228    0.0036
          14   -0.0192    0.0029    0.0145   -0.0030    0.0038    0.0087   -0.0170   -0.0040
          15   -0.0011   -0.0006   -0.0010   -0.0002   -0.0004   -0.0012    0.0002   -0.0009
          16    0.0137   -0.0007    0.0044   -0.0251    0.0038   -0.0194   -0.0187    0.0066
          17    0.0028   -0.0148    0.0082   -0.0114   -0.0019    0.0014   -0.0168   -0.0013
          18   -0.0004    0.0004   -0.0001    0.0005   -0.0002    0.0003    0.0005    0.0001
          19   -0.0008    0.0143   -0.0113    0.0136    0.0032   -0.0087    0.0159    0.0033
          20    0.0067   -0.0132    0.0062   -0.0135    0.0029   -0.0081   -0.0168    0.0022
          21    0.0000   -0.0004    0.0002   -0.0003   -0.0001    0.0002   -0.0004   -0.0001
          22    0.0007    0.0005   -0.0019   -0.0015    0.0031    0.0069   -0.0013    0.0002
          23   -0.0035   -0.0023   -0.0166   -0.0083    0.0045    0.0076   -0.0015    0.0034
          24    0.0457    0.0188    0.0047   -0.0035    0.0098    0.0238   -0.0061    0.0191
          25    0.0048    0.0019   -0.0012   -0.0016    0.0025    0.0057   -0.0016    0.0039
          26    0.0185    0.0070   -0.0011   -0.0041    0.0090    0.0214   -0.0054    0.0117
          27   -0.0181   -0.0067   -0.0016    0.0001   -0.0003   -0.0006    0.0000   -0.0020
          28    0.0126    0.0540    0.0385   -0.0218    0.0270    0.0439   -0.0328   -0.0543
          29    0.0098    0.0512    0.0284   -0.0277    0.0347    0.0479   -0.0347   -0.1794
          30   -0.0380   -0.0017    0.0602    0.0307   -0.0080    0.0251   -0.0015    0.2332
          31    0.0325   -0.0008    0.0004   -0.0071    0.0406    0.0610   -0.0094   -0.2326
          32   -0.0383   -0.0163    0.0349    0.0187    0.0082    0.0436   -0.0028    0.1353
          33   -0.0636   -0.0253    0.0365    0.0195    0.0028    0.0320   -0.0054    0.1303
          34   -0.0221    0.0945   -0.0087   -0.0288   -0.0047   -0.0482   -0.0071    0.0210
          35   -0.0098    0.0002   -0.0349    0.0938    0.1247   -0.0466   -0.0713    0.0034
          36    0.0045   -0.0005    0.0221   -0.0650   -0.1045    0.0405    0.0706   -0.0036
          37   -0.0289    0.1020   -0.0149   -0.0307   -0.0064   -0.0577   -0.0075    0.0300
          38   -0.0080    0.0012   -0.0326    0.0967    0.1293   -0.0452   -0.0746    0.0055
          39   -0.0032   -0.0020   -0.0197    0.0626    0.1001   -0.0365   -0.0678    0.0024
          40    0.0435   -0.0356   -0.0091   -0.0251    0.0005   -0.0517   -0.0108    0.0164
          41    0.0360    0.0196   -0.0655    0.0697   -0.1238    0.0197   -0.0976   -0.0054
          42   -0.0150   -0.0082    0.0393   -0.0447    0.0951   -0.0165    0.0880    0.0047
          43    0.0452   -0.0345   -0.0096   -0.0246   -0.0012   -0.0512   -0.0132    0.0181
          44    0.0362    0.0194   -0.0641    0.0682   -0.1201    0.0195   -0.0942   -0.0044
          45    0.0153    0.0097   -0.0413    0.0475   -0.0994    0.0184   -0.0912   -0.0052
          46   -0.0412   -0.0120   -0.0098   -0.0022   -0.0060   -0.0154    0.0037    0.0002
          47   -0.1347   -0.0433   -0.0202   -0.0003   -0.0142   -0.0339    0.0094   -0.0120
          48   -0.0577   -0.0132    0.0021    0.0028   -0.0055   -0.0103    0.0026    0.0080
          49   -0.0081    0.0746   -0.0259    0.0108   -0.0027   -0.0246    0.0239    0.0109
          50   -0.0365    0.1146   -0.0441    0.0528   -0.0152   -0.0040    0.0584    0.0050
          51    0.0001   -0.0019    0.0005   -0.0002    0.0001    0.0006   -0.0005   -0.0004
          52    0.0743   -0.0632   -0.0304    0.0185   -0.0045   -0.0272    0.0284    0.0188
          53    0.1341   -0.1092   -0.0565    0.0564    0.0049   -0.0220    0.0715    0.0199
          54    0.0037    0.0037    0.0047    0.0004    0.0020    0.0052   -0.0016    0.0043
          55    0.0285   -0.0487    0.0124   -0.0396   -0.0006   -0.0332   -0.0356    0.0105
          56   -0.0402    0.0919   -0.0338    0.0736    0.0112    0.0294    0.0690   -0.0086
          57   -0.0005    0.0009   -0.0002    0.0009    0.0001    0.0008    0.0008   -0.0004
          58    0.0304    0.0125    0.0502    0.0240   -0.0118   -0.0199    0.0040   -0.0130
          59    0.0959    0.0404    0.1321    0.0617   -0.0336   -0.0605    0.0107   -0.0269
          60    0.0486    0.0220    0.1090    0.0547   -0.0357   -0.0685    0.0136   -0.0349
          61   -0.0021    0.0009    0.0382    0.0198   -0.0141   -0.0275    0.0053   -0.0132
          62   -0.0141   -0.0013    0.1464    0.0780   -0.0511   -0.0974    0.0194   -0.0553
          63    0.0010   -0.0012   -0.0682   -0.0375    0.0283    0.0565   -0.0121    0.0300


   Root No.      41        42        43        44        45        46        47        48

                41 A      42 A      43 A      44 A      45 A      46 A      47 A      48 A   

                1436.6    1494.4    1859.1    1881.0    1905.7    2925.8    2929.8    2936.5
  
           1    0.0440    0.0366   -0.0113    0.0057   -0.0124   -0.0011    0.0002   -0.0301
           2    0.0336    0.0185   -0.0241    0.0055   -0.0151    0.0019   -0.0004    0.0452
           3    0.0130    0.0052   -0.0258   -0.0014    0.0015   -0.0009    0.0001   -0.0169
           4    0.0206    0.1043    0.0020   -0.0248    0.0051   -0.0008    0.0000    0.0005
           5   -0.0163   -0.0033   -0.0009   -0.0119   -0.0248   -0.0013    0.0001    0.0001
           6    0.0006   -0.0008   -0.0000    0.0004    0.0000   -0.0560    0.0029    0.0024
           7    0.0884   -0.0607    0.0025   -0.0272    0.0099   -0.0000   -0.0006    0.0001
           8    0.0029    0.0061    0.0011    0.0108    0.0254    0.0000    0.0008    0.0000
           9   -0.0008    0.0007   -0.0000    0.0004    0.0001   -0.0026   -0.0578   -0.0003
          10   -0.0504   -0.0952   -0.0003    0.0014    0.0028    0.0000   -0.0000   -0.0001
          11   -0.0172    0.0154    0.0174   -0.0813    0.1867    0.0000    0.0000    0.0006
          12   -0.0033   -0.0017   -0.0021   -0.0005    0.0009   -0.0001   -0.0002    0.0000
          13   -0.0314    0.0374   -0.0026    0.0146   -0.0274   -0.0000    0.0000   -0.0007
          14   -0.0112    0.0074   -0.0165    0.0749   -0.1726   -0.0000   -0.0001   -0.0004
          15    0.0007    0.0003   -0.0001    0.0000   -0.0002   -0.0002   -0.0000   -0.0000
          16    0.0137   -0.0445   -0.0011    0.0267    0.0093   -0.0000    0.0000   -0.0000
          17    0.0195   -0.0183   -0.0060    0.1753    0.0800    0.0000    0.0000   -0.0000
          18   -0.0003    0.0009    0.0000   -0.0005   -0.0002   -0.0001   -0.0003    0.0000
          19   -0.0416    0.0373   -0.0012    0.0305    0.0110   -0.0000   -0.0000    0.0000
          20    0.0084   -0.0217    0.0059   -0.1745   -0.0792   -0.0000   -0.0001    0.0000
          21    0.0008   -0.0007    0.0000   -0.0007   -0.0003   -0.0002   -0.0000    0.0000
          22   -0.0040   -0.0026    0.0646    0.0042   -0.0053    0.0001   -0.0000   -0.0002
          23   -0.0009    0.0005    0.2001    0.0116   -0.0129    0.0000    0.0000   -0.0007
          24   -0.0106   -0.0033    0.0626    0.0039   -0.0047    0.0001   -0.0000    0.0016
          25   -0.0029   -0.0012   -0.0553   -0.0032    0.0035   -0.0000    0.0000   -0.0002
          26   -0.0122   -0.0057   -0.1789   -0.0103    0.0113   -0.0000    0.0000   -0.0000
          27   -0.0012   -0.0012   -0.0250   -0.0016    0.0019   -0.0000    0.0000   -0.0003
          28   -0.0260    0.0135    0.0074   -0.0077    0.0205    0.0134   -0.0024    0.3481
          29   -0.0525   -0.0063    0.0054   -0.0146    0.0321   -0.0097    0.0018   -0.2536
          30    0.0145    0.0095   -0.0114   -0.0013    0.0016   -0.0042    0.0008   -0.1042
          31   -0.0742   -0.0576    0.0111    0.0121   -0.0251   -0.0001   -0.0000    0.0131
          32   -0.0052   -0.0049    0.0304    0.0059   -0.0120   -0.0135    0.0025   -0.2867
          33   -0.0111   -0.0077    0.0239    0.0019   -0.0017    0.0141   -0.0026    0.3062
          34   -0.0357   -0.0917    0.0027   -0.0278    0.0162    0.0001   -0.0000    0.0003
          35    0.0181   -0.0016   -0.0007   -0.0066   -0.0149    0.2698   -0.0132   -0.0113
          36   -0.0224   -0.0004   -0.0004   -0.0016   -0.0009    0.3356   -0.0167   -0.0141
          37   -0.0304   -0.0904    0.0032   -0.0267    0.0158    0.0088   -0.0004    0.0006
          38    0.0171   -0.0029   -0.0008   -0.0062   -0.0135   -0.2547    0.0123    0.0115
          39    0.0221    0.0030   -0.0002    0.0024    0.0013    0.3409   -0.0167   -0.0153
          40   -0.0882    0.0556    0.0021   -0.0234    0.0077    0.0000    0.0002   -0.0000
          41   -0.0014   -0.0023    0.0006    0.0053    0.0138    0.0126    0.2666    0.0013
          42    0.0023    0.0058    0.0000    0.0021    0.0021    0.0166    0.3567    0.0018
          43   -0.0900    0.0563    0.0022   -0.0245    0.0078    0.0003    0.0074    0.0000
          44   -0.0015   -0.0020    0.0007    0.0058    0.0149   -0.0130   -0.2758   -0.0016
          45   -0.0004   -0.0071   -0.0001   -0.0013   -0.0017    0.0159    0.3423    0.0020
          46    0.0123    0.0075   -0.0033    0.0003   -0.0006    0.0002   -0.0000    0.0023
          47    0.0216    0.0099    0.0208    0.0018   -0.0028    0.0004   -0.0001    0.0149
          48    0.0079    0.0047   -0.1297   -0.0072    0.0075   -0.0002    0.0002   -0.0148
          49   -0.0389   -0.0164    0.0028   -0.0986   -0.0536    0.0005   -0.0001    0.0002
          50   -0.0705    0.0306   -0.0012    0.0179   -0.0009   -0.0004    0.0000   -0.0001
          51    0.0009    0.0005   -0.0000    0.0021    0.0013   -0.0016   -0.0007    0.0001
          52   -0.0441   -0.0069    0.0097   -0.0367    0.1041   -0.0001   -0.0006    0.0033
          53   -0.0298   -0.0677   -0.0011    0.0130   -0.0066    0.0000    0.0005   -0.0038
          54   -0.0030   -0.0011    0.0001   -0.0002    0.0008   -0.0008   -0.0016    0.0004
          55   -0.0298   -0.0072    0.0027   -0.0984   -0.0530    0.0001    0.0004    0.0000
          56   -0.0138    0.0509    0.0014   -0.0204   -0.0003    0.0001    0.0004   -0.0000
          57    0.0009    0.0002   -0.0000    0.0020    0.0012   -0.0008   -0.0016    0.0000
          58    0.0021   -0.0010    0.0008    0.0000    0.0001   -0.0001    0.0000   -0.0004
          59    0.0143    0.0048   -0.0284   -0.0018    0.0022   -0.0001    0.0000   -0.0027
          60    0.0208    0.0075    0.1455    0.0081   -0.0086    0.0001   -0.0000    0.0017
          61    0.0089    0.0038   -0.0106   -0.0007    0.0009   -0.0001    0.0000   -0.0009
          62    0.0240    0.0052   -0.0054   -0.0009    0.0015   -0.0000    0.0000   -0.0009
          63   -0.0197   -0.0074   -0.1419   -0.0082    0.0091   -0.0001    0.0000   -0.0017


   Root No.      49        50        51        52        53        54        55        56

                49 A      50 A      51 A      52 A      53 A      54 A      55 A      56 A   

                3002.8    3007.7    3012.8    3045.0    3046.5    3046.6    3066.7    3135.4
  
           1    0.0011   -0.0007   -0.0220    0.0010    0.0003    0.0004   -0.0001    0.0001
           2    0.0004   -0.0001   -0.0045    0.0001    0.0016    0.0004   -0.0000    0.0002
           3   -0.0018    0.0009    0.0293   -0.0007   -0.0021   -0.0007    0.0000    0.0005
           4   -0.0004    0.0000    0.0001    0.0002    0.0001   -0.0001   -0.0000   -0.0000
           5    0.0356   -0.0026    0.0024   -0.0016   -0.0005    0.0010    0.0025    0.0000
           6   -0.0009    0.0001   -0.0002    0.0000    0.0000    0.0000   -0.0000    0.0000
           7    0.0000    0.0005   -0.0000   -0.0002   -0.0000    0.0000    0.0001    0.0000
           8   -0.0024   -0.0349    0.0012    0.0031   -0.0007    0.0022   -0.0029   -0.0000
           9   -0.0000   -0.0003    0.0001   -0.0000    0.0000   -0.0000    0.0000   -0.0000
          10   -0.0005    0.0002   -0.0005   -0.0004   -0.0002    0.0001    0.0004   -0.0000
          11    0.0006    0.0001   -0.0003   -0.0037    0.0001   -0.0010    0.0004    0.0000
          12   -0.0000   -0.0000    0.0000    0.0000   -0.0002   -0.0001   -0.0000    0.0000
          13   -0.0009   -0.0047   -0.0013   -0.0365    0.0020   -0.0106    0.0024   -0.0000
          14    0.0001    0.0024    0.0010    0.0249   -0.0014    0.0071   -0.0016   -0.0000
[...]
 RED. MASS   0.2658         C  7 -- H 19          +8.2% ( 32.5%)      0.5%
 EFF. MASS   4.0072

 VIBRATION   37   37A         ATOM PAIR      ENERGY CONTRIBUTION    RADIAL
 FREQ.      1361.71         C  2 -- H 13         +17.0% ( 43.2%)      5.0%
 T-DIPOLE    0.0142         C  2 -- H 12         +16.8% ( 43.0%)      5.3%
 TRAVEL      0.1314         C  3 -- H 14         +15.1% ( 40.8%)      5.0%
 RED. MASS   0.2721         C  3 -- H 15         +15.0% ( 40.7%)      5.1%
 EFF. MASS   2.8672

 VIBRATION   38   38A         ATOM PAIR      ENERGY CONTRIBUTION    RADIAL
 FREQ.      1376.14         C  1 -- C  8         +11.9% ( 49.4%)     87.6%
 T-DIPOLE    0.1203         C  1 -- H 11          +9.6% ( 44.4%)      0.1%
 TRAVEL      0.0828         C  1 -- H 10          +8.9% ( 42.9%)      0.0%
 RED. MASS   0.9138         C  2 -- C  6          +7.5% ( 39.3%)     88.3%
 EFF. MASS   7.1438

 VIBRATION   39   39A         ATOM PAIR      ENERGY CONTRIBUTION    RADIAL
 FREQ.      1392.78         C  3 -- C  5         +11.9% ( 45.6%)     78.8%
 T-DIPOLE    0.0921         C  3 -- H 14         +10.5% ( 42.9%)      7.8%
 TRAVEL      0.0890         C  3 -- H 15         +10.5% ( 42.9%)      7.9%
 RED. MASS   0.5795         C  3 -- C  7          +9.2% ( 40.1%)     38.3%
 EFF. MASS   6.1180

 VIBRATION   40   40A         ATOM PAIR      ENERGY CONTRIBUTION    RADIAL
 FREQ.      1396.83         C  1 -- H 11         +33.0% ( 60.4%)      5.0%
 T-DIPOLE    0.0719         C  1 -- H 10         +32.9% ( 60.3%)      4.8%
 TRAVEL      0.1266         C  1 -- C  8         +12.2% ( 36.7%)     67.2%
 RED. MASS   0.5738         C  1 -- C  4          +8.5% ( 30.6%)      9.6%
 EFF. MASS   3.0143

 VIBRATION   41   41A         ATOM PAIR      ENERGY CONTRIBUTION    RADIAL
 FREQ.      1436.59         C  3 -- C  7         +15.7% ( 61.7%)     75.2%
 T-DIPOLE    0.1519         C  3 -- C  5         +14.2% ( 58.7%)     79.4%
 TRAVEL      0.0683         C  3 -- H 15         +11.5% ( 52.8%)      0.0%
 RED. MASS   2.1418         C  3 -- H 14         +11.4% ( 52.7%)      0.0%
 EFF. MASS  10.0724         C  1 -- C  4         +10.8% ( 51.1%)     97.3%

 VIBRATION   42   42A         ATOM PAIR      ENERGY CONTRIBUTION    RADIAL
 FREQ.      1494.39         C  2 -- C  4         +20.7% ( 70.7%)     79.8%
 T-DIPOLE    0.0103         C  2 -- C  6         +12.8% ( 55.5%)     77.8%
 TRAVEL      0.0642         C  1 -- C  4         +10.2% ( 49.5%)     73.8%
 RED. MASS   2.3810         C  2 -- H 12          +9.2% ( 47.1%)      0.0%
 EFF. MASS  10.9396

 VIBRATION   43   43A         ATOM PAIR      ENERGY CONTRIBUTION    RADIAL
 FREQ.      1859.07         C  8 -- C  9         +45.0% ( 99.0%)     99.0%
 T-DIPOLE    0.2083         C  1 -- C  8         +16.5% ( 60.0%)     53.4%
 TRAVEL      0.0554         C  8 -- H 16         +15.2% ( 57.6%)      4.1%
 RED. MASS   5.2088         C  9 -- H 20         +10.9% ( 48.8%)     11.0%
 EFF. MASS  11.7981         C  9 -- H 21         +10.8% ( 48.4%)     12.8%

 VIBRATION   44   44A         ATOM PAIR      ENERGY CONTRIBUTION    RADIAL
 FREQ.      1881.05         C  6 -- C  7         +36.8% ( 89.7%)    100.0%
 T-DIPOLE    0.1581         C  3 -- C  7         +11.9% ( 50.9%)     58.0%
 TRAVEL      0.0549         C  2 -- C  6         +11.9% ( 50.9%)     57.4%
 RED. MASS   3.9165         C  6 -- H 17         +10.9% ( 48.8%)      4.5%
 EFF. MASS  11.8767         C  7 -- H 19         +10.9% ( 48.7%)      4.6%

 VIBRATION   45   45A         ATOM PAIR      ENERGY CONTRIBUTION    RADIAL
 FREQ.      1905.70         C  4 -- C  5         +36.5% ( 88.7%)     99.2%
 T-DIPOLE    0.0479         C  2 -- C  4         +12.4% ( 51.8%)     29.2%
 TRAVEL      0.0546         C  1 -- C  4         +12.3% ( 51.5%)     35.0%
 RED. MASS   3.9738         C  3 -- C  5         +11.0% ( 48.7%)     48.9%
 EFF. MASS  11.8663         C  5 -- H 18         +10.2% ( 46.8%)      4.2%

 VIBRATION   46   46A         ATOM PAIR      ENERGY CONTRIBUTION    RADIAL
 FREQ.      2925.85         C  2 -- H 12         +49.2% ( 72.8%)     96.6%
 T-DIPOLE    0.0526         C  2 -- H 13         +48.2% ( 72.0%)     96.5%
 TRAVEL      0.1225         C  2 -- C  6          +1.1% ( 10.8%)      0.0%
 RED. MASS   0.5136         C  2 -- C  4          +1.1% ( 10.8%)      0.0%
 EFF. MASS   1.5357

 VIBRATION   47   47A         ATOM PAIR      ENERGY CONTRIBUTION    RADIAL
 FREQ.      2929.78         C  3 -- H 14         +49.4% ( 72.9%)     96.6%
 T-DIPOLE    0.0224         C  3 -- H 15         +48.2% ( 72.0%)     96.5%
 TRAVEL      0.1224         C  3 -- C  7          +1.1% ( 10.8%)      0.0%
 RED. MASS   0.5153         C  3 -- C  5          +1.1% ( 10.8%)      0.0%
 EFF. MASS   1.5354

 VIBRATION   48   48A         ATOM PAIR      ENERGY CONTRIBUTION    RADIAL
 FREQ.      2936.51         C  1 -- H 10         +51.1% ( 74.2%)     96.8%
 T-DIPOLE    0.0502         C  1 -- H 11         +46.2% ( 70.6%)     96.2%
 TRAVEL      0.1217         C  1 -- C  8          +1.2% ( 11.3%)      0.2%
 RED. MASS   0.5175         C  1 -- C  4          +1.2% ( 11.3%)      0.1%
 EFF. MASS   1.5498

 VIBRATION   49   49A         ATOM PAIR      ENERGY CONTRIBUTION    RADIAL
 FREQ.      3002.82         C  2 -- H 13         +49.1% ( 69.1%)     97.8%
 T-DIPOLE    0.0935         C  2 -- H 12         +48.0% ( 68.3%)     97.7%
 TRAVEL      0.1325         C  2 -- C  6          +0.7% (  8.1%)     21.9%
 RED. MASS   0.4694         C  2 -- C  4          +0.7% (  8.0%)     28.1%
 EFF. MASS   1.2796

 VIBRATION   50   50A         ATOM PAIR      ENERGY CONTRIBUTION    RADIAL
 FREQ.      3007.75         C  3 -- H 15         +48.7% ( 68.8%)     97.8%
 T-DIPOLE    0.0788         C  3 -- H 14         +47.5% ( 68.0%)     97.7%
 TRAVEL      0.1321         C  5 -- H 18          +1.2% ( 10.9%)     99.9%
 RED. MASS   0.4615         C  3 -- C  5          +0.7% (  8.1%)     18.9%
 EFF. MASS   1.2842

 VIBRATION   51   51A         ATOM PAIR      ENERGY CONTRIBUTION    RADIAL
 FREQ.      3012.76         C  1 -- H 11         +51.4% ( 70.6%)     97.9%
 T-DIPOLE    0.0580         C  1 -- H 10         +46.4% ( 67.1%)     97.3%
 TRAVEL      0.1324         C  1 -- C  8          +0.6% (  7.9%)     29.9%
 RED. MASS   0.4762         C  1 -- C  4          +0.6% (  7.8%)     31.3%
 EFF. MASS   1.2774

 VIBRATION   52   52A         ATOM PAIR      ENERGY CONTRIBUTION    RADIAL
 FREQ.      3045.00         C  5 -- H 18         +84.3% ( 93.1%)    100.0%
 T-DIPOLE    0.2020         C  7 -- H 19          +7.2% ( 27.2%)    100.0%
 TRAVEL      0.1212         C  6 -- H 17          +4.5% ( 21.4%)    100.0%
 RED. MASS   0.7078         C  4 -- C  5          +1.3% ( 11.8%)     39.1%
 EFF. MASS   1.5072

 VIBRATION   53   53A         ATOM PAIR      ENERGY CONTRIBUTION    RADIAL
 FREQ.      3046.48         C  8 -- H 16         +86.7% ( 94.4%)    100.0%
 T-DIPOLE    0.1758         C  6 -- H 17          +5.0% ( 22.6%)    100.0%
 TRAVEL      0.1216         C  7 -- H 19          +4.0% ( 20.4%)    100.0%
 RED. MASS   0.7440         C  8 -- C  9          +1.3% ( 11.4%)     30.6%
 EFF. MASS   1.4960

 VIBRATION   54   54A         ATOM PAIR      ENERGY CONTRIBUTION    RADIAL
 FREQ.      3046.65         C  6 -- H 17         +43.7% ( 67.0%)    100.0%
 T-DIPOLE    0.3880         C  7 -- H 19         +33.2% ( 58.4%)    100.0%
 TRAVEL      0.1227         C  5 -- H 18         +10.9% ( 33.6%)    100.0%
 RED. MASS   0.3126         C  8 -- H 16          +8.8% ( 30.1%)    100.0%
 EFF. MASS   1.4700

 VIBRATION   55   55A         ATOM PAIR      ENERGY CONTRIBUTION    RADIAL
 FREQ.      3066.70         C  7 -- H 19         +52.0% ( 73.2%)     99.9%
 T-DIPOLE    0.2746         C  6 -- H 17         +43.4% ( 66.8%)     99.9%
 TRAVEL      0.1176         C  6 -- C  7          +2.0% ( 14.5%)     99.7%
 RED. MASS   0.4602         C  3 -- C  7          +0.9% (  9.4%)     14.7%
 EFF. MASS   1.5905

 VIBRATION   56   56A         ATOM PAIR      ENERGY CONTRIBUTION    RADIAL
 FREQ.      3135.38         C  9 -- H 20         +91.8% ( 97.5%)     99.9%
 T-DIPOLE    0.1993         C  9 -- H 21          +6.9% ( 26.7%)     71.6%
 TRAVEL      0.1182         C  8 -- C  9          +1.3% ( 11.7%)     22.0%
 RED. MASS   0.8526
 EFF. MASS   1.5383

 VIBRATION   57   57A         ATOM PAIR      ENERGY CONTRIBUTION    RADIAL
 FREQ.      3147.86         C  9 -- H 21         +91.7% ( 96.4%)     99.7%
 T-DIPOLE    0.2674         C  9 -- H 20          +5.9% ( 24.4%)     41.8%
 TRAVEL      0.1209         C  8 -- C  9          +1.6% ( 12.7%)     73.7%
 RED. MASS   0.8164         C  8 -- H 16          +0.8% (  9.2%)     95.1%
 EFF. MASS   1.4656

      SYMMETRY NUMBER FOR POINT-GROUP C1  =  1


          SYSTEM IS A GROUND STATE



 InChI=1S/C9H12/c1-2-6-9-7-4-3-5-8-9/h2-4,8H,1,5-7H2


          MOLECULE IS NOT LINEAR

          THERE ARE 57 GENUINE VIBRATIONS IN THIS SYSTEM
          THIS THERMODYNAMICS CALCULATION IS LIMITED TO
          MOLECULES WHICH HAVE NO INTERNAL ROTATIONS




                    CALCULATED THERMODYNAMIC PROPERTIES
                                          *
   TEMP. (K)   PARTITION FUNCTION   H.O.F.    ENTHALPY  HEAT CAPACITY ENTROPY
                                   KCAL/MOL   CAL/MOLE    CAL/K/MOL  CAL/K/MOL


 298.00  VIB.     0.3228D+03                  3841.5012    27.9041    24.3712
         ROT.     0.5031D+06                   888.2813     2.9808    29.0699
         INT.     0.1624D+09                  4729.7825    30.8849    53.4411
         TRA.     0.1274D+28                  1480.4688     4.9680    40.2640
         TOT.                       30.408    6210.2514    35.8529    93.7051

 200.00  VIB.     0.4012D+02                  1664.5117    16.8538    15.6591
         ROT.     0.2766D+06                   596.1620     2.9808    27.8812
         INT.     0.1110D+08                  2260.6736    19.8346    43.5403
         TRA.     0.7004D+27                   993.6033     4.9680    38.2829
         TOT.                       27.452    3254.2769    24.8026    81.8232

 210.00  VIB.     0.4947D+02                  1838.1163    17.8727    16.5059
         ROT.     0.2976D+06                   625.9700     2.9808    28.0267
         INT.     0.1472D+08                  2464.0864    20.8535    44.5326
         TRA.     0.7536D+27                  1043.2834     4.9680    38.5253
         TOT.                       27.706    3507.3698    25.8215    83.0579

 220.00  VIB.     0.6103D+02                  2022.0718    18.9236    17.3615
         ROT.     0.3191D+06                   655.7781     2.9808    28.1653
         INT.     0.1948D+08                  2677.8499    21.9044    45.5268
         TRA.     0.8081D+27                  1092.9636     4.9680    38.7564
         TOT.                       27.969    3770.8135    26.8725    84.2832

 230.00  VIB.     0.7534D+02                  2216.6888    20.0046    18.2264
         ROT.     0.3411D+06                   685.5862     2.9808    28.2978
         INT.     0.2570D+08                  2902.2751    22.9854    46.5242
         TRA.     0.8638D+27                  1142.6437     4.9680    38.9773
         TOT.                       28.243    4044.9188    27.9534    85.5015

 240.00  VIB.     0.9305D+02                  2422.2542    21.1128    19.1011
         ROT.     0.3636D+06                   715.3943     2.9808    28.4247
         INT.     0.3384D+08                  3137.6485    24.0936    47.5258
         TRA.     0.9207D+27                  1192.3239     4.9680    39.1887
         TOT.                       28.528    4329.9724    29.0616    86.7145

 250.00  VIB.     0.1150D+03                  2639.0250    22.2451    19.9858
         ROT.     0.3866D+06                   745.2024     2.9808    28.5464
         INT.     0.4447D+08                  3384.2274    25.2259    48.5322
         TRA.     0.9789D+27                  1242.0041     4.9680    39.3915
         TOT.                       28.824    4626.2315    30.1939    87.9237

 260.00  VIB.     0.1423D+03                  2867.2253    23.3981    20.8807
         ROT.     0.4100D+06                   775.0105     2.9808    28.6633
         INT.     0.5836D+08                  3642.2358    26.3789    49.5440
         TRA.     0.1038D+28                  1291.6842     4.9680    39.5863
         TOT.                       29.132    4933.9200    31.3469    89.1304

 270.00  VIB.     0.1763D+03                  3107.0437    24.5681    21.7857
         ROT.     0.4339D+06                   804.8186     2.9808    28.7758
         INT.     0.7649D+08                  3911.8624    27.5489    50.5615
         TRA.     0.1099D+28                  1341.3644     4.9680    39.7738
         TOT.                       29.451    5253.2268    32.5170    90.3353

 280.00  VIB.     0.2186D+03                  3358.6326    25.7516    22.7005
         ROT.     0.4582D+06                   834.6267     2.9808    28.8842
         INT.     0.1002D+09                  4193.2593    28.7324    51.5847
         TRA.     0.1160D+28                  1391.0445     4.9680    39.9545
         TOT.                       29.783    5584.3039    33.7004    91.5392

 290.00  VIB.     0.2713D+03                  3622.1078    26.9448    23.6249
         ROT.     0.4830D+06                   864.4348     2.9808    28.9888
         INT.     0.1310D+09                  4486.5426    29.9256    52.6137
         TRA.     0.1223D+28                  1440.7247     4.9680    40.1289
         TOT.                       30.125    5927.2673    34.8936    92.7426

 300.00  VIB.     0.3372D+03                  3897.5496    28.1443    24.5586
         ROT.     0.5082D+06                   894.2429     2.9808    29.0899
         INT.     0.1713D+09                  4791.7925    31.1251    53.6485
         TRA.     0.1287D+28                  1490.4049     4.9680    40.2973
         TOT.                       30.480    6282.1974    36.0932    93.9458

 310.00  VIB.     0.4195D+03                  4185.0045    29.3469    25.5011
         ROT.     0.5338D+06                   924.0510     2.9808    29.1876
         INT.     0.2239D+09                  5109.0555    32.3277    54.6887
         TRA.     0.1352D+28                  1540.0850     4.9680    40.4602
         TOT.                       30.847    6649.1405    37.2957    95.1488

 320.00  VIB.     0.5227D+03                  4484.4868    30.5493    26.4518
         ROT.     0.5598D+06                   953.8591     2.9808    29.2822
         INT.     0.2926D+09                  5438.3459    33.5301    55.7340
         TRA.     0.1418D+28                  1589.7652     4.9680    40.6179
         TOT.                       31.226    7028.1111    38.4982    96.3519

 330.00  VIB.     0.6519D+03                  4795.9813    31.7489    27.4102
         ROT.     0.5863D+06                   983.6672     2.9808    29.3740
         INT.     0.3822D+09                  5779.6485    34.7297    56.7842
         TRA.     0.1485D+28                  1639.4454     4.9680    40.7708
         TOT.                       31.617    7419.0939    39.6977    97.5550

 340.00  VIB.     0.8142D+03                  5119.4457    32.9429    28.3758
         ROT.     0.6131D+06                  1013.4753     2.9808    29.4629
         INT.     0.4992D+09                  6132.9211    35.9237    57.8387
         TRA.     0.1553D+28                  1689.1255     4.9680    40.9191
         TOT.                       32.020    7822.0466    40.8917    98.7578

 350.00  VIB.     0.1018D+04                  5454.8134    34.1291    29.3478
         ROT.     0.6404D+06                  1043.2834     2.9808    29.5494
         INT.     0.6519D+09                  6498.0968    37.1100    58.8972
         TRA.     0.1622D+28                  1738.8057     4.9680    41.0631
         TOT.                       32.435    8236.9025    42.0780    99.9603

 360.00  VIB.     0.1274D+04                  5801.9958    35.3055    30.3258
         ROT.     0.6680D+06                  1073.0915     2.9808    29.6333
         INT.     0.8514D+09                  6875.0873    38.2863    59.9591
         TRA.     0.1692D+28                  1788.4859     4.9680    41.2031
         TOT.                       32.862    8663.5731    43.2544   101.1622

 370.00  VIB.     0.1597D+04                  6160.8853    36.4703    31.3090
         ROT.     0.6960D+06                  1102.8996     2.9808    29.7150
         INT.     0.1112D+10                  7263.7850    39.4511    61.0240
         TRA.     0.1762D+28                  1838.1660     4.9680    41.3392
         TOT.                       33.300    9101.9510    44.4191   102.3632

 380.00  VIB.     0.2005D+04                  6531.3580    37.6219    32.2970
         ROT.     0.7244D+06                  1132.7077     2.9808    29.7945
         INT.     0.1452D+10                  7664.0657    40.6027    62.0914
         TRA.     0.1834D+28                  1887.8462     4.9680    41.4717
         TOT.                       33.750    9551.9118    45.5707   103.5631

 390.00  VIB.     0.2518D+04                  6913.2753    38.7591    33.2889
         ROT.     0.7532D+06                  1162.5158     2.9808    29.8719
         INT.     0.1897D+10                  8075.7911    41.7399    63.1609
         TRA.     0.1907D+28                  1937.5263     4.9680    41.6007
         TOT.                       34.212   10013.3174    46.7079   104.7616

 400.00  VIB.     0.3167D+04                  7306.4871    39.8806    34.2844
         ROT.     0.7824D+06                  1192.3239     2.9808    29.9474
         INT.     0.2478D+10                  8498.8110    42.8615    64.2318
         TRA.     0.1981D+28                  1987.2065     4.9680    41.7265
         TOT.                       34.684   10486.0175    47.8295   105.9583

   *: NOTE: HEATS OF FORMATION ARE RELATIVE TO THE
            ELEMENTS IN THEIR STANDARD STATE AT 298K
              (=  Standard Enthalpy of Formation).

            Hvib:  Zero-point energy is not included.
                   frequencies of less than zero cm-1 are not included.
            Hrot = (3/2)RT
            Htra = (3/2)RT + pV = (5/2)RT

            Heat capacity is Cp, not Cv

          For more information, see: HTTP://OpenMOPAC.net/Manual/thermochemistry.html


           FORCE CONSTANT IN CARTESIAN COORDINATES (Millidynes/A)

    ATOM   CHEMICAL       X               Y               Z
   NUMBER   SYMBOL  FORCE CONSTANT  FORCE CONSTANT  FORCE CONSTANT

      1       C        8.594089        8.673035        8.575691
      2       C        9.472915        8.962359        7.660651
      3       C        9.459874        9.027052        7.652824
      4       C        9.686259       15.449895        2.906315
      5       C        9.735439       15.332256        2.368623
      6       C        9.576786       15.409849        2.382626
      7       C        9.597558       15.396675        2.377873
      8       C        3.660711       14.272264        9.116365
      9       C        3.139897       14.223817        9.134387
     10       H        3.255282        2.189976        0.821545
     11       H        0.717495        2.767159        2.841849
     12       H        0.667143        2.126115        3.363774
     13       H        0.688424        1.981918        3.508703
     14       H        0.668082        1.988886        3.516889
     15       H        0.675327        2.130928        3.376162
     16       H        0.469065        2.263313        3.489564
     17       H        4.043108        1.853552        0.354525
     18       H        3.999316        1.882939        0.350939
     19       H        3.957000        1.945727        0.353522
     20       H        0.462381        2.521523        3.479388
     21       H        0.523704        1.414151        4.540630

 **********************
 *                    *
 * JOB ENDED NORMALLY *
 *                    *
 **********************



 TOTAL JOB TIME:             2.59 SECONDS

 == MOPAC DONE ==
