 *******************************************************************************
 ** Site#: 14399        For non-commercial use only    Version 18.184L 64BITS **
 *******************************************************************************
 ** Cite this program as: MOPAC2016, Version: 18.184L, James J. P. Stewart,   **
 ** Stewart Computational Chemistry, web: HTTP://OpenMOPAC.net. Days left:  18**
 *******************************************************************************
 **                                                                           **
 **                                MOPAC2016                                  **
 **                                                                           **
 *******************************************************************************

                              PM3 CALCULATION RESULTS

 *******************************************************************************
 *  CALCULATION DONE:                                Sat Jun 15 14:05:00 2019  *
 *  PM3        - The PM3 Hamiltonian to be used
 *  PRECISE    - CRITERIA TO BE INCREASED BY 100 TIMES
 *  NOSYM      - POINT-GROUP SYMMETRY SET TO C1
 *  THREADS=1  - MULTI-THREADING NOT USED
 *  T=         - A TIME OF 172800.0 SECONDS REQUESTED
 *  DUMP=N     - RESTART FILE WRITTEN EVERY  7200.000 SECONDS
 *******************************************************************************
pm3  precise nosym THREADS=1
 InChI=1S/C7H12O2/c1-6(9-8)7-4-2-3-5-7/h2,4,6-8H,3,5H2,1H3

   ATOM   CHEMICAL          X               Y               Z
  NUMBER   SYMBOL      (ANGSTROMS)     (ANGSTROMS)     (ANGSTROMS)
 
     1       O         -1.97510000  *  -0.99590000  *  -0.65060000  *
     2       O         -2.95280000  *  -1.28480000  *   0.19010000  *
     3       C          0.21790000  *   0.00040000  *  -0.64550000  *
     4       C         -1.21100000  *   0.03080000  *  -0.05510000  *
     5       C          1.19850000  *   0.95440000  *   0.07140000  *
     6       C          2.39570000  *   0.10120000  *   0.50130000  *
     7       C         -1.88760000  *   1.38150000  *  -0.33060000  *
     8       C          0.84680000  *  -1.34340000  *  -0.47750000  *
     9       C          2.01570000  *  -1.28540000  *   0.13450000  *
    10       H          0.18270000  *   0.23450000  *  -1.73300000  *
    11       H         -1.13410000  *  -0.11910000  *   1.04970000  *
    12       H          0.74400000  *   1.42180000  *   0.97230000  *
    13       H          1.52490000  *   1.76370000  *  -0.61780000  *
    14       H          2.56540000  *   0.17210000  *   1.59720000  *
    15       H          3.31550000  *   0.39770000  *  -0.04700000  *
    16       H         -2.91270000  *   1.38600000  *   0.09610000  *
    17       H         -1.32170000  *   2.21410000  *   0.13610000  *
    18       H         -1.95900000  *   1.56220000  *  -1.42450000  *
    19       H          2.63450000  *  -2.15610000  *   0.32490000  *
    20       H          0.41890000  *  -2.26940000  *  -0.84870000  *
    21       H         -2.70670000  *  -2.16630000  *   0.57170000  *
 


          CARTESIAN COORDINATES 

    NO.       ATOM           X           Y           Z

     1         O         -1.9751     -0.9959     -0.6506
     2         O         -2.9528     -1.2848      0.1901
     3         C          0.2179      0.0004     -0.6455
     4         C         -1.2110      0.0308     -0.0551
     5         C          1.1985      0.9544      0.0714
     6         C          2.3957      0.1012      0.5013
     7         C         -1.8876      1.3815     -0.3306
     8         C          0.8468     -1.3434     -0.4775
     9         C          2.0157     -1.2854      0.1345
    10         H          0.1827      0.2345     -1.7330
    11         H         -1.1341     -0.1191      1.0497
    12         H          0.7440      1.4218      0.9723
    13         H          1.5249      1.7637     -0.6178
    14         H          2.5654      0.1721      1.5972
    15         H          3.3155      0.3977     -0.0470
    16         H         -2.9127      1.3860      0.0961
    17         H         -1.3217      2.2141      0.1361
    18         H         -1.9590      1.5622     -1.4245
    19         H          2.6345     -2.1561      0.3249
    20         H          0.4189     -2.2694     -0.8487
    21         H         -2.7067     -2.1663      0.5717

  H: (PM3): J. J. P. STEWART, J. COMP. CHEM. 10, 209 (1989).
  C: (PM3): J. J. P. STEWART, J. COMP. CHEM. 10, 209 (1989).
  O: (PM3): J. J. P. STEWART, J. COMP. CHEM. 10, 209 (1989).

           Empirical Formula: C7 H12 O2  =    21 atoms



      MOLECULAR POINT GROUP   :   C1  


      RHF CALCULATION, NO. OF DOUBLY OCCUPIED LEVELS = 26


          Geometry optimization using EF

          DIAGONAL MATRIX USED AS START HESSIAN

 CYCLE:     1 TIME:   0.004 TIME LEFT:  2.00D  GRAD.:   173.218 HEAT: -16.00495
 CYCLE:     2 TIME:   0.008 TIME LEFT:  2.00D  GRAD.:   204.987 HEAT: -17.80220
 CYCLE:     3 TIME:   0.008 TIME LEFT:  2.00D  GRAD.:    74.459 HEAT: -24.23269
 CYCLE:     4 TIME:   0.008 TIME LEFT:  2.00D  GRAD.:    55.492 HEAT: -25.84644
 CYCLE:     5 TIME:   0.008 TIME LEFT:  2.00D  GRAD.:    45.995 HEAT: -26.33316
 CYCLE:     6 TIME:   0.004 TIME LEFT:  2.00D  GRAD.:    42.694 HEAT: -26.43634
 CYCLE:     7 TIME:   0.004 TIME LEFT:  2.00D  GRAD.:    43.668 HEAT: -26.64113
 CYCLE:     8 TIME:   0.008 TIME LEFT:  2.00D  GRAD.:    17.348 HEAT: -27.05324
 CYCLE:     9 TIME:   0.008 TIME LEFT:  2.00D  GRAD.:    11.130 HEAT: -27.14197
 CYCLE:    10 TIME:   0.004 TIME LEFT:  2.00D  GRAD.:    11.895 HEAT: -27.19656
 CYCLE:    11 TIME:   0.004 TIME LEFT:  2.00D  GRAD.:    14.805 HEAT: -27.23740
 CYCLE:    12 TIME:   0.008 TIME LEFT:  2.00D  GRAD.:     9.380 HEAT: -27.29472
 CYCLE:    13 TIME:   0.008 TIME LEFT:  2.00D  GRAD.:     6.630 HEAT: -27.31785
 CYCLE:    14 TIME:   0.004 TIME LEFT:  2.00D  GRAD.:     4.699 HEAT: -27.34138
 CYCLE:    15 TIME:   0.004 TIME LEFT:  2.00D  GRAD.:     8.289 HEAT: -27.36200
 CYCLE:    16 TIME:   0.004 TIME LEFT:  2.00D  GRAD.:    10.229 HEAT: -27.38619
 CYCLE:    17 TIME:   0.008 TIME LEFT:  2.00D  GRAD.:    10.397 HEAT: -27.40695
 CYCLE:    18 TIME:   0.004 TIME LEFT:  2.00D  GRAD.:     9.500 HEAT: -27.43931
 CYCLE:    19 TIME:   0.004 TIME LEFT:  2.00D  GRAD.:     8.358 HEAT: -27.48187
 CYCLE:    20 TIME:   0.004 TIME LEFT:  2.00D  GRAD.:    12.389 HEAT: -27.51133
 CYCLE:    21 TIME:   0.004 TIME LEFT:  2.00D  GRAD.:     8.463 HEAT: -27.58897
 CYCLE:    22 TIME:   0.008 TIME LEFT:  2.00D  GRAD.:    12.343 HEAT: -27.64487
 CYCLE:    23 TIME:   0.004 TIME LEFT:  2.00D  GRAD.:    14.095 HEAT: -27.72598
 CYCLE:    24 TIME:   0.004 TIME LEFT:  2.00D  GRAD.:    11.667 HEAT: -27.79934
 CYCLE:    25 TIME:   0.004 TIME LEFT:  2.00D  GRAD.:     9.417 HEAT: -27.88089
 CYCLE:    26 TIME:   0.008 TIME LEFT:  2.00D  GRAD.:     9.322 HEAT: -27.94343
 CYCLE:    27 TIME:   0.004 TIME LEFT:  2.00D  GRAD.:    17.257 HEAT: -27.97407
 CYCLE:    28 TIME:   0.016 TIME LEFT:  2.00D  GRAD.:     7.744 HEAT: -28.03480
 CYCLE:    29 TIME:   0.004 TIME LEFT:  2.00D  GRAD.:     8.082 HEAT: -28.04758
 CYCLE:    30 TIME:   0.004 TIME LEFT:  2.00D  GRAD.:     2.785 HEAT: -28.07844
 CYCLE:    31 TIME:   0.004 TIME LEFT:  2.00D  GRAD.:     2.796 HEAT: -28.10084
 CYCLE:    32 TIME:   0.004 TIME LEFT:  2.00D  GRAD.:     3.848 HEAT: -28.13049
 CYCLE:    33 TIME:   0.004 TIME LEFT:  2.00D  GRAD.:     6.150 HEAT: -28.17717
 CYCLE:    34 TIME:   0.004 TIME LEFT:  2.00D  GRAD.:    13.791 HEAT: -28.20477
 CYCLE:    35 TIME:   0.004 TIME LEFT:  2.00D  GRAD.:     4.229 HEAT: -28.22997
 CYCLE:    36 TIME:   0.004 TIME LEFT:  2.00D  GRAD.:     4.223 HEAT: -28.26924
 CYCLE:    37 TIME:   0.008 TIME LEFT:  2.00D  GRAD.:    12.810 HEAT: -28.29367
 CYCLE:    38 TIME:   0.004 TIME LEFT:  2.00D  GRAD.:     3.616 HEAT: -28.32314
 CYCLE:    39 TIME:   0.004 TIME LEFT:  2.00D  GRAD.:     5.130 HEAT: -28.34989
 CYCLE:    40 TIME:   0.004 TIME LEFT:  2.00D  GRAD.:     8.254 HEAT: -28.38903
 CYCLE:    41 TIME:   0.004 TIME LEFT:  2.00D  GRAD.:     2.937 HEAT: -28.41547
 CYCLE:    42 TIME:   0.004 TIME LEFT:  2.00D  GRAD.:     7.898 HEAT: -28.42533
 CYCLE:    43 TIME:   0.004 TIME LEFT:  2.00D  GRAD.:     3.410 HEAT: -28.44873
 CYCLE:    44 TIME:   0.004 TIME LEFT:  2.00D  GRAD.:     3.869 HEAT: -28.47768
 CYCLE:    45 TIME:   0.008 TIME LEFT:  2.00D  GRAD.:     2.730 HEAT: -28.49835
 CYCLE:    46 TIME:   0.004 TIME LEFT:  2.00D  GRAD.:     7.683 HEAT: -28.50477
 CYCLE:    47 TIME:   0.004 TIME LEFT:  2.00D  GRAD.:     3.474 HEAT: -28.51985
 CYCLE:    48 TIME:   0.004 TIME LEFT:  2.00D  GRAD.:     1.751 HEAT: -28.53182
 CYCLE:    49 TIME:   0.004 TIME LEFT:  2.00D  GRAD.:     3.533 HEAT: -28.54199
 CYCLE:    50 TIME:   0.004 TIME LEFT:  2.00D  GRAD.:     2.964 HEAT: -28.54701
 CYCLE:    51 TIME:   0.004 TIME LEFT:  2.00D  GRAD.:     1.804 HEAT: -28.55429
 CYCLE:    52 TIME:   0.004 TIME LEFT:  2.00D  GRAD.:     1.941 HEAT: -28.55865
 CYCLE:    53 TIME:   0.004 TIME LEFT:  2.00D  GRAD.:     1.347 HEAT: -28.56383
 CYCLE:    54 TIME:   0.008 TIME LEFT:  2.00D  GRAD.:     3.152 HEAT: -28.56489
 CYCLE:    55 TIME:   0.004 TIME LEFT:  2.00D  GRAD.:     1.351 HEAT: -28.56820
 CYCLE:    56 TIME:   0.004 TIME LEFT:  2.00D  GRAD.:     1.181 HEAT: -28.57226
 CYCLE:    57 TIME:   0.004 TIME LEFT:  2.00D  GRAD.:     1.232 HEAT: -28.57658
 CYCLE:    58 TIME:   0.004 TIME LEFT:  2.00D  GRAD.:     1.342 HEAT: -28.57934
 CYCLE:    59 TIME:   0.008 TIME LEFT:  2.00D  GRAD.:     0.959 HEAT: -28.58108
 CYCLE:    60 TIME:   0.004 TIME LEFT:  2.00D  GRAD.:     0.988 HEAT: -28.58339
 CYCLE:    61 TIME:   0.004 TIME LEFT:  2.00D  GRAD.:     1.007 HEAT: -28.58565
 CYCLE:    62 TIME:   0.004 TIME LEFT:  2.00D  GRAD.:     1.033 HEAT: -28.58742
 CYCLE:    63 TIME:   0.004 TIME LEFT:  2.00D  GRAD.:     1.366 HEAT: -28.58912
 CYCLE:    64 TIME:   0.004 TIME LEFT:  2.00D  GRAD.:     1.049 HEAT: -28.59102
 CYCLE:    65 TIME:   0.004 TIME LEFT:  2.00D  GRAD.:     0.976 HEAT: -28.59345
 CYCLE:    66 TIME:   0.008 TIME LEFT:  2.00D  GRAD.:     0.854 HEAT: -28.59567
 CYCLE:    67 TIME:   0.004 TIME LEFT:  2.00D  GRAD.:     0.885 HEAT: -28.59728
 CYCLE:    68 TIME:   0.004 TIME LEFT:  2.00D  GRAD.:     0.807 HEAT: -28.59873
 CYCLE:    69 TIME:   0.004 TIME LEFT:  2.00D  GRAD.:     0.853 HEAT: -28.59983
 CYCLE:    70 TIME:   0.004 TIME LEFT:  2.00D  GRAD.:     0.653 HEAT: -28.60081
 CYCLE:    71 TIME:   0.004 TIME LEFT:  2.00D  GRAD.:     0.683 HEAT: -28.60172
 CYCLE:    72 TIME:   0.004 TIME LEFT:  2.00D  GRAD.:     0.648 HEAT: -28.60274
 CYCLE:    73 TIME:   0.004 TIME LEFT:  2.00D  GRAD.:     0.585 HEAT: -28.60374
 CYCLE:    74 TIME:   0.004 TIME LEFT:  2.00D  GRAD.:     0.549 HEAT: -28.60464
 CYCLE:    75 TIME:   0.008 TIME LEFT:  2.00D  GRAD.:     0.548 HEAT: -28.60548
 CYCLE:    76 TIME:   0.004 TIME LEFT:  2.00D  GRAD.:     0.584 HEAT: -28.60639
 CYCLE:    77 TIME:   0.004 TIME LEFT:  2.00D  GRAD.:     0.570 HEAT: -28.60724
 CYCLE:    78 TIME:   0.004 TIME LEFT:  2.00D  GRAD.:     0.475 HEAT: -28.60790
 CYCLE:    79 TIME:   0.004 TIME LEFT:  2.00D  GRAD.:     0.517 HEAT: -28.60837
 CYCLE:    80 TIME:   0.004 TIME LEFT:  2.00D  GRAD.:     0.500 HEAT: -28.60886
 CYCLE:    81 TIME:   0.004 TIME LEFT:  2.00D  GRAD.:     0.853 HEAT: -28.60957
 CYCLE:    82 TIME:   0.008 TIME LEFT:  2.00D  GRAD.:     0.860 HEAT: -28.61100
 CYCLE:    83 TIME:   0.004 TIME LEFT:  2.00D  GRAD.:     1.203 HEAT: -28.61377
 CYCLE:    84 TIME:   0.004 TIME LEFT:  2.00D  GRAD.:     2.196 HEAT: -28.62265
 CYCLE:    85 TIME:   0.004 TIME LEFT:  2.00D  GRAD.:     5.551 HEAT: -28.63080
 CYCLE:    86 TIME:   0.004 TIME LEFT:  2.00D  GRAD.:     5.094 HEAT: -28.64288
 CYCLE:    87 TIME:   0.008 TIME LEFT:  2.00D  GRAD.:    11.757 HEAT: -28.64451
 CYCLE:    88 TIME:   0.004 TIME LEFT:  2.00D  GRAD.:     2.527 HEAT: -28.69687
 CYCLE:    89 TIME:   0.004 TIME LEFT:  2.00D  GRAD.:     2.042 HEAT: -28.71491
 CYCLE:    90 TIME:   0.004 TIME LEFT:  2.00D  GRAD.:     3.158 HEAT: -28.73644
 CYCLE:    91 TIME:   0.008 TIME LEFT:  2.00D  GRAD.:     3.046 HEAT: -28.75670
 CYCLE:    92 TIME:   0.004 TIME LEFT:  2.00D  GRAD.:     4.922 HEAT: -28.77207
 CYCLE:    93 TIME:   0.004 TIME LEFT:  2.00D  GRAD.:     2.277 HEAT: -28.79227
 CYCLE:    94 TIME:   0.004 TIME LEFT:  2.00D  GRAD.:     3.258 HEAT: -28.79625
 CYCLE:    95 TIME:   0.004 TIME LEFT:  2.00D  GRAD.:     2.073 HEAT: -28.80740
 CYCLE:    96 TIME:   0.004 TIME LEFT:  2.00D  GRAD.:     1.553 HEAT: -28.81843
 CYCLE:    97 TIME:   0.004 TIME LEFT:  2.00D  GRAD.:     1.883 HEAT: -28.82861
 CYCLE:    98 TIME:   0.004 TIME LEFT:  2.00D  GRAD.:     2.545 HEAT: -28.84744
 CYCLE:    99 TIME:   0.008 TIME LEFT:  2.00D  GRAD.:     3.120 HEAT: -28.86567
 CYCLE:   100 TIME:   0.004 TIME LEFT:  2.00D  GRAD.:     4.313 HEAT: -28.90552
 CYCLE:   101 TIME:   0.004 TIME LEFT:  2.00D  GRAD.:     3.161 HEAT: -28.93857
 CYCLE:   102 TIME:   0.004 TIME LEFT:  2.00D  GRAD.:     3.849 HEAT: -28.97414
 CYCLE:   103 TIME:   0.004 TIME LEFT:  2.00D  GRAD.:     2.579 HEAT: -28.98391
 CYCLE:   104 TIME:   0.004 TIME LEFT:  2.00D  GRAD.:     1.715 HEAT: -28.99107
 CYCLE:   105 TIME:   0.004 TIME LEFT:  2.00D  GRAD.:     1.593 HEAT: -28.99633
 CYCLE:   106 TIME:   0.004 TIME LEFT:  2.00D  GRAD.:     1.381 HEAT: -29.00086
 CYCLE:   107 TIME:   0.008 TIME LEFT:  2.00D  GRAD.:     0.846 HEAT: -29.00325
 CYCLE:   108 TIME:   0.004 TIME LEFT:  2.00D  GRAD.:     0.559 HEAT: -29.00401
 CYCLE:   109 TIME:   0.004 TIME LEFT:  2.00D  GRAD.:     0.554 HEAT: -29.00449
 CYCLE:   110 TIME:   0.004 TIME LEFT:  2.00D  GRAD.:     0.595 HEAT: -29.00513
 CYCLE:   111 TIME:   0.004 TIME LEFT:  2.00D  GRAD.:     0.550 HEAT: -29.00592
 CYCLE:   112 TIME:   0.004 TIME LEFT:  2.00D  GRAD.:     0.546 HEAT: -29.00676
 CYCLE:   113 TIME:   0.004 TIME LEFT:  2.00D  GRAD.:     0.780 HEAT: -29.00767
 CYCLE:   114 TIME:   0.004 TIME LEFT:  2.00D  GRAD.:     0.615 HEAT: -29.00845
 CYCLE:   115 TIME:   0.004 TIME LEFT:  2.00D  GRAD.:     0.854 HEAT: -29.00933
 CYCLE:   116 TIME:   0.008 TIME LEFT:  2.00D  GRAD.:     0.800 HEAT: -29.01037
 CYCLE:   117 TIME:   0.004 TIME LEFT:  2.00D  GRAD.:     0.714 HEAT: -29.01151
 CYCLE:   118 TIME:   0.004 TIME LEFT:  2.00D  GRAD.:     0.560 HEAT: -29.01195
 CYCLE:   119 TIME:   0.004 TIME LEFT:  2.00D  GRAD.:     0.788 HEAT: -29.01308
 CYCLE:   120 TIME:   0.004 TIME LEFT:  2.00D  GRAD.:     0.546 HEAT: -29.01356
 CYCLE:   121 TIME:   0.004 TIME LEFT:  2.00D  GRAD.:     0.577 HEAT: -29.01446
 CYCLE:   122 TIME:   0.004 TIME LEFT:  2.00D  GRAD.:     0.509 HEAT: -29.01494
 CYCLE:   123 TIME:   0.004 TIME LEFT:  2.00D  GRAD.:     0.833 HEAT: -29.01545
 CYCLE:   124 TIME:   0.004 TIME LEFT:  2.00D  GRAD.:     1.286 HEAT: -29.01605
 CYCLE:   125 TIME:   0.004 TIME LEFT:  2.00D  GRAD.:     1.992 HEAT: -29.01717
 CYCLE:   126 TIME:   0.004 TIME LEFT:  2.00D  GRAD.:     1.143 HEAT: -29.01821
 CYCLE:   127 TIME:   0.008 TIME LEFT:  2.00D  GRAD.:     1.173 HEAT: -29.01886
 CYCLE:   128 TIME:   0.004 TIME LEFT:  2.00D  GRAD.:     0.632 HEAT: -29.02000
 CYCLE:   129 TIME:   0.004 TIME LEFT:  2.00D  GRAD.:     0.532 HEAT: -29.02069
 CYCLE:   130 TIME:   0.004 TIME LEFT:  2.00D  GRAD.:     0.604 HEAT: -29.02121
 CYCLE:   131 TIME:   0.004 TIME LEFT:  2.00D  GRAD.:     0.290 HEAT: -29.02155
 CYCLE:   132 TIME:   0.004 TIME LEFT:  2.00D  GRAD.:     0.315 HEAT: -29.02163
 CYCLE:   133 TIME:   0.004 TIME LEFT:  2.00D  GRAD.:     0.105 HEAT: -29.02168
 CYCLE:   134 TIME:   0.004 TIME LEFT:  2.00D  GRAD.:     0.112 HEAT: -29.02172
 CYCLE:   135 TIME:   0.008 TIME LEFT:  2.00D  GRAD.:     0.080 HEAT: -29.02173
 CYCLE:   136 TIME:   0.004 TIME LEFT:  2.00D  GRAD.:     0.104 HEAT: -29.02164
 CYCLE:   137 TIME:   0.004 TIME LEFT:  2.00D  GRAD.:     0.060 HEAT: -29.02174
 CYCLE:   138 TIME:   0.004 TIME LEFT:  2.00D  GRAD.:     0.063 HEAT: -29.02175
 CYCLE:   139 TIME:   0.004 TIME LEFT:  2.00D  GRAD.:     0.041 HEAT: -29.02174

     GRADIENT =  0.04088  IS LESS THAN CUTOFF =  0.05000



 -------------------------------------------------------------------------------
 pm3  precise nosym THREADS=1
 InChI=1S/C7H12O2/c1-6(9-8)7-4-2-3-5-7/h2,4,6-8H,3,5H2,1H3



     GEOMETRY OPTIMISED USING EIGENVECTOR FOLLOWING (EF).     
     SCF FIELD WAS ACHIEVED                                   


                              PM3 CALCULATION
                                                       MOPAC2016 (Version: 18.184L)
                                                       Sat Jun 15 14:05:00 2019
                                                       No. of days remaining =  18




          FINAL HEAT OF FORMATION =        -29.02174 KCAL/MOL =    -121.42697 KJ/MOL


          TOTAL ENERGY            =      -1599.58342 EV
          ELECTRONIC ENERGY       =      -7774.58809 EV  POINT GROUP:     C1  
          CORE-CORE REPULSION     =       6175.00467 EV
          COSMO AREA              =        169.99 SQUARE ANGSTROMS
          COSMO VOLUME            =        169.86 CUBIC ANGSTROMS

          GRADIENT NORM           =          0.04088 = 0.00892 PER ATOM
          IONIZATION POTENTIAL    =          9.689433 EV
          HOMO LUMO ENERGIES (EV) =         -9.689  0.990
          NO. OF FILLED LEVELS    =         26
          MOLECULAR WEIGHT        =        128.1706

          MOLECULAR DIMENSIONS (Angstroms)

            Atom       Atom       Distance
            H    21    H    15     7.27870
            H    19    H    18     5.29811
            H    10    H    14     2.97591


          SCF CALCULATIONS        =        153
 
          WALL-CLOCK TIME         =          0.660 SECONDS
          COMPUTATION TIME        =          0.608 SECONDS




   ATOM   CHEMICAL          X               Y               Z
  NUMBER   SYMBOL      (ANGSTROMS)     (ANGSTROMS)     (ANGSTROMS)
 
     1       O         -1.99998969  *  -0.93348313  *  -0.73210933  *
     2       O         -3.04139134  *  -1.43383675  *   0.24795105  *
     3       C          0.21861870  *  -0.10414839  *  -0.69884259  *
     4       C         -1.17191777  *  -0.02145699  *  -0.02535963  *
     5       C          1.19210149  *   0.97253215  *  -0.16842510  *
     6       C          2.35899275  *   0.22041201  *   0.48469711  *
     7       C         -1.75267100  *   1.38936334  *  -0.10437937  *
     8       C          0.89898525  *  -1.40633776  *  -0.37974145  *
     9       C          2.05941206  *  -1.22615116  *   0.25955712  *
    10       H          0.10191139  *  -0.00548181  *  -1.80432266  *
    11       H         -1.08112857  *  -0.32963201  *   1.04592293  *
    12       H          0.68404015  *   1.65598246  *   0.54417105  *
    13       H          1.54624145  *   1.61673084  *  -0.99304545  *
    14       H          2.44321280  *   0.43835402  *   1.56532916  *
    15       H          3.33235361  *   0.49642447  *   0.03930877  *
    16       H         -2.71736649  *   1.45630426  *   0.41317001  *
    17       H         -1.06080303  *   2.10356659  *   0.37075001  *
    18       H         -1.90878512  *   1.71480331  *  -1.14083545  *
    19       H          2.74265078  *  -2.00501631  *   0.59697562  *
    20       H          0.44739877  *  -2.35824678  *  -0.65927474  *
    21       H         -3.51131491  *  -1.94470528  *  -0.39031200  *

                             CARTESIAN COORDINATES

   1    O       -1.999989694    -0.933483130    -0.732109332
   2    O       -3.041391336    -1.433836750     0.247951045
   3    C        0.218618701    -0.104148393    -0.698842589
   4    C       -1.171917771    -0.021456987    -0.025359632
   5    C        1.192101490     0.972532149    -0.168425096
   6    C        2.358992753     0.220412013     0.484697112
   7    C       -1.752670995     1.389363345    -0.104379374
   8    C        0.898985246    -1.406337757    -0.379741455
   9    C        2.059412060    -1.226151160     0.259557120
  10    H        0.101911387    -0.005481809    -1.804322655
  11    H       -1.081128567    -0.329632014     1.045922930
  12    H        0.684040155     1.655982464     0.544171050
  13    H        1.546241447     1.616730843    -0.993045450
  14    H        2.443212800     0.438354021     1.565329163
  15    H        3.332353608     0.496424465     0.039308766
  16    H       -2.717366486     1.456304255     0.413170011
  17    H       -1.060803034     2.103566586     0.370750010
  18    H       -1.908785120     1.714803308    -1.140835448
  19    H        2.742650776    -2.005016308     0.596975621
  20    H        0.447398768    -2.358246784    -0.659274740
  21    H       -3.511314907    -1.944705284    -0.390312005


           Empirical Formula: C7 H12 O2  =    21 atoms



      MOLECULAR POINT GROUP   :   C1  


                  EIGENVALUES  
 -41.16776 -36.10300 -33.90182 -30.67029 -28.11946 -26.80942 -22.15877 -19.70746
 -18.70502 -17.96866 -17.56985 -16.85827 -15.98893 -15.24044 -14.53906 -14.21786
 -13.63512 -13.44401 -13.25273 -12.79517 -12.64439 -12.43709 -12.28664 -11.81084
 -11.05345  -9.68943   0.99010   1.19964   3.23053   3.38550   3.46287   3.55302
   3.63505   3.75473   3.90887   4.02976   4.10403   4.15966   4.25467   4.35376
   4.59994   4.63424   4.71556   4.94410   5.05039   5.29545   5.53181   5.94192


              NET ATOMIC CHARGES AND DIPOLE CONTRIBUTIONS

  ATOM NO.   TYPE          CHARGE      No. of ELECS.   s-Pop       p-Pop       
    1          O          -0.151653        6.1517     1.90632     4.24533
    2          O          -0.209610        6.2096     1.86506     4.34455
    3          C          -0.058582        4.0586     1.17864     2.87994
    4          C           0.073273        3.9267     1.17873     2.74799
    5          C          -0.107026        4.1070     1.17101     2.93602
    6          C          -0.064641        4.0646     1.15336     2.91128
    7          C          -0.151602        4.1516     1.14961     3.00199
    8          C          -0.149846        4.1498     1.20405     2.94579
    9          C          -0.150886        4.1509     1.20222     2.94866
   10          H           0.078386        0.9216     0.92161
   11          H           0.078205        0.9218     0.92179
   12          H           0.063156        0.9368     0.93684
   13          H           0.052683        0.9473     0.94732
   14          H           0.056339        0.9437     0.94366
   15          H           0.056836        0.9432     0.94316
   16          H           0.054667        0.9453     0.94533
   17          H           0.051903        0.9481     0.94810
   18          H           0.048796        0.9512     0.95120
   19          H           0.111942        0.8881     0.88806
   20          H           0.120091        0.8799     0.87991
   21          H           0.197569        0.8024     0.80243
 DIPOLE           X         Y         Z       TOTAL
 POINT-CHG.     0.614     0.531     0.134     0.822
 HYBRID        -0.236    -0.142    -0.263     0.381
 SUM            0.378     0.389    -0.129     0.557


          ATOMIC ORBITAL ELECTRON POPULATIONS

     Atom    s        px        py        pz   
    1  O   1.90632   1.40829   1.63310   1.20394
    2  O   1.86506   1.41980   1.71407   1.21069
    3  C   1.17864   0.93464   0.94336   1.00194
    4  C   1.17873   0.88379   0.89183   0.97238
    5  C   1.17101   0.96217   0.96828   1.00557
    6  C   1.15336   0.97457   0.93688   0.99983
    7  C   1.14961   1.01254   0.96711   1.02234
    8  C   1.20405   0.96818   0.97694   1.00068
    9  C   1.20222   0.97898   0.97103   0.99865
   10  H   0.92161
   11  H   0.92179
   12  H   0.93684
   13  H   0.94732
   14  H   0.94366
   15  H   0.94316
   16  H   0.94533
   17  H   0.94810
   18  H   0.95120
   19  H   0.88806
   20  H   0.87991
   21  H   0.80243
 *******************************************************************************
 ** Site#: 14399        For non-commercial use only    Version 18.184L 64BITS **
 *******************************************************************************
 ** Cite this program as: MOPAC2016, Version: 18.184L, James J. P. Stewart,   **
 ** Stewart Computational Chemistry, web: HTTP://OpenMOPAC.net. Days left:  18**
 *******************************************************************************
 **                                                                           **
 **                                MOPAC2016                                  **
 **                                                                           **
 *******************************************************************************

                              PM3 CALCULATION RESULTS

 *******************************************************************************
 *  CALCULATION DONE:                                Sat Jun 15 14:05:00 2019  *
 *  PM3        - The PM3 Hamiltonian to be used
 *  OLDGEO     - PREVIOUS GEOMETRY TO BE USED
 *  PRECISE    - CRITERIA TO BE INCREASED BY 100 TIMES
 *  NOSYM      - POINT-GROUP SYMMETRY SET TO C1
 *  THREADS=1  - MULTI-THREADING NOT USED
 *  T=         - A TIME OF 172800.0 SECONDS REQUESTED
 *  DUMP=N     - RESTART FILE WRITTEN EVERY  7200.000 SECONDS
 *  THERMO     - THERMODYNAMIC QUANTITIES TO BE CALCULATED
 *******************************************************************************
oldgeo thermo nosym precise THREADS=1  pm3
 InChI=1S/C7H12O2/c1-6(9-8)7-4-2-3-5-7/h2,4,6-8H,3,5H2,1H3

   ATOM   CHEMICAL          X               Y               Z
  NUMBER   SYMBOL      (ANGSTROMS)     (ANGSTROMS)     (ANGSTROMS)
 
     1       O         -1.99998969  *  -0.93348313  *  -0.73210933  *
     2       O         -3.04139134  *  -1.43383675  *   0.24795105  *
     3       C          0.21861870  *  -0.10414839  *  -0.69884259  *
     4       C         -1.17191777  *  -0.02145699  *  -0.02535963  *
     5       C          1.19210149  *   0.97253215  *  -0.16842510  *
     6       C          2.35899275  *   0.22041201  *   0.48469711  *
     7       C         -1.75267100  *   1.38936334  *  -0.10437937  *
     8       C          0.89898525  *  -1.40633776  *  -0.37974145  *
     9       C          2.05941206  *  -1.22615116  *   0.25955712  *
    10       H          0.10191139  *  -0.00548181  *  -1.80432266  *
    11       H         -1.08112857  *  -0.32963201  *   1.04592293  *
    12       H          0.68404015  *   1.65598246  *   0.54417105  *
    13       H          1.54624145  *   1.61673084  *  -0.99304545  *
    14       H          2.44321280  *   0.43835402  *   1.56532916  *
    15       H          3.33235361  *   0.49642447  *   0.03930877  *
    16       H         -2.71736649  *   1.45630426  *   0.41317001  *
    17       H         -1.06080303  *   2.10356659  *   0.37075001  *
    18       H         -1.90878512  *   1.71480331  *  -1.14083545  *
    19       H          2.74265078  *  -2.00501631  *   0.59697562  *
    20       H          0.44739877  *  -2.35824678  *  -0.65927474  *
    21       H         -3.51131491  *  -1.94470528  *  -0.39031200  *
 


          CARTESIAN COORDINATES 

    NO.       ATOM           X           Y           Z

     1         O         -2.0000     -0.9335     -0.7321
     2         O         -3.0414     -1.4338      0.2480
     3         C          0.2186     -0.1041     -0.6988
     4         C         -1.1719     -0.0215     -0.0254
     5         C          1.1921      0.9725     -0.1684
     6         C          2.3590      0.2204      0.4847
     7         C         -1.7527      1.3894     -0.1044
     8         C          0.8990     -1.4063     -0.3797
     9         C          2.0594     -1.2262      0.2596
    10         H          0.1019     -0.0055     -1.8043
    11         H         -1.0811     -0.3296      1.0459
    12         H          0.6840      1.6560      0.5442
    13         H          1.5462      1.6167     -0.9930
    14         H          2.4432      0.4384      1.5653
    15         H          3.3324      0.4964      0.0393
    16         H         -2.7174      1.4563      0.4132
    17         H         -1.0608      2.1036      0.3708
    18         H         -1.9088      1.7148     -1.1408
    19         H          2.7427     -2.0050      0.5970
    20         H          0.4474     -2.3582     -0.6593
    21         H         -3.5113     -1.9447     -0.3903

  H: (PM3): J. J. P. STEWART, J. COMP. CHEM. 10, 209 (1989).
  C: (PM3): J. J. P. STEWART, J. COMP. CHEM. 10, 209 (1989).
  O: (PM3): J. J. P. STEWART, J. COMP. CHEM. 10, 209 (1989).

           Empirical Formula: C7 H12 O2  =    21 atoms



      MOLECULAR POINT GROUP   :   C1  


      RHF CALCULATION, NO. OF DOUBLY OCCUPIED LEVELS = 26



          HEAT OF FORMATION =     -29.021742 KCALS/MOLE


          CARTESIAN COORDINATE DERIVATIVES

   NUMBER  ATOM         X            Y            Z

     1       O     -0.000463    -0.003496     0.009575
     2       O     -0.001697     0.023961     0.007963
     3       C      0.000272     0.000159    -0.000502
     4       C      0.002848    -0.003314    -0.002482
     5       C      0.000563     0.002222     0.003132
     6       C     -0.003414     0.002168     0.000389
     7       C      0.000762     0.000111     0.002441
     8       C      0.002710    -0.000384     0.000442
     9       C     -0.004591     0.002480     0.001510
    10       H     -0.001897     0.001514    -0.001409
    11       H      0.001861    -0.000741     0.003223
    12       H     -0.002792     0.000207    -0.003576
    13       H      0.000630     0.002353    -0.002737
    14       H     -0.004247    -0.001599    -0.003474
    15       H      0.006656    -0.003515     0.002608
    16       H      0.001031    -0.003727    -0.003254
    17       H     -0.000051     0.000012    -0.003203
    18       H     -0.000935     0.003034    -0.002412
    19       H     -0.002856     0.001095    -0.000039
    20       H     -0.000004     0.002298     0.001699
    21       H      0.005613    -0.024834    -0.009892
 


          GRADIENT NORM =   0.04258


          TIME FOR SCF CALCULATION =    0.00

          TIME FOR DERIVATIVES     =    0.00

          MOLECULAR WEIGHT =  128.17



          ROTATIONAL CONSTANTS IN CM(-1)

          A =    0.10084202   B =    0.03449531   C =    0.02814124



           PRINCIPAL MOMENTS OF INERTIA IN UNITS OF 10**(-40)*GRAM-CM**2

          A =      277.5904   B =      811.4952   C =      994.7244


          ORIENTATION OF MOLECULE IN FORCE CALCULATION

    NO.       ATOM         X         Y         Z

     1          O       1.0112   -1.6645   -0.0561
     2          O       2.5263   -1.6645   -0.0561
     3          C      -0.7661   -0.0986   -0.0561
     4          C       0.5980   -0.4622    0.5770
     5          C      -1.4477    1.0885    0.6611
     6          C      -1.5789    2.2084   -0.3793
     7          C       0.4802   -0.6733    2.0855
     8          C      -0.5973    0.3741   -1.4733
     9          C      -1.0409    1.6237   -1.6449
    10          H      -1.4336   -0.9928   -0.0383
    11          H       1.3304    0.3572    0.3696
    12          H      -0.8633    1.4092    1.5492
    13          H      -2.4373    0.7907    1.0515
    14          H      -1.0098    3.1122   -0.0936
    15          H      -2.6273    2.5343   -0.5089
    16          H       1.4560   -0.8861    2.5388
    17          H       0.0761    0.2367    2.5579
    18          H      -0.1905   -1.5053    2.3354
    19          H      -1.0351    2.1931   -2.5739
    20          H      -0.1534   -0.2719   -2.2308
    21          H       2.6051   -2.5249   -0.4338


    FIRST DERIVATIVES WILL BE USED IN THE CALCULATION OF SECOND DERIVATIVES

          ESTIMATED TIME TO COMPLETE CALCULATION =        1.97 SECONDS

    FOR POINT-GROUP C1   THERE ARE   1 UNIQUE SYMMETRY FUNCTIONS.

 STEP:   1 TIME =     0.02 SECS, INTEGRAL =      0.02 TIME LEFT: 172799.97
 STEP:   2 TIME =     0.02 SECS, INTEGRAL =      0.04 TIME LEFT: 172799.96
 STEP:   3 TIME =     0.02 SECS, INTEGRAL =      0.05 TIME LEFT: 172799.94
 STEP:   4 TIME =     0.02 SECS, INTEGRAL =      0.07 TIME LEFT: 172799.92
 STEP:   5 TIME =     0.02 SECS, INTEGRAL =      0.09 TIME LEFT: 172799.90
 STEP:   6 TIME =     0.02 SECS, INTEGRAL =      0.11 TIME LEFT: 172799.89
 STEP:   7 TIME =     0.02 SECS, INTEGRAL =      0.12 TIME LEFT: 172799.87
 STEP:   8 TIME =     0.02 SECS, INTEGRAL =      0.14 TIME LEFT: 172799.85
 STEP:   9 TIME =     0.02 SECS, INTEGRAL =      0.16 TIME LEFT: 172799.83
 STEP:  10 TIME =     0.02 SECS, INTEGRAL =      0.18 TIME LEFT: 172799.82
 STEP:  11 TIME =     0.02 SECS, INTEGRAL =      0.20 TIME LEFT: 172799.80
 STEP:  12 TIME =     0.02 SECS, INTEGRAL =      0.21 TIME LEFT: 172799.78
 STEP:  13 TIME =     0.02 SECS, INTEGRAL =      0.23 TIME LEFT: 172799.76
 STEP:  14 TIME =     0.02 SECS, INTEGRAL =      0.25 TIME LEFT: 172799.74
 STEP:  15 TIME =     0.02 SECS, INTEGRAL =      0.27 TIME LEFT: 172799.72
 STEP:  16 TIME =     0.02 SECS, INTEGRAL =      0.29 TIME LEFT: 172799.70
 STEP:  17 TIME =     0.02 SECS, INTEGRAL =      0.30 TIME LEFT: 172799.69
 STEP:  18 TIME =     0.02 SECS, INTEGRAL =      0.32 TIME LEFT: 172799.67
 STEP:  19 TIME =     0.02 SECS, INTEGRAL =      0.34 TIME LEFT: 172799.65
 STEP:  20 TIME =     0.02 SECS, INTEGRAL =      0.36 TIME LEFT: 172799.64
 STEP:  21 TIME =     0.02 SECS, INTEGRAL =      0.38 TIME LEFT: 172799.62
 STEP:  22 TIME =     0.02 SECS, INTEGRAL =      0.39 TIME LEFT: 172799.60
 STEP:  23 TIME =     0.02 SECS, INTEGRAL =      0.41 TIME LEFT: 172799.58
 STEP:  24 TIME =     0.02 SECS, INTEGRAL =      0.43 TIME LEFT: 172799.56
 STEP:  25 TIME =     0.02 SECS, INTEGRAL =      0.45 TIME LEFT: 172799.54
 STEP:  26 TIME =     0.02 SECS, INTEGRAL =      0.46 TIME LEFT: 172799.53
 STEP:  27 TIME =     0.02 SECS, INTEGRAL =      0.48 TIME LEFT: 172799.51
 STEP:  28 TIME =     0.02 SECS, INTEGRAL =      0.50 TIME LEFT: 172799.49
 STEP:  29 TIME =     0.02 SECS, INTEGRAL =      0.52 TIME LEFT: 172799.47
 STEP:  30 TIME =     0.02 SECS, INTEGRAL =      0.54 TIME LEFT: 172799.45
 STEP:  31 TIME =     0.02 SECS, INTEGRAL =      0.56 TIME LEFT: 172799.43
 STEP:  32 TIME =     0.02 SECS, INTEGRAL =      0.58 TIME LEFT: 172799.41
 STEP:  33 TIME =     0.02 SECS, INTEGRAL =      0.59 TIME LEFT: 172799.40
 STEP:  34 TIME =     0.02 SECS, INTEGRAL =      0.61 TIME LEFT: 172799.38
 STEP:  35 TIME =     0.02 SECS, INTEGRAL =      0.63 TIME LEFT: 172799.36
 STEP:  36 TIME =     0.02 SECS, INTEGRAL =      0.65 TIME LEFT: 172799.34
 STEP:  37 TIME =     0.02 SECS, INTEGRAL =      0.66 TIME LEFT: 172799.33
 STEP:  38 TIME =     0.02 SECS, INTEGRAL =      0.68 TIME LEFT: 172799.31
 STEP:  39 TIME =     0.02 SECS, INTEGRAL =      0.70 TIME LEFT: 172799.29
 STEP:  40 TIME =     0.02 SECS, INTEGRAL =      0.72 TIME LEFT: 172799.27
 STEP:  41 TIME =     0.02 SECS, INTEGRAL =      0.74 TIME LEFT: 172799.25
 STEP:  42 TIME =     0.02 SECS, INTEGRAL =      0.76 TIME LEFT: 172799.23
 STEP:  43 TIME =     0.02 SECS, INTEGRAL =      0.78 TIME LEFT: 172799.21
 STEP:  44 TIME =     0.02 SECS, INTEGRAL =      0.79 TIME LEFT: 172799.20
 STEP:  45 TIME =     0.02 SECS, INTEGRAL =      0.81 TIME LEFT: 172799.18
 STEP:  46 TIME =     0.02 SECS, INTEGRAL =      0.83 TIME LEFT: 172799.16
 STEP:  47 TIME =     0.02 SECS, INTEGRAL =      0.85 TIME LEFT: 172799.14
 STEP:  48 TIME =     0.02 SECS, INTEGRAL =      0.86 TIME LEFT: 172799.13
 STEP:  49 TIME =     0.02 SECS, INTEGRAL =      0.88 TIME LEFT: 172799.11
 STEP:  50 TIME =     0.02 SECS, INTEGRAL =      0.90 TIME LEFT: 172799.09
 STEP:  51 TIME =     0.02 SECS, INTEGRAL =      0.92 TIME LEFT: 172799.07
 STEP:  52 TIME =     0.02 SECS, INTEGRAL =      0.94 TIME LEFT: 172799.05
 STEP:  53 TIME =     0.02 SECS, INTEGRAL =      0.96 TIME LEFT: 172799.04
 STEP:  54 TIME =     0.02 SECS, INTEGRAL =      0.97 TIME LEFT: 172799.02
 STEP:  55 TIME =     0.02 SECS, INTEGRAL =      0.99 TIME LEFT: 172799.00
 STEP:  56 TIME =     0.02 SECS, INTEGRAL =      1.01 TIME LEFT: 172798.98
 STEP:  57 TIME =     0.02 SECS, INTEGRAL =      1.03 TIME LEFT: 172798.96
 STEP:  58 TIME =     0.02 SECS, INTEGRAL =      1.05 TIME LEFT: 172798.95
 STEP:  59 TIME =     0.02 SECS, INTEGRAL =      1.07 TIME LEFT: 172798.93
 STEP:  60 TIME =     0.02 SECS, INTEGRAL =      1.09 TIME LEFT: 172798.91
 STEP:  61 TIME =     0.02 SECS, INTEGRAL =      1.11 TIME LEFT: 172798.89
 STEP:  62 TIME =     0.02 SECS, INTEGRAL =      1.12 TIME LEFT: 172798.87
 STEP:  63 TIME =     0.02 SECS, INTEGRAL =      1.14 TIME LEFT: 172798.85

(To convert to Hartree/Bohr^2, multiply by (10^(-21) x N x a0^2)/(4.184 x 627.51) =  0.0642)


           FORCE MATRIX IN MILLIDYNES/ANGSTROM


                  O  1       O  2       C  3       C  4       C  5       C  6
 ------------------------------------------------------------------------------
     O    1   7.849189
     O    2   2.580719  10.107463
     C    3   0.830165   0.109560  14.340219
     C    4   4.758466   0.984501   3.316686  14.161685
     C    5   0.055496   0.017884   3.456597   0.535943  14.143972
     C    6   0.004918   0.003155   0.719453   0.035703   3.807528  14.697456
     C    7   0.884986   0.056726   0.575807   3.900535   0.093808   0.007487
     C    8   0.069244   0.005712   4.449536   0.619398   0.871487   1.182983
     C    9   0.006055   0.002790   1.139240   0.041571   0.896237   4.754865
     H   10   0.083854   0.003944   4.265402   0.457720   0.422949   0.028904
     H   11   0.442495   0.083905   0.425100   4.163134   0.011679   0.001340
     H   12   0.004338   0.001735   0.448791   0.071481   4.377696   0.437738
     H   13   0.005951   0.002247   0.441156   0.032007   4.573582   0.440358
     H   14   0.000985   0.000497   0.028264   0.002804   0.436802   4.518814
     H   15   0.000702   0.000662   0.029950   0.003606   0.436776   4.525605
     H   16   0.029959   0.006486   0.049630   0.463657   0.006908   0.000527
     H   17   0.066957   0.003526   0.025766   0.431632   0.101210   0.000918
     H   18   0.037010   0.002314   0.016284   0.482064   0.004052   0.000523
     H   19   0.001610   0.001014   0.118038   0.016659   0.043674   0.413784
     H   20   0.011565   0.003695   0.416856   0.018736   0.041626   0.117502
     H   21   1.077363   8.653988   0.019964   0.143638   0.003568   0.001064


                  C  7       C  8       C  9       H 10       H 11       H 12
 ------------------------------------------------------------------------------
     C    7  14.265252
     C    8   0.049689  18.368010
     C    9   0.009431  10.600241  18.379690
     H   10   0.012029   0.408054   0.038624   4.745538
     H   11   0.415733   0.028757   0.003854   0.040142   4.564550
     H   12   0.109111   0.028564   0.029821   0.025154   0.008846   5.063432
     H   13   0.002834   0.026919   0.026174   0.027213   0.001106   0.579518
     H   14   0.000723   0.037907   0.429244   0.003841   0.000461   0.030096
     H   15   0.000630   0.039523   0.432109   0.001114   0.000479   0.025095
     H   16   4.786964   0.009097   0.001733   0.001392   0.029036   0.001747
     H   17   4.594915   0.001844   0.001076   0.001490   0.027739   0.125591
     H   18   4.756743   0.001277   0.000801   0.007719   0.044991   0.001340
     H   19   0.003104   0.447696   5.019606   0.015096   0.000804   0.003243
     H   20   0.003287   5.015174   0.446952   0.014418   0.002909   0.003178
     H   21   0.007287   0.002135   0.001740   0.000702   0.008441   0.000549


                  H 13       H 14       H 15       H 16       H 17       H 18
 ------------------------------------------------------------------------------
     H   13   5.169695
     H   14   0.029205   5.124738
     H   15   0.028939   0.573643   5.130591
     H   16   0.000299   0.000134   0.000120   5.507697
     H   17   0.001436   0.000325   0.000351   0.547106   5.359882
     H   18   0.000672   0.000255   0.000179   0.569334   0.556544   5.490632
     H   19   0.002770   0.013940   0.014789   0.000533   0.000333   0.000115
     H   20   0.002698   0.016228   0.016157   0.000528   0.000767   0.000662
     H   21   0.000599   0.000216   0.000409   0.001845   0.001284   0.001525


                  H 19       H 20       H 21
 ------------------------------------------
     H   19   5.413943
     H   20   0.048465   5.407264
     H   21   0.000502   0.002845   8.994023


          HEAT OF FORMATION =     -29.021742 KCALS/MOLE

          ZERO POINT ENERGY     112.403 KCAL/MOL


           NORMAL COORDINATE ANALYSIS (Total motion = 1 Angstrom)


   Root No.       1         2         3         4         5         6         7         8

                 1 A       2 A       3 A       4 A       5 A       6 A       7 A       8 A   

                  40.9      63.4     103.1     167.1     190.5     230.1     251.2     338.2
  
           1    0.0035    0.0124    0.0065    0.0054   -0.0094   -0.0107    0.0041   -0.0268
           2    0.0091    0.0283    0.0046   -0.0097    0.0189    0.0150    0.0451   -0.0041
           3   -0.0339   -0.0400   -0.0101    0.0038   -0.0187   -0.0297   -0.0179   -0.0082
           4    0.0038    0.0132    0.0069    0.0059   -0.0115   -0.0114    0.0006   -0.0363
           5   -0.0678    0.0149    0.0042    0.0253   -0.0085    0.0133   -0.0363    0.0323
           6    0.0795    0.0473    0.0034   -0.0295   -0.0075    0.0053   -0.0249    0.0167
           7    0.0119   -0.0210    0.0119   -0.0001   -0.0046   -0.0220    0.0195    0.0134
           8    0.0098   -0.0081    0.0168    0.0004    0.0048   -0.0097    0.0096    0.0081
           9   -0.0155    0.0078    0.0099   -0.0061    0.0149    0.0139    0.0157   -0.0033
          10    0.0172   -0.0094    0.0032   -0.0017   -0.0009   -0.0123    0.0228   -0.0070
          11    0.0105    0.0045   -0.0084   -0.0062    0.0074    0.0004    0.0305   -0.0097
          12   -0.0266   -0.0098    0.0113   -0.0082    0.0097   -0.0052    0.0220    0.0131
          13    0.0021    0.0024    0.0440    0.0096   -0.0114   -0.0022   -0.0250   -0.0045
          14   -0.0072    0.0083    0.0355    0.0015    0.0092    0.0035   -0.0075   -0.0055
          15    0.0034    0.0036    0.0102    0.0028   -0.0009    0.0086   -0.0033   -0.0083
          16   -0.0432    0.0515   -0.0251    0.0027   -0.0105   -0.0126    0.0041    0.0092
          17   -0.0055    0.0169   -0.0001    0.0040   -0.0023   -0.0135   -0.0043   -0.0002
          18    0.0110    0.0068   -0.0195    0.0069   -0.0146   -0.0095   -0.0042   -0.0064
          19    0.0330   -0.0021   -0.0268   -0.0079    0.0195    0.0173   -0.0170    0.0448
          20    0.0170   -0.0264   -0.0408   -0.0086   -0.0151    0.0036   -0.0023   -0.0274
          21   -0.0246   -0.0135    0.0047   -0.0079    0.0073   -0.0048    0.0142    0.0139
          22    0.0001   -0.0493    0.0031   -0.0077    0.0136    0.0076    0.0134    0.0389
          23    0.0303   -0.0311    0.0004    0.0049   -0.0054   -0.0172   -0.0074    0.0153
          24   -0.0102   -0.0032    0.0042   -0.0053    0.0134    0.0154    0.0106   -0.0008
          25   -0.0312   -0.0091   -0.0230   -0.0100    0.0194    0.0473   -0.0112   -0.0304
          26    0.0211   -0.0169   -0.0113    0.0052   -0.0056   -0.0044   -0.0187   -0.0121
          27    0.0040   -0.0035   -0.0134    0.0010   -0.0005    0.0115   -0.0048   -0.0187
          28    0.0186   -0.0212   -0.0071   -0.0038   -0.0043   -0.0267    0.0397    0.0076
          29    0.0042   -0.0069    0.0309    0.0032    0.0048   -0.0051   -0.0069    0.0108
          30   -0.0260    0.0398    0.0201   -0.0071    0.0180    0.0235    0.0202   -0.0355
          31    0.0192   -0.0262    0.0110   -0.0010   -0.0072   -0.0230    0.0259   -0.0006
          32    0.0052    0.0225   -0.0079   -0.0063    0.0140    0.0088    0.0324   -0.0126
          33   -0.0389    0.0024    0.0411   -0.0064    0.0137   -0.0144    0.0498    0.0145
          34    0.0150   -0.0049    0.0966    0.0186   -0.0161    0.0234   -0.0695   -0.0219
          35    0.0028   -0.0149    0.0643   -0.0001    0.0151    0.0107   -0.0138   -0.0238
          36   -0.0087    0.0167   -0.0344   -0.0025   -0.0002   -0.0100    0.0281    0.0104
          37    0.0172   -0.0138    0.0700    0.0127   -0.0128    0.0048   -0.0405   -0.0132
          38   -0.0292    0.0343    0.0425    0.0035    0.0109    0.0189   -0.0252   -0.0131
          39    0.0246   -0.0172    0.0815    0.0123   -0.0030    0.0373   -0.0551   -0.0357
          40   -0.0737    0.1161   -0.0633    0.0083   -0.0324   -0.0683    0.0361    0.0613
          41    0.0130   -0.0198    0.0350    0.0016    0.0105    0.0171   -0.0232   -0.0270
          42    0.0133   -0.0052   -0.0550    0.0033   -0.0125    0.0025   -0.0075   -0.0232
          43   -0.0556    0.0699   -0.0430    0.0025   -0.0141   -0.0240    0.0146    0.0210
          44   -0.0418    0.0845   -0.0535    0.0076   -0.0227   -0.0664    0.0303    0.0485
          45    0.0190    0.0293   -0.0109    0.0182   -0.0378   -0.0541    0.0009    0.0277
          46    0.0368    0.0027   -0.0395   -0.0139    0.0528    0.0101   -0.0442    0.0578
          47    0.0120   -0.0164   -0.0677   -0.0350    0.1519   -0.0947   -0.0870   -0.0698
          48   -0.0351   -0.0191    0.0191   -0.0074    0.0145   -0.0359    0.0315   -0.0329
          49    0.0448   -0.0182   -0.0201    0.0150   -0.1362    0.1192    0.0347    0.0955
          50    0.0212   -0.0423   -0.0418   -0.0006   -0.0831    0.0450    0.0168   -0.0137
          51   -0.0225    0.0035    0.0126   -0.0039    0.0055    0.0031    0.0225    0.0307
          52    0.0303    0.0140   -0.0467   -0.0302    0.1614   -0.0590   -0.0863    0.0255
          53    0.0224   -0.0437   -0.0339    0.0081   -0.1307    0.0712    0.0421   -0.0047
          54   -0.0141   -0.0280   -0.0259   -0.0115    0.0024    0.0145   -0.0224    0.0358
          55   -0.0472   -0.0162   -0.0410   -0.0175    0.0402    0.1043   -0.0336   -0.0855
          56    0.0311   -0.0272   -0.0269    0.0070   -0.0091    0.0070   -0.0343   -0.0322
          57    0.0100   -0.0098   -0.0231    0.0021   -0.0025    0.0189   -0.0144   -0.0313
          58    0.0145   -0.0955    0.0122   -0.0102    0.0268    0.0149    0.0224    0.0843
          59    0.0494   -0.0552   -0.0027    0.0070   -0.0101   -0.0248   -0.0113    0.0314
          60   -0.0181   -0.0098    0.0121   -0.0089    0.0250    0.0260    0.0190    0.0120
          61   -0.0130    0.0265    0.0101    0.0214   -0.0241   -0.0024   -0.0514    0.0024
          62   -0.0646    0.0271    0.0150   -0.2584   -0.0319    0.0073   -0.0557    0.0358
          63    0.0686    0.0224   -0.0205    0.6211    0.0432    0.0211    0.0074    0.0172


   Root No.       9        10        11        12        13        14        15        16

                 9 A      10 A      11 A      12 A      13 A      14 A      15 A      16 A   

                 379.4     431.7     484.9     531.7     699.7     747.3     781.8     805.0
  
           1   -0.0221   -0.0021    0.0107    0.0048   -0.0233    0.0053   -0.0376    0.1006
           2    0.0319    0.0212    0.0202    0.0177   -0.0028   -0.0067   -0.0002   -0.0081
           3   -0.0119    0.0393   -0.0238    0.0386   -0.0003   -0.0041   -0.0015   -0.0019
           4   -0.0391   -0.0085    0.0367    0.0149    0.0346   -0.0069    0.0305   -0.0726
           5    0.0127   -0.0066   -0.0203   -0.0146   -0.0022    0.0018    0.0029   -0.0085
           6    0.0031   -0.0021   -0.0129   -0.0052   -0.0010    0.0010    0.0012   -0.0035
           7    0.0161    0.0044   -0.0321   -0.0408    0.0032   -0.0057    0.0197   -0.0027
           8   -0.0190   -0.0012   -0.0228   -0.0102    0.0593    0.0071    0.0263    0.0282
           9   -0.0259   -0.0211   -0.0193   -0.0071    0.0012    0.0152   -0.0242   -0.0225
          10   -0.0011    0.0039   -0.0444   -0.0250   -0.0256    0.0188   -0.0002   -0.0110
          11    0.0226    0.0268   -0.0349    0.0321   -0.0032   -0.0005    0.0013   -0.0099
          12    0.0027    0.0196    0.0343   -0.0191   -0.0031    0.0030    0.0012    0.0022
          13    0.0529    0.0074    0.0092   -0.0001   -0.0147   -0.0103   -0.0053   -0.0319
          14   -0.0343   -0.0104   -0.0031    0.0031    0.0055   -0.0138    0.0239    0.0327
          15    0.0132   -0.0161   -0.0123    0.0125    0.0557    0.0191   -0.0063    0.0318
          16    0.0207   -0.0059    0.0025    0.0055    0.0210   -0.0038   -0.0309   -0.0117
          17   -0.0365   -0.0011    0.0065   -0.0068   -0.0474   -0.0344    0.0138   -0.0043
          18    0.0264   -0.0062   -0.0030    0.0033    0.0075   -0.0171    0.0176    0.0128
          19   -0.0279    0.0314    0.0063    0.0033   -0.0033    0.0025    0.0022   -0.0003
          20    0.0305   -0.0384    0.0133   -0.0113    0.0008   -0.0007   -0.0037   -0.0024
          21    0.0054    0.0186    0.0563   -0.0317   -0.0002    0.0076    0.0068    0.0060
          22    0.0126   -0.0412    0.0016    0.0281    0.0093   -0.0294    0.0012    0.0167
          23   -0.0107   -0.0015    0.0149    0.0027    0.0032    0.0193   -0.0439   -0.0215
          24   -0.0257   -0.0333   -0.0113    0.0068   -0.0304    0.0034   -0.0461   -0.0459
          25    0.0026    0.0149   -0.0118   -0.0090    0.0151   -0.0066   -0.0115    0.0054
          26   -0.0105    0.0235    0.0119   -0.0132   -0.0000    0.0202   -0.0356   -0.0193
          27    0.0051   -0.0089   -0.0094   -0.0016   -0.0302   -0.0428    0.0400    0.0161
          28    0.0193    0.0204   -0.0538   -0.0463   -0.0276    0.0158    0.0048   -0.0303
          29   -0.0221   -0.0131   -0.0052   -0.0039    0.0807   -0.0083    0.0381    0.0522
          30   -0.0363   -0.0087   -0.0578   -0.0245   -0.0321    0.0285    0.0192   -0.0470
          31   -0.0023   -0.0050   -0.0703   -0.0585   -0.0036    0.0301    0.0384   -0.0484
          32    0.0270    0.0371   -0.0072    0.0561   -0.0219   -0.0116   -0.0305    0.0383
          33    0.0132    0.0346    0.0493   -0.0400   -0.0001    0.0031    0.0130    0.0540
          34    0.0909    0.0179    0.0536    0.0505   -0.0697    0.0320   -0.0062   -0.0112
          35   -0.0153   -0.0289   -0.0067   -0.0031    0.0002    0.0268    0.0200    0.0366
          36   -0.0175   -0.0149   -0.0388   -0.0166    0.0939   -0.0207   -0.0041    0.0180
          37    0.0760    0.0106    0.0186    0.0108   -0.0283    0.0135    0.0093   -0.0184
          38   -0.0346   -0.0134    0.0274    0.0396   -0.0178   -0.0003   -0.0226    0.0328
          39    0.0708   -0.0101    0.0328    0.0657    0.0110    0.0877   -0.0049    0.0660
          40    0.0145   -0.0518    0.0199    0.0467   -0.0162    0.1029    0.0519    0.0285
          41   -0.0317    0.0189   -0.0034   -0.0254   -0.0269   -0.0983   -0.0217   -0.0215
          42    0.0240    0.0181   -0.0045   -0.0161    0.0088   -0.0197   -0.0227   -0.0068
          43    0.0132   -0.0178    0.0053    0.0154    0.0103    0.0247   -0.0060    0.0082
          44   -0.0509   -0.0445    0.0227    0.0305   -0.0947    0.0650    0.1039    0.0465
          45    0.0526   -0.0264    0.0182    0.0256   -0.0282    0.0341    0.0514   -0.0174
          46   -0.0283    0.0409    0.0308    0.0169    0.0167   -0.0140    0.0075    0.0157
          47    0.0741   -0.0871    0.0396   -0.0361    0.0078   -0.0017   -0.0044    0.0155
          48    0.0266   -0.0231    0.0177   -0.0714   -0.0379    0.0412   -0.0040   -0.0175
          49   -0.0677    0.0588    0.0372    0.0124    0.0122   -0.0108    0.0060    0.0199
          50    0.0120   -0.0536    0.0438   -0.0380   -0.0000    0.0011   -0.0019    0.0179
          51    0.0065    0.0683    0.0262    0.0238    0.0143   -0.0064    0.0061   -0.0133
          52    0.0012    0.0229    0.0188    0.0128    0.0127   -0.0085    0.0063    0.0087
          53    0.0041   -0.0399    0.0322   -0.0290   -0.0023    0.0021   -0.0040    0.0095
          54   -0.0047   -0.0073    0.1433   -0.0608    0.0299   -0.0114    0.0160    0.0619
          55   -0.0189    0.0416   -0.0151   -0.0067   -0.0742    0.1637    0.1859    0.0046
          56    0.0107    0.0465    0.0172   -0.0115    0.0099    0.0929    0.0699    0.0272
          57    0.0181    0.0051   -0.0065   -0.0003   -0.0246    0.0024    0.1061    0.0443
          58    0.0065   -0.1110    0.0279    0.1175   -0.0753    0.0762    0.1089   -0.0101
          59   -0.0003   -0.0182    0.0368    0.0304   -0.0673    0.0391    0.0212   -0.0259
          60   -0.0378   -0.0595   -0.0145    0.0354   -0.0195    0.0487   -0.0393   -0.0585
          61   -0.0366   -0.0369   -0.0064   -0.0325    0.0032    0.0110    0.0014    0.0110
          62    0.0105   -0.0093   -0.0276   -0.0162   -0.0032    0.0033    0.0033   -0.0074
          63    0.0078   -0.0029   -0.0048   -0.0124   -0.0009    0.0010    0.0005   -0.0042


   Root No.      17        18        19        20        21        22        23        24

                17 A      18 A      19 A      20 A      21 A      22 A      23 A      24 A   

                 821.1     898.1     960.8     982.1     996.8    1009.3    1025.5    1060.1
  
           1   -0.0134   -0.0065   -0.0008    0.0078    0.0047   -0.0040   -0.0047   -0.0016
           2   -0.0012   -0.0080    0.0049   -0.0304   -0.0016   -0.0086    0.0047   -0.0020
           3   -0.0011   -0.0062    0.0046   -0.0200   -0.0005   -0.0051    0.0018   -0.0004
           4    0.0084    0.0018    0.0002    0.0010   -0.0014    0.0027    0.0011   -0.0003
           5    0.0020    0.0024    0.0000   -0.0019   -0.0009    0.0002    0.0006    0.0009
           6    0.0009    0.0011    0.0001   -0.0011   -0.0004   -0.0001    0.0002    0.0005
           7    0.0009   -0.0235    0.0133    0.0061   -0.0123    0.0075    0.0096   -0.0151
           8    0.0013   -0.0087    0.0094    0.0145    0.0052   -0.0244   -0.0213   -0.0008
           9   -0.0037   -0.0098    0.0029   -0.0022    0.0129    0.0103   -0.0094   -0.0097
          10    0.0111    0.0281   -0.0023   -0.0134   -0.0067    0.0001   -0.0000    0.0180
          11    0.0020    0.0052   -0.0027    0.0259   -0.0004    0.0093   -0.0041    0.0074
          12    0.0024    0.0005    0.0018   -0.0043   -0.0025    0.0023   -0.0025   -0.0041
          13   -0.0295   -0.0209   -0.0101    0.0016    0.0202   -0.0077    0.0099   -0.0117
          14   -0.0048    0.0093   -0.0063   -0.0092    0.0084    0.0116    0.0050   -0.0020
          15   -0.0050    0.0101   -0.0069   -0.0020   -0.0254    0.0036    0.0424    0.0026
          16   -0.0187    0.0208    0.0083   -0.0077   -0.0222    0.0077   -0.0205   -0.0084
          17    0.0000    0.0033    0.0020    0.0126   -0.0245   -0.0177    0.0061    0.0077
          18   -0.0037    0.0074    0.0034    0.0002    0.0030   -0.0107   -0.0225    0.0084
          19    0.0046    0.0160   -0.0130   -0.0142    0.0081   -0.0153    0.0020   -0.0102
          20   -0.0024    0.0021   -0.0090    0.0278   -0.0001    0.0053    0.0003   -0.0051
          21    0.0009    0.0208   -0.0147    0.0287    0.0075   -0.0010    0.0023    0.0007
          22    0.0189   -0.0068   -0.0261   -0.0088    0.0001    0.0132   -0.0244    0.0020
          23    0.0019   -0.0072   -0.0099   -0.0057   -0.0041    0.0104   -0.0031   -0.0037
          24    0.0016   -0.0253   -0.0049    0.0034   -0.0157   -0.0064   -0.0015   -0.0063
          25    0.0186   -0.0003    0.0118    0.0082    0.0274   -0.0094    0.0295    0.0213
          26    0.0023   -0.0012    0.0055   -0.0003    0.0153    0.0034    0.0107    0.0064
          27    0.0108    0.0015    0.0016   -0.0040    0.0053    0.0124    0.0147   -0.0099
          28    0.0169   -0.0121    0.0398    0.0306   -0.0631    0.0555    0.0204    0.0258
          29   -0.0106   -0.0142   -0.0104   -0.0046    0.0467   -0.0578   -0.0314   -0.0302
          30   -0.0340    0.0020    0.0549    0.0007    0.1760    0.1128   -0.0872    0.0162
          31    0.0252    0.0353    0.0288   -0.0126   -0.0363    0.0079   -0.0178    0.0762
          32   -0.0119   -0.0129   -0.0134    0.0190    0.0147    0.0090    0.0077   -0.0308
          33   -0.0017   -0.0339    0.0624   -0.0239   -0.0431    0.0264   -0.0182    0.0516
          34    0.0891    0.0199    0.0287    0.0314   -0.0293   -0.0015   -0.0596    0.0162
          35    0.0399   -0.0222    0.0209   -0.0509    0.0265    0.0109    0.0289   -0.0537
          36   -0.0946   -0.0046   -0.0404   -0.0038    0.0002   -0.0002    0.0764    0.0025
          37    0.0260   -0.0332    0.0146    0.0193    0.0110   -0.0342    0.0147   -0.0301
          38    0.0167    0.0905   -0.0138   -0.0338   -0.0308    0.0926   -0.0808    0.0699
          39    0.1428    0.0407    0.0464    0.0226   -0.0736   -0.0032   -0.0111    0.0152
          40    0.0624   -0.0514   -0.0198   -0.0070    0.0462    0.0251    0.0609   -0.0012
          41   -0.0616    0.0427   -0.0054   -0.0016   -0.0706   -0.0068   -0.0068    0.0420
          42    0.0404    0.0206    0.0824    0.0435    0.0207   -0.0804   -0.1425   -0.1143
          43    0.0207    0.0068    0.0161   -0.0009   -0.0104    0.0114    0.0018   -0.0479
          44    0.1082   -0.0614    0.0001    0.0296    0.0418   -0.0192    0.0670   -0.0329
          45   -0.0294   -0.0605   -0.0654   -0.0083    0.0827   -0.0477   -0.0327    0.2176
          46   -0.0082   -0.0408    0.0304    0.0251   -0.0167    0.0293   -0.0045    0.0144
          47   -0.0051   -0.0241    0.0313   -0.0516   -0.0149   -0.0028   -0.0043    0.0189
          48    0.0260    0.1258   -0.0844   -0.0897    0.0506   -0.0970    0.0134   -0.0365
          49   -0.0065   -0.0318    0.0288   -0.0012   -0.0146    0.0163   -0.0043    0.0183
          50    0.0007   -0.0142    0.0252   -0.0685   -0.0051   -0.0109   -0.0029    0.0079
          51   -0.0144    0.0115   -0.0433    0.2152   -0.0019    0.0541    0.0029    0.0007
          52   -0.0046   -0.0235    0.0170    0.0270   -0.0118    0.0205   -0.0029    0.0115
          53   -0.0005    0.0019    0.0034   -0.0367    0.0012   -0.0133    0.0000    0.0002
          54   -0.0165   -0.0762    0.0955   -0.0665   -0.0357    0.0302   -0.0103    0.0691
          55   -0.0843   -0.0768   -0.0808   -0.0041   -0.1401   -0.0257   -0.0646   -0.0200
          56   -0.0408    0.0062   -0.0299   -0.0512    0.0319    0.0807   -0.0909   -0.0449
          57   -0.0162    0.0048   -0.0206   -0.0348    0.0140    0.0583   -0.0489   -0.0414
          58   -0.1313    0.1062    0.1311    0.0418    0.0362   -0.0508    0.0485    0.0074
          59   -0.0537    0.0561    0.0460   -0.0195    0.0011    0.0773    0.1065   -0.0503
          60   -0.0392   -0.0133    0.0395    0.0440    0.0019   -0.0989   -0.0522    0.0349
          61    0.0030    0.0165   -0.0083    0.0457    0.0010    0.0124   -0.0081    0.0086
          62    0.0022    0.0046   -0.0006    0.0019   -0.0009    0.0011   -0.0001    0.0021
          63    0.0018    0.0015   -0.0006    0.0008   -0.0007    0.0012    0.0000    0.0007


   Root No.      25        26        27        28        29        30        31        32

                25 A      26 A      27 A      28 A      29 A      30 A      31 A      32 A   

                1080.1    1098.2    1104.2    1116.2    1123.0    1138.3    1175.8    1203.3
  
           1   -0.0006   -0.0055   -0.0023   -0.0088    0.0025   -0.0012    0.0016    0.0082
           2    0.0045   -0.0221    0.0003   -0.0191   -0.0042   -0.0116    0.0046   -0.0002
           3    0.0027   -0.0077   -0.0002   -0.0061   -0.0015   -0.0024    0.0030    0.0005
           4   -0.0005    0.0053    0.0005    0.0041    0.0001    0.0003    0.0003   -0.0007
           5    0.0003   -0.0018    0.0004   -0.0004   -0.0008   -0.0002   -0.0005   -0.0011
           6    0.0001   -0.0006    0.0001    0.0003   -0.0002    0.0002   -0.0002   -0.0006
           7   -0.0044    0.0082   -0.0032   -0.0021    0.0131   -0.0295    0.0219   -0.0189
           8   -0.0123    0.0008   -0.0108   -0.0119    0.0217    0.0171    0.0227    0.0095
           9   -0.0005    0.0069   -0.0027   -0.0074    0.0031   -0.0117   -0.0033   -0.0240
          10    0.0021   -0.0186    0.0022    0.0137   -0.0050    0.0194   -0.0220   -0.0380
          11    0.0001    0.0110   -0.0139    0.0308    0.0113    0.0183   -0.0137    0.0115
          12   -0.0139    0.0188    0.0264   -0.0183   -0.0119   -0.0127   -0.0011   -0.0181
          13   -0.0003   -0.0147    0.0114    0.0168   -0.0100    0.0104    0.0071    0.0063
          14   -0.0060   -0.0052    0.0137    0.0174    0.0049   -0.0210   -0.0275    0.0223
          15    0.0245   -0.0006    0.0035    0.0068   -0.0250   -0.0040    0.0046   -0.0054
          16   -0.0066    0.0130   -0.0147   -0.0142    0.0130    0.0024   -0.0122    0.0041
          17    0.0254    0.0110   -0.0103   -0.0081   -0.0271   -0.0019    0.0026   -0.0184
          18    0.0035    0.0038    0.0039    0.0021    0.0054   -0.0065   -0.0027    0.0103
          19   -0.0044    0.0169    0.0074   -0.0051   -0.0018   -0.0009    0.0083    0.0159
          20   -0.0093    0.0041    0.0193   -0.0181   -0.0096   -0.0032    0.0004   -0.0013
          21    0.0090   -0.0148   -0.0250    0.0129    0.0134    0.0022   -0.0082    0.0079
          22    0.0218    0.0016   -0.0023    0.0004   -0.0132    0.0028   -0.0048    0.0018
          23    0.0048   -0.0016   -0.0009    0.0002    0.0022    0.0071    0.0033    0.0102
          24   -0.0171   -0.0080   -0.0016    0.0029    0.0176    0.0108   -0.0028    0.0100
          25   -0.0059    0.0011    0.0037    0.0008    0.0013   -0.0070    0.0004   -0.0059
          26   -0.0034    0.0005    0.0003    0.0006   -0.0036   -0.0021    0.0045    0.0013
          27   -0.0241   -0.0055   -0.0085   -0.0052    0.0176    0.0179    0.0115    0.0122
          28    0.0059    0.0469   -0.0389    0.0431   -0.0174   -0.1292    0.0596    0.1604
          29   -0.0166   -0.0285    0.0163   -0.0462    0.0453    0.0941   -0.0042   -0.1264
          30    0.1794    0.0420   -0.0263   -0.0659   -0.0476    0.0503    0.0688    0.0488
          31   -0.0135   -0.1215    0.0424   -0.0714   -0.0419    0.0575   -0.0704    0.1136
          32    0.0007    0.1387   -0.0161    0.1254    0.0276    0.0300    0.0270   -0.1075
          33   -0.0611    0.1374    0.1540    0.0338   -0.0807    0.1541   -0.0123    0.0727
          34   -0.0140   -0.0037   -0.0167   -0.0239    0.0180    0.0196    0.0582   -0.0105
          35   -0.0226    0.0624   -0.0227    0.0016    0.0300   -0.0703   -0.1486    0.0465
          36    0.0406   -0.0314    0.0356    0.0389   -0.0520    0.0067    0.0151   -0.0040
          37    0.0142    0.0279   -0.0360   -0.0253   -0.0191    0.0214   -0.0491    0.0171
          38   -0.0478   -0.0775    0.1068    0.0771    0.0621   -0.0644    0.1508   -0.0491
          39    0.0328    0.0523   -0.0432   -0.0559   -0.0049   -0.0067   -0.0030   -0.0370
          40   -0.0383   -0.0174   -0.0062    0.0006    0.0135    0.0301    0.0211    0.0282
          41    0.0168    0.0461   -0.0519   -0.0439   -0.0298   -0.0004    0.0012   -0.0304
          42    0.0950   -0.0459    0.1206    0.0889    0.0075   -0.0737   -0.0704   -0.0045
          43   -0.0032   -0.0115   -0.0045    0.0048   -0.0083    0.0156    0.0034    0.0087
          44    0.0352   -0.0408    0.0315    0.0432   -0.0710   -0.0018    0.0291   -0.0296
          45   -0.0006    0.0703    0.0240   -0.0265    0.0754   -0.0975   -0.0620   -0.0389
          46   -0.0050   -0.0157    0.0060   -0.0051   -0.0031   -0.0030   -0.0212   -0.0191
          47    0.0123   -0.0026   -0.0088    0.0260   -0.0007    0.0183    0.0224   -0.0150
          48    0.0203    0.0483   -0.0336    0.0342    0.0186    0.0212    0.0639    0.0760
          49    0.0043   -0.0161   -0.0056    0.0115    0.0001    0.0112   -0.0038   -0.0114
          50    0.0066    0.0120   -0.0095    0.0204    0.0047    0.0054    0.0029   -0.0020
          51   -0.0125   -0.0535    0.0174   -0.0402   -0.0115    0.0002   -0.0194   -0.0126
          52   -0.0041   -0.0161    0.0061   -0.0068   -0.0041    0.0035   -0.0178   -0.0035
          53    0.0040    0.0142   -0.0023    0.0145    0.0009    0.0089    0.0157    0.0040
          54    0.0526   -0.0668   -0.0966    0.1085    0.0404    0.0489   -0.0246   -0.0216
          55    0.0850    0.0097    0.0354   -0.0080    0.0631    0.0140    0.0120    0.0287
          56   -0.1018   -0.0048   -0.0759    0.0114   -0.1314   -0.0342   -0.0354   -0.0613
          57   -0.0847   -0.0092   -0.0544    0.0015   -0.0575   -0.0006   -0.0126   -0.0240
          58   -0.0330    0.0050   -0.0077    0.0036   -0.0135   -0.0243    0.0127   -0.0125
          59    0.0443    0.0148    0.0515   -0.0516    0.1434    0.0304   -0.0321   -0.0239
          60   -0.0843   -0.0202   -0.0496    0.0476   -0.0997   -0.0225    0.0378    0.0317
          61   -0.0083    0.0271    0.0017    0.0311    0.0046    0.0274   -0.0195   -0.0049
          62   -0.0003    0.0006    0.0002    0.0035   -0.0003    0.0029   -0.0028   -0.0021
          63   -0.0004    0.0007    0.0014    0.0005   -0.0006    0.0013   -0.0014   -0.0011


   Root No.      33        34        35        36        37        38        39        40

                33 A      34 A      35 A      36 A      37 A      38 A      39 A      40 A   

                1238.3    1267.6    1294.3    1331.4    1352.8    1377.3    1398.2    1403.1
  
           1    0.0063    0.0021    0.0049    0.0038    0.0014    0.0010   -0.0001   -0.0003
           2   -0.0078   -0.0144   -0.0056   -0.0134   -0.0003   -0.0004   -0.0010   -0.0009
           3   -0.0034   -0.0103   -0.0023   -0.0091    0.0007    0.0003   -0.0016   -0.0010
           4   -0.0000    0.0001    0.0006    0.0011    0.0006    0.0006   -0.0005    0.0000
           5   -0.0014   -0.0015   -0.0012   -0.0027    0.0001    0.0002   -0.0007   -0.0005
           6   -0.0006   -0.0009   -0.0006   -0.0016    0.0001    0.0001   -0.0004   -0.0003
           7   -0.0240   -0.0304    0.0188    0.0377    0.0117    0.0114   -0.0039    0.0026
           8    0.0263    0.0091   -0.0139   -0.0297   -0.0147   -0.0214    0.0063   -0.0022
           9    0.0351    0.0095    0.0144   -0.0378    0.0382    0.0455   -0.0166   -0.0021
          10   -0.0170    0.0121   -0.0307   -0.0339   -0.0131   -0.0105    0.0030   -0.0019
          11    0.0204    0.0227    0.0290    0.0462    0.0081    0.0075    0.0007    0.0020
          12    0.0074    0.0645   -0.0160    0.0342   -0.0159   -0.0085    0.0217    0.0097
          13    0.0168    0.0148    0.0097   -0.0126   -0.0048   -0.0040    0.0034   -0.0034
          14   -0.0196   -0.0100   -0.0473    0.0236    0.0118    0.0137   -0.0030    0.0026
          15    0.0014   -0.0053    0.0118    0.0027   -0.0124   -0.0130   -0.0029    0.0063
          16   -0.0050   -0.0042    0.0020   -0.0015   -0.0146   -0.0041    0.0028    0.0041
          17    0.0157   -0.0050    0.0107   -0.0003   -0.0126    0.0143   -0.0075   -0.0050
          18   -0.0238    0.0179   -0.0131    0.0013    0.0740   -0.0047    0.0002   -0.0084
          19    0.0023   -0.0075    0.0071    0.0051    0.0017    0.0035    0.0174   -0.0264
          20   -0.0071   -0.0077   -0.0031   -0.0143   -0.0002    0.0010    0.0189    0.0178
          21   -0.0084   -0.0139    0.0122   -0.0098   -0.0031   -0.0162   -0.0353   -0.0220
          22    0.0044    0.0040    0.0015   -0.0078    0.0008    0.0035   -0.0018   -0.0007
          23   -0.0158    0.0094    0.0016   -0.0036   -0.0055    0.0059   -0.0009    0.0020
          24    0.0012   -0.0281   -0.0163    0.0299   -0.0056   -0.0351    0.0102   -0.0019
          25    0.0086   -0.0074   -0.0046    0.0055    0.0128   -0.0076    0.0011   -0.0021
          26   -0.0149    0.0100    0.0060   -0.0026   -0.0021    0.0134   -0.0027    0.0021
          27   -0.0078    0.0122    0.0096   -0.0152   -0.0448    0.0125   -0.0010    0.0056
          28    0.0730    0.0230   -0.0791   -0.0961   -0.0286   -0.0295    0.0085   -0.0057
          29   -0.0497   -0.0302    0.0574    0.0721    0.0126    0.0068   -0.0016    0.0048
          30   -0.0786   -0.0108   -0.0070    0.0474   -0.0559   -0.0528    0.0182    0.0050
          31    0.0531    0.0025    0.0842    0.0645    0.0284    0.0255   -0.0091   -0.0082
          32   -0.0485   -0.0193   -0.0629   -0.0690   -0.0169   -0.0177   -0.0031    0.0011
          33   -0.0080   -0.1285    0.0324   -0.0663    0.0296    0.0187   -0.0352   -0.0149
          34    0.0253   -0.0083   -0.0686   -0.0013    0.0777   -0.0158   -0.0319    0.0291
          35   -0.0854    0.0395    0.1916   -0.1079   -0.0167   -0.0691    0.0116   -0.0003
          36    0.0211   -0.0089   -0.0235    0.0456   -0.0614    0.0308    0.0175   -0.0169
          37    0.0096   -0.0003   -0.0472    0.0182   -0.0133    0.0292    0.0078   -0.0090
          38   -0.0099   -0.0012    0.1222   -0.0106   -0.0202   -0.0204    0.0133   -0.0145
          39   -0.0093   -0.0385   -0.0033    0.0627   -0.0719    0.0559    0.0275   -0.0287
          40   -0.0285    0.0247   -0.0425    0.0092   -0.0492    0.1095   -0.0416   -0.0223
          41    0.0060   -0.0014    0.0385   -0.0099    0.0779   -0.0749    0.0273    0.0085
          42    0.0574   -0.0550    0.0013    0.0060   -0.1209    0.0157   -0.0074    0.0086
          43   -0.0099    0.0106    0.0066   -0.0058    0.0372   -0.0373    0.0155    0.0063
          44    0.0336    0.0024    0.0483   -0.0137    0.1076   -0.1280    0.0479    0.0183
          45    0.0499   -0.0732    0.0174    0.0083   -0.0944   -0.0174    0.0060    0.0164
          46   -0.0115    0.0244   -0.0026   -0.0008   -0.0151   -0.0280   -0.0556   -0.1097
          47    0.0302    0.0254   -0.0346    0.0597   -0.0009   -0.0037   -0.1782   -0.1106
          48    0.0395   -0.0703    0.0143    0.0357    0.0357    0.0558    0.0328    0.1533
          49    0.0101    0.0133   -0.0211    0.0248    0.0005   -0.0119   -0.1814    0.1935
          50    0.0111    0.0328    0.0060    0.0235   -0.0113   -0.0362   -0.1067    0.0890
          51   -0.0310   -0.0758   -0.0318   -0.0578    0.0214    0.0543    0.0441    0.0053
          52   -0.0110   -0.0066    0.0051   -0.0284    0.0024   -0.0020    0.0240    0.2473
          53    0.0127   -0.0047   -0.0063    0.0175    0.0058    0.0244    0.0565   -0.1880
          54    0.0188   -0.0140   -0.0012   -0.0074    0.0252    0.0684    0.2046    0.0365
          55   -0.0463    0.0430    0.0083   -0.0204    0.0068    0.0217   -0.0041    0.0027
          56    0.0843   -0.0874   -0.0143    0.0475    0.0112   -0.0394    0.0065   -0.0068
          57    0.0517   -0.0466   -0.0034    0.0147   -0.0394   -0.0207    0.0052    0.0005
          58   -0.0136    0.0080    0.0131   -0.0065    0.0006    0.0183   -0.0050    0.0016
          59    0.1014   -0.0464   -0.0358    0.0136    0.0349   -0.0476    0.0104   -0.0080
          60   -0.1081    0.0213    0.0211    0.0160   -0.0416    0.0170   -0.0004    0.0080
          61    0.0163    0.0534    0.0105    0.0515   -0.0114   -0.0104    0.0200    0.0109
          62   -0.0001    0.0040   -0.0003    0.0026   -0.0014   -0.0010    0.0015    0.0006
          63    0.0000    0.0022   -0.0007    0.0012   -0.0006   -0.0007    0.0009    0.0006


   Root No.      41        42        43        44        45        46        47        48

                41 A      42 A      43 A      44 A      45 A      46 A      47 A      48 A   

                1409.3    1422.2    1445.5    1483.5    1830.9    2840.5    2896.6    2954.9
  
           1    0.0000    0.0002   -0.0005   -0.0215    0.0000    0.0007   -0.0005   -0.0000
           2    0.0003    0.0007    0.0009    0.0486    0.0004    0.0013    0.0002    0.0000
           3    0.0002    0.0008   -0.0000    0.0240   -0.0001    0.0005   -0.0000    0.0000
           4   -0.0001    0.0003   -0.0001   -0.0230   -0.0001    0.0002    0.0000   -0.0000
           5    0.0000    0.0007    0.0002   -0.0351   -0.0001   -0.0007   -0.0000   -0.0000
           6    0.0000    0.0003    0.0001   -0.0151   -0.0000   -0.0003   -0.0000   -0.0000
           7   -0.0043   -0.0042   -0.0067    0.0052   -0.0029    0.0021   -0.0370   -0.0017
           8    0.0090    0.0019    0.0087    0.0008    0.0151    0.0043   -0.0507   -0.0026
           9   -0.0098    0.0110   -0.0166    0.0098   -0.0115   -0.0004    0.0016   -0.0002
          10    0.0018    0.0016    0.0061   -0.0078   -0.0009   -0.0456   -0.0042    0.0001
          11   -0.0022   -0.0036   -0.0067   -0.0234    0.0001   -0.0500   -0.0033   -0.0004
          12   -0.0035   -0.0072    0.0105   -0.0212   -0.0041    0.0130    0.0005   -0.0001
          13    0.0111    0.0103    0.0059   -0.0009   -0.0020   -0.0003    0.0053   -0.0352
          14   -0.0149    0.0065   -0.0159    0.0007    0.0004    0.0000    0.0014   -0.0148
          15   -0.0124   -0.0404   -0.0055   -0.0036    0.0079   -0.0001    0.0014   -0.0187
          16   -0.0188    0.0080   -0.0052   -0.0002    0.0083    0.0000   -0.0004    0.0129
          17    0.0293   -0.0247    0.0103   -0.0003   -0.0159   -0.0000    0.0001    0.0050
          18    0.0309    0.0041    0.0142    0.0016   -0.0083    0.0000   -0.0001    0.0032
          19   -0.0027   -0.0046   -0.0025    0.0013   -0.0000    0.0011   -0.0000    0.0010
          20    0.0083   -0.0015   -0.0129    0.0002   -0.0001    0.0014    0.0002   -0.0023
          21    0.0139    0.0061   -0.0325    0.0023    0.0011    0.0009    0.0001   -0.0006
          22    0.0008   -0.0006   -0.0002    0.0003    0.0733   -0.0003   -0.0002   -0.0000
          23   -0.0109    0.0041   -0.0052    0.0002   -0.2200    0.0001   -0.0002    0.0000
          24    0.0172   -0.0045    0.0123   -0.0030    0.0548   -0.0004    0.0008    0.0001
          25    0.0105   -0.0034    0.0045   -0.0000   -0.0856    0.0000   -0.0003   -0.0001
          26   -0.0110    0.0041   -0.0062    0.0004    0.2225   -0.0001    0.0003   -0.0000
          27   -0.0261    0.0075   -0.0105   -0.0000   -0.0049   -0.0000   -0.0002    0.0000
          28    0.0150    0.0167    0.0136    0.0169    0.0121   -0.0328    0.4616    0.0199
          29   -0.0058   -0.0145   -0.0063   -0.0094   -0.0025   -0.0514    0.6079    0.0305
          30    0.0045   -0.0181    0.0147   -0.0045   -0.0315    0.0034   -0.0112    0.0005
          31   -0.0062   -0.0016   -0.0115   -0.0156   -0.0001    0.5450    0.0400    0.0018
          32    0.0064    0.0031    0.0005   -0.0112    0.0017    0.5895    0.0381    0.0011
          33    0.0017    0.0101   -0.0170    0.0105   -0.0008   -0.1610   -0.0090   -0.0005
          34   -0.0857   -0.1834   -0.0737   -0.0060    0.0047   -0.0003   -0.0243    0.2128
          35    0.0333   -0.0534    0.1297   -0.0034    0.0011    0.0009   -0.0106    0.1169
          36    0.0413    0.1321    0.0005    0.0025    0.0049    0.0017   -0.0334    0.3209
          37    0.0114    0.0796   -0.0043    0.0027   -0.0051    0.0004   -0.0350    0.2097
          38    0.0610    0.0347    0.0430    0.0041   -0.0026    0.0005   -0.0150    0.0606
          39    0.0647    0.2069    0.0207    0.0105   -0.0000    0.0000    0.0134   -0.0933
          40    0.1217   -0.0951    0.0306   -0.0001    0.0098   -0.0001    0.0021   -0.0566
          41   -0.0563    0.0631   -0.0079    0.0011   -0.0041   -0.0001    0.0032   -0.0898
          42   -0.0197   -0.0327   -0.0089   -0.0026   -0.0314   -0.0001    0.0013   -0.0311
          43   -0.0401    0.0411   -0.0096    0.0003    0.0104   -0.0000    0.0011   -0.0996
          44   -0.1126    0.1115   -0.0278    0.0005   -0.0052   -0.0000   -0.0001    0.0309
          45   -0.0628    0.0023   -0.0196   -0.0014   -0.0349    0.0000   -0.0005   -0.0102
          46   -0.0020    0.0037   -0.0200    0.0019    0.0002   -0.0096   -0.0009   -0.0048
          47   -0.0891    0.0178    0.1596    0.0082   -0.0005    0.0012    0.0002   -0.0005
          48   -0.0348   -0.0004    0.1093    0.0029    0.0001    0.0002   -0.0000   -0.0030
          49   -0.0234    0.0399    0.1256    0.0051   -0.0006    0.0033    0.0012   -0.0130
          50    0.0362    0.0235   -0.0575   -0.0034    0.0003   -0.0097   -0.0028    0.0262
          51   -0.0785   -0.0064    0.2054    0.0112   -0.0006   -0.0004   -0.0006    0.0103
          52    0.0568    0.0116   -0.0471   -0.0063    0.0000   -0.0097   -0.0008    0.0039
          53   -0.0504   -0.0213    0.0462    0.0008   -0.0002   -0.0119    0.0000    0.0028
          54   -0.0174   -0.0312    0.0350   -0.0186    0.0000   -0.0017   -0.0011   -0.0015
          55   -0.0178    0.0099   -0.0085    0.0016    0.0246    0.0001   -0.0007    0.0001
          56    0.0423   -0.0214    0.0185   -0.0017    0.0427   -0.0002    0.0022   -0.0003
          57    0.0051   -0.0070    0.0045   -0.0014   -0.1666    0.0004   -0.0036    0.0008
          58   -0.0082    0.0008   -0.0055    0.0018    0.0603   -0.0005    0.0015   -0.0002
          59    0.0373   -0.0056    0.0182   -0.0010   -0.0609    0.0006   -0.0051    0.0003
          60   -0.0296    0.0057   -0.0106   -0.0014   -0.1539    0.0004   -0.0032    0.0006
          61   -0.0007   -0.0160   -0.0014    0.7283    0.0007    0.0006    0.0001    0.0000
          62   -0.0001   -0.0012    0.0002    0.0549    0.0000   -0.0014   -0.0000   -0.0000
          63    0.0002   -0.0005   -0.0001    0.0203   -0.0000   -0.0006   -0.0000    0.0000


   Root No.      49        50        51        52        53        54        55        56

                49 A      50 A      51 A      52 A      53 A      54 A      55 A      56 A   

                2978.8    3049.7    3055.8    3059.5    3090.7    3113.8    3133.0    3172.5
  
           1   -0.0000    0.0000    0.0000   -0.0000   -0.0001    0.0000   -0.0000   -0.0000
           2    0.0000   -0.0001   -0.0000    0.0001   -0.0000   -0.0000    0.0000    0.0001
           3    0.0000   -0.0001   -0.0001    0.0002    0.0000    0.0000   -0.0000   -0.0001
           4   -0.0000    0.0000    0.0000   -0.0000    0.0000   -0.0000    0.0000   -0.0000
           5   -0.0000    0.0000    0.0000   -0.0000   -0.0000    0.0000    0.0000   -0.0000
           6   -0.0000   -0.0000   -0.0000    0.0000   -0.0000    0.0000   -0.0000   -0.0000
           7   -0.0004   -0.0006   -0.0000   -0.0003    0.0001    0.0001   -0.0000    0.0000
           8   -0.0007    0.0000   -0.0003   -0.0000   -0.0001   -0.0000   -0.0010   -0.0001
           9   -0.0001    0.0003    0.0002    0.0001    0.0003    0.0003    0.0004    0.0001
          10    0.0000    0.0001    0.0001   -0.0002   -0.0008   -0.0000   -0.0000    0.0000
          11   -0.0001    0.0001    0.0002   -0.0005   -0.0007   -0.0000    0.0000    0.0001
          12   -0.0000    0.0001    0.0000   -0.0001    0.0002    0.0001   -0.0001   -0.0009
          13   -0.0113   -0.0159   -0.0031   -0.0062   -0.0000    0.0001   -0.0006    0.0003
          14   -0.0049   -0.0032   -0.0003   -0.0006   -0.0001   -0.0001    0.0000    0.0001
          15   -0.0071    0.0194    0.0026    0.0117   -0.0004   -0.0001    0.0015    0.0006
          16   -0.0415    0.0020   -0.0109   -0.0025   -0.0000   -0.0000   -0.0010    0.0000
          17   -0.0151   -0.0075    0.0260    0.0054    0.0000    0.0001    0.0021    0.0000
          18   -0.0107   -0.0008    0.0034    0.0008   -0.0000   -0.0001    0.0004   -0.0000
          19    0.0005   -0.0051   -0.0041    0.0093   -0.0527   -0.0000    0.0000   -0.0033
          20   -0.0011    0.0145    0.0122   -0.0285   -0.0167    0.0000   -0.0001    0.0120
          21   -0.0003    0.0031    0.0025   -0.0057   -0.0051   -0.0000   -0.0000   -0.0233
          22   -0.0002   -0.0000   -0.0001   -0.0001    0.0000   -0.0165    0.0164    0.0000
          23   -0.0001    0.0001    0.0001    0.0001    0.0000    0.0243   -0.0268   -0.0000
          24   -0.0000   -0.0000    0.0003    0.0001   -0.0000    0.0280   -0.0234   -0.0000
          25   -0.0001    0.0001   -0.0002   -0.0000   -0.0000    0.0004   -0.0019   -0.0000
[...]
 T-DIPOLE    0.4325         C  4 -- H 11         +12.6% ( 52.0%)      0.2%
 TRAVEL      0.0789         C  3 -- H 10         +11.4% ( 49.6%)      0.0%
 RED. MASS   1.6224         O  1 -- C  4         +10.7% ( 48.1%)     95.4%
 EFF. MASS   8.1310         C  3 -- C  8         +10.5% ( 47.7%)     50.2%

 VIBRATION   37   37A         ATOM PAIR      ENERGY CONTRIBUTION    RADIAL
 FREQ.      1352.82         C  6 -- C  9         +20.9% ( 65.2%)     75.5%
 T-DIPOLE    0.0760         C  6 -- H 14         +16.4% ( 57.7%)      0.0%
 TRAVEL      0.0802         C  6 -- H 15         +16.1% ( 57.2%)      0.0%
 RED. MASS   1.8031         C  5 -- C  6         +12.2% ( 49.9%)     70.0%
 EFF. MASS   7.7431

 VIBRATION   38   38A         ATOM PAIR      ENERGY CONTRIBUTION    RADIAL
 FREQ.      1377.35         C  3 -- C  8         +19.3% ( 57.1%)     95.8%
 T-DIPOLE    0.0737         C  3 -- H 10         +11.3% ( 43.8%)      1.3%
 TRAVEL      0.0905         C  3 -- C  5         +11.1% ( 43.4%)      0.9%
 RED. MASS   0.8975         C  3 -- C  4         +11.1% ( 43.3%)     55.0%
 EFF. MASS   5.9785

 VIBRATION   39   39A         ATOM PAIR      ENERGY CONTRIBUTION    RADIAL
 FREQ.      1398.16         C  7 -- H 17         +24.9% ( 52.2%)      0.3%
 T-DIPOLE    0.1227         C  7 -- H 18         +23.9% ( 51.1%)      9.8%
 TRAVEL      0.1273         C  7 -- H 16         +21.0% ( 47.9%)      0.1%
 RED. MASS   0.4154         C  4 -- C  7         +11.2% ( 34.9%)     94.8%
 EFF. MASS   2.9764

 VIBRATION   40   40A         ATOM PAIR      ENERGY CONTRIBUTION    RADIAL
 FREQ.      1403.13         C  7 -- H 18         +42.3% ( 59.8%)      0.0%
 T-DIPOLE    0.1211         C  7 -- H 17         +22.1% ( 43.2%)      2.5%
 TRAVEL      0.1577         C  7 -- H 16         +21.5% ( 42.6%)     15.1%
 RED. MASS   0.3798         C  4 -- C  7          +6.9% ( 24.1%)     53.7%
 EFF. MASS   1.9316

 VIBRATION   41   41A         ATOM PAIR      ENERGY CONTRIBUTION    RADIAL
 FREQ.      1409.29         C  6 -- C  9         +17.0% ( 50.7%)     97.1%
 T-DIPOLE    0.0791         C  6 -- H 14         +15.0% ( 47.6%)      5.6%
 TRAVEL      0.0970         C  6 -- H 15         +14.9% ( 47.4%)      5.9%
 RED. MASS   0.6144         C  5 -- C  6         +11.0% ( 40.7%)      0.6%
 EFF. MASS   5.0817

 VIBRATION   42   42A         ATOM PAIR      ENERGY CONTRIBUTION    RADIAL
 FREQ.      1422.15         C  5 -- H 12         +27.6% ( 55.0%)      5.0%
 T-DIPOLE    0.0182         C  5 -- H 13         +25.6% ( 53.0%)      5.2%
 TRAVEL      0.1266         C  5 -- C  6         +11.5% ( 35.6%)     94.1%
 RED. MASS   0.4094         C  3 -- C  5          +8.3% ( 30.3%)     24.8%
 EFF. MASS   2.9606

 VIBRATION   43   43A         ATOM PAIR      ENERGY CONTRIBUTION    RADIAL
 FREQ.      1445.48         C  7 -- H 17         +30.3% ( 57.3%)      4.9%
 T-DIPOLE    0.0722         C  7 -- H 16         +18.5% ( 44.8%)      1.9%
 TRAVEL      0.1269         C  5 -- H 12         +11.3% ( 35.0%)      0.9%
 RED. MASS   0.3284         C  7 -- H 18          +7.0% ( 27.5%)      0.4%
 EFF. MASS   2.8970

 VIBRATION   44   44A         ATOM PAIR      ENERGY CONTRIBUTION    RADIAL
 FREQ.      1483.54         O  2 -- H 21         +85.3% ( 91.7%)      2.8%
 T-DIPOLE    0.4118         O  1 -- C  4          +5.7% ( 23.6%)     98.3%
 TRAVEL      0.1324         O  1 -- O  2          +4.9% ( 22.0%)      0.0%
 RED. MASS   0.8707         C  3 -- C  4          +1.4% ( 11.5%)     19.9%
 EFF. MASS   2.5943

 VIBRATION   45   45A         ATOM PAIR      ENERGY CONTRIBUTION    RADIAL
 FREQ.      1830.89         C  8 -- C  9         +45.9% (100.2%)    100.0%
 T-DIPOLE    0.1067         C  3 -- C  8         +13.9% ( 55.2%)     25.0%
 TRAVEL      0.0557         C  6 -- C  9         +13.9% ( 55.1%)     25.8%
 RED. MASS   5.3935         C  8 -- H 20         +13.0% ( 53.3%)     10.0%
 EFF. MASS  11.8833         C  9 -- H 19         +12.9% ( 53.2%)      9.6%

 VIBRATION   46   46A         ATOM PAIR      ENERGY CONTRIBUTION    RADIAL
 FREQ.      2840.46         C  4 -- H 11         +95.9% ( 99.7%)    100.0%
 T-DIPOLE    0.0854         C  3 -- C  4          +1.2% ( 10.9%)     10.5%
 TRAVEL      0.1272         O  1 -- C  4          +1.1% ( 10.9%)     12.1%
 RED. MASS   0.9184         C  4 -- C  7          +1.1% ( 10.8%)     10.3%
 EFF. MASS   1.4667

 VIBRATION   47   47A         ATOM PAIR      ENERGY CONTRIBUTION    RADIAL
 FREQ.      2896.65         C  3 -- H 10         +95.8% ( 99.4%)    100.0%
 T-DIPOLE    0.1326         C  3 -- C  5          +1.0% ( 10.4%)     10.0%
 TRAVEL      0.1271         C  3 -- C  8          +1.0% ( 10.2%)     11.0%
 RED. MASS   0.9085         C  3 -- C  4          +1.0% ( 10.2%)      9.1%
 EFF. MASS   1.4416

 VIBRATION   48   48A         ATOM PAIR      ENERGY CONTRIBUTION    RADIAL
 FREQ.      2954.93         C  5 -- H 12         +63.1% ( 82.5%)     98.4%
 T-DIPOLE    0.0962         C  5 -- H 13         +24.2% ( 51.0%)     92.3%
 TRAVEL      0.1221         C  6 -- H 14          +5.0% ( 23.2%)     96.5%
 RED. MASS   0.4950         C  6 -- H 15          +4.5% ( 22.0%)     95.8%
 EFF. MASS   1.5319

 VIBRATION   49   49A         ATOM PAIR      ENERGY CONTRIBUTION    RADIAL
 FREQ.      2978.77         C  6 -- H 14         +45.1% ( 69.5%)     96.7%
 T-DIPOLE    0.0675         C  6 -- H 15         +43.5% ( 68.3%)     96.6%
 TRAVEL      0.1217         C  5 -- H 12          +7.3% ( 27.9%)     99.0%
 RED. MASS   0.4292         C  5 -- H 13          +1.9% ( 14.1%)     90.6%
 EFF. MASS   1.5285

 VIBRATION   50   50A         ATOM PAIR      ENERGY CONTRIBUTION    RADIAL
 FREQ.      3049.69         C  5 -- H 13         +56.8% ( 75.1%)     99.6%
 T-DIPOLE    0.0806         C  5 -- H 12         +16.1% ( 40.0%)     90.3%
 TRAVEL      0.1288         C  7 -- H 17         +15.6% ( 39.4%)     99.4%
 RED. MASS   0.3704         C  6 -- H 14          +4.1% ( 20.3%)     98.2%
 EFF. MASS   1.3332

 VIBRATION   51   51A         ATOM PAIR      ENERGY CONTRIBUTION    RADIAL
 FREQ.      3055.76         C  6 -- H 15         +44.2% ( 65.9%)     97.8%
 T-DIPOLE    0.1214         C  6 -- H 14         +41.2% ( 63.6%)     97.4%
 TRAVEL      0.1300         C  7 -- H 17          +9.3% ( 30.2%)     99.4%
 RED. MASS   0.3792         C  5 -- H 13          +1.5% ( 12.1%)     99.9%
 EFF. MASS   1.3053

 VIBRATION   52   52A         ATOM PAIR      ENERGY CONTRIBUTION    RADIAL
 FREQ.      3059.50         C  7 -- H 17         +58.9% ( 77.9%)     99.4%
 T-DIPOLE    0.0687         C  5 -- H 13         +13.9% ( 37.9%)     98.8%
 TRAVEL      0.1240         C  7 -- H 18          +8.6% ( 29.7%)     80.4%
 RED. MASS   0.3819         C  5 -- H 12          +7.9% ( 28.5%)     95.4%
 EFF. MASS   1.4333

 VIBRATION   53   53A         ATOM PAIR      ENERGY CONTRIBUTION    RADIAL
 FREQ.      3090.67         C  7 -- H 18         +49.0% ( 72.2%)     96.8%
 T-DIPOLE    0.0917         C  7 -- H 16         +48.6% ( 72.0%)     97.2%
 TRAVEL      0.1203         C  7 -- H 17          +1.4% ( 12.1%)      9.4%
 RED. MASS   0.5061         C  4 -- C  7          +1.0% ( 10.4%)      0.0%
 EFF. MASS   1.5074

 VIBRATION   54   54A         ATOM PAIR      ENERGY CONTRIBUTION    RADIAL
 FREQ.      3113.80         C  8 -- H 20         +53.7% ( 74.4%)    100.0%
 T-DIPOLE    0.3923         C  9 -- H 19         +43.7% ( 67.2%)    100.0%
 TRAVEL      0.1217         C  8 -- C  9          +1.1% ( 10.7%)      0.3%
 RED. MASS   0.4698         C  3 -- C  8          +0.8% (  9.1%)     25.4%
 EFF. MASS   1.4633

 VIBRATION   55   55A         ATOM PAIR      ENERGY CONTRIBUTION    RADIAL
 FREQ.      3132.97         C  9 -- H 19         +52.7% ( 73.9%)     99.9%
 T-DIPOLE    0.3684         C  8 -- H 20         +42.8% ( 66.7%)     99.9%
 TRAVEL      0.1141         C  8 -- C  9          +2.5% ( 16.1%)     99.7%
 RED. MASS   0.4709         C  6 -- C  9          +1.0% ( 10.3%)     21.1%
 EFF. MASS   1.6520

 VIBRATION   56   56A         ATOM PAIR      ENERGY CONTRIBUTION    RADIAL
 FREQ.      3172.47         C  7 -- H 16         +45.3% ( 65.1%)     98.2%
 T-DIPOLE    0.0866         C  7 -- H 18         +39.7% ( 60.9%)     97.5%
 TRAVEL      0.1360         C  7 -- H 17         +14.7% ( 37.0%)     89.9%
 RED. MASS   0.3716         C  4 -- C  7          +0.3% (  5.3%)     84.4%
 EFF. MASS   1.1496

 VIBRATION   57   57A         ATOM PAIR      ENERGY CONTRIBUTION    RADIAL
 FREQ.      3988.21         O  2 -- H 21         +99.6% (100.0%)     99.9%
 T-DIPOLE    0.3803         O  1 -- O  2          +0.4% (  6.0%)      0.0%
 TRAVEL      0.1107
 RED. MASS   0.9479
 EFF. MASS   1.3795

      SYMMETRY NUMBER FOR POINT-GROUP C1  =  1


          SYSTEM IS A GROUND STATE



 InChI=1S/C7H12O2/c1-6(9-8)7-4-2-3-5-7/h2,4,6-8H,3,5H2,1H3


          MOLECULE IS NOT LINEAR

          THERE ARE 57 GENUINE VIBRATIONS IN THIS SYSTEM
          THIS THERMODYNAMICS CALCULATION IS LIMITED TO
          MOLECULES WHICH HAVE NO INTERNAL ROTATIONS




                    CALCULATED THERMODYNAMIC PROPERTIES
                                          *
   TEMP. (K)   PARTITION FUNCTION   H.O.F.    ENTHALPY  HEAT CAPACITY ENTROPY
                                   KCAL/MOL   CAL/MOLE    CAL/K/MOL  CAL/K/MOL


 298.00  VIB.     0.8841D+03                  4388.3651    29.9292    28.2084
         ROT.     0.5340D+06                   888.2813     2.9808    29.1884
         INT.     0.4721D+09                  5276.6464    32.9100    57.3967
         TRA.     0.1403D+28                  1480.4688     4.9680    40.4556
         TOT.                      -29.022    6757.1153    37.8780    97.8523

 200.00  VIB.     0.7736D+02                  1986.8818    19.4019    18.5757
         ROT.     0.2936D+06                   596.1620     2.9808    27.9997
         INT.     0.2271D+08                  2583.0437    22.3827    46.5754
         TRA.     0.7713D+27                   993.6033     4.9680    38.4745
         TOT.                      -32.202    3576.6470    27.3507    85.0498

 210.00  VIB.     0.9930D+02                  2185.7518    20.3765    19.5458
         ROT.     0.3159D+06                   625.9700     2.9808    28.1451
         INT.     0.3137D+08                  2811.7218    23.3573    47.6909
         TRA.     0.8299D+27                  1043.2834     4.9680    38.7168
         TOT.                      -31.924    3855.0052    28.3253    86.4077

 220.00  VIB.     0.1274D+03                  2394.4986    21.3773    20.5167
         ROT.     0.3387D+06                   655.7781     2.9808    28.2838
         INT.     0.4315D+08                  3050.2768    24.3581    48.8005
         TRA.     0.8899D+27                  1092.9636     4.9680    38.9480
         TOT.                      -31.636    4143.2403    29.3261    87.7484

 230.00  VIB.     0.1634D+03                  2613.3850    22.4042    21.4895
         ROT.     0.3621D+06                   685.5862     2.9808    28.4163
         INT.     0.5916D+08                  3298.9712    25.3850    49.9058
         TRA.     0.9512D+27                  1142.6437     4.9680    39.1688
         TOT.                      -31.337    4441.6150    30.3531    89.0746

 240.00  VIB.     0.2095D+03                  2842.6665    23.4561    22.4651
         ROT.     0.3859D+06                   715.3943     2.9808    28.5432
         INT.     0.8084D+08                  3558.0609    26.4369    51.0083
         TRA.     0.1014D+28                  1192.3239     4.9680    39.3802
         TOT.                      -31.028    4750.3848    31.4049    90.3885

 250.00  VIB.     0.2685D+03                  3082.5842    24.5311    23.4444
         ROT.     0.4103D+06                   745.2024     2.9808    28.6648
         INT.     0.1102D+09                  3827.7867    27.5119    52.1092
         TRA.     0.1078D+28                  1242.0041     4.9680    39.5830
         TOT.                      -30.709    5069.7907    32.4799    91.6923

 260.00  VIB.     0.3441D+03                  3333.3579    25.6269    24.4278
         ROT.     0.4352D+06                   775.0105     2.9808    28.7818
         INT.     0.1498D+09                  4108.3684    28.6077    53.2095
         TRA.     0.1143D+28                  1291.6842     4.9680    39.7779
         TOT.                      -30.379    5400.0526    33.5757    92.9874

 270.00  VIB.     0.4410D+03                  3595.1817    26.7407    25.4158
         ROT.     0.4605D+06                   804.8186     2.9808    28.8942
         INT.     0.2031D+09                  4400.0003    29.7215    54.3100
         TRA.     0.1210D+28                  1341.3644     4.9680    39.9654
         TOT.                      -30.037    5741.3647    34.6895    94.2754

 280.00  VIB.     0.5653D+03                  3868.2211    27.8695    26.4086
         ROT.     0.4864D+06                   834.6267     2.9808    29.0027
         INT.     0.2749D+09                  4702.8478    30.8503    55.4113
         TRA.     0.1278D+28                  1391.0445     4.9680    40.1461
         TOT.                      -29.685    6093.8924    35.8183    95.5574

 290.00  VIB.     0.7247D+03                  4152.6107    29.0102    27.4065
         ROT.     0.5126D+06                   864.4348     2.9808    29.1073
         INT.     0.3715D+09                  5017.0456    31.9910    56.5137
         TRA.     0.1347D+28                  1440.7247     4.9680    40.3204
         TOT.                      -29.321    6457.7703    36.9590    96.8341

 300.00  VIB.     0.9292D+03                  4448.4540    30.1597    28.4093
         ROT.     0.5394D+06                   894.2429     2.9808    29.2083
         INT.     0.5012D+09                  5342.6969    33.1405    57.6176
         TRA.     0.1417D+28                  1490.4049     4.9680    40.4888
         TOT.                      -28.946    6833.1018    38.1085    98.1065

 310.00  VIB.     0.1192D+04                  4755.8227    31.3148    29.4171
         ROT.     0.5666D+06                   924.0510     2.9808    29.3060
         INT.     0.6752D+09                  5679.8737    34.2956    58.7231
         TRA.     0.1488D+28                  1540.0850     4.9680    40.6517
         TOT.                      -28.559    7219.9587    39.2636    99.3749

 320.00  VIB.     0.1529D+04                  5074.7584    32.4726    30.4296
         ROT.     0.5942D+06                   953.8591     2.9808    29.4007
         INT.     0.9086D+09                  6028.6176    35.4534    59.8303
         TRA.     0.1561D+28                  1589.7652     4.9680    40.8094
         TOT.                      -28.160    7618.3828    40.4214   100.6397

 330.00  VIB.     0.1962D+04                  5405.2736    33.6302    31.4465
         ROT.     0.6223D+06                   983.6672     2.9808    29.4924
         INT.     0.1221D+10                  6388.9408    36.6110    60.9389
         TRA.     0.1635D+28                  1639.4454     4.9680    40.9623
         TOT.                      -27.750    8028.3862    41.5790   101.9013

 340.00  VIB.     0.2520D+04                  5747.3533    34.7851    32.4677
         ROT.     0.6508D+06                  1013.4753     2.9808    29.5814
         INT.     0.1640D+10                  6760.8286    37.7659    62.0491
         TRA.     0.1710D+28                  1689.1255     4.9680    41.1106
         TOT.                      -27.329    8449.9541    42.7339   103.1597

 350.00  VIB.     0.3237D+04                  6100.9573    35.9347    33.4926
         ROT.     0.6797D+06                  1043.2834     2.9808    29.6678
         INT.     0.2200D+10                  7144.2407    38.9155    63.1604
         TRA.     0.1786D+28                  1738.8057     4.9680    41.2546
         TOT.                      -26.896    8883.0464    43.8835   104.4150

 360.00  VIB.     0.4160D+04                  6466.0226    37.0770    34.5209
         ROT.     0.7090D+06                  1073.0915     2.9808    29.7518
         INT.     0.2949D+10                  7539.1141    40.0578    64.2727
         TRA.     0.1863D+28                  1788.4859     4.9680    41.3946
         TOT.                      -26.451    9327.6000    45.0258   105.6673

 370.00  VIB.     0.5348D+04                  6842.4652    38.2099    35.5523
         ROT.     0.7388D+06                  1102.8996     2.9808    29.8334
         INT.     0.3951D+10                  7945.3649    41.1907    65.3857
         TRA.     0.1941D+28                  1838.1660     4.9680    41.5307
         TOT.                      -25.995    9783.5309    46.1587   106.9164

 380.00  VIB.     0.6879D+04                  7230.1830    39.3317    36.5862
         ROT.     0.7689D+06                  1132.7077     2.9808    29.9129
         INT.     0.5289D+10                  8362.8907    42.3125    66.4991
         TRA.     0.2020D+28                  1887.8462     4.9680    41.6632
         TOT.                      -25.528   10250.7369    47.2805   108.1623

 390.00  VIB.     0.8852D+04                  7629.0575    40.4410    37.6222
         ROT.     0.7995D+06                  1162.5158     2.9808    29.9904
         INT.     0.7077D+10                  8791.5733    43.4218    67.6126
         TRA.     0.2100D+28                  1937.5263     4.9680    41.7923
         TOT.                      -25.050   10729.0996    48.3898   109.4048

 400.00  VIB.     0.1140D+05                  8038.9565    41.5364    38.6599
         ROT.     0.8304D+06                  1192.3239     2.9808    30.0658
         INT.     0.9464D+10                  9231.2804    44.5172    68.7258
         TRA.     0.2182D+28                  1987.2065     4.9680    41.9180
         TOT.                      -24.560   11218.4869    49.4852   110.6438

   *: NOTE: HEATS OF FORMATION ARE RELATIVE TO THE
            ELEMENTS IN THEIR STANDARD STATE AT 298K
              (=  Standard Enthalpy of Formation).

            Hvib:  Zero-point energy is not included.
                   frequencies of less than zero cm-1 are not included.
            Hrot = (3/2)RT
            Htra = (3/2)RT + pV = (5/2)RT

            Heat capacity is Cp, not Cv

          For more information, see: HTTP://OpenMOPAC.net/Manual/thermochemistry.html


           FORCE CONSTANT IN CARTESIAN COORDINATES (Millidynes/A)

    ATOM   CHEMICAL       X               Y               Z
   NUMBER   SYMBOL  FORCE CONSTANT  FORCE CONSTANT  FORCE CONSTANT

      1       O        4.380799        5.038368        2.063063
      2       O        3.074140        8.048302        1.596233
      3       C        7.552258        8.845732        8.316985
      4       C        8.100481        8.457536        7.932812
      5       C        8.273299        7.055181        9.025359
      6       C        8.349281        9.090157        7.873029
      7       C        8.420988        8.397704        7.873957
      8       C        4.606743       13.659711        9.152493
      9       C        4.005663       13.415789       10.019367
     10       H        2.181939        3.223801        0.641364
     11       H        2.374970        2.659668        0.854013
     12       H        2.005234        1.224525        3.320704
     13       H        4.266197        1.041820        1.173504
     14       H        1.904313        3.510154        0.970094
     15       H        4.650638        1.015274        0.725018
     16       H        4.502793        0.832835        1.464187
     17       H        1.315476        3.876030        1.579407
     18       H        2.451615        3.401725        0.932964
     19       H        0.413311        1.917914        4.085189
     20       H        1.179661        2.276215        2.957279
     21       H        1.301220        7.370150        1.430224

 **********************
 *                    *
 * JOB ENDED NORMALLY *
 *                    *
 **********************



 TOTAL JOB TIME:             2.50 SECONDS

 == MOPAC DONE ==
