 *******************************************************************************
 ** Site#: 14399        For non-commercial use only    Version 18.184L 64BITS **
 *******************************************************************************
 ** Cite this program as: MOPAC2016, Version: 18.184L, James J. P. Stewart,   **
 ** Stewart Computational Chemistry, web: HTTP://OpenMOPAC.net. Days left:  18**
 *******************************************************************************
 **                                                                           **
 **                                MOPAC2016                                  **
 **                                                                           **
 *******************************************************************************

                              PM3 CALCULATION RESULTS

 *******************************************************************************
 *  CALCULATION DONE:                                Sat Jun 15 10:25:50 2019  *
 *  PM3        - The PM3 Hamiltonian to be used
 *  PRECISE    - CRITERIA TO BE INCREASED BY 100 TIMES
 *  NOSYM      - POINT-GROUP SYMMETRY SET TO C1
 *  THREADS=1  - MULTI-THREADING NOT USED
 *  T=         - A TIME OF 172800.0 SECONDS REQUESTED
 *  DUMP=N     - RESTART FILE WRITTEN EVERY  7200.000 SECONDS
 *******************************************************************************
pm3  precise nosym THREADS=1
 InChI=1S/C7H12O2/c1-2-4-7-5-3-6-8-9-7/h3,5,7H,2,4,6H2,1H3

   ATOM   CHEMICAL          X               Y               Z
  NUMBER   SYMBOL      (ANGSTROMS)     (ANGSTROMS)     (ANGSTROMS)
 
     1       O          0.96990000  *   0.51610000  *   0.96960000  *
     2       O          2.21850000  *   0.96880000  *   0.89120000  *
     3       C          0.50850000  *   0.32600000  *  -0.35740000  *
     4       C         -0.91910000  *  -0.23730000  *  -0.32590000  *
     5       C         -1.90310000  *   0.75290000  *   0.31170000  *
     6       C         -3.32320000  *   0.19460000  *   0.31270000  *
     7       C          3.05350000  *  -0.15500000  *   0.69290000  *
     8       C          1.42830000  *  -0.63760000  *  -1.07430000  *
     9       C          2.63610000  *  -0.88530000  *  -0.55550000  *
    10       H         -1.25000000  *  -0.45280000  *  -1.36640000  *
    11       H         -0.92780000  *  -1.19100000  *   0.24750000  *
    12       H          0.50600000  *   1.29510000  *  -0.90600000  *
    13       H         -1.60210000  *   0.96340000  *   1.36080000  *
    14       H         -1.89360000  *   1.70900000  *  -0.25580000  *
    15       H         -4.01140000  *   0.92980000  *   0.78050000  *
    16       H         -3.66320000  *   0.00210000  *  -0.72730000  *
    17       H          4.09860000  *   0.19750000  *   0.57050000  *
    18       H         -3.36550000  *  -0.75120000  *   0.89380000  *
    19       H          3.00870000  *  -0.83740000  *   1.56960000  *
    20       H          1.12450000  *  -1.11200000  *  -2.00300000  *
    21       H          3.30630000  *  -1.59580000  *  -1.02910000  *
 


          CARTESIAN COORDINATES 

    NO.       ATOM           X           Y           Z

     1         O          0.9699      0.5161      0.9696
     2         O          2.2185      0.9688      0.8912
     3         C          0.5085      0.3260     -0.3574
     4         C         -0.9191     -0.2373     -0.3259
     5         C         -1.9031      0.7529      0.3117
     6         C         -3.3232      0.1946      0.3127
     7         C          3.0535     -0.1550      0.6929
     8         C          1.4283     -0.6376     -1.0743
     9         C          2.6361     -0.8853     -0.5555
    10         H         -1.2500     -0.4528     -1.3664
    11         H         -0.9278     -1.1910      0.2475
    12         H          0.5060      1.2951     -0.9060
    13         H         -1.6021      0.9634      1.3608
    14         H         -1.8936      1.7090     -0.2558
    15         H         -4.0114      0.9298      0.7805
    16         H         -3.6632      0.0021     -0.7273
    17         H          4.0986      0.1975      0.5705
    18         H         -3.3655     -0.7512      0.8938
    19         H          3.0087     -0.8374      1.5696
    20         H          1.1245     -1.1120     -2.0030
    21         H          3.3063     -1.5958     -1.0291

  H: (PM3): J. J. P. STEWART, J. COMP. CHEM. 10, 209 (1989).
  C: (PM3): J. J. P. STEWART, J. COMP. CHEM. 10, 209 (1989).
  O: (PM3): J. J. P. STEWART, J. COMP. CHEM. 10, 209 (1989).

           Empirical Formula: C7 H12 O2  =    21 atoms



      MOLECULAR POINT GROUP   :   C1  


      RHF CALCULATION, NO. OF DOUBLY OCCUPIED LEVELS = 26


          Geometry optimization using EF

          DIAGONAL MATRIX USED AS START HESSIAN

 CYCLE:     1 TIME:   0.004 TIME LEFT:  2.00D  GRAD.:   160.846 HEAT: -8.827129
 CYCLE:     2 TIME:   0.008 TIME LEFT:  2.00D  GRAD.:   168.251 HEAT: -10.53886
 CYCLE:     3 TIME:   0.004 TIME LEFT:  2.00D  GRAD.:   184.821 HEAT: -11.20833
 CYCLE:     4 TIME:   0.008 TIME LEFT:  2.00D  GRAD.:    71.728 HEAT: -19.56215
 CYCLE:     5 TIME:   0.008 TIME LEFT:  2.00D  GRAD.:    77.673 HEAT: -20.02402
 CYCLE:     6 TIME:   0.008 TIME LEFT:  2.00D  GRAD.:    36.906 HEAT: -21.00038
 CYCLE:     7 TIME:   0.008 TIME LEFT:  2.00D  GRAD.:    18.345 HEAT: -21.31985
 CYCLE:     8 TIME:   0.004 TIME LEFT:  2.00D  GRAD.:    17.821 HEAT: -21.48686
 CYCLE:     9 TIME:   0.004 TIME LEFT:  2.00D  GRAD.:    23.655 HEAT: -21.62125
 CYCLE:    10 TIME:   0.008 TIME LEFT:  2.00D  GRAD.:    28.736 HEAT: -21.64814
 CYCLE:    11 TIME:   0.004 TIME LEFT:  2.00D  GRAD.:    23.778 HEAT: -21.83371
 CYCLE:    12 TIME:   0.008 TIME LEFT:  2.00D  GRAD.:    22.160 HEAT: -21.86859
 CYCLE:    13 TIME:   0.004 TIME LEFT:  2.00D  GRAD.:    18.121 HEAT: -21.94442
 CYCLE:    14 TIME:   0.008 TIME LEFT:  2.00D  GRAD.:     8.627 HEAT: -22.03050
 CYCLE:    15 TIME:   0.004 TIME LEFT:  2.00D  GRAD.:    10.488 HEAT: -22.04675
 CYCLE:    16 TIME:   0.004 TIME LEFT:  2.00D  GRAD.:     6.919 HEAT: -22.08237
 CYCLE:    17 TIME:   0.008 TIME LEFT:  2.00D  GRAD.:     8.184 HEAT: -22.08960
 CYCLE:    18 TIME:   0.008 TIME LEFT:  2.00D  GRAD.:     5.200 HEAT: -22.10760
 CYCLE:    19 TIME:   0.004 TIME LEFT:  2.00D  GRAD.:     6.775 HEAT: -22.10989
 CYCLE:    20 TIME:   0.004 TIME LEFT:  2.00D  GRAD.:     4.255 HEAT: -22.12684
 CYCLE:    21 TIME:   0.004 TIME LEFT:  2.00D  GRAD.:     6.715 HEAT: -22.13081
 CYCLE:    22 TIME:   0.004 TIME LEFT:  2.00D  GRAD.:     3.536 HEAT: -22.15268
 CYCLE:    23 TIME:   0.008 TIME LEFT:  2.00D  GRAD.:     5.960 HEAT: -22.16224
 CYCLE:    24 TIME:   0.004 TIME LEFT:  2.00D  GRAD.:     3.654 HEAT: -22.18537
 CYCLE:    25 TIME:   0.004 TIME LEFT:  2.00D  GRAD.:     4.366 HEAT: -22.20506
 CYCLE:    26 TIME:   0.004 TIME LEFT:  2.00D  GRAD.:     5.980 HEAT: -22.23110
 CYCLE:    27 TIME:   0.004 TIME LEFT:  2.00D  GRAD.:     7.477 HEAT: -22.24148
 CYCLE:    28 TIME:   0.004 TIME LEFT:  2.00D  GRAD.:     3.920 HEAT: -22.27317
 CYCLE:    29 TIME:   0.004 TIME LEFT:  2.00D  GRAD.:     4.533 HEAT: -22.29914
 CYCLE:    30 TIME:   0.004 TIME LEFT:  2.00D  GRAD.:     5.575 HEAT: -22.33107
 CYCLE:    31 TIME:   0.004 TIME LEFT:  2.00D  GRAD.:     3.674 HEAT: -22.35598
 CYCLE:    32 TIME:   0.004 TIME LEFT:  2.00D  GRAD.:     3.459 HEAT: -22.36649
 CYCLE:    33 TIME:   0.004 TIME LEFT:  2.00D  GRAD.:     3.375 HEAT: -22.37592
 CYCLE:    34 TIME:   0.004 TIME LEFT:  2.00D  GRAD.:     2.273 HEAT: -22.38497
 CYCLE:    35 TIME:   0.008 TIME LEFT:  2.00D  GRAD.:     2.150 HEAT: -22.39992
 CYCLE:    36 TIME:   0.004 TIME LEFT:  2.00D  GRAD.:     2.426 HEAT: -22.40703
 CYCLE:    37 TIME:   0.004 TIME LEFT:  2.00D  GRAD.:     2.182 HEAT: -22.41636
 CYCLE:    38 TIME:   0.004 TIME LEFT:  2.00D  GRAD.:     1.797 HEAT: -22.42541
 CYCLE:    39 TIME:   0.004 TIME LEFT:  2.00D  GRAD.:     2.193 HEAT: -22.43685
 CYCLE:    40 TIME:   0.004 TIME LEFT:  2.00D  GRAD.:     2.102 HEAT: -22.44511
 CYCLE:    41 TIME:   0.004 TIME LEFT:  2.00D  GRAD.:     1.711 HEAT: -22.45303
 CYCLE:    42 TIME:   0.004 TIME LEFT:  2.00D  GRAD.:     1.575 HEAT: -22.45921
 CYCLE:    43 TIME:   0.008 TIME LEFT:  2.00D  GRAD.:     1.645 HEAT: -22.46471
 CYCLE:    44 TIME:   0.004 TIME LEFT:  2.00D  GRAD.:     1.687 HEAT: -22.47069
 CYCLE:    45 TIME:   0.004 TIME LEFT:  2.00D  GRAD.:     1.690 HEAT: -22.47770
 CYCLE:    46 TIME:   0.004 TIME LEFT:  2.00D  GRAD.:     1.876 HEAT: -22.48580
 CYCLE:    47 TIME:   0.004 TIME LEFT:  2.00D  GRAD.:     2.151 HEAT: -22.49503
 CYCLE:    48 TIME:   0.004 TIME LEFT:  2.00D  GRAD.:     2.159 HEAT: -22.50463
 CYCLE:    49 TIME:   0.004 TIME LEFT:  2.00D  GRAD.:     1.780 HEAT: -22.51290
 CYCLE:    50 TIME:   0.008 TIME LEFT:  2.00D  GRAD.:     1.305 HEAT: -22.51800
 CYCLE:    51 TIME:   0.004 TIME LEFT:  2.00D  GRAD.:     1.138 HEAT: -22.52041
 CYCLE:    52 TIME:   0.004 TIME LEFT:  2.00D  GRAD.:     1.139 HEAT: -22.52218
 CYCLE:    53 TIME:   0.004 TIME LEFT:  2.00D  GRAD.:     0.898 HEAT: -22.52390
 CYCLE:    54 TIME:   0.004 TIME LEFT:  2.00D  GRAD.:     0.873 HEAT: -22.52676
 CYCLE:    55 TIME:   0.004 TIME LEFT:  2.00D  GRAD.:     0.908 HEAT: -22.52834
 CYCLE:    56 TIME:   0.008 TIME LEFT:  2.00D  GRAD.:     0.640 HEAT: -22.53000
 CYCLE:    57 TIME:   0.004 TIME LEFT:  2.00D  GRAD.:     0.506 HEAT: -22.53058
 CYCLE:    58 TIME:   0.004 TIME LEFT:  2.00D  GRAD.:     0.539 HEAT: -22.53148
 CYCLE:    59 TIME:   0.004 TIME LEFT:  2.00D  GRAD.:     0.614 HEAT: -22.53205
 CYCLE:    60 TIME:   0.004 TIME LEFT:  2.00D  GRAD.:     0.852 HEAT: -22.53364
 CYCLE:    61 TIME:   0.004 TIME LEFT:  2.00D  GRAD.:     0.775 HEAT: -22.53470
 CYCLE:    62 TIME:   0.004 TIME LEFT:  2.00D  GRAD.:     1.007 HEAT: -22.53728
 CYCLE:    63 TIME:   0.004 TIME LEFT:  2.00D  GRAD.:     0.644 HEAT: -22.53822
 CYCLE:    64 TIME:   0.008 TIME LEFT:  2.00D  GRAD.:     0.421 HEAT: -22.53897
 CYCLE:    65 TIME:   0.004 TIME LEFT:  2.00D  GRAD.:     0.415 HEAT: -22.53965
 CYCLE:    66 TIME:   0.004 TIME LEFT:  2.00D  GRAD.:     0.413 HEAT: -22.54020
 CYCLE:    67 TIME:   0.004 TIME LEFT:  2.00D  GRAD.:     0.320 HEAT: -22.54074
 CYCLE:    68 TIME:   0.004 TIME LEFT:  2.00D  GRAD.:     0.252 HEAT: -22.54097
 CYCLE:    69 TIME:   0.004 TIME LEFT:  2.00D  GRAD.:     0.225 HEAT: -22.54124
 CYCLE:    70 TIME:   0.004 TIME LEFT:  2.00D  GRAD.:     0.220 HEAT: -22.54134
 CYCLE:    71 TIME:   0.004 TIME LEFT:  2.00D  GRAD.:     0.224 HEAT: -22.54160
 CYCLE:    72 TIME:   0.004 TIME LEFT:  2.00D  GRAD.:     0.201 HEAT: -22.54171
 CYCLE:    73 TIME:   0.004 TIME LEFT:  2.00D  GRAD.:     0.474 HEAT: -22.54173
 CYCLE:    74 TIME:   0.008 TIME LEFT:  2.00D  GRAD.:     0.236 HEAT: -22.54203
 CYCLE:    75 TIME:   0.004 TIME LEFT:  2.00D  GRAD.:     0.203 HEAT: -22.54214
 CYCLE:    76 TIME:   0.004 TIME LEFT:  2.00D  GRAD.:     0.343 HEAT: -22.54249
 CYCLE:    77 TIME:   0.004 TIME LEFT:  2.00D  GRAD.:     0.304 HEAT: -22.54264
 CYCLE:    78 TIME:   0.004 TIME LEFT:  2.00D  GRAD.:     0.292 HEAT: -22.54301
 CYCLE:    79 TIME:   0.004 TIME LEFT:  2.00D  GRAD.:     0.224 HEAT: -22.54325
 CYCLE:    80 TIME:   0.004 TIME LEFT:  2.00D  GRAD.:     0.219 HEAT: -22.54360
 CYCLE:    81 TIME:   0.004 TIME LEFT:  2.00D  GRAD.:     0.208 HEAT: -22.54383
 CYCLE:    82 TIME:   0.004 TIME LEFT:  2.00D  GRAD.:     0.187 HEAT: -22.54395
 CYCLE:    83 TIME:   0.008 TIME LEFT:  2.00D  GRAD.:     0.224 HEAT: -22.54408
 CYCLE:    84 TIME:   0.004 TIME LEFT:  2.00D  GRAD.:     0.191 HEAT: -22.54415
 CYCLE:    85 TIME:   0.004 TIME LEFT:  2.00D  GRAD.:     0.175 HEAT: -22.54426
 CYCLE:    86 TIME:   0.004 TIME LEFT:  2.00D  GRAD.:     0.134 HEAT: -22.54430
 CYCLE:    87 TIME:   0.004 TIME LEFT:  2.00D  GRAD.:     0.103 HEAT: -22.54436
 CYCLE:    88 TIME:   0.004 TIME LEFT:  2.00D  GRAD.:     0.094 HEAT: -22.54441
 CYCLE:    89 TIME:   0.004 TIME LEFT:  2.00D  GRAD.:     0.125 HEAT: -22.54447
 CYCLE:    90 TIME:   0.004 TIME LEFT:  2.00D  GRAD.:     0.097 HEAT: -22.54449
 CYCLE:    91 TIME:   0.004 TIME LEFT:  2.00D  GRAD.:     0.084 HEAT: -22.54451
 CYCLE:    92 TIME:   0.004 TIME LEFT:  2.00D  GRAD.:     0.069 HEAT: -22.54454
 CYCLE:    93 TIME:   0.004 TIME LEFT:  2.00D  GRAD.:     0.234 HEAT: -22.54434
 CYCLE:    94 TIME:   0.004 TIME LEFT:  2.00D  GRAD.:     0.082 HEAT: -22.54461
 CYCLE:    95 TIME:   0.004 TIME LEFT:  2.00D  GRAD.:     0.083 HEAT: -22.54462
 CYCLE:    96 TIME:   0.004 TIME LEFT:  2.00D  GRAD.:     0.188 HEAT: -22.54469
 CYCLE:    97 TIME:   0.004 TIME LEFT:  2.00D  GRAD.:     0.185 HEAT: -22.54474
 CYCLE:    98 TIME:   0.008 TIME LEFT:  2.00D  GRAD.:     0.181 HEAT: -22.54490
 CYCLE:    99 TIME:   0.004 TIME LEFT:  2.00D  GRAD.:     0.139 HEAT: -22.54495
 CYCLE:   100 TIME:   0.004 TIME LEFT:  2.00D  GRAD.:     0.135 HEAT: -22.54502
 CYCLE:   101 TIME:   0.004 TIME LEFT:  2.00D  GRAD.:     0.107 HEAT: -22.54504
 CYCLE:   102 TIME:   0.004 TIME LEFT:  2.00D  GRAD.:     0.206 HEAT: -22.54507
 CYCLE:   103 TIME:   0.004 TIME LEFT:  2.00D  GRAD.:     0.063 HEAT: -22.54512
 CYCLE:   104 TIME:   0.004 TIME LEFT:  2.00D  GRAD.:     0.025 HEAT: -22.54513

     GRADIENT =  0.02481  IS LESS THAN CUTOFF =  0.05000



 -------------------------------------------------------------------------------
 pm3  precise nosym THREADS=1
 InChI=1S/C7H12O2/c1-2-4-7-5-3-6-8-9-7/h3,5,7H,2,4,6H2,1H3



     GEOMETRY OPTIMISED USING EIGENVECTOR FOLLOWING (EF).     
     SCF FIELD WAS ACHIEVED                                   


                              PM3 CALCULATION
                                                       MOPAC2016 (Version: 18.184L)
                                                       Sat Jun 15 10:25:51 2019
                                                       No. of days remaining =  18




          FINAL HEAT OF FORMATION =        -22.54513 KCAL/MOL =     -94.32882 KJ/MOL


          TOTAL ENERGY            =      -1599.30257 EV
          ELECTRONIC ENERGY       =      -7713.35359 EV  POINT GROUP:     C1  
          CORE-CORE REPULSION     =       6114.05102 EV
          COSMO AREA              =        173.17 SQUARE ANGSTROMS
          COSMO VOLUME            =        167.98 CUBIC ANGSTROMS

          GRADIENT NORM           =          0.02481 = 0.00541 PER ATOM
          IONIZATION POTENTIAL    =         10.156681 EV
          HOMO LUMO ENERGIES (EV) =        -10.157  0.564
          NO. OF FILLED LEVELS    =         26
          MOLECULAR WEIGHT        =        128.1706

          MOLECULAR DIMENSIONS (Angstroms)

            Atom       Atom       Distance
            H    17    H    15     8.29122
            H    20    H    13     3.72803
            H    19    H    12     2.92087


          SCF CALCULATIONS        =        113
 
          WALL-CLOCK TIME         =          0.492 SECONDS
          COMPUTATION TIME        =          0.453 SECONDS




   ATOM   CHEMICAL          X               Y               Z
  NUMBER   SYMBOL      (ANGSTROMS)     (ANGSTROMS)     (ANGSTROMS)
 
     1       O          0.91004284  *   0.51136686  *   1.05618961  *
     2       O          2.41924331  *   0.90137230  *   1.02859596  *
     3       C          0.47717610  *   0.32740430  *  -0.27812305  *
     4       C         -0.93945630  *  -0.26536918  *  -0.18811951  *
     5       C         -1.97314474  *   0.78162003  *   0.19780467  *
     6       C         -3.36363082  *   0.18835908  *   0.23526343  *
     7       C          3.15811713  *  -0.20367957  *   0.60969963  *
     8       C          1.39043104  *  -0.58295114  *  -1.05504974  *
     9       C          2.63502711  *  -0.82591543  *  -0.64518221  *
    10       H         -1.20390438  *  -0.70450957  *  -1.17161303  *
    11       H         -0.96439600  *  -1.10868252  *   0.53145662  *
    12       H          0.45325061  *   1.31922564  *  -0.79497588  *
    13       H         -1.72196116  *   1.21861123  *   1.18436088  *
    14       H         -1.94192415  *   1.62683548  *  -0.51876268  *
    15       H         -4.10987550  *   0.94329380  *   0.51377241  *
    16       H         -3.65814235  *  -0.21941155  *  -0.74106143  *
    17       H          4.15286590  *   0.25820420  *   0.46807026  *
    18       H         -3.43596666  *  -0.62908653  *   0.96507603  *
    19       H          3.23224806  *  -0.96489629  *   1.41038151  *
    20       H          0.98394424  *  -1.01990480  *  -1.97307256  *
    21       H          3.31609856  *  -1.48663176  *  -1.18939509  *

                             CARTESIAN COORDINATES

   1    O        0.910042836     0.511366864     1.056189608
   2    O        2.419243312     0.901372300     1.028595955
   3    C        0.477176097     0.327404300    -0.278123045
   4    C       -0.939456299    -0.265369182    -0.188119514
   5    C       -1.973144740     0.781620035     0.197804675
   6    C       -3.363630822     0.188359081     0.235263432
   7    C        3.158117133    -0.203679567     0.609699633
   8    C        1.390431042    -0.582951136    -1.055049739
   9    C        2.635027109    -0.825915430    -0.645182210
  10    H       -1.203904377    -0.704509565    -1.171613029
  11    H       -0.964395999    -1.108682522     0.531456623
  12    H        0.453250611     1.319225640    -0.794975884
  13    H       -1.721961161     1.218611228     1.184360879
  14    H       -1.941924152     1.626835483    -0.518762679
  15    H       -4.109875498     0.943293805     0.513772409
  16    H       -3.658142347    -0.219411547    -0.741061427
  17    H        4.152865901     0.258204200     0.468070258
  18    H       -3.435966662    -0.629086533     0.965076025
  19    H        3.232248060    -0.964896291     1.410381507
  20    H        0.983944241    -1.019904796    -1.973072560
  21    H        3.316098557    -1.486631758    -1.189395093


           Empirical Formula: C7 H12 O2  =    21 atoms



      MOLECULAR POINT GROUP   :   C1  


                  EIGENVALUES  
 -40.01941 -36.75553 -33.62545 -31.73744 -28.26338 -25.38134 -22.43207 -21.05608
 -18.87517 -18.21001 -17.92059 -16.32385 -15.81550 -15.64556 -15.20661 -14.72790
 -14.07399 -13.93340 -13.34673 -12.98530 -12.51933 -12.32063 -11.61986 -11.44887
 -11.26688 -10.15668   0.56405   0.67593   2.84328   2.96988   3.35187   3.56623
   3.59271   3.69252   3.84595   3.89059   3.93328   4.03493   4.17671   4.29847
   4.34538   4.58013   4.68210   4.86794   4.93364   4.99271   5.23030   5.69315


              NET ATOMIC CHARGES AND DIPOLE CONTRIBUTIONS

  ATOM NO.   TYPE          CHARGE      No. of ELECS.   s-Pop       p-Pop       
    1          O          -0.141414        6.1414     1.91359     4.22782
    2          O          -0.138064        6.1381     1.91047     4.22759
    3          C           0.081211        3.9188     1.16739     2.75140
    4          C          -0.102219        4.1022     1.16606     2.93616
    5          C          -0.100643        4.1006     1.15878     2.94187
    6          C          -0.109436        4.1094     1.13830     2.97113
    7          C           0.076131        3.9239     1.14331     2.78056
    8          C          -0.163938        4.1639     1.20330     2.96064
    9          C          -0.168767        4.1688     1.19912     2.96965
   10          H           0.057590        0.9424     0.94241
   11          H           0.066614        0.9334     0.93339
   12          H           0.068603        0.9314     0.93140
   13          H           0.062361        0.9376     0.93764
   14          H           0.049871        0.9501     0.95013
   15          H           0.039602        0.9604     0.96040
   16          H           0.036109        0.9639     0.96389
   17          H           0.071040        0.9290     0.92896
   18          H           0.039476        0.9605     0.96052
   19          H           0.053364        0.9466     0.94664
   20          H           0.111942        0.8881     0.88806
   21          H           0.110569        0.8894     0.88943
 DIPOLE           X         Y         Z       TOTAL
 POINT-CHG.     0.066    -0.945    -1.263     1.579
 HYBRID         0.150    -0.363    -0.441     0.591
 SUM            0.216    -1.308    -1.704     2.159


          ATOMIC ORBITAL ELECTRON POPULATIONS

     Atom    s        px        py        pz   
    1  O   1.91359   1.07924   1.92681   1.22178
    2  O   1.91047   1.04323   1.28510   1.89926
    3  C   1.16739   0.92271   0.96742   0.86127
    4  C   1.16606   0.92579   0.98617   1.02420
    5  C   1.15878   0.94667   0.97179   1.02340
    6  C   1.13830   0.95981   1.00284   1.00848
    7  C   1.14331   0.92971   0.91346   0.93739
    8  C   1.20330   0.96261   0.99908   0.99895
    9  C   1.19912   0.97386   1.01022   0.98557
   10  H   0.94241
   11  H   0.93339
   12  H   0.93140
   13  H   0.93764
   14  H   0.95013
   15  H   0.96040
   16  H   0.96389
   17  H   0.92896
   18  H   0.96052
   19  H   0.94664
   20  H   0.88806
   21  H   0.88943
 *******************************************************************************
 ** Site#: 14399        For non-commercial use only    Version 18.184L 64BITS **
 *******************************************************************************
 ** Cite this program as: MOPAC2016, Version: 18.184L, James J. P. Stewart,   **
 ** Stewart Computational Chemistry, web: HTTP://OpenMOPAC.net. Days left:  18**
 *******************************************************************************
 **                                                                           **
 **                                MOPAC2016                                  **
 **                                                                           **
 *******************************************************************************

                              PM3 CALCULATION RESULTS

 *******************************************************************************
 *  CALCULATION DONE:                                Sat Jun 15 10:25:51 2019  *
 *  PM3        - The PM3 Hamiltonian to be used
 *  OLDGEO     - PREVIOUS GEOMETRY TO BE USED
 *  PRECISE    - CRITERIA TO BE INCREASED BY 100 TIMES
 *  NOSYM      - POINT-GROUP SYMMETRY SET TO C1
 *  THREADS=1  - MULTI-THREADING NOT USED
 *  T=         - A TIME OF 172800.0 SECONDS REQUESTED
 *  DUMP=N     - RESTART FILE WRITTEN EVERY  7200.000 SECONDS
 *  THERMO     - THERMODYNAMIC QUANTITIES TO BE CALCULATED
 *******************************************************************************
oldgeo thermo nosym precise THREADS=1  pm3
 InChI=1S/C7H12O2/c1-2-4-7-5-3-6-8-9-7/h3,5,7H,2,4,6H2,1H3

   ATOM   CHEMICAL          X               Y               Z
  NUMBER   SYMBOL      (ANGSTROMS)     (ANGSTROMS)     (ANGSTROMS)
 
     1       O          0.91004284  *   0.51136686  *   1.05618961  *
     2       O          2.41924331  *   0.90137230  *   1.02859596  *
     3       C          0.47717610  *   0.32740430  *  -0.27812305  *
     4       C         -0.93945630  *  -0.26536918  *  -0.18811951  *
     5       C         -1.97314474  *   0.78162003  *   0.19780467  *
     6       C         -3.36363082  *   0.18835908  *   0.23526343  *
     7       C          3.15811713  *  -0.20367957  *   0.60969963  *
     8       C          1.39043104  *  -0.58295114  *  -1.05504974  *
     9       C          2.63502711  *  -0.82591543  *  -0.64518221  *
    10       H         -1.20390438  *  -0.70450957  *  -1.17161303  *
    11       H         -0.96439600  *  -1.10868252  *   0.53145662  *
    12       H          0.45325061  *   1.31922564  *  -0.79497588  *
    13       H         -1.72196116  *   1.21861123  *   1.18436088  *
    14       H         -1.94192415  *   1.62683548  *  -0.51876268  *
    15       H         -4.10987550  *   0.94329380  *   0.51377241  *
    16       H         -3.65814235  *  -0.21941155  *  -0.74106143  *
    17       H          4.15286590  *   0.25820420  *   0.46807026  *
    18       H         -3.43596666  *  -0.62908653  *   0.96507603  *
    19       H          3.23224806  *  -0.96489629  *   1.41038151  *
    20       H          0.98394424  *  -1.01990480  *  -1.97307256  *
    21       H          3.31609856  *  -1.48663176  *  -1.18939509  *
 


          CARTESIAN COORDINATES 

    NO.       ATOM           X           Y           Z

     1         O          0.9100      0.5114      1.0562
     2         O          2.4192      0.9014      1.0286
     3         C          0.4772      0.3274     -0.2781
     4         C         -0.9395     -0.2654     -0.1881
     5         C         -1.9731      0.7816      0.1978
     6         C         -3.3636      0.1884      0.2353
     7         C          3.1581     -0.2037      0.6097
     8         C          1.3904     -0.5830     -1.0550
     9         C          2.6350     -0.8259     -0.6452
    10         H         -1.2039     -0.7045     -1.1716
    11         H         -0.9644     -1.1087      0.5315
    12         H          0.4533      1.3192     -0.7950
    13         H         -1.7220      1.2186      1.1844
    14         H         -1.9419      1.6268     -0.5188
    15         H         -4.1099      0.9433      0.5138
    16         H         -3.6581     -0.2194     -0.7411
    17         H          4.1529      0.2582      0.4681
    18         H         -3.4360     -0.6291      0.9651
    19         H          3.2322     -0.9649      1.4104
    20         H          0.9839     -1.0199     -1.9731
    21         H          3.3161     -1.4866     -1.1894

  H: (PM3): J. J. P. STEWART, J. COMP. CHEM. 10, 209 (1989).
  C: (PM3): J. J. P. STEWART, J. COMP. CHEM. 10, 209 (1989).
  O: (PM3): J. J. P. STEWART, J. COMP. CHEM. 10, 209 (1989).

           Empirical Formula: C7 H12 O2  =    21 atoms



      MOLECULAR POINT GROUP   :   C1  


      RHF CALCULATION, NO. OF DOUBLY OCCUPIED LEVELS = 26



          HEAT OF FORMATION =     -22.545129 KCALS/MOLE


          CARTESIAN COORDINATE DERIVATIVES

   NUMBER  ATOM         X            Y            Z

     1       O      0.002730     0.002997    -0.011678
     2       O      0.008895    -0.006196     0.004662
     3       C      0.001150    -0.001742     0.003342
     4       C      0.001642     0.000616    -0.001996
     5       C      0.003772    -0.002040    -0.002215
     6       C      0.004962    -0.001033     0.002805
     7       C     -0.003070     0.000656    -0.000286
     8       C     -0.001541     0.002665     0.002970
     9       C     -0.006939    -0.005682     0.001407
    10       H      0.005137    -0.000062    -0.002574
    11       H     -0.002311     0.001158     0.001858
    12       H     -0.004116     0.002614    -0.001232
    13       H      0.004590    -0.002959    -0.001094
    14       H     -0.002693     0.005057     0.004204
    15       H     -0.008892    -0.002877     0.000159
    16       H      0.003130     0.005868     0.000918
    17       H     -0.002987     0.001557     0.001894
    18       H     -0.005613    -0.003672    -0.001690
    19       H     -0.000442     0.001170     0.000921
    20       H      0.000830     0.000665    -0.002070
    21       H      0.001765     0.001240    -0.000305
 


          GRADIENT NORM =   0.02898


          TIME FOR SCF CALCULATION =    0.00

          TIME FOR DERIVATIVES     =    0.00

          MOLECULAR WEIGHT =  128.17



          ROTATIONAL CONSTANTS IN CM(-1)

          A =    0.14206418   B =    0.02761287   C =    0.02438014



           PRINCIPAL MOMENTS OF INERTIA IN UNITS OF 10**(-40)*GRAM-CM**2

          A =      197.0432   B =     1013.7582   C =     1148.1792


          ORIENTATION OF MOLECULE IN FORCE CALCULATION

    NO.       ATOM         X         Y         Z

     1          O       0.4731   -0.9335    0.2338
     2          O       2.0321   -0.9335    0.2338
     3          C       0.0317    0.4106    0.2338
     4          C      -1.4896    0.3590    0.0114
     5          C      -2.2351   -0.0793    1.2626
     6          C      -3.7302   -0.0786    1.0358
     7          C       2.4784   -0.4578   -0.9979
     8          C       0.7018    1.2324   -0.8348
     9          C       1.8386    0.8313   -1.4031
    10          H      -1.8380    1.3662   -0.2958
    11          H      -1.7374   -0.3132   -0.8349
    12          H       0.2658    0.8725    1.2254
    13          H      -1.9001   -1.0893    1.5708
    14          H      -1.9808    0.5898    2.1090
    15          H      -4.2687   -0.3949    1.9383
    16          H      -4.1001    0.9198    0.7662
    17          H       3.5594   -0.3458   -0.7935
    18          H      -4.0177   -0.7623    0.2259
    19          H       2.3455   -1.2160   -1.7939
    20          H       0.2152    2.1746   -1.1076
    21          H       2.3422    1.4081   -2.1843


    FIRST DERIVATIVES WILL BE USED IN THE CALCULATION OF SECOND DERIVATIVES

          ESTIMATED TIME TO COMPLETE CALCULATION =        1.97 SECONDS

    FOR POINT-GROUP C1   THERE ARE   1 UNIQUE SYMMETRY FUNCTIONS.

 STEP:   1 TIME =     0.02 SECS, INTEGRAL =      0.02 TIME LEFT: 172799.97
 STEP:   2 TIME =     0.02 SECS, INTEGRAL =      0.04 TIME LEFT: 172799.95
 STEP:   3 TIME =     0.02 SECS, INTEGRAL =      0.06 TIME LEFT: 172799.93
 STEP:   4 TIME =     0.02 SECS, INTEGRAL =      0.08 TIME LEFT: 172799.91
 STEP:   5 TIME =     0.02 SECS, INTEGRAL =      0.10 TIME LEFT: 172799.89
 STEP:   6 TIME =     0.02 SECS, INTEGRAL =      0.12 TIME LEFT: 172799.88
 STEP:   7 TIME =     0.02 SECS, INTEGRAL =      0.14 TIME LEFT: 172799.86
 STEP:   8 TIME =     0.02 SECS, INTEGRAL =      0.15 TIME LEFT: 172799.84
 STEP:   9 TIME =     0.02 SECS, INTEGRAL =      0.17 TIME LEFT: 172799.82
 STEP:  10 TIME =     0.02 SECS, INTEGRAL =      0.19 TIME LEFT: 172799.80
 STEP:  11 TIME =     0.02 SECS, INTEGRAL =      0.21 TIME LEFT: 172799.79
 STEP:  12 TIME =     0.02 SECS, INTEGRAL =      0.22 TIME LEFT: 172799.77
 STEP:  13 TIME =     0.02 SECS, INTEGRAL =      0.24 TIME LEFT: 172799.75
 STEP:  14 TIME =     0.02 SECS, INTEGRAL =      0.26 TIME LEFT: 172799.73
 STEP:  15 TIME =     0.02 SECS, INTEGRAL =      0.28 TIME LEFT: 172799.71
 STEP:  16 TIME =     0.02 SECS, INTEGRAL =      0.30 TIME LEFT: 172799.70
 STEP:  17 TIME =     0.02 SECS, INTEGRAL =      0.32 TIME LEFT: 172799.68
 STEP:  18 TIME =     0.02 SECS, INTEGRAL =      0.33 TIME LEFT: 172799.66
 STEP:  19 TIME =     0.02 SECS, INTEGRAL =      0.35 TIME LEFT: 172799.64
 STEP:  20 TIME =     0.02 SECS, INTEGRAL =      0.37 TIME LEFT: 172799.62
 STEP:  21 TIME =     0.02 SECS, INTEGRAL =      0.39 TIME LEFT: 172799.61
 STEP:  22 TIME =     0.02 SECS, INTEGRAL =      0.41 TIME LEFT: 172799.59
 STEP:  23 TIME =     0.02 SECS, INTEGRAL =      0.43 TIME LEFT: 172799.57
 STEP:  24 TIME =     0.02 SECS, INTEGRAL =      0.45 TIME LEFT: 172799.55
 STEP:  25 TIME =     0.02 SECS, INTEGRAL =      0.46 TIME LEFT: 172799.53
 STEP:  26 TIME =     0.02 SECS, INTEGRAL =      0.48 TIME LEFT: 172799.51
 STEP:  27 TIME =     0.02 SECS, INTEGRAL =      0.50 TIME LEFT: 172799.49
 STEP:  28 TIME =     0.02 SECS, INTEGRAL =      0.52 TIME LEFT: 172799.48
 STEP:  29 TIME =     0.02 SECS, INTEGRAL =      0.53 TIME LEFT: 172799.46
 STEP:  30 TIME =     0.02 SECS, INTEGRAL =      0.55 TIME LEFT: 172799.44
 STEP:  31 TIME =     0.02 SECS, INTEGRAL =      0.57 TIME LEFT: 172799.43
 STEP:  32 TIME =     0.02 SECS, INTEGRAL =      0.59 TIME LEFT: 172799.41
 STEP:  33 TIME =     0.02 SECS, INTEGRAL =      0.61 TIME LEFT: 172799.39
 STEP:  34 TIME =     0.02 SECS, INTEGRAL =      0.62 TIME LEFT: 172799.37
 STEP:  35 TIME =     0.02 SECS, INTEGRAL =      0.64 TIME LEFT: 172799.35
 STEP:  36 TIME =     0.02 SECS, INTEGRAL =      0.66 TIME LEFT: 172799.33
 STEP:  37 TIME =     0.02 SECS, INTEGRAL =      0.68 TIME LEFT: 172799.32
 STEP:  38 TIME =     0.02 SECS, INTEGRAL =      0.70 TIME LEFT: 172799.30
 STEP:  39 TIME =     0.02 SECS, INTEGRAL =      0.71 TIME LEFT: 172799.28
 STEP:  40 TIME =     0.02 SECS, INTEGRAL =      0.73 TIME LEFT: 172799.26
 STEP:  41 TIME =     0.02 SECS, INTEGRAL =      0.75 TIME LEFT: 172799.24
 STEP:  42 TIME =     0.02 SECS, INTEGRAL =      0.77 TIME LEFT: 172799.22
 STEP:  43 TIME =     0.02 SECS, INTEGRAL =      0.79 TIME LEFT: 172799.21
 STEP:  44 TIME =     0.02 SECS, INTEGRAL =      0.80 TIME LEFT: 172799.19
 STEP:  45 TIME =     0.02 SECS, INTEGRAL =      0.82 TIME LEFT: 172799.17
 STEP:  46 TIME =     0.02 SECS, INTEGRAL =      0.84 TIME LEFT: 172799.15
 STEP:  47 TIME =     0.02 SECS, INTEGRAL =      0.86 TIME LEFT: 172799.13
 STEP:  48 TIME =     0.02 SECS, INTEGRAL =      0.88 TIME LEFT: 172799.11
 STEP:  49 TIME =     0.02 SECS, INTEGRAL =      0.89 TIME LEFT: 172799.10
 STEP:  50 TIME =     0.02 SECS, INTEGRAL =      0.91 TIME LEFT: 172799.08
 STEP:  51 TIME =     0.02 SECS, INTEGRAL =      0.93 TIME LEFT: 172799.06
 STEP:  52 TIME =     0.02 SECS, INTEGRAL =      0.95 TIME LEFT: 172799.04
 STEP:  53 TIME =     0.02 SECS, INTEGRAL =      0.97 TIME LEFT: 172799.02
 STEP:  54 TIME =     0.02 SECS, INTEGRAL =      0.99 TIME LEFT: 172799.00
 STEP:  55 TIME =     0.02 SECS, INTEGRAL =      1.01 TIME LEFT: 172798.98
 STEP:  56 TIME =     0.02 SECS, INTEGRAL =      1.03 TIME LEFT: 172798.96
 STEP:  57 TIME =     0.02 SECS, INTEGRAL =      1.04 TIME LEFT: 172798.95
 STEP:  58 TIME =     0.02 SECS, INTEGRAL =      1.06 TIME LEFT: 172798.93
 STEP:  59 TIME =     0.02 SECS, INTEGRAL =      1.08 TIME LEFT: 172798.91
 STEP:  60 TIME =     0.02 SECS, INTEGRAL =      1.10 TIME LEFT: 172798.89
 STEP:  61 TIME =     0.02 SECS, INTEGRAL =      1.12 TIME LEFT: 172798.88
 STEP:  62 TIME =     0.02 SECS, INTEGRAL =      1.13 TIME LEFT: 172798.86
 STEP:  63 TIME =     0.02 SECS, INTEGRAL =      1.15 TIME LEFT: 172798.84

(To convert to Hartree/Bohr^2, multiply by (10^(-21) x N x a0^2)/(4.184 x 627.51) =  0.0642)


           FORCE MATRIX IN MILLIDYNES/ANGSTROM


                  O  1       O  2       C  3       C  4       C  5       C  6
 ------------------------------------------------------------------------------
     O    1   7.412037
     O    2   1.856541   7.791209
     C    3   4.946031   0.986969  14.585404
     C    4   0.840655   0.100921   3.576848  14.107896
     C    5   0.058927   0.005936   0.605371   4.162374  14.369672
     C    6   0.006002   0.002861   0.053284   0.666952   4.469499  14.371532
     C    7   1.084680   5.584316   0.112782   0.016056   0.003577   0.001448
     C    8   0.927114   0.084791   4.286906   0.645378   0.049917   0.010747
     C    9   0.082001   0.984964   0.856255   0.043012   0.009079   0.002465
     H   10   0.057445   0.016464   0.444374   4.428038   0.443574   0.029992
     H   11   0.083279   0.003920   0.467804   4.453849   0.442726   0.027367
     H   12   0.431524   0.032333   4.104370   0.429729   0.038351   0.002178
     H   13   0.023296   0.001575   0.024279   0.444923   4.482520   0.434756
     H   14   0.002536   0.000871   0.032254   0.446033   4.443115   0.436732
     H   15   0.001207   0.000746   0.009029   0.051211   0.449623   4.754352
     H   16   0.000454   0.000720   0.002296   0.024776   0.464109   4.717670
     H   17   0.106051   0.599626   0.021990   0.005556   0.001012   0.000382
     H   18   0.001047   0.000462   0.002236   0.024110   0.463463   4.724697
     H   19   0.029045   0.452173   0.023357   0.002586   0.000394   0.000174
     H   20   0.054569   0.011432   0.417420   0.034303   0.002487   0.000922
     H   21   0.010882   0.060118   0.126425   0.015732   0.002292   0.000775


                  C  7       C  8       C  9       H 10       H 11       H 12
 ------------------------------------------------------------------------------
     C    7  15.145483
     C    8   0.909167  18.162208
     C    9   4.621619  10.760391  18.190674
     H   10   0.003751   0.063141   0.002802   5.043420
     H   11   0.002680   0.008452   0.002279   0.568192   5.082239
     H   12   0.021644   0.390929   0.030703   0.015273   0.039993   4.512801
     H   13   0.001379   0.001632   0.000788   0.046494   0.024377   0.002532
     H   14   0.000504   0.001892   0.000655   0.024430   0.045839   0.028431
     H   15   0.000424   0.002225   0.000719   0.001887   0.001748   0.000516
     H   16   0.000427   0.000783   0.000183   0.020541   0.001638   0.000365
     H   17   4.464207   0.040928   0.432187   0.001479   0.001115   0.002419
     H   18   0.000563   0.001026   0.000387   0.001639   0.019094   0.000477
     H   19   4.394968   0.031761   0.413773   0.000715   0.000453   0.002864
     H   20   0.128616   4.860359   0.450370   0.028831   0.002157   0.015771
     H   21   0.412386   0.452070   4.896183   0.001055   0.000391   0.016495


                  H 13       H 14       H 15       H 16       H 17       H 18
 ------------------------------------------------------------------------------
     H   13   5.089155
     H   14   0.571016   5.062308
     H   15   0.030455   0.030092   5.490946
     H   16   0.047939   0.024225   0.575335   5.462509
     H   17   0.000730   0.000156   0.000186   0.000177   5.138008
     H   18   0.024571   0.048371   0.575308   0.577153   0.000072   5.467036
     H   19   0.000264   0.000114   0.000107   0.000083   0.480618   0.000080
     H   20   0.000669   0.000685   0.000256   0.000275   0.015390   0.000214
     H   21   0.000181   0.000166   0.000188   0.000115   0.024057   0.000123


                  H 19       H 20       H 21
 ------------------------------------------
     H   19   4.872063
     H   20   0.017846   5.232637
     H   21   0.016934   0.068323   5.267073


          HEAT OF FORMATION =     -22.545129 KCALS/MOLE

          ZERO POINT ENERGY     111.432 KCAL/MOL


           NORMAL COORDINATE ANALYSIS (Total motion = 1 Angstrom)


   Root No.       1         2         3         4         5         6         7         8

                 1 A       2 A       3 A       4 A       5 A       6 A       7 A       8 A   

                  58.6      63.4      84.3     186.1     193.1     284.8     315.3     334.5
  
           1    0.0029    0.0032    0.0282   -0.0054    0.0053    0.0117   -0.0152   -0.0044
           2   -0.0194   -0.0102   -0.0030    0.0089   -0.0101   -0.0304   -0.0021    0.0068
           3   -0.0262   -0.0184    0.0405    0.0052   -0.0109   -0.0715   -0.0210   -0.0025
           4    0.0031    0.0037    0.0288   -0.0071    0.0083    0.0163   -0.0335   -0.0094
           5   -0.0079    0.0102    0.0108    0.0017   -0.0011    0.0903    0.0010    0.0026
           6   -0.0083    0.0115   -0.0131    0.0036   -0.0046    0.0507    0.0169    0.0018
           7   -0.0057   -0.0079    0.0054   -0.0035    0.0099   -0.0021    0.0044   -0.0015
           8   -0.0222   -0.0141   -0.0108    0.0091   -0.0085   -0.0331    0.0054    0.0064
           9   -0.0074   -0.0160    0.0248   -0.0057    0.0150   -0.0049    0.0128   -0.0191
          10   -0.0053   -0.0083    0.0093   -0.0021    0.0067   -0.0040    0.0200   -0.0018
          11   -0.0306   -0.0209   -0.0388   -0.0004    0.0225    0.0137   -0.0227   -0.0191
          12   -0.0093   -0.0090   -0.0023   -0.0142    0.0380    0.0099   -0.0090    0.0308
          13   -0.0063    0.0001   -0.0161    0.0090   -0.0120   -0.0088    0.0441    0.0041
          14    0.0410   -0.0357   -0.0079   -0.0281   -0.0061    0.0059   -0.0063   -0.0150
          15    0.0154   -0.0090   -0.0073   -0.0167    0.0156    0.0055    0.0055    0.0378
          16   -0.0053   -0.0057   -0.0137    0.0050   -0.0070   -0.0091    0.0531    0.0120
          17    0.0086    0.0511    0.0394    0.0028    0.0081   -0.0015    0.0118    0.0081
          18    0.0091    0.0291   -0.0257    0.0154   -0.0280    0.0024   -0.0252   -0.0250
          19    0.0150    0.0221   -0.0186   -0.0103    0.0180   -0.0236   -0.0240   -0.0136
          20    0.0182    0.0203   -0.0017   -0.0080    0.0157   -0.0348    0.0061   -0.0075
          21    0.0060    0.0219   -0.0347   -0.0012    0.0052   -0.0130    0.0192   -0.0034
          22   -0.0053   -0.0128   -0.0055    0.0081   -0.0141    0.0191   -0.0114   -0.0081
          23   -0.0028   -0.0114    0.0021    0.0101   -0.0148   -0.0024    0.0198   -0.0034
          24    0.0080   -0.0172    0.0277    0.0029   -0.0067    0.0256    0.0185   -0.0347
          25    0.0056    0.0028   -0.0210    0.0085   -0.0182    0.0024   -0.0382    0.0287
          26    0.0167    0.0047    0.0060    0.0044   -0.0101   -0.0146   -0.0093    0.0219
          27    0.0161    0.0026   -0.0053    0.0073   -0.0177   -0.0045   -0.0119    0.0194
          28   -0.0051   -0.0132    0.0026   -0.0086    0.0254    0.0242   -0.0054   -0.0189
          29   -0.0479   -0.0188   -0.0525    0.0022    0.0422    0.0333   -0.0419   -0.0262
          30   -0.0660    0.0029   -0.0406    0.0018    0.0786    0.0416   -0.0431    0.0259
          31   -0.0068   -0.0103    0.0351    0.0026   -0.0104   -0.0332    0.0380   -0.0121
          32   -0.0775   -0.0134   -0.0676    0.0111    0.0607    0.0449   -0.0550   -0.0313
          33    0.0281   -0.0141    0.0129   -0.0241    0.0126   -0.0057    0.0096    0.0424
          34   -0.0098   -0.0073   -0.0157   -0.0127    0.0353    0.0072    0.0026    0.0194
          35   -0.0343   -0.0116   -0.0028    0.0129   -0.0184   -0.0812   -0.0161    0.0297
          36   -0.0007   -0.0170    0.0257   -0.0050    0.0131    0.0159    0.0230   -0.0344
          37    0.0052   -0.0427   -0.0503   -0.0024   -0.0242   -0.0046    0.0383   -0.0117
          38    0.0652   -0.0655   -0.0161   -0.0420   -0.0146    0.0063   -0.0044   -0.0169
          39    0.0820   -0.0603    0.0025   -0.0496   -0.0001    0.0022    0.0180    0.0464
          40   -0.0185    0.0539   -0.0057    0.0355   -0.0269   -0.0148    0.0470   -0.0065
          41    0.0990   -0.0845   -0.0104   -0.0551   -0.0263    0.0035    0.0028   -0.0153
          42   -0.0266    0.0135   -0.0084   -0.0030    0.0355    0.0092   -0.0026    0.0403
          43   -0.0058    0.0018   -0.0353    0.0104   -0.0418   -0.0092    0.0238   -0.0405
          44    0.0695    0.0268    0.0576    0.1867    0.0849   -0.0039    0.0148    0.0152
          45    0.0301    0.0250   -0.0323    0.0832   -0.0221    0.0016   -0.0424   -0.0547
          46   -0.0146    0.0367    0.0213    0.0450    0.0214   -0.0137    0.0753    0.0435
          47   -0.0151    0.0847    0.0510   -0.0270   -0.0038   -0.0037    0.0189    0.0158
          48   -0.0662    0.0953   -0.0312   -0.1511   -0.1121    0.0010   -0.0308   -0.0415
          49    0.0107    0.0146   -0.0082   -0.0060    0.0087   -0.0022   -0.0314   -0.0025
          50    0.0282    0.0457   -0.0155   -0.0298    0.0605   -0.0917    0.0408   -0.0718
          51    0.0236    0.0477   -0.0823   -0.0129    0.0315   -0.1048    0.0382   -0.0314
          52    0.0053   -0.0602   -0.0254   -0.0444    0.0040   -0.0042    0.0667    0.0408
          53   -0.0541    0.1113    0.0480   -0.1254   -0.0446   -0.0036    0.0206    0.0165
          54    0.0583   -0.0023   -0.0288    0.1417    0.0125    0.0023   -0.0378   -0.0429
          55    0.0360    0.0588   -0.0635   -0.0342    0.0685   -0.1360    0.0118   -0.0780
          56    0.0293    0.0159   -0.0017   -0.0047    0.0069   -0.0731   -0.0086    0.0109
          57   -0.0081    0.0200   -0.0272   -0.0005    0.0054    0.0419    0.0278   -0.0111
          58   -0.0125   -0.0278   -0.0050    0.0180   -0.0322    0.0458   -0.0080   -0.0217
          59   -0.0048   -0.0240    0.0105    0.0168   -0.0284    0.0240    0.0260   -0.0182
          60    0.0138   -0.0337    0.0551    0.0088   -0.0214    0.0704    0.0348   -0.0608
          61    0.0082    0.0026   -0.0362    0.0208   -0.0440    0.0073   -0.0586    0.0708
          62    0.0320    0.0067    0.0158    0.0071   -0.0217   -0.0088   -0.0390    0.0445
          63    0.0290    0.0039   -0.0078    0.0173   -0.0430    0.0039   -0.0467    0.0634


   Root No.       9        10        11        12        13        14        15        16

                 9 A      10 A      11 A      12 A      13 A      14 A      15 A      16 A   

                 368.5     500.1     529.8     593.0     720.4     753.7     781.8     840.3
  
           1    0.0012   -0.0357    0.0004   -0.0281    0.0593    0.0570   -0.0217   -0.0158
           2    0.0403   -0.0180    0.0279    0.0207    0.0104    0.0074    0.0089   -0.0270
           3   -0.0356    0.0405   -0.0110   -0.0177   -0.0006   -0.0017   -0.0000    0.0194
           4   -0.0061   -0.0307    0.0503   -0.0146   -0.0465   -0.0381    0.0090   -0.0022
           5   -0.0049    0.0450   -0.0112    0.0354    0.0175   -0.0045    0.0027    0.0297
           6   -0.0038   -0.0257   -0.0054   -0.0242   -0.0116   -0.0044   -0.0009   -0.0207
           7    0.0080   -0.0225   -0.0497   -0.0031   -0.0002   -0.0123    0.0047    0.0089
           8    0.0404   -0.0200    0.0090    0.0184    0.0006   -0.0034    0.0007   -0.0052
           9    0.0093   -0.0138   -0.0119    0.0690   -0.0055    0.0007    0.0023   -0.0358
          10   -0.0005   -0.0238   -0.0513    0.0125    0.0124   -0.0231    0.0122    0.0206
          11   -0.0342   -0.0050    0.0117    0.0011   -0.0009   -0.0027   -0.0236   -0.0055
          12    0.0207    0.0001   -0.0143   -0.0037    0.0054   -0.0125   -0.0018    0.0073
          13   -0.0284    0.0065    0.0166    0.0067    0.0002    0.0003    0.0012   -0.0002
          14   -0.0178   -0.0079   -0.0029    0.0034    0.0031   -0.0059   -0.0263    0.0045
          15    0.0188    0.0233    0.0201   -0.0192   -0.0073    0.0071   -0.0111    0.0002
          16   -0.0317    0.0131    0.0280    0.0092   -0.0014    0.0027   -0.0010   -0.0055
          17   -0.0034    0.0027    0.0057   -0.0000    0.0006    0.0008   -0.0013    0.0013
          18    0.0056   -0.0074   -0.0118    0.0009   -0.0003    0.0007   -0.0006   -0.0007
          19    0.0197    0.0241    0.0281    0.0282    0.0009   -0.0006    0.0026    0.0201
          20   -0.0161    0.0090   -0.0207   -0.0106   -0.0278    0.0068   -0.0024   -0.0281
          21    0.0008   -0.0207   -0.0078   -0.0212   -0.0183    0.0045   -0.0007   -0.0150
          22    0.0360    0.0474   -0.0171   -0.0149   -0.0311    0.0171   -0.0027   -0.0086
          23    0.0265   -0.0199   -0.0009   -0.0595   -0.0057   -0.0039    0.0040    0.0697
          24    0.0093    0.0219    0.0206    0.0102   -0.0097    0.0194   -0.0026    0.0034
          25    0.0072    0.0288   -0.0208    0.0152   -0.0221    0.0157   -0.0027   -0.0090
          26   -0.0268   -0.0017   -0.0305   -0.0088   -0.0270    0.0081   -0.0023   -0.0180
          27   -0.0189   -0.0331    0.0313    0.0307    0.0235    0.0028    0.0024    0.0621
          28   -0.0377   -0.0203   -0.0597   -0.0102    0.0278   -0.0072    0.0374    0.0233
          29   -0.0654   -0.0002    0.0168   -0.0245    0.0138    0.0251    0.0295   -0.0030
          30   -0.0349    0.0134    0.0100   -0.0598    0.0315    0.0551    0.1329    0.0125
          31    0.0357   -0.0518   -0.0793    0.0750    0.0078   -0.0567   -0.0039    0.0039
          32   -0.0866   -0.0002    0.0221   -0.0381    0.0243    0.0507    0.0937   -0.0061
          33    0.0500    0.0051   -0.0131    0.0066   -0.0120   -0.0410   -0.0857    0.0120
          34   -0.0005   -0.0431   -0.0873    0.0013    0.0083   -0.0765    0.0064    0.0418
          35    0.0308   -0.0065    0.0124    0.0082    0.0263   -0.0129    0.0079   -0.0305
          36    0.0145   -0.0132   -0.0035    0.0715   -0.0182    0.0205   -0.0008   -0.0328
          37   -0.0454    0.0061    0.0319    0.0099    0.0008    0.0197    0.0437   -0.0271
          38   -0.0193   -0.0071   -0.0010    0.0016    0.0065    0.0131    0.0479   -0.0091
          39    0.0316    0.0253    0.0083   -0.0259    0.0022    0.0431    0.1694   -0.0131
          40   -0.0335    0.0074    0.0243    0.0110   -0.0049   -0.0079   -0.0608    0.0089
          41   -0.0145   -0.0066   -0.0055    0.0001    0.0113    0.0309    0.1338   -0.0161
          42    0.0172    0.0216    0.0196   -0.0173   -0.0117   -0.0180   -0.1126    0.0127
          43   -0.0426   -0.0212   -0.0130    0.0312    0.0136   -0.0194    0.0065    0.0090
          44    0.0003    0.0070    0.0113   -0.0009   -0.0013    0.0090    0.0317   -0.0100
          45    0.0006   -0.0273   -0.0359    0.0140    0.0083   -0.0103    0.0158    0.0047
          46   -0.0204    0.0338    0.0517    0.0001   -0.0095    0.0268    0.0637   -0.0333
          47    0.0007    0.0078    0.0109   -0.0017   -0.0010    0.0097    0.0334   -0.0100
          48    0.0052   -0.0188   -0.0279    0.0078    0.0054   -0.0023    0.0303   -0.0009
          49    0.0127    0.0063    0.0320    0.0315   -0.0241    0.0025    0.0034    0.0152
          50    0.0110    0.0409    0.0114   -0.0621    0.0542   -0.0663    0.0074   -0.0242
          51    0.0243    0.0707   -0.0424   -0.0119    0.0812    0.0140   -0.0069    0.0292
          52   -0.0332    0.0328    0.0548   -0.0044   -0.0105    0.0038   -0.0805    0.0031
          53    0.0014    0.0082    0.0105   -0.0028   -0.0010    0.0107    0.0361   -0.0100
          54    0.0022   -0.0197   -0.0263    0.0084    0.0047   -0.0079   -0.0006    0.0053
          55    0.0566    0.1114    0.0319    0.0046    0.1330   -0.0470    0.0068    0.0750
          56   -0.0314   -0.0107   -0.0240    0.0085   -0.0514    0.0348   -0.0060   -0.0068
          57    0.0097   -0.0143   -0.0057   -0.0367   -0.0152   -0.0161    0.0020   -0.0464
          58    0.0714    0.0916    0.0232   -0.0873    0.0533   -0.0548    0.0008   -0.0664
          59    0.0456    0.0239    0.0207   -0.1321    0.0635   -0.0723    0.0072   -0.0027
          60    0.0144    0.0929    0.0227   -0.1131    0.0788   -0.0879    0.0025   -0.1458
          61   -0.0064    0.0230   -0.0252   -0.0257    0.0912   -0.0823    0.0074   -0.0827
          62   -0.0594    0.0244   -0.0115    0.0196    0.0917   -0.0762    0.0043   -0.1387
          63   -0.0525   -0.0173    0.0419    0.0259    0.1848   -0.1225    0.0138   -0.0741


   Root No.      17        18        19        20        21        22        23        24

                17 A      18 A      19 A      20 A      21 A      22 A      23 A      24 A   

                 894.6     921.0     958.9     999.7    1013.9    1026.3    1033.3    1064.6
  
           1    0.0091    0.0006    0.0017    0.0043   -0.0069    0.0003   -0.0024    0.0027
           2   -0.0191    0.0025    0.0066   -0.0204    0.0167   -0.0046    0.0179   -0.0058
           3    0.0022    0.0028   -0.0020    0.0065    0.0033    0.0003    0.0023    0.0059
           4    0.0008   -0.0135    0.0044   -0.0056   -0.0078   -0.0074    0.0058   -0.0210
           5    0.0010    0.0018   -0.0031   -0.0010   -0.0030   -0.0071   -0.0017   -0.0055
           6    0.0006   -0.0058    0.0026   -0.0024    0.0008    0.0131    0.0027   -0.0142
           7   -0.0003   -0.0044   -0.0134   -0.0061    0.0041    0.0094    0.0052   -0.0105
           8    0.0058   -0.0015   -0.0040    0.0077   -0.0118    0.0060   -0.0117    0.0011
           9    0.0012   -0.0142   -0.0083    0.0240   -0.0159   -0.0189    0.0174    0.0063
          10   -0.0120    0.0090   -0.0064   -0.0190    0.0177   -0.0057   -0.0103    0.0055
          11    0.0374    0.0029   -0.0090    0.0010   -0.0092    0.0108   -0.0075    0.0005
          12    0.0044    0.0146    0.0315    0.0030   -0.0039    0.0025   -0.0033    0.0013
          13    0.0003    0.0015    0.0017   -0.0023    0.0008    0.0040   -0.0029   -0.0034
          14   -0.0160    0.0008    0.0069   -0.0052    0.0120   -0.0091    0.0070   -0.0006
          15   -0.0013   -0.0076   -0.0145   -0.0036    0.0058   -0.0023   -0.0010   -0.0005
          16   -0.0007    0.0031    0.0204    0.0100   -0.0048   -0.0049    0.0048    0.0037
          17   -0.0154   -0.0013    0.0074    0.0098   -0.0122    0.0066   -0.0043    0.0006
          18   -0.0025   -0.0085   -0.0334   -0.0062    0.0011   -0.0009   -0.0005    0.0025
          19   -0.0036    0.0341   -0.0143    0.0314    0.0213    0.0221    0.0050    0.0199
          20   -0.0033    0.0166   -0.0036    0.0044    0.0025   -0.0174   -0.0341    0.0102
          21   -0.0034    0.0131   -0.0039    0.0086    0.0049   -0.0096   -0.0062   -0.0007
          22    0.0012   -0.0198    0.0108   -0.0021    0.0057    0.0013   -0.0227   -0.0059
          23    0.0076   -0.0166   -0.0024    0.0354    0.0099   -0.0003    0.0091    0.0026
          24   -0.0021   -0.0105    0.0111   -0.0130    0.0169    0.0212   -0.0262   -0.0161
          25    0.0008   -0.0056    0.0062   -0.0135   -0.0173   -0.0055    0.0161    0.0143
          26    0.0004   -0.0085    0.0059   -0.0096   -0.0081    0.0183    0.0412    0.0083
          27    0.0008    0.0131   -0.0033   -0.0294   -0.0170   -0.0104   -0.0050    0.0182
          28   -0.0682    0.0076   -0.0100   -0.0771    0.1158   -0.0971    0.0360    0.0147
          29   -0.0206   -0.0054   -0.0091   -0.0127    0.0208   -0.0187    0.0080    0.0020
          30   -0.1143   -0.0100    0.0351    0.0238   -0.0166    0.0084   -0.0047   -0.0040
          31    0.0356    0.0065   -0.0650    0.0233   -0.0747    0.0447   -0.0507    0.0280
          32   -0.0672   -0.0213   -0.0312    0.0075   -0.0089   -0.0025   -0.0008    0.0030
          33    0.0698    0.0331    0.0658   -0.0142    0.0235   -0.0026    0.0037   -0.0075
          34    0.0206    0.0290   -0.0339   -0.0181   -0.0430    0.0754    0.0012   -0.0347
          35   -0.0195    0.0364    0.0123   -0.0980   -0.0233    0.0788   -0.1228   -0.0635
          36    0.0063   -0.0385   -0.0098    0.0729    0.0014   -0.0676    0.0675    0.0408
          37    0.1099    0.0114   -0.0143   -0.0283    0.0334   -0.0136    0.0177   -0.0092
          38    0.0291    0.0045   -0.0003   -0.0044    0.0050   -0.0024    0.0039   -0.0014
          39    0.0205   -0.0055   -0.0146    0.0279   -0.0508    0.0366   -0.0320    0.0032
          40   -0.0968   -0.0276   -0.0509    0.0135   -0.0399    0.0344   -0.0111   -0.0157
          41    0.0263    0.0019   -0.0075    0.0155   -0.0326    0.0219   -0.0112   -0.0007
          42   -0.0037    0.0008    0.0146   -0.0234    0.0520   -0.0355    0.0156    0.0036
          43   -0.0249    0.0519    0.2179    0.0605   -0.0297    0.0012    0.0020    0.0011
          44    0.0503    0.0053   -0.0081   -0.0136    0.0167   -0.0081    0.0060   -0.0011
          45    0.0055    0.0241    0.0836    0.0166   -0.0038   -0.0023    0.0011    0.0003
          46    0.1312    0.0005   -0.0680   -0.0495    0.0598   -0.0413    0.0306    0.0043
          47    0.0457    0.0049   -0.0057   -0.0116    0.0153   -0.0091    0.0069   -0.0001
          48    0.0281    0.0177    0.0462    0.0009    0.0092   -0.0070    0.0038   -0.0004
          49   -0.0072    0.0555   -0.0217    0.0463    0.0315    0.0238   -0.0043    0.0349
          50    0.0130   -0.1258    0.0515   -0.1186   -0.0507   -0.0342   -0.0816    0.1655
          51    0.0110   -0.0414    0.0089   -0.0070   -0.0319   -0.0186    0.0958   -0.2105
          52   -0.1149   -0.0524   -0.1148    0.0213   -0.0501    0.0196   -0.0120    0.0129
          53    0.0469    0.0033   -0.0141   -0.0147    0.0167   -0.0080    0.0058   -0.0012
          54   -0.0105    0.0089    0.0364    0.0103   -0.0061    0.0019   -0.0026    0.0008
          55    0.0183   -0.0929    0.0251   -0.0412   -0.0329    0.0256    0.0788   -0.0605
          56   -0.0069    0.0707   -0.0252    0.0155   -0.0139   -0.0762   -0.0849   -0.2091
          57   -0.0032   -0.0208    0.0115    0.0082    0.0295    0.0471    0.0304    0.2304
          58   -0.0053    0.0917   -0.0248   -0.0051   -0.0691   -0.1077   -0.0544    0.0594
          59   -0.0024    0.0848   -0.0343    0.0228   -0.0433   -0.0476    0.0371    0.0333
          60   -0.0254    0.1400   -0.0344   -0.0530   -0.0375    0.0437    0.1197   -0.0254
          61    0.0134   -0.0890    0.0046    0.0940    0.0043   -0.0995   -0.0322   -0.0262
          62   -0.0027   -0.0365    0.0024    0.0347    0.0815    0.1133   -0.0198   -0.0184
          63    0.0063   -0.0602   -0.0072    0.0710    0.0641    0.0011   -0.0815   -0.0288


   Root No.      25        26        27        28        29        30        31        32

                25 A      26 A      27 A      28 A      29 A      30 A      31 A      32 A   

                1073.4    1096.8    1105.3    1129.2    1135.9    1140.5    1151.7    1156.2
  
           1    0.0001    0.0026   -0.0015   -0.0025   -0.0006    0.0024   -0.0002    0.0005
           2   -0.0398   -0.0083   -0.0097   -0.0053    0.0027   -0.0028    0.0011    0.0039
           3   -0.0092   -0.0038    0.0012   -0.0001    0.0001   -0.0001   -0.0007    0.0011
           4    0.0045    0.0058   -0.0129   -0.0018   -0.0012    0.0103   -0.0046   -0.0003
           5   -0.0044    0.0081   -0.0060    0.0002   -0.0012   -0.0004   -0.0014   -0.0025
           6    0.0108   -0.0287    0.0280    0.0023    0.0030   -0.0079    0.0058    0.0037
           7   -0.0232    0.0135    0.0133    0.0071   -0.0026   -0.0155   -0.0041   -0.0275
           8    0.0164   -0.0023    0.0079    0.0056   -0.0060    0.0045   -0.0057   -0.0023
           9    0.0256    0.0198    0.0237    0.0071    0.0032    0.0006    0.0023   -0.0147
          10    0.0199   -0.0236   -0.0276    0.0087   -0.0079    0.0038    0.0087    0.0101
          11   -0.0069   -0.0120   -0.0187   -0.0045   -0.0027    0.0022    0.0229   -0.0146
          12   -0.0000    0.0014   -0.0018   -0.0084    0.0224    0.0136    0.0117    0.0422
          13   -0.0076    0.0021   -0.0011    0.0517   -0.0112    0.0130    0.0095    0.0028
          14    0.0090    0.0112    0.0157   -0.0095   -0.0268   -0.0011   -0.0157    0.0268
          15    0.0028   -0.0065   -0.0042    0.0205   -0.0368   -0.0068   -0.0091   -0.0316
          16    0.0076   -0.0018    0.0018   -0.0516    0.0100   -0.0128   -0.0073   -0.0039
          17   -0.0035   -0.0072   -0.0108    0.0179    0.0288   -0.0051   -0.0039   -0.0124
          18    0.0049   -0.0028   -0.0044   -0.0185    0.0221   -0.0030   -0.0004    0.0097
          19    0.0098   -0.0046    0.0140    0.0029    0.0019   -0.0114    0.0073    0.0018
          20   -0.0135    0.0087   -0.0055   -0.0009   -0.0007    0.0021   -0.0032   -0.0008
          21   -0.0107    0.0184   -0.0204   -0.0024   -0.0020    0.0041   -0.0038   -0.0015
          22   -0.0077   -0.0008    0.0008   -0.0040    0.0015    0.0009   -0.0032    0.0028
          23    0.0146    0.0070    0.0085   -0.0006    0.0045   -0.0043    0.0044    0.0003
          24   -0.0121    0.0062   -0.0100   -0.0071    0.0013    0.0020   -0.0029    0.0044
          25    0.0037   -0.0037    0.0041    0.0021   -0.0004   -0.0025    0.0014    0.0032
          26    0.0207   -0.0038    0.0021    0.0006    0.0014    0.0047    0.0031    0.0016
          27   -0.0094    0.0002    0.0015    0.0020   -0.0020   -0.0010   -0.0027   -0.0061
          28    0.0584   -0.0030    0.0184   -0.0431    0.0708    0.0451    0.0695   -0.0888
          29    0.0122    0.0015    0.0059   -0.0104    0.0097    0.0090    0.0204   -0.0290
          30    0.0140    0.0203    0.0260    0.0347   -0.0225   -0.0099   -0.0673    0.1075
          31    0.0407   -0.0827   -0.1063   -0.0377   -0.0862   -0.0318   -0.0794    0.0976
          32    0.0247    0.0008    0.0054    0.0007   -0.0419   -0.0217   -0.0452   -0.0103
          33   -0.0301    0.0097    0.0037    0.0021    0.0752    0.0436    0.0927    0.0125
          34   -0.2224    0.0868    0.1009   -0.0761    0.0247    0.0128   -0.0880   -0.0480
          35    0.2405    0.1457    0.0226   -0.0010    0.0217   -0.0322    0.0260   -0.0405
          36   -0.0234   -0.0637   -0.0046    0.0318   -0.0158    0.0107    0.0107    0.0081
          37   -0.0034    0.0300    0.0117    0.2284    0.1426   -0.0062   -0.0930    0.0560
          38    0.0016    0.0085    0.0055    0.0342    0.0246   -0.0021   -0.0220    0.0226
          39   -0.0257   -0.0454   -0.0508   -0.0252   -0.0349    0.0113    0.0822   -0.1081
          40   -0.0655    0.0599    0.0653    0.0477   -0.1242    0.1194    0.1293    0.0775
          41   -0.0218    0.0042   -0.0011   -0.0191    0.0343    0.0257    0.0433    0.0255
          42    0.0450   -0.0191   -0.0116    0.0304   -0.0527   -0.0597   -0.0913   -0.0529
          43   -0.0016   -0.0123   -0.0028   -0.0258   -0.0251   -0.0265   -0.0211   -0.0664
          44    0.0048    0.0085    0.0112   -0.0086   -0.0302    0.0019   -0.0052    0.0173
          45    0.0024   -0.0049   -0.0007   -0.0104   -0.0222   -0.0094   -0.0092   -0.0207
          46    0.0318    0.0335    0.0508   -0.1621   -0.0605   -0.0013   -0.0058    0.0726
          47    0.0057    0.0077    0.0109   -0.0215   -0.0154   -0.0007   -0.0048    0.0131
          48    0.0045    0.0006    0.0055   -0.0143   -0.0385   -0.0031   -0.0031   -0.0087
          49    0.0081   -0.0022    0.0176    0.0046    0.0023   -0.0201    0.0120    0.0037
          50   -0.0460   -0.0435    0.0678    0.0176   -0.0015   -0.0637    0.0210    0.0103
          51    0.0236    0.0505   -0.1058   -0.0257   -0.0053    0.1036   -0.0487   -0.0195
          52    0.0050   -0.0239   -0.0362   -0.0759    0.1728   -0.0277   -0.0088    0.0091
          53    0.0037    0.0088    0.0109   -0.0054   -0.0212    0.0049   -0.0004    0.0172
          54    0.0007   -0.0084   -0.0089    0.0084    0.0035   -0.0071   -0.0046   -0.0198
          55    0.0439   -0.0440    0.0357    0.0044    0.0047   -0.0082    0.0138    0.0066
          56   -0.0266   -0.0705    0.0560    0.0058    0.0023   -0.0477    0.0171    0.0140
          57   -0.0049    0.1045   -0.0866   -0.0096   -0.0057    0.0546   -0.0263   -0.0175
          58    0.0315   -0.0428    0.0521   -0.0114    0.0172    0.1488   -0.0625   -0.0354
          59    0.0355   -0.0084    0.0267    0.0056    0.0049    0.0340   -0.0099   -0.0145
          60   -0.0182    0.0275   -0.0382    0.0269   -0.0254   -0.1256    0.0494    0.0215
          61   -0.0294    0.0916   -0.0422    0.0174   -0.0053   -0.1141    0.0645    0.0406
          62    0.0289   -0.0788    0.0361   -0.0191    0.0076    0.1072   -0.0570   -0.0325
          63   -0.0262    0.0069   -0.0049   -0.0031   -0.0010    0.0037   -0.0076   -0.0083


   Root No.      33        34        35        36        37        38        39        40

                33 A      34 A      35 A      36 A      37 A      38 A      39 A      40 A   

                1211.1    1267.2    1306.7    1335.6    1354.6    1378.1    1393.6    1408.4
  
           1   -0.0034   -0.0005   -0.0078    0.0036    0.0020    0.0023    0.0024   -0.0013
           2   -0.0086   -0.0022    0.0171   -0.0238    0.0078    0.0064    0.0014    0.0047
           3    0.0001   -0.0000   -0.0006    0.0007   -0.0009   -0.0005    0.0005   -0.0007
           4    0.0028    0.0014   -0.0042    0.0048    0.0013    0.0006    0.0010   -0.0006
           5    0.0055    0.0047   -0.0020   -0.0002    0.0051    0.0042    0.0041   -0.0068
           6   -0.0091   -0.0094    0.0075   -0.0008   -0.0142   -0.0115   -0.0106    0.0138
           7    0.0426    0.0147    0.0504   -0.0086   -0.0041   -0.0176   -0.0155   -0.0087
           8    0.0162   -0.0004   -0.0333    0.0616   -0.0262   -0.0201   -0.0037   -0.0123
           9   -0.0036   -0.0013   -0.0093   -0.0168    0.0135    0.0132    0.0041    0.0075
          10    0.0050   -0.0210   -0.0111    0.0088   -0.0180    0.0222    0.0392    0.0054
          11    0.0004   -0.0022    0.0072   -0.0082   -0.0004    0.0087   -0.0014   -0.0054
          12   -0.0051    0.0119    0.0036   -0.0053    0.0107   -0.0170    0.0078    0.0200
          13    0.0031   -0.0247   -0.0211   -0.0194    0.0253   -0.0149   -0.0098    0.0087
          14    0.0073   -0.0057   -0.0033   -0.0033    0.0039    0.0013   -0.0085    0.0052
          15   -0.0170    0.0119    0.0081    0.0079   -0.0092   -0.0063    0.0259   -0.0160
          16    0.0049    0.0019    0.0008   -0.0032    0.0086   -0.0203   -0.0012   -0.0089
          17   -0.0037    0.0020    0.0005    0.0012   -0.0010    0.0002    0.0002   -0.0044
          18    0.0086   -0.0071   -0.0041   -0.0029    0.0045   -0.0056   -0.0008   -0.0097
          19   -0.0069   -0.0024   -0.0054   -0.0252   -0.0255   -0.0056   -0.0011   -0.0036
          20    0.0018   -0.0065    0.0144    0.0275    0.0025   -0.0159   -0.0194    0.0310
          21    0.0073    0.0112   -0.0083    0.0035    0.0331    0.0262    0.0237   -0.0309
          22    0.0035    0.0108   -0.0099    0.0046    0.0125    0.0024   -0.0020    0.0092
          23   -0.0045    0.0098   -0.0077   -0.0169    0.0144    0.0082    0.0003    0.0100
          24   -0.0123   -0.0163    0.0101    0.0041   -0.0162   -0.0054    0.0023   -0.0125
          25    0.0025    0.0086   -0.0138    0.0018    0.0103    0.0040   -0.0001    0.0085
          26   -0.0158   -0.0184    0.0102   -0.0094   -0.0143    0.0026    0.0094   -0.0220
          27    0.0116    0.0053    0.0051    0.0068    0.0004   -0.0065   -0.0078    0.0100
          28   -0.1368    0.0728   -0.0596    0.0597    0.0148   -0.0548   -0.1087   -0.0411
          29   -0.0240    0.0121   -0.0154    0.0141    0.0021    0.0020   -0.0794   -0.0492
          30    0.0782   -0.0492   -0.0128    0.0084   -0.0189    0.0600   -0.1306   -0.1066
          31   -0.1355    0.0724    0.0335   -0.0449    0.0497   -0.0262   -0.1304   -0.0481
          32   -0.0279    0.0205    0.0085   -0.0007    0.0053   -0.0435    0.1361    0.0985
          33    0.0612   -0.0335   -0.0106    0.0061   -0.0146    0.0419   -0.0685   -0.0592
          34   -0.1203   -0.0645   -0.1078    0.0227   -0.0013    0.0303    0.0202    0.0027
          35   -0.0170    0.0021    0.0312   -0.0631    0.0270    0.0216    0.0018    0.0058
          36    0.0524    0.0166    0.0005    0.0325   -0.0120   -0.0171   -0.0062   -0.0036
          37   -0.0620    0.0777    0.0443    0.0390   -0.0501    0.0502   -0.0080    0.0036
          38   -0.0080    0.0138    0.0091    0.0090   -0.0168    0.0444   -0.0444    0.0219
          39   -0.0006   -0.0336   -0.0230   -0.0128   -0.0013    0.0931   -0.1301    0.0622
          40   -0.0495    0.0914    0.0548    0.0386   -0.0522    0.0550   -0.0154    0.0062
          41    0.0017    0.0189    0.0132    0.0011    0.0111   -0.0853    0.1099   -0.0540
          42    0.0023   -0.0414   -0.0270   -0.0126    0.0061    0.0522   -0.0798    0.0380
          43   -0.0355    0.0597    0.0452    0.0449   -0.0663    0.0673    0.0295   -0.0238
          44    0.0039   -0.0043   -0.0001   -0.0085    0.0078   -0.0033   -0.0031    0.0670
          45   -0.0130    0.0222    0.0194    0.0195   -0.0323    0.0396    0.0144    0.0108
          46    0.0237    0.0204    0.0272    0.0340   -0.0574    0.0815    0.0084    0.0056
          47    0.0014    0.0091    0.0107    0.0133   -0.0242    0.0396    0.0007    0.0316
          48   -0.0030    0.0021    0.0040    0.0026   -0.0094    0.0281   -0.0104    0.1086
          49   -0.0134   -0.0143    0.0184    0.0171    0.0178    0.0079    0.0067   -0.0101
          50    0.0253    0.0597   -0.0891   -0.1232   -0.0612    0.0111    0.0205   -0.0344
          51    0.0263    0.0259   -0.0560   -0.0936   -0.1273   -0.0543   -0.0381    0.0418
          52    0.0169    0.0199    0.0265    0.0335   -0.0587    0.0892    0.0080    0.0649
          53    0.0043   -0.0068   -0.0062   -0.0116    0.0203   -0.0379    0.0063   -0.0514
          54   -0.0036   -0.0034   -0.0047   -0.0021    0.0045   -0.0022   -0.0087    0.0159
          55   -0.0366   -0.0630    0.1023    0.1595    0.1320    0.0274    0.0094    0.0005
          56    0.0078    0.0296   -0.0355   -0.0369    0.0117    0.0254    0.0241   -0.0308
          57    0.0096   -0.0085    0.0127    0.0197   -0.0159   -0.0224   -0.0212    0.0281
          58   -0.0164   -0.0645    0.0914   -0.0484   -0.0251    0.0035    0.0132   -0.0345
          59   -0.0002   -0.0075    0.0172   -0.0279    0.0037    0.0079    0.0040   -0.0022
          60    0.0393    0.0534   -0.0746    0.0585    0.0136   -0.0085   -0.0120    0.0232
          61   -0.0762   -0.0764    0.0349    0.0020   -0.0639   -0.0212   -0.0007   -0.0217
          62    0.0603    0.0665   -0.0400   -0.0099    0.0599    0.0294    0.0123    0.0035
          63    0.0197    0.0152   -0.0002    0.0082    0.0087   -0.0033   -0.0067    0.0098


   Root No.      41        42        43        44        45        46        47        48

                41 A      42 A      43 A      44 A      45 A      46 A      47 A      48 A   

                1409.1    1410.9    1417.0    1430.0    1868.9    2826.4    2937.8    2946.4
  
           1    0.0004    0.0005    0.0010    0.0002    0.0032    0.0003    0.0001   -0.0003
           2   -0.0017   -0.0028   -0.0095    0.0018    0.0002    0.0007    0.0001    0.0001
           3    0.0002    0.0004    0.0017   -0.0002   -0.0012    0.0003   -0.0002   -0.0001
           4    0.0002    0.0003    0.0008    0.0001   -0.0031    0.0001   -0.0005   -0.0000
           5    0.0017    0.0032    0.0072   -0.0007    0.0013   -0.0003   -0.0002    0.0000
           6   -0.0035   -0.0063   -0.0137    0.0009    0.0003    0.0000    0.0012   -0.0000
           7    0.0019    0.0053    0.0214   -0.0085   -0.0229   -0.0155    0.0000   -0.0002
           8    0.0043    0.0076    0.0281   -0.0039   -0.0063   -0.0291   -0.0001   -0.0006
           9   -0.0017   -0.0049   -0.0197    0.0023    0.0198   -0.0638   -0.0001   -0.0010
          10   -0.0016   -0.0036   -0.0208    0.0253   -0.0024   -0.0008    0.0000    0.0027
          11    0.0021    0.0009   -0.0141    0.0032   -0.0021    0.0021   -0.0000   -0.0326
          12   -0.0079   -0.0053    0.0310   -0.0059    0.0032    0.0008   -0.0000   -0.0089
          13   -0.0019   -0.0050    0.0117   -0.0557    0.0010   -0.0005   -0.0000   -0.0008
          14   -0.0035   -0.0027    0.0104   -0.0013    0.0005   -0.0008   -0.0000    0.0237
          15    0.0068    0.0076   -0.0307   -0.0040   -0.0011   -0.0003   -0.0000    0.0084
          16    0.0036    0.0147   -0.0030    0.0594   -0.0001    0.0000    0.0000    0.0001
          17   -0.0308    0.0080   -0.0026   -0.0002   -0.0000    0.0000   -0.0000   -0.0014
          18   -0.0061   -0.0259    0.0033    0.0075    0.0000    0.0000    0.0000   -0.0005
          19    0.0010    0.0019    0.0051   -0.0006    0.0217    0.0001   -0.0236    0.0000
          20   -0.0080   -0.0144   -0.0321    0.0022   -0.0221    0.0001   -0.0425    0.0000
          21    0.0079    0.0140    0.0302   -0.0017   -0.0004    0.0001   -0.0457    0.0000
          22   -0.0024   -0.0046   -0.0117    0.0013    0.2169    0.0007   -0.0004    0.0003
          23   -0.0028   -0.0055   -0.0168    0.0018   -0.0488    0.0005   -0.0002   -0.0002
          24    0.0032    0.0065    0.0190   -0.0019   -0.1257   -0.0009    0.0000   -0.0000
          25   -0.0022   -0.0043   -0.0118    0.0015   -0.2155   -0.0006    0.0003   -0.0000
          26    0.0057    0.0106    0.0259   -0.0021    0.1048    0.0001   -0.0006    0.0000
          27   -0.0026   -0.0046   -0.0100    0.0003    0.0877    0.0000    0.0001   -0.0000
          28    0.0223    0.0212    0.0292   -0.0505   -0.0064    0.0024   -0.0001   -0.0883
          29    0.0194    0.0174   -0.0303   -0.0203   -0.0051   -0.0106    0.0003    0.2490
          30    0.0368    0.0334   -0.1111   -0.0032    0.0031    0.0020   -0.0001   -0.0767
          31    0.0114    0.0188   -0.0106   -0.0505    0.0000   -0.0001    0.0001    0.0576
          32   -0.0389   -0.0318    0.0966    0.0152    0.0009   -0.0155    0.0000    0.1422
          33    0.0249    0.0185   -0.0700    0.0047   -0.0005   -0.0192    0.0000    0.1854
          34    0.0015   -0.0047   -0.0324    0.0092    0.0047    0.1929    0.0001    0.0039
          35   -0.0019   -0.0047   -0.0244    0.0022   -0.0133    0.3411    0.0004    0.0044
          36    0.0012    0.0033    0.0176   -0.0043    0.0090    0.7706    0.0013    0.0117
          37   -0.0030   -0.0009    0.0065    0.0989    0.0004   -0.0015   -0.0000    0.0573
          38   -0.0134   -0.0143    0.0433    0.0629    0.0003    0.0031    0.0001   -0.1646
          39   -0.0313   -0.0487    0.1178    0.0721   -0.0004   -0.0012   -0.0000    0.0518
          40   -0.0079   -0.0032    0.0136    0.1069    0.0003   -0.0004    0.0000   -0.0475
          41    0.0243    0.0394   -0.1031   -0.0839   -0.0000    0.0047    0.0002   -0.1210
          42   -0.0174   -0.0313    0.0715    0.0252   -0.0002    0.0069    0.0002   -0.1529
          43   -0.0020   -0.1162   -0.0165   -0.1056   -0.0004   -0.0000    0.0000   -0.0001
          44    0.2991    0.0280    0.0135    0.0234    0.0000   -0.0000    0.0000   -0.0004
          45    0.1036   -0.0723   -0.0002   -0.0697   -0.0003    0.0000   -0.0000    0.0003
          46   -0.1387   -0.0157   -0.0009   -0.1372    0.0002    0.0001   -0.0000   -0.0027
          47   -0.0295    0.0608   -0.0020   -0.0648    0.0001   -0.0002    0.0000    0.0109
          48    0.1132    0.2374   -0.0014   -0.0163   -0.0001    0.0001   -0.0000   -0.0027
          49    0.0026    0.0046    0.0102   -0.0007    0.0160   -0.0004    0.1869   -0.0000
          50    0.0089    0.0159    0.0346   -0.0023   -0.0378   -0.0002    0.0049   -0.0000
          51   -0.0106   -0.0184   -0.0370    0.0017    0.0153    0.0001    0.0149   -0.0000
          52    0.1107    0.0045    0.0100   -0.1383    0.0000    0.0001   -0.0000    0.0016
          53    0.1163   -0.1834    0.0096    0.0530   -0.0000   -0.0001   -0.0000    0.0074
          54   -0.1469    0.1493   -0.0110    0.0158   -0.0000   -0.0001   -0.0000    0.0085
          55   -0.0002   -0.0008   -0.0039    0.0009    0.0021   -0.0004    0.1021   -0.0000
          56    0.0078    0.0138    0.0287   -0.0014   -0.0185   -0.0008    0.5111   -0.0000
          57   -0.0071   -0.0127   -0.0265    0.0014    0.0073   -0.0010    0.5177   -0.0000
          58    0.0080    0.0165    0.0407   -0.0036    0.0289    0.0010   -0.0018   -0.0003
          59    0.0003    0.0005   -0.0025    0.0004   -0.1397   -0.0037    0.0020    0.0022
          60   -0.0051   -0.0105   -0.0246    0.0020    0.0759   -0.0017   -0.0013   -0.0009
          61    0.0059    0.0114    0.0331   -0.0033   -0.0313   -0.0020    0.0004   -0.0002
          62   -0.0011   -0.0030   -0.0138    0.0022   -0.1203   -0.0019   -0.0003   -0.0002
          63   -0.0025   -0.0046   -0.0106    0.0002    0.1021    0.0013   -0.0031    0.0002


   Root No.      49        50        51        52        53        54        55        56

                49 A      50 A      51 A      52 A      53 A      54 A      55 A      56 A   

                2959.9    3022.6    3029.6    3036.1    3061.2    3078.0    3083.9    3084.3
  
           1   -0.0003    0.0005    0.0001   -0.0000    0.0001   -0.0000   -0.0001    0.0000
           2    0.0001    0.0001    0.0000    0.0000    0.0003    0.0000   -0.0003    0.0000
           3   -0.0000   -0.0002    0.0001    0.0000   -0.0002    0.0000    0.0001   -0.0000
           4   -0.0000   -0.0019   -0.0000   -0.0000    0.0000   -0.0000    0.0002   -0.0000
           5    0.0000   -0.0009    0.0000    0.0000   -0.0001    0.0000   -0.0003   -0.0000
           6    0.0000    0.0015    0.0000    0.0000    0.0001   -0.0000    0.0003   -0.0000
           7   -0.0000    0.0000    0.0010    0.0000   -0.0001    0.0000   -0.0004    0.0000
           8   -0.0003    0.0000    0.0001   -0.0001   -0.0004    0.0000    0.0003    0.0000
           9   -0.0003    0.0000    0.0006    0.0001    0.0002    0.0000    0.0003    0.0000
          10    0.0021   -0.0002    0.0148    0.0028   -0.0005   -0.0000    0.0002   -0.0004
          11   -0.0243    0.0000   -0.0052   -0.0015    0.0004    0.0002   -0.0001   -0.0000
          12   -0.0065   -0.0003    0.0300    0.0066   -0.0006    0.0000    0.0001    0.0000
          13    0.0009    0.0000   -0.0035    0.0146   -0.0000    0.0003    0.0000   -0.0013
          14   -0.0320   -0.0000    0.0026   -0.0109    0.0000   -0.0030   -0.0000    0.0008
          15   -0.0116    0.0001   -0.0055    0.0275   -0.0000   -0.0005    0.0000   -0.0027
          16   -0.0001    0.0000   -0.0002    0.0010   -0.0000    0.0023    0.0000    0.0058
          17    0.0016   -0.0000   -0.0004    0.0016    0.0000   -0.0523    0.0000    0.0118
          18    0.0006   -0.0000    0.0008   -0.0035    0.0001   -0.0133   -0.0003   -0.0457
          19    0.0000   -0.0505   -0.0003   -0.0000    0.0003    0.0000    0.0025   -0.0000
          20    0.0000    0.0046    0.0000    0.0000    0.0003   -0.0000   -0.0004    0.0000
          21    0.0000   -0.0006    0.0000   -0.0000    0.0000    0.0000   -0.0005   -0.0000
          22    0.0002   -0.0002    0.0006    0.0002    0.0224    0.0000   -0.0173    0.0001
          23   -0.0002    0.0004   -0.0008   -0.0002   -0.0411   -0.0000    0.0247   -0.0001
          24   -0.0000   -0.0003    0.0002    0.0000    0.0110    0.0000   -0.0039    0.0000
          25   -0.0000    0.0012    0.0001    0.0000    0.0110   -0.0000    0.0265   -0.0001
          26    0.0000    0.0020    0.0002    0.0000    0.0151   -0.0000    0.0224   -0.0001
          27   -0.0000   -0.0024   -0.0002   -0.0000   -0.0189    0.0000   -0.0355    0.0001
          28   -0.0648    0.0011   -0.1021   -0.0212    0.0020    0.0016   -0.0000   -0.0004
          29    0.1880   -0.0035    0.3261    0.0703   -0.0118   -0.0018    0.0034   -0.0009
          30   -0.0609    0.0008   -0.0746   -0.0166    0.0035   -0.0000   -0.0012    0.0004
          31    0.0406    0.0009   -0.0817   -0.0158    0.0015   -0.0012   -0.0002   -0.0006
          32    0.1022    0.0029   -0.2613   -0.0531    0.0052   -0.0014   -0.0008    0.0003
          33    0.1386    0.0032   -0.2947   -0.0595    0.0056   -0.0009   -0.0008    0.0007
          34    0.0028    0.0000   -0.0028   -0.0011    0.0006   -0.0000   -0.0009    0.0001
          35    0.0011   -0.0001   -0.0027   -0.0001   -0.0006   -0.0001   -0.0004   -0.0000
          36    0.0033    0.0001   -0.0053    0.0009    0.0016   -0.0002   -0.0023   -0.0002
          37   -0.0740   -0.0003    0.0253   -0.1070    0.0001   -0.0116   -0.0000    0.0108
          38    0.2195    0.0009   -0.0816    0.3567   -0.0005    0.0241    0.0002   -0.0298
          39   -0.0734   -0.0002    0.0199   -0.0852    0.0001   -0.0083   -0.0001    0.0063
          40    0.0627   -0.0002    0.0157   -0.0684    0.0000    0.0074    0.0000    0.0087
          41    0.1636   -0.0006    0.0489   -0.2254    0.0001    0.0094   -0.0000    0.0213
          42    0.2130   -0.0006    0.0533   -0.2495    0.0001    0.0140    0.0000    0.0228
          43    0.0001    0.0000    0.0018   -0.0150    0.0003    0.0146   -0.0013   -0.2040
          44    0.0005   -0.0000    0.0015   -0.0108    0.0002   -0.0191   -0.0008   -0.1223
          45   -0.0004    0.0000   -0.0044    0.0319   -0.0005   -0.0308    0.0021    0.3448
          46    0.0016   -0.0000   -0.0023    0.0057   -0.0000   -0.1454    0.0003    0.0705
          47   -0.0125    0.0000    0.0055   -0.0178    0.0001    0.4017   -0.0008   -0.1916
          48    0.0033   -0.0000   -0.0008    0.0034   -0.0000   -0.1205    0.0001    0.0287
          49   -0.0000    0.6748    0.0041    0.0000   -0.0086   -0.0001   -0.0305    0.0002
          50   -0.0000    0.0878    0.0005   -0.0000    0.0003   -0.0000   -0.0018    0.0000
          51   -0.0000    0.1240    0.0008   -0.0000   -0.0024   -0.0000   -0.0067    0.0000
          52   -0.0007    0.0000   -0.0016    0.0030   -0.0001    0.1034    0.0005    0.0658
          53   -0.0087    0.0001   -0.0031    0.0090   -0.0003    0.2428    0.0013    0.1726
          54   -0.0103    0.0001   -0.0026    0.0085   -0.0003    0.3109    0.0013    0.1721
          55   -0.0000   -0.0485   -0.0003    0.0000    0.0006    0.0000    0.0028   -0.0000
[...]
 EFF. MASS   6.8023         C  7 -- H 19         +10.7% ( 44.2%)      3.9%

 VIBRATION   37   37A         ATOM PAIR      ENERGY CONTRIBUTION    RADIAL
 FREQ.      1354.64         C  7 -- H 17         +13.4% ( 48.0%)      3.6%
 T-DIPOLE    0.1843         C  7 -- H 19         +12.2% ( 45.7%)      6.5%
 TRAVEL      0.0915         O  2 -- C  7          +9.3% ( 39.9%)     89.8%
 RED. MASS   0.5597         C  7 -- C  9          +8.4% ( 37.9%)     16.8%
 EFF. MASS   5.9464

 VIBRATION   38   38A         ATOM PAIR      ENERGY CONTRIBUTION    RADIAL
 FREQ.      1378.12         C  3 -- C  4          +8.8% ( 37.0%)     38.9%
 T-DIPOLE    0.2177         C  4 -- H 10          +7.2% ( 33.3%)      0.9%
 TRAVEL      0.0992         O  2 -- C  7          +6.8% ( 32.5%)     95.4%
 RED. MASS   0.4053         C  7 -- H 17          +6.4% ( 31.5%)      0.2%
 EFF. MASS   4.9674

 VIBRATION   39   39A         ATOM PAIR      ENERGY CONTRIBUTION    RADIAL
 FREQ.      1393.63         C  4 -- H 11         +20.1% ( 50.7%)      2.2%
 T-DIPOLE    0.0650         C  4 -- H 10         +17.4% ( 47.2%)      3.1%
 TRAVEL      0.1118         C  5 -- H 13          +9.5% ( 34.9%)      3.2%
 RED. MASS   0.3956         C  5 -- H 14          +9.4% ( 34.7%)      3.4%
 EFF. MASS   3.8691

 VIBRATION   40   40A         ATOM PAIR      ENERGY CONTRIBUTION    RADIAL
 FREQ.      1408.40         C  7 -- C  9         +14.0% ( 46.4%)     83.0%
 T-DIPOLE    0.1600         O  2 -- C  7         +11.1% ( 41.2%)     77.7%
 TRAVEL      0.0919         C  7 -- H 17          +9.7% ( 38.6%)      0.6%
 RED. MASS   0.5674         C  7 -- H 19          +9.0% ( 37.2%)      0.0%
 EFF. MASS   5.6671

 VIBRATION   41   41A         ATOM PAIR      ENERGY CONTRIBUTION    RADIAL
 FREQ.      1409.11         C  6 -- H 15         +46.6% ( 60.3%)      0.0%
 T-DIPOLE    0.0536         C  6 -- H 18         +22.5% ( 41.9%)      6.8%
 TRAVEL      0.1661         C  6 -- H 16         +16.0% ( 35.3%)     16.4%
 RED. MASS   0.3663         C  5 -- C  6          +4.6% ( 18.9%)      1.3%
 EFF. MASS   1.7350

 VIBRATION   42   42A         ATOM PAIR      ENERGY CONTRIBUTION    RADIAL
 FREQ.      1410.92         C  6 -- H 16         +30.9% ( 52.8%)      0.7%
 T-DIPOLE    0.0768         C  6 -- H 18         +28.8% ( 51.0%)      1.0%
 TRAVEL      0.1423         C  6 -- H 15         +10.6% ( 31.0%)     32.7%
 RED. MASS   0.3207         C  5 -- C  6          +5.3% ( 22.0%)     12.9%
 EFF. MASS   2.3599

 VIBRATION   43   43A         ATOM PAIR      ENERGY CONTRIBUTION    RADIAL
 FREQ.      1417.01         C  7 -- C  9          +9.5% ( 42.4%)     88.2%
 T-DIPOLE    0.1352         C  4 -- C  5          +8.5% ( 40.1%)     99.6%
 TRAVEL      0.0802         C  3 -- C  4          +8.2% ( 39.4%)     20.9%
 RED. MASS   0.7235         C  3 -- C  8          +8.0% ( 38.7%)     96.6%
 EFF. MASS   7.3994

 VIBRATION   44   44A         ATOM PAIR      ENERGY CONTRIBUTION    RADIAL
 FREQ.      1429.96         C  5 -- C  6         +20.8% ( 59.5%)     99.7%
 T-DIPOLE    0.0242         C  6 -- H 16         +13.8% ( 48.5%)      3.7%
 TRAVEL      0.0909         C  6 -- H 18         +13.6% ( 48.0%)      3.4%
 RED. MASS   1.0826         C  6 -- H 15         +12.1% ( 45.2%)      4.2%
 EFF. MASS   5.7050         C  5 -- H 14         +11.6% ( 44.3%)      2.6%
                            C  5 -- H 13         +11.5% ( 44.1%)      2.6%

 VIBRATION   45   45A         ATOM PAIR      ENERGY CONTRIBUTION    RADIAL
 FREQ.      1868.88         C  8 -- C  9         +45.1% ( 99.0%)    100.0%
 T-DIPOLE    0.1444         C  3 -- C  8         +14.1% ( 55.4%)     43.4%
 TRAVEL      0.0551         C  7 -- C  9         +14.0% ( 55.2%)     43.7%
 RED. MASS   5.4462         C  8 -- H 20         +13.1% ( 53.5%)      6.1%
 EFF. MASS  11.8811         C  9 -- H 21         +13.0% ( 53.2%)      6.0%

 VIBRATION   46   46A         ATOM PAIR      ENERGY CONTRIBUTION    RADIAL
 FREQ.      2826.38         C  3 -- H 12         +96.7% ( 99.9%)    100.0%
 T-DIPOLE    0.0482         C  3 -- C  4          +1.1% ( 10.5%)     11.6%
 TRAVEL      0.1283         O  1 -- C  3          +1.1% ( 10.5%)     10.5%
 RED. MASS   0.9277         C  3 -- C  8          +1.0% ( 10.4%)      8.9%
 EFF. MASS   1.4500

 VIBRATION   47   47A         ATOM PAIR      ENERGY CONTRIBUTION    RADIAL
 FREQ.      2937.78         C  7 -- H 19         +89.8% ( 97.1%)     99.5%
 T-DIPOLE    0.0264         C  7 -- H 17          +8.0% ( 29.0%)     76.8%
 TRAVEL      0.1239         O  2 -- C  7          +1.1% ( 10.7%)      8.7%
 RED. MASS   0.8333         C  7 -- C  9          +1.1% ( 10.6%)      4.1%
 EFF. MASS   1.4957

 VIBRATION   48   48A         ATOM PAIR      ENERGY CONTRIBUTION    RADIAL
 FREQ.      2946.36         C  4 -- H 10         +35.2% ( 61.8%)     97.1%
 T-DIPOLE    0.0560         C  4 -- H 11         +27.5% ( 54.7%)     95.7%
 TRAVEL      0.1214         C  5 -- H 14         +18.8% ( 45.2%)     96.8%
 RED. MASS   0.2835         C  5 -- H 13         +15.7% ( 41.3%)     95.7%
 EFF. MASS   1.5529

 VIBRATION   49   49A         ATOM PAIR      ENERGY CONTRIBUTION    RADIAL
 FREQ.      2959.91         C  5 -- H 14         +35.2% ( 61.4%)     97.1%
 T-DIPOLE    0.0814         C  5 -- H 13         +27.9% ( 54.6%)     95.9%
 TRAVEL      0.1220         C  4 -- H 10         +19.9% ( 46.2%)     97.4%
 RED. MASS   0.2837         C  4 -- H 11         +14.8% ( 39.8%)     95.9%
 EFF. MASS   1.5308

 VIBRATION   50   50A         ATOM PAIR      ENERGY CONTRIBUTION    RADIAL
 FREQ.      3022.64         C  7 -- H 17         +91.8% ( 95.9%)     99.8%
 T-DIPOLE    0.2187         C  7 -- H 19          +6.4% ( 25.3%)     59.1%
 TRAVEL      0.1294         C  7 -- C  9          +0.8% (  8.8%)     21.2%
 RED. MASS   0.8107         O  2 -- C  7          +0.8% (  8.7%)      5.5%
 EFF. MASS   1.3331

 VIBRATION   51   51A         ATOM PAIR      ENERGY CONTRIBUTION    RADIAL
 FREQ.      3029.61         C  4 -- H 11         +54.1% ( 72.5%)     98.3%
 T-DIPOLE    0.0863         C  4 -- H 10         +40.2% ( 62.5%)     96.8%
 TRAVEL      0.1323         C  5 -- H 13          +2.6% ( 15.8%)     98.6%
 RED. MASS   0.4504         C  5 -- H 14          +1.8% ( 13.2%)     96.7%
 EFF. MASS   1.2720

 VIBRATION   52   52A         ATOM PAIR      ENERGY CONTRIBUTION    RADIAL
 FREQ.      3036.07         C  5 -- H 13         +52.2% ( 71.1%)     98.3%
 T-DIPOLE    0.0833         C  5 -- H 14         +41.5% ( 63.5%)     97.0%
 TRAVEL      0.1320         C  4 -- H 11          +2.4% ( 15.1%)     97.9%
 RED. MASS   0.4413         C  4 -- H 10          +2.0% ( 13.9%)     96.9%
 EFF. MASS   1.2744

 VIBRATION   53   53A         ATOM PAIR      ENERGY CONTRIBUTION    RADIAL
 FREQ.      3061.19         C  8 -- H 20         +72.8% ( 86.6%)    100.0%
 T-DIPOLE    0.3383         C  9 -- H 21         +24.6% ( 50.4%)     99.9%
 TRAVEL      0.1225         C  8 -- C  9          +1.2% ( 10.9%)      4.6%
 RED. MASS   0.5791         C  3 -- C  8          +1.0% ( 10.3%)     17.3%
 EFF. MASS   1.4687

 VIBRATION   54   54A         ATOM PAIR      ENERGY CONTRIBUTION    RADIAL
 FREQ.      3077.98         C  6 -- H 16         +52.8% ( 75.0%)     97.5%
 T-DIPOLE    0.0100         C  6 -- H 18         +44.8% ( 69.0%)     96.4%
 TRAVEL      0.1208         C  6 -- H 15          +1.1% ( 11.0%)      5.3%
 RED. MASS   0.5072         C  5 -- C  6          +1.0% ( 10.2%)      0.0%
 EFF. MASS   1.5009

 VIBRATION   55   55A         ATOM PAIR      ENERGY CONTRIBUTION    RADIAL
 FREQ.      3083.86         C  9 -- H 21         +72.0% ( 86.2%)     99.9%
 T-DIPOLE    0.3820         C  8 -- H 20         +24.0% ( 49.8%)     99.8%
 TRAVEL      0.1170         C  8 -- C  9          +2.1% ( 14.7%)     90.9%
 RED. MASS   0.5777         C  7 -- C  9          +1.2% ( 11.1%)     15.4%
 EFF. MASS   1.5960

 VIBRATION   56   56A         ATOM PAIR      ENERGY CONTRIBUTION    RADIAL
 FREQ.      3084.34         C  6 -- H 15         +61.0% ( 80.5%)     98.7%
 T-DIPOLE    0.0133         C  6 -- H 18         +22.3% ( 48.7%)     88.7%
 TRAVEL      0.1206         C  6 -- H 16         +15.1% ( 40.1%)     82.3%
 RED. MASS   0.4725         C  5 -- C  6          +1.0% ( 10.3%)      0.0%
 EFF. MASS   1.5026

 VIBRATION   57   57A         ATOM PAIR      ENERGY CONTRIBUTION    RADIAL
 FREQ.      3181.13         C  6 -- H 15         +37.2% ( 58.7%)     97.7%
 T-DIPOLE    0.0277         C  6 -- H 18         +31.8% ( 54.2%)     96.9%
 TRAVEL      0.1365         C  6 -- H 16         +30.8% ( 53.4%)     96.7%
 RED. MASS   0.3289         C  5 -- C  6          +0.3% (  5.1%)     99.4%
 EFF. MASS   1.1370

      SYMMETRY NUMBER FOR POINT-GROUP C1  =  1


          SYSTEM IS A GROUND STATE



 InChI=1S/C7H12O2/c1-2-4-7-5-3-6-8-9-7/h3,5,7H,2,4,6H2,1H3


          MOLECULE IS NOT LINEAR

          THERE ARE 57 GENUINE VIBRATIONS IN THIS SYSTEM
          THIS THERMODYNAMICS CALCULATION IS LIMITED TO
          MOLECULES WHICH HAVE NO INTERNAL ROTATIONS




                    CALCULATED THERMODYNAMIC PROPERTIES
                                          *
   TEMP. (K)   PARTITION FUNCTION   H.O.F.    ENTHALPY  HEAT CAPACITY ENTROPY
                                   KCAL/MOL   CAL/MOLE    CAL/K/MOL  CAL/K/MOL


 298.00  VIB.     0.5188D+03                  4169.4342    29.1009    26.4145
         ROT.     0.5402D+06                   888.2813     2.9808    29.2115
         INT.     0.2803D+09                  5057.7155    32.0817    55.6260
         TRA.     0.1403D+28                  1480.4688     4.9680    40.4556
         TOT.                      -22.545    6538.1844    37.0497    96.0816

 200.00  VIB.     0.5222D+02                  1857.9943    18.4210    17.1502
         ROT.     0.2970D+06                   596.1620     2.9808    28.0228
         INT.     0.1551D+08                  2454.1563    21.4019    45.1730
         TRA.     0.7713D+27                   993.6033     4.9680    38.4745
         TOT.                      -25.636    3447.7595    26.3699    83.6475

 210.00  VIB.     0.6596D+02                  2047.0837    19.4017    18.0726
         ROT.     0.3196D+06                   625.9700     2.9808    28.1683
         INT.     0.2108D+08                  2673.0537    22.3825    46.2409
         TRA.     0.8299D+27                  1043.2834     4.9680    38.7168
         TOT.                      -25.367    3716.3371    27.3505    84.9577

 220.00  VIB.     0.8332D+02                  2246.1256    20.4116    18.9984
         ROT.     0.3427D+06                   655.7781     2.9808    28.3069
         INT.     0.2855D+08                  2901.9037    23.3924    47.3053
         TRA.     0.8899D+27                  1092.9636     4.9680    38.9480
         TOT.                      -25.088    3994.8673    28.3604    86.2532

 230.00  VIB.     0.1052D+03                  2455.4105    21.4501    19.9285
         ROT.     0.3663D+06                   685.5862     2.9808    28.4394
         INT.     0.3855D+08                  3140.9967    24.4309    48.3679
         TRA.     0.9512D+27                  1142.6437     4.9680    39.1688
         TOT.                      -24.800    4283.6405    29.3989    87.5367

 240.00  VIB.     0.1329D+03                  2675.2188    22.5159    20.8638
         ROT.     0.3905D+06                   715.3943     2.9808    28.5663
         INT.     0.5190D+08                  3390.6132    25.4968    49.4301
         TRA.     0.1014D+28                  1192.3239     4.9680    39.3802
         TOT.                      -24.500    4582.9371    30.4648    88.8104

 250.00  VIB.     0.1679D+03                  2905.8132    23.6069    21.8050
         ROT.     0.4151D+06                   745.2024     2.9808    28.6880
         INT.     0.6972D+08                  3651.0157    26.5877    50.4930
         TRA.     0.1078D+28                  1242.0041     4.9680    39.5830
         TOT.                      -24.190    4893.0197    31.5557    90.0760

 260.00  VIB.     0.2123D+03                  3147.4321    24.7204    22.7525
         ROT.     0.4403D+06                   775.0105     2.9808    28.8049
         INT.     0.9345D+08                  3922.4427    27.7012    51.5574
         TRA.     0.1143D+28                  1291.6842     4.9680    39.7779
         TOT.                      -23.869    5214.1269    32.6692    91.3353

 270.00  VIB.     0.2683D+03                  3400.2855    25.8533    23.7067
         ROT.     0.4659D+06                   804.8186     2.9808    28.9174
         INT.     0.1250D+09                  4205.1042    28.8341    52.6240
         TRA.     0.1210D+28                  1341.3644     4.9680    39.9654
         TOT.                      -23.537    5546.4686    33.8021    92.5894

 280.00  VIB.     0.3394D+03                  3664.5519    27.0024    24.6676
         ROT.     0.4920D+06                   834.6267     2.9808    29.0258
         INT.     0.1670D+09                  4499.1787    29.9832    53.6934
         TRA.     0.1278D+28                  1391.0445     4.9680    40.1461
         TOT.                      -23.193    5890.2232    34.9512    93.8394

 290.00  VIB.     0.4295D+03                  3940.3766    28.1644    25.6354
         ROT.     0.5186D+06                   864.4348     2.9808    29.1304
         INT.     0.2228D+09                  4804.8114    31.1452    54.7658
         TRA.     0.1347D+28                  1440.7247     4.9680    40.3204
         TOT.                      -22.838    6245.5361    36.1132    95.0862

 300.00  VIB.     0.5439D+03                  4227.8709    29.3358    26.6099
         ROT.     0.5457D+06                   894.2429     2.9808    29.2314
         INT.     0.2968D+09                  5122.1138    32.3166    55.8414
         TRA.     0.1417D+28                  1490.4049     4.9680    40.4888
         TOT.                      -22.471    6612.5187    37.2846    96.3302

 310.00  VIB.     0.6892D+03                  4527.1129    30.5134    27.5910
         ROT.     0.5732D+06                   924.0510     2.9808    29.3292
         INT.     0.3951D+09                  5451.1640    33.4942    56.9202
         TRA.     0.1488D+28                  1540.0850     4.9680    40.6517
         TOT.                      -22.092    6991.2490    38.4622    97.5719

 320.00  VIB.     0.8739D+03                  4838.1484    31.6940    28.5784
         ROT.     0.6012D+06                   953.8591     2.9808    29.4238
         INT.     0.5253D+09                  5792.0075    34.6748    58.0022
         TRA.     0.1561D+28                  1589.7652     4.9680    40.8094
         TOT.                      -21.702    7381.7727    39.6428    98.8117

 330.00  VIB.     0.1109D+04                  5160.9920    32.8746    29.5718
         ROT.     0.6296D+06                   983.6672     2.9808    29.5155
         INT.     0.6981D+09                  6144.6593    35.8554    59.0873
         TRA.     0.1635D+28                  1639.4454     4.9680    40.9623
         TOT.                      -21.299    7784.1046    40.8234   100.0496

 340.00  VIB.     0.1408D+04                  5495.6302    34.0524    30.5707
         ROT.     0.6584D+06                  1013.4753     2.9808    29.6045
         INT.     0.9270D+09                  6509.1055    37.0332    60.1752
         TRA.     0.1710D+28                  1689.1255     4.9680    41.1106
         TOT.                      -20.885    8198.2310    42.0012   101.2858

 350.00  VIB.     0.1789D+04                  5842.0225    35.2250    31.5747
         ROT.     0.6877D+06                  1043.2834     2.9808    29.6909
         INT.     0.1230D+10                  6885.3060    38.2058    61.2656
         TRA.     0.1786D+28                  1738.8057     4.9680    41.2546
         TOT.                      -20.459    8624.1116    43.1738   102.5203

 360.00  VIB.     0.2275D+04                  6200.1048    36.3900    32.5834
         ROT.     0.7173D+06                  1073.0915     2.9808    29.7749
         INT.     0.1632D+10                  7273.1963    39.3708    62.3583
         TRA.     0.1863D+28                  1788.4859     4.9680    41.3946
         TOT.                      -20.022    9061.6821    44.3388   103.7529

 370.00  VIB.     0.2896D+04                  6569.7910    37.5455    33.5962
         ROT.     0.7474D+06                  1102.8996     2.9808    29.8566
         INT.     0.2164D+10                  7672.6906    40.5263    63.4528
         TRA.     0.1941D+28                  1838.1660     4.9680    41.5307
         TOT.                      -19.572    9510.8566    45.4943   104.9835

 380.00  VIB.     0.3688D+04                  6950.9765    38.6896    34.6127
         ROT.     0.7779D+06                  1132.7077     2.9808    29.9361
         INT.     0.2869D+10                  8083.6842    41.6704    64.5488
         TRA.     0.2020D+28                  1887.8462     4.9680    41.6632
         TOT.                      -19.112    9971.5304    46.6384   106.2120

 390.00  VIB.     0.4701D+04                  7343.5397    39.8208    35.6323
         ROT.     0.8088D+06                  1162.5158     2.9808    30.0135
         INT.     0.3802D+10                  8506.0555    42.8016    65.6458
         TRA.     0.2100D+28                  1937.5263     4.9680    41.7923
         TOT.                      -18.640   10443.5818    47.7696   107.4381

 400.00  VIB.     0.5996D+04                  7747.3449    40.9378    36.6546
         ROT.     0.8402D+06                  1192.3239     2.9808    30.0890
         INT.     0.5037D+10                  8939.6688    43.9186    66.7436
         TRA.     0.2182D+28                  1987.2065     4.9680    41.9180
         TOT.                      -18.156   10926.8753    48.8866   108.6616

   *: NOTE: HEATS OF FORMATION ARE RELATIVE TO THE
            ELEMENTS IN THEIR STANDARD STATE AT 298K
              (=  Standard Enthalpy of Formation).

            Hvib:  Zero-point energy is not included.
                   frequencies of less than zero cm-1 are not included.
            Hrot = (3/2)RT
            Htra = (3/2)RT + pV = (5/2)RT

            Heat capacity is Cp, not Cv

          For more information, see: HTTP://OpenMOPAC.net/Manual/thermochemistry.html


           FORCE CONSTANT IN CARTESIAN COORDINATES (Millidynes/A)

    ATOM   CHEMICAL       X               Y               Z
   NUMBER   SYMBOL  FORCE CONSTANT  FORCE CONSTANT  FORCE CONSTANT

      1       O        3.843391        6.201875        1.016400
      2       O        3.548665        2.015218        5.805836
      3       C        8.358921        8.739552        8.127919
      4       C        7.925506        8.294682        8.209804
      5       C        8.455754        8.213490        8.213395
      6       C        8.347416        8.209378        8.332808
      7       C        8.870762        8.201626        9.098094
      8       C       11.926973        8.638947        6.557294
      9       C       11.735019        8.050897        7.432171
     10       H        1.162541        4.259188        0.973223
     11       H        0.963529        2.353068        3.124253
     12       H        0.896169        1.232337        3.633065
     13       H        1.101614        4.331365        0.990919
     14       H        0.942125        2.345586        3.115523
     15       H        1.767702        1.066784        3.959829
     16       H        1.198891        4.626322        0.947726
     17       H        4.863978        0.683181        0.818125
     18       H        1.000801        2.530058        3.244998
     19       H        0.709212        2.642487        2.714265
     20       H        1.504138        3.944160        0.827136
     21       H        1.570463        1.903917        2.821456

 **********************
 *                    *
 * JOB ENDED NORMALLY *
 *                    *
 **********************



 TOTAL JOB TIME:             2.16 SECONDS

 == MOPAC DONE ==
