 *******************************************************************************
 ** Site#: 14399        For non-commercial use only    Version 18.184L 64BITS **
 *******************************************************************************
 ** Cite this program as: MOPAC2016, Version: 18.184L, James J. P. Stewart,   **
 ** Stewart Computational Chemistry, web: HTTP://OpenMOPAC.net. Days left:  18**
 *******************************************************************************
 **                                                                           **
 **                                MOPAC2016                                  **
 **                                                                           **
 *******************************************************************************

                              PM3 CALCULATION RESULTS

 *******************************************************************************
 *  CALCULATION DONE:                                Sat Jun 15 10:14:47 2019  *
 *  PM3        - The PM3 Hamiltonian to be used
 *  PRECISE    - CRITERIA TO BE INCREASED BY 100 TIMES
 *  NOSYM      - POINT-GROUP SYMMETRY SET TO C1
 *  THREADS=1  - MULTI-THREADING NOT USED
 *  T=         - A TIME OF 172800.0 SECONDS REQUESTED
 *  DUMP=N     - RESTART FILE WRITTEN EVERY  7200.000 SECONDS
 *******************************************************************************
pm3  precise nosym THREADS=1
 InChI=1S/C10H12/c1-8-6-7-9-4-2-3-5-10(8)9/h2-4,10H,1,5-7H2

   ATOM   CHEMICAL          X               Y               Z
  NUMBER   SYMBOL      (ANGSTROMS)     (ANGSTROMS)     (ANGSTROMS)
 
     1       C          0.10340000  *  -0.46680000  *  -0.44160000  *
     2       C         -1.05340000  *   1.70810000  *  -0.02750000  *
     3       C         -2.09760000  *   0.58990000  *   0.07730000  *
     4       C          1.06610000  *  -1.24980000  *   0.47350000  *
     5       C          0.24680000  *   0.99810000  *  -0.19960000  *
     6       C         -1.34580000  *  -0.68690000  *  -0.16060000  *
     7       C          2.45330000  *  -0.65120000  *   0.39240000  *
     8       C          1.44230000  *   1.54900000  *   0.04340000  *
     9       C          2.61790000  *   0.66920000  *   0.21300000  *
    10       C         -1.93820000  *  -1.88600000  *  -0.19770000  *
    11       H          0.32420000  *  -0.69370000  *  -1.50800000  *
    12       H         -1.04670000  *   2.31620000  *   0.90350000  *
    13       H         -1.24840000  *   2.36010000  *  -0.90590000  *
    14       H         -2.88900000  *   0.72130000  *  -0.69210000  *
    15       H          0.71920000  *  -1.20090000  *   1.52900000  *
    16       H         -2.55580000  *   0.57520000  *   1.09010000  *
    17       H          1.10280000  *  -2.31520000  *   0.16160000  *
    18       H          3.31840000  *  -1.28770000  *   0.52800000  *
    19       H          1.53710000  *   2.61350000  *   0.21650000  *
    20       H          3.61130000  *   1.09850000  *   0.23030000  *
    21       H         -1.36360000  *  -2.78140000  *  -0.41240000  *
    22       H         -3.00430000  *  -1.97930000  *  -0.01620000  *
 


          CARTESIAN COORDINATES 

    NO.       ATOM           X           Y           Z

     1         C          0.1034     -0.4668     -0.4416
     2         C         -1.0534      1.7081     -0.0275
     3         C         -2.0976      0.5899      0.0773
     4         C          1.0661     -1.2498      0.4735
     5         C          0.2468      0.9981     -0.1996
     6         C         -1.3458     -0.6869     -0.1606
     7         C          2.4533     -0.6512      0.3924
     8         C          1.4423      1.5490      0.0434
     9         C          2.6179      0.6692      0.2130
    10         C         -1.9382     -1.8860     -0.1977
    11         H          0.3242     -0.6937     -1.5080
    12         H         -1.0467      2.3162      0.9035
    13         H         -1.2484      2.3601     -0.9059
    14         H         -2.8890      0.7213     -0.6921
    15         H          0.7192     -1.2009      1.5290
    16         H         -2.5558      0.5752      1.0901
    17         H          1.1028     -2.3152      0.1616
    18         H          3.3184     -1.2877      0.5280
    19         H          1.5371      2.6135      0.2165
    20         H          3.6113      1.0985      0.2303
    21         H         -1.3636     -2.7814     -0.4124
    22         H         -3.0043     -1.9793     -0.0162

  H: (PM3): J. J. P. STEWART, J. COMP. CHEM. 10, 209 (1989).
  C: (PM3): J. J. P. STEWART, J. COMP. CHEM. 10, 209 (1989).

           Empirical Formula: C10 H12  =    22 atoms



      MOLECULAR POINT GROUP   :   C1  


      RHF CALCULATION, NO. OF DOUBLY OCCUPIED LEVELS = 26


          Geometry optimization using EF

          DIAGONAL MATRIX USED AS START HESSIAN

 CYCLE:     1 TIME:   0.008 TIME LEFT:  2.00D  GRAD.:    72.315 HEAT:  35.64182
 CYCLE:     2 TIME:   0.012 TIME LEFT:  2.00D  GRAD.:    61.224 HEAT:  34.53688
 CYCLE:     3 TIME:   0.004 TIME LEFT:  2.00D  GRAD.:    54.697 HEAT:  33.99590
 CYCLE:     4 TIME:   0.008 TIME LEFT:  2.00D  GRAD.:    39.228 HEAT:  33.49533
 CYCLE:     5 TIME:   0.004 TIME LEFT:  2.00D  GRAD.:    50.037 HEAT:  33.37690
 CYCLE:     6 TIME:   0.004 TIME LEFT:  2.00D  GRAD.:    40.507 HEAT:  33.04799
 CYCLE:     7 TIME:   0.008 TIME LEFT:  2.00D  GRAD.:    25.618 HEAT:  32.71170
 CYCLE:     8 TIME:   0.008 TIME LEFT:  2.00D  GRAD.:    20.640 HEAT:  32.61605
 CYCLE:     9 TIME:   0.008 TIME LEFT:  2.00D  GRAD.:    12.833 HEAT:  32.49235
 CYCLE:    10 TIME:   0.004 TIME LEFT:  2.00D  GRAD.:    26.307 HEAT:  32.48112
 CYCLE:    11 TIME:   0.004 TIME LEFT:  2.00D  GRAD.:    11.160 HEAT:  32.31374
 CYCLE:    12 TIME:   0.008 TIME LEFT:  2.00D  GRAD.:    15.991 HEAT:  32.29313
 CYCLE:    13 TIME:   0.004 TIME LEFT:  2.00D  GRAD.:    11.513 HEAT:  32.20598
 CYCLE:    14 TIME:   0.012 TIME LEFT:  2.00D  GRAD.:    12.627 HEAT:  32.18654
 CYCLE:    15 TIME:   0.004 TIME LEFT:  2.00D  GRAD.:     7.133 HEAT:  32.12791
 CYCLE:    16 TIME:   0.012 TIME LEFT:  2.00D  GRAD.:     6.346 HEAT:  32.11060
 CYCLE:    17 TIME:   0.004 TIME LEFT:  2.00D  GRAD.:     6.078 HEAT:  32.09111
 CYCLE:    18 TIME:   0.004 TIME LEFT:  2.00D  GRAD.:     4.821 HEAT:  32.06288
 CYCLE:    19 TIME:   0.008 TIME LEFT:  2.00D  GRAD.:     6.946 HEAT:  32.02613
 CYCLE:    20 TIME:   0.004 TIME LEFT:  2.00D  GRAD.:     5.418 HEAT:  31.97166
 CYCLE:    21 TIME:   0.004 TIME LEFT:  2.00D  GRAD.:     9.600 HEAT:  31.94589
 CYCLE:    22 TIME:   0.004 TIME LEFT:  2.00D  GRAD.:     6.875 HEAT:  31.91466
 CYCLE:    23 TIME:   0.004 TIME LEFT:  2.00D  GRAD.:     8.470 HEAT:  31.91228
 CYCLE:    24 TIME:   0.008 TIME LEFT:  2.00D  GRAD.:     3.279 HEAT:  31.88104
 CYCLE:    25 TIME:   0.004 TIME LEFT:  2.00D  GRAD.:     3.851 HEAT:  31.86569
 CYCLE:    26 TIME:   0.004 TIME LEFT:  2.00D  GRAD.:     4.816 HEAT:  31.83955
 CYCLE:    27 TIME:   0.004 TIME LEFT:  2.00D  GRAD.:     4.257 HEAT:  31.81313
 CYCLE:    28 TIME:   0.004 TIME LEFT:  2.00D  GRAD.:     3.817 HEAT:  31.78862
 CYCLE:    29 TIME:   0.008 TIME LEFT:  2.00D  GRAD.:     4.392 HEAT:  31.76759
 CYCLE:    30 TIME:   0.004 TIME LEFT:  2.00D  GRAD.:     4.571 HEAT:  31.73497
 CYCLE:    31 TIME:   0.004 TIME LEFT:  2.00D  GRAD.:     5.463 HEAT:  31.71925
 CYCLE:    32 TIME:   0.008 TIME LEFT:  2.00D  GRAD.:     3.122 HEAT:  31.69990
 CYCLE:    33 TIME:   0.004 TIME LEFT:  2.00D  GRAD.:     3.607 HEAT:  31.68677
 CYCLE:    34 TIME:   0.004 TIME LEFT:  2.00D  GRAD.:     3.281 HEAT:  31.67577
 CYCLE:    35 TIME:   0.004 TIME LEFT:  2.00D  GRAD.:     2.749 HEAT:  31.66940
 CYCLE:    36 TIME:   0.004 TIME LEFT:  2.00D  GRAD.:     2.297 HEAT:  31.66252
 CYCLE:    37 TIME:   0.008 TIME LEFT:  2.00D  GRAD.:     2.092 HEAT:  31.65385
 CYCLE:    38 TIME:   0.004 TIME LEFT:  2.00D  GRAD.:     1.841 HEAT:  31.64322
 CYCLE:    39 TIME:   0.004 TIME LEFT:  2.00D  GRAD.:     1.918 HEAT:  31.63634
 CYCLE:    40 TIME:   0.004 TIME LEFT:  2.00D  GRAD.:     1.863 HEAT:  31.62890
 CYCLE:    41 TIME:   0.004 TIME LEFT:  2.00D  GRAD.:     1.712 HEAT:  31.62300
 CYCLE:    42 TIME:   0.008 TIME LEFT:  2.00D  GRAD.:     1.733 HEAT:  31.61815
 CYCLE:    43 TIME:   0.004 TIME LEFT:  2.00D  GRAD.:     1.401 HEAT:  31.61374
 CYCLE:    44 TIME:   0.004 TIME LEFT:  2.00D  GRAD.:     1.164 HEAT:  31.60938
 CYCLE:    45 TIME:   0.004 TIME LEFT:  2.00D  GRAD.:     0.967 HEAT:  31.60719
 CYCLE:    46 TIME:   0.004 TIME LEFT:  2.00D  GRAD.:     0.763 HEAT:  31.60561
 CYCLE:    47 TIME:   0.008 TIME LEFT:  2.00D  GRAD.:     0.586 HEAT:  31.60444
 CYCLE:    48 TIME:   0.004 TIME LEFT:  2.00D  GRAD.:     0.448 HEAT:  31.60383
 CYCLE:    49 TIME:   0.004 TIME LEFT:  2.00D  GRAD.:     0.286 HEAT:  31.60358
 CYCLE:    50 TIME:   0.004 TIME LEFT:  2.00D  GRAD.:     0.282 HEAT:  31.60342
 CYCLE:    51 TIME:   0.004 TIME LEFT:  2.00D  GRAD.:     0.333 HEAT:  31.60324
 CYCLE:    52 TIME:   0.008 TIME LEFT:  2.00D  GRAD.:     0.326 HEAT:  31.60302
 CYCLE:    53 TIME:   0.004 TIME LEFT:  2.00D  GRAD.:     0.277 HEAT:  31.60281
 CYCLE:    54 TIME:   0.004 TIME LEFT:  2.00D  GRAD.:     0.245 HEAT:  31.60265
 CYCLE:    55 TIME:   0.004 TIME LEFT:  2.00D  GRAD.:     0.260 HEAT:  31.60249
 CYCLE:    56 TIME:   0.008 TIME LEFT:  2.00D  GRAD.:     0.346 HEAT:  31.60226
 CYCLE:    57 TIME:   0.004 TIME LEFT:  2.00D  GRAD.:     0.406 HEAT:  31.60194
 CYCLE:    58 TIME:   0.004 TIME LEFT:  2.00D  GRAD.:     0.387 HEAT:  31.60162
 CYCLE:    59 TIME:   0.004 TIME LEFT:  2.00D  GRAD.:     0.407 HEAT:  31.60118
 CYCLE:    60 TIME:   0.004 TIME LEFT:  2.00D  GRAD.:     0.386 HEAT:  31.60095
 CYCLE:    61 TIME:   0.004 TIME LEFT:  2.00D  GRAD.:     0.583 HEAT:  31.60014
 CYCLE:    62 TIME:   0.008 TIME LEFT:  2.00D  GRAD.:     0.492 HEAT:  31.59978
 CYCLE:    63 TIME:   0.004 TIME LEFT:  2.00D  GRAD.:     0.554 HEAT:  31.59898
 CYCLE:    64 TIME:   0.004 TIME LEFT:  2.00D  GRAD.:     0.357 HEAT:  31.59876
 CYCLE:    65 TIME:   0.004 TIME LEFT:  2.00D  GRAD.:     0.246 HEAT:  31.59843
 CYCLE:    66 TIME:   0.008 TIME LEFT:  2.00D  GRAD.:     0.242 HEAT:  31.59825
 CYCLE:    67 TIME:   0.004 TIME LEFT:  2.00D  GRAD.:     0.135 HEAT:  31.59819
 CYCLE:    68 TIME:   0.004 TIME LEFT:  2.00D  GRAD.:     0.103 HEAT:  31.59816
 CYCLE:    69 TIME:   0.004 TIME LEFT:  2.00D  GRAD.:     0.090 HEAT:  31.59815
 CYCLE:    70 TIME:   0.004 TIME LEFT:  2.00D  GRAD.:     0.067 HEAT:  31.59813
 CYCLE:    71 TIME:   0.004 TIME LEFT:  2.00D  GRAD.:     0.070 HEAT:  31.59812
 CYCLE:    72 TIME:   0.008 TIME LEFT:  2.00D  GRAD.:     0.062 HEAT:  31.59811
 CYCLE:    73 TIME:   0.004 TIME LEFT:  2.00D  GRAD.:     0.052 HEAT:  31.59810
 CYCLE:    74 TIME:   0.004 TIME LEFT:  2.00D  GRAD.:     0.047 HEAT:  31.59810

     GRADIENT =  0.04742  IS LESS THAN CUTOFF =  0.05000



 -------------------------------------------------------------------------------
 pm3  precise nosym THREADS=1
 InChI=1S/C10H12/c1-8-6-7-9-4-2-3-5-10(8)9/h2-4,10H,1,5-7H2



     GEOMETRY OPTIMISED USING EIGENVECTOR FOLLOWING (EF).     
     SCF FIELD WAS ACHIEVED                                   


                              PM3 CALCULATION
                                                       MOPAC2016 (Version: 18.184L)
                                                       Sat Jun 15 10:14:47 2019
                                                       No. of days remaining =  18




          FINAL HEAT OF FORMATION =         31.59810 KCAL/MOL =     132.20644 KJ/MOL


          TOTAL ENERGY            =      -1369.02608 EV
          ELECTRONIC ENERGY       =      -7580.46000 EV  POINT GROUP:     C1  
          CORE-CORE REPULSION     =       6211.43392 EV
          COSMO AREA              =        175.25 SQUARE ANGSTROMS
          COSMO VOLUME            =        179.85 CUBIC ANGSTROMS

          GRADIENT NORM           =          0.04742 = 0.01011 PER ATOM
          IONIZATION POTENTIAL    =          8.839631 EV
          HOMO LUMO ENERGIES (EV) =         -8.840  0.245
          NO. OF FILLED LEVELS    =         26
          MOLECULAR WEIGHT        =        132.2048

          MOLECULAR DIMENSIONS (Angstroms)

            Atom       Atom       Distance
            H    22    H    20     7.29922
            H    18    H    13     5.42266
            H    11    H    16     3.09402


          SCF CALCULATIONS        =         83
 
          WALL-CLOCK TIME         =          0.391 SECONDS
          COMPUTATION TIME        =          0.363 SECONDS




   ATOM   CHEMICAL          X               Y               Z
  NUMBER   SYMBOL      (ANGSTROMS)     (ANGSTROMS)     (ANGSTROMS)
 
     1       C          0.08694753  *  -0.42670419  *  -0.43570089  *
     2       C         -1.06032831  *   1.72099473  *  -0.12187196  *
     3       C         -2.10075988  *   0.59992781  *   0.00581019  *
     4       C          1.08927046  *  -1.29056087  *   0.32217837  *
     5       C          0.26146654  *   1.03369919  *  -0.12020863  *
     6       C         -1.36124746  *  -0.69721827  *  -0.14067518  *
     7       C          2.44022043  *  -0.65936499  *   0.35192570  *
     8       C          1.45833502  *   1.55432333  *   0.18011278  *
     9       C          2.60766642  *   0.66871074  *   0.27397428  *
    10       C         -1.91826417  *  -1.89869320  *  -0.03528303  *
    11       H          0.24860110  *  -0.56126858  *  -1.53478129  *
    12       H         -1.13729081  *   2.45357063  *   0.70228226  *
    13       H         -1.19355084  *   2.29719180  *  -1.05706081  *
    14       H         -2.89207122  *   0.68710017  *  -0.76153780  *
    15       H          0.75688885  *  -1.46009035  *   1.36666244  *
    16       H         -2.61734817  *   0.63850345  *   0.98304135  *
    17       H          1.14367800  *  -2.29455499  *  -0.14240888  *
    18       H          3.29503885  *  -1.33294510  *   0.47062000  *
    19       H          1.59670893  *   2.61807779  *   0.39419781  *
    20       H          3.60108870  *   1.12647713  *   0.30775999  *
    21       H         -1.35012525  *  -2.81786626  *  -0.14335087  *
    22       H         -2.97578361  *  -2.03638555  *   0.16731921  *

                             CARTESIAN COORDINATES

   1    C        0.086947530    -0.426704194    -0.435700890
   2    C       -1.060328306     1.720994734    -0.121871956
   3    C       -2.100759877     0.599927815     0.005810185
   4    C        1.089270465    -1.290560865     0.322178369
   5    C        0.261466541     1.033699193    -0.120208625
   6    C       -1.361247456    -0.697218275    -0.140675180
   7    C        2.440220429    -0.659364991     0.351925701
   8    C        1.458335018     1.554323330     0.180112777
   9    C        2.607666420     0.668710740     0.273974284
  10    C       -1.918264166    -1.898693199    -0.035283029
  11    H        0.248601104    -0.561268582    -1.534781286
  12    H       -1.137290806     2.453570634     0.702282259
  13    H       -1.193550843     2.297191798    -1.057060814
  14    H       -2.892071223     0.687100167    -0.761537796
  15    H        0.756888854    -1.460090347     1.366662443
  16    H       -2.617348169     0.638503451     0.983041346
  17    H        1.143678003    -2.294554988    -0.142408880
  18    H        3.295038854    -1.332945095     0.470620004
  19    H        1.596708933     2.618077794     0.394197807
  20    H        3.601088699     1.126477131     0.307759994
  21    H       -1.350125251    -2.817866261    -0.143350874
  22    H       -2.975783611    -2.036385546     0.167319206


           Empirical Formula: C10 H12  =    22 atoms



      MOLECULAR POINT GROUP   :   C1  


                  EIGENVALUES  
 -41.87834 -35.47735 -32.26945 -28.41676 -27.57135 -23.63861 -22.08127 -20.04371
 -18.69826 -17.25125 -16.98546 -16.17677 -15.64192 -15.30832 -14.61903 -14.35093
 -13.88773 -13.42393 -12.96079 -12.82332 -12.51331 -11.97316 -11.72061 -11.11245
  -9.86412  -8.83963   0.24460   1.07954   2.02050   3.17471   3.27654   3.36659
   3.47332   3.63433   3.69112   3.80573   3.88858   4.01211   4.08016   4.14357
   4.25117   4.46220   4.62959   4.68067   4.79416   4.82946   5.07500   5.44735
   5.63930   5.93121   6.03182   6.24535


              NET ATOMIC CHARGES AND DIPOLE CONTRIBUTIONS

  ATOM NO.   TYPE          CHARGE      No. of ELECS.   s-Pop       p-Pop       
    1          C          -0.000084        4.0001     1.15235     2.84773
    2          C          -0.049596        4.0496     1.14783     2.90177
    3          C          -0.057317        4.0573     1.15198     2.90533
    4          C          -0.051178        4.0512     1.14592     2.90526
    5          C          -0.113119        4.1131     1.20579     2.90733
    6          C          -0.106358        4.1064     1.20373     2.90263
    7          C          -0.140604        4.1406     1.19735     2.94325
    8          C          -0.114324        4.1143     1.17398     2.94035
    9          C          -0.107387        4.1074     1.17884     2.92855
   10          C          -0.174863        4.1749     1.17674     2.99813
   11          H           0.079460        0.9205     0.92054
   12          H           0.058945        0.9411     0.94106
   13          H           0.059149        0.9409     0.94085
   14          H           0.058319        0.9417     0.94168
   15          H           0.063592        0.9364     0.93641
   16          H           0.059353        0.9406     0.94065
   17          H           0.055964        0.9440     0.94404
   18          H           0.099180        0.9008     0.90082
   19          H           0.107324        0.8927     0.89268
   20          H           0.101414        0.8986     0.89859
   21          H           0.086588        0.9134     0.91341
   22          H           0.085543        0.9145     0.91446
 DIPOLE           X         Y         Z       TOTAL
 POINT-CHG.    -0.287     0.078    -0.017     0.298
 HYBRID        -0.014    -0.013     0.010     0.021
 SUM           -0.301     0.065    -0.007     0.308


          ATOMIC ORBITAL ELECTRON POPULATIONS

     Atom    s        px        py        pz   
    1  C   1.15235   0.92021   0.92999   0.99753
    2  C   1.14783   0.92481   0.96296   1.01399
    3  C   1.15198   0.96512   0.92584   1.01437
    4  C   1.14592   0.93098   0.97099   1.00329
    5  C   1.20579   0.95358   0.95930   0.99444
    6  C   1.20373   0.95554   0.95708   0.99001
    7  C   1.19735   0.97323   0.96292   1.00710
    8  C   1.17398   0.93407   0.97985   1.02643
    9  C   1.17884   0.97047   0.94418   1.01389
   10  C   1.17674   1.00275   0.95952   1.03586
   11  H   0.92054
   12  H   0.94106
   13  H   0.94085
   14  H   0.94168
   15  H   0.93641
   16  H   0.94065
   17  H   0.94404
   18  H   0.90082
   19  H   0.89268
   20  H   0.89859
   21  H   0.91341
   22  H   0.91446
 *******************************************************************************
 ** Site#: 14399        For non-commercial use only    Version 18.184L 64BITS **
 *******************************************************************************
 ** Cite this program as: MOPAC2016, Version: 18.184L, James J. P. Stewart,   **
 ** Stewart Computational Chemistry, web: HTTP://OpenMOPAC.net. Days left:  18**
 *******************************************************************************
 **                                                                           **
 **                                MOPAC2016                                  **
 **                                                                           **
 *******************************************************************************

                              PM3 CALCULATION RESULTS

 *******************************************************************************
 *  CALCULATION DONE:                                Sat Jun 15 10:14:47 2019  *
 *  PM3        - The PM3 Hamiltonian to be used
 *  OLDGEO     - PREVIOUS GEOMETRY TO BE USED
 *  PRECISE    - CRITERIA TO BE INCREASED BY 100 TIMES
 *  NOSYM      - POINT-GROUP SYMMETRY SET TO C1
 *  THREADS=1  - MULTI-THREADING NOT USED
 *  T=         - A TIME OF 172800.0 SECONDS REQUESTED
 *  DUMP=N     - RESTART FILE WRITTEN EVERY  7200.000 SECONDS
 *  THERMO     - THERMODYNAMIC QUANTITIES TO BE CALCULATED
 *******************************************************************************
oldgeo thermo nosym precise THREADS=1  pm3
 InChI=1S/C10H12/c1-8-6-7-9-4-2-3-5-10(8)9/h2-4,10H,1,5-7H2

   ATOM   CHEMICAL          X               Y               Z
  NUMBER   SYMBOL      (ANGSTROMS)     (ANGSTROMS)     (ANGSTROMS)
 
     1       C          0.08694753  *  -0.42670419  *  -0.43570089  *
     2       C         -1.06032831  *   1.72099473  *  -0.12187196  *
     3       C         -2.10075988  *   0.59992781  *   0.00581019  *
     4       C          1.08927046  *  -1.29056087  *   0.32217837  *
     5       C          0.26146654  *   1.03369919  *  -0.12020863  *
     6       C         -1.36124746  *  -0.69721827  *  -0.14067518  *
     7       C          2.44022043  *  -0.65936499  *   0.35192570  *
     8       C          1.45833502  *   1.55432333  *   0.18011278  *
     9       C          2.60766642  *   0.66871074  *   0.27397428  *
    10       C         -1.91826417  *  -1.89869320  *  -0.03528303  *
    11       H          0.24860110  *  -0.56126858  *  -1.53478129  *
    12       H         -1.13729081  *   2.45357063  *   0.70228226  *
    13       H         -1.19355084  *   2.29719180  *  -1.05706081  *
    14       H         -2.89207122  *   0.68710017  *  -0.76153780  *
    15       H          0.75688885  *  -1.46009035  *   1.36666244  *
    16       H         -2.61734817  *   0.63850345  *   0.98304135  *
    17       H          1.14367800  *  -2.29455499  *  -0.14240888  *
    18       H          3.29503885  *  -1.33294510  *   0.47062000  *
    19       H          1.59670893  *   2.61807779  *   0.39419781  *
    20       H          3.60108870  *   1.12647713  *   0.30775999  *
    21       H         -1.35012525  *  -2.81786626  *  -0.14335087  *
    22       H         -2.97578361  *  -2.03638555  *   0.16731921  *
 


          CARTESIAN COORDINATES 

    NO.       ATOM           X           Y           Z

     1         C          0.0869     -0.4267     -0.4357
     2         C         -1.0603      1.7210     -0.1219
     3         C         -2.1008      0.5999      0.0058
     4         C          1.0893     -1.2906      0.3222
     5         C          0.2615      1.0337     -0.1202
     6         C         -1.3612     -0.6972     -0.1407
     7         C          2.4402     -0.6594      0.3519
     8         C          1.4583      1.5543      0.1801
     9         C          2.6077      0.6687      0.2740
    10         C         -1.9183     -1.8987     -0.0353
    11         H          0.2486     -0.5613     -1.5348
    12         H         -1.1373      2.4536      0.7023
    13         H         -1.1936      2.2972     -1.0571
    14         H         -2.8921      0.6871     -0.7615
    15         H          0.7569     -1.4601      1.3667
    16         H         -2.6173      0.6385      0.9830
    17         H          1.1437     -2.2946     -0.1424
    18         H          3.2950     -1.3329      0.4706
    19         H          1.5967      2.6181      0.3942
    20         H          3.6011      1.1265      0.3078
    21         H         -1.3501     -2.8179     -0.1434
    22         H         -2.9758     -2.0364      0.1673

  H: (PM3): J. J. P. STEWART, J. COMP. CHEM. 10, 209 (1989).
  C: (PM3): J. J. P. STEWART, J. COMP. CHEM. 10, 209 (1989).

           Empirical Formula: C10 H12  =    22 atoms



      MOLECULAR POINT GROUP   :   C1  


      RHF CALCULATION, NO. OF DOUBLY OCCUPIED LEVELS = 26



          HEAT OF FORMATION =      31.598098 KCALS/MOLE


          CARTESIAN COORDINATE DERIVATIVES

   NUMBER  ATOM         X            Y            Z

     1       C     -0.002977    -0.001496    -0.000108
     2       C     -0.000733    -0.003543     0.001185
     3       C     -0.002523     0.000168    -0.003871
     4       C     -0.003621    -0.001602     0.002627
     5       C     -0.002834     0.005104    -0.000946
     6       C     -0.001095     0.001520     0.002460
     7       C      0.001208     0.001262     0.001683
     8       C     -0.008241     0.001346     0.000654
     9       C     -0.001166     0.005443    -0.000247
    10       C      0.001323    -0.001858    -0.002292
    11       H      0.003535    -0.011715     0.003950
    12       H      0.002430     0.010869    -0.002615
    13       H      0.002230    -0.004674     0.000874
    14       H      0.000567     0.002675     0.002509
    15       H     -0.010348    -0.016338     0.002058
    16       H     -0.002978    -0.011867    -0.001539
    17       H      0.002686     0.000066     0.002183
    18       H      0.000029    -0.012391    -0.002161
    19       H      0.004980     0.005785    -0.006040
    20       H      0.003579     0.006374     0.003443
    21       H      0.011866     0.026426    -0.001759
    22       H      0.002083    -0.001556    -0.002048
 


          GRADIENT NORM =   0.04778


          TIME FOR SCF CALCULATION =    0.00

          TIME FOR DERIVATIVES     =    0.00

          MOLECULAR WEIGHT =  132.20



          ROTATIONAL CONSTANTS IN CM(-1)

          A =    0.07961736   B =    0.04189107   C =    0.02853131



           PRINCIPAL MOMENTS OF INERTIA IN UNITS OF 10**(-40)*GRAM-CM**2

          A =      351.5913   B =      668.2278   C =      981.1247


          ORIENTATION OF MOLECULE IN FORCE CALCULATION

    NO.       ATOM         X         Y         Z

     1          C      -0.4587    0.2021   -0.4418
     2          C       1.9963    0.2021   -0.4418
     3          C       1.5181    1.6605   -0.4418
     4          C      -1.5860   -0.1522    0.5221
     5          C       0.7776   -0.6120   -0.1745
     6          C       0.0191    1.6257   -0.3913
     7          C      -1.6613   -1.6232    0.7559
     8          C       0.7121   -1.8613    0.3039
     9          C      -0.5877   -2.4184    0.6417
    10          C      -0.7582    2.7010   -0.3247
    11          H      -0.7925   -0.0155   -1.4875
    12          H       2.7785    0.0225    0.3183
    13          H       2.4431   -0.0812   -1.4136
    14          H       1.8661    2.2049   -1.3391
    15          H      -1.4454    0.3528    1.4996
    16          H       1.9182    2.2161    0.4269
    17          H      -2.5491    0.2243    0.1253
    18          H      -2.6348   -2.0241    1.0559
    19          H       1.6054   -2.4660    0.4851
    20          H      -0.6472   -3.4955    0.8256
    21          H      -1.8416    2.6376   -0.2854
    22          H      -0.3586    3.7101   -0.3034


    FIRST DERIVATIVES WILL BE USED IN THE CALCULATION OF SECOND DERIVATIVES

          ESTIMATED TIME TO COMPLETE CALCULATION =        2.06 SECONDS

    FOR POINT-GROUP C1   THERE ARE   1 UNIQUE SYMMETRY FUNCTIONS.

 STEP:   1 TIME =     0.02 SECS, INTEGRAL =      0.02 TIME LEFT: 172799.97
 STEP:   2 TIME =     0.02 SECS, INTEGRAL =      0.04 TIME LEFT: 172799.95
 STEP:   3 TIME =     0.02 SECS, INTEGRAL =      0.06 TIME LEFT: 172799.93
 STEP:   4 TIME =     0.02 SECS, INTEGRAL =      0.09 TIME LEFT: 172799.91
 STEP:   5 TIME =     0.02 SECS, INTEGRAL =      0.11 TIME LEFT: 172799.89
 STEP:   6 TIME =     0.02 SECS, INTEGRAL =      0.12 TIME LEFT: 172799.87
 STEP:   7 TIME =     0.02 SECS, INTEGRAL =      0.14 TIME LEFT: 172799.85
 STEP:   8 TIME =     0.02 SECS, INTEGRAL =      0.16 TIME LEFT: 172799.83
 STEP:   9 TIME =     0.02 SECS, INTEGRAL =      0.18 TIME LEFT: 172799.81
 STEP:  10 TIME =     0.02 SECS, INTEGRAL =      0.21 TIME LEFT: 172799.79
 STEP:  11 TIME =     0.02 SECS, INTEGRAL =      0.23 TIME LEFT: 172799.77
 STEP:  12 TIME =     0.02 SECS, INTEGRAL =      0.25 TIME LEFT: 172799.75
 STEP:  13 TIME =     0.02 SECS, INTEGRAL =      0.27 TIME LEFT: 172799.73
 STEP:  14 TIME =     0.02 SECS, INTEGRAL =      0.29 TIME LEFT: 172799.70
 STEP:  15 TIME =     0.02 SECS, INTEGRAL =      0.31 TIME LEFT: 172799.68
 STEP:  16 TIME =     0.02 SECS, INTEGRAL =      0.33 TIME LEFT: 172799.66
 STEP:  17 TIME =     0.02 SECS, INTEGRAL =      0.35 TIME LEFT: 172799.64
 STEP:  18 TIME =     0.02 SECS, INTEGRAL =      0.37 TIME LEFT: 172799.62
 STEP:  19 TIME =     0.02 SECS, INTEGRAL =      0.39 TIME LEFT: 172799.60
 STEP:  20 TIME =     0.02 SECS, INTEGRAL =      0.41 TIME LEFT: 172799.58
 STEP:  21 TIME =     0.02 SECS, INTEGRAL =      0.44 TIME LEFT: 172799.55
 STEP:  22 TIME =     0.02 SECS, INTEGRAL =      0.46 TIME LEFT: 172799.54
 STEP:  23 TIME =     0.02 SECS, INTEGRAL =      0.48 TIME LEFT: 172799.51
 STEP:  24 TIME =     0.02 SECS, INTEGRAL =      0.50 TIME LEFT: 172799.49
 STEP:  25 TIME =     0.02 SECS, INTEGRAL =      0.52 TIME LEFT: 172799.47
 STEP:  26 TIME =     0.02 SECS, INTEGRAL =      0.54 TIME LEFT: 172799.45
 STEP:  27 TIME =     0.02 SECS, INTEGRAL =      0.56 TIME LEFT: 172799.43
 STEP:  28 TIME =     0.02 SECS, INTEGRAL =      0.58 TIME LEFT: 172799.41
 STEP:  29 TIME =     0.02 SECS, INTEGRAL =      0.60 TIME LEFT: 172799.39
 STEP:  30 TIME =     0.02 SECS, INTEGRAL =      0.62 TIME LEFT: 172799.37
 STEP:  31 TIME =     0.02 SECS, INTEGRAL =      0.64 TIME LEFT: 172799.35
 STEP:  32 TIME =     0.02 SECS, INTEGRAL =      0.67 TIME LEFT: 172799.32
 STEP:  33 TIME =     0.02 SECS, INTEGRAL =      0.69 TIME LEFT: 172799.30
 STEP:  34 TIME =     0.02 SECS, INTEGRAL =      0.71 TIME LEFT: 172799.29
 STEP:  35 TIME =     0.02 SECS, INTEGRAL =      0.73 TIME LEFT: 172799.26
 STEP:  36 TIME =     0.02 SECS, INTEGRAL =      0.75 TIME LEFT: 172799.24
 STEP:  37 TIME =     0.02 SECS, INTEGRAL =      0.77 TIME LEFT: 172799.22
 STEP:  38 TIME =     0.02 SECS, INTEGRAL =      0.79 TIME LEFT: 172799.20
 STEP:  39 TIME =     0.02 SECS, INTEGRAL =      0.82 TIME LEFT: 172799.18
 STEP:  40 TIME =     0.02 SECS, INTEGRAL =      0.84 TIME LEFT: 172799.16
 STEP:  41 TIME =     0.02 SECS, INTEGRAL =      0.86 TIME LEFT: 172799.13
 STEP:  42 TIME =     0.02 SECS, INTEGRAL =      0.88 TIME LEFT: 172799.11
 STEP:  43 TIME =     0.02 SECS, INTEGRAL =      0.90 TIME LEFT: 172799.09
 STEP:  44 TIME =     0.02 SECS, INTEGRAL =      0.92 TIME LEFT: 172799.07
 STEP:  45 TIME =     0.02 SECS, INTEGRAL =      0.95 TIME LEFT: 172799.05
 STEP:  46 TIME =     0.02 SECS, INTEGRAL =      0.96 TIME LEFT: 172799.03
 STEP:  47 TIME =     0.02 SECS, INTEGRAL =      0.98 TIME LEFT: 172799.01
 STEP:  48 TIME =     0.02 SECS, INTEGRAL =      1.00 TIME LEFT: 172798.99
 STEP:  49 TIME =     0.02 SECS, INTEGRAL =      1.02 TIME LEFT: 172798.97
 STEP:  50 TIME =     0.02 SECS, INTEGRAL =      1.04 TIME LEFT: 172798.95
 STEP:  51 TIME =     0.02 SECS, INTEGRAL =      1.06 TIME LEFT: 172798.93
 STEP:  52 TIME =     0.02 SECS, INTEGRAL =      1.08 TIME LEFT: 172798.91
 STEP:  53 TIME =     0.02 SECS, INTEGRAL =      1.11 TIME LEFT: 172798.89
 STEP:  54 TIME =     0.02 SECS, INTEGRAL =      1.12 TIME LEFT: 172798.87
 STEP:  55 TIME =     0.02 SECS, INTEGRAL =      1.15 TIME LEFT: 172798.84
 STEP:  56 TIME =     0.02 SECS, INTEGRAL =      1.17 TIME LEFT: 172798.82
 STEP:  57 TIME =     0.02 SECS, INTEGRAL =      1.19 TIME LEFT: 172798.80
 STEP:  58 TIME =     0.02 SECS, INTEGRAL =      1.21 TIME LEFT: 172798.78
 STEP:  59 TIME =     0.02 SECS, INTEGRAL =      1.23 TIME LEFT: 172798.76
 STEP:  60 TIME =     0.02 SECS, INTEGRAL =      1.25 TIME LEFT: 172798.74
 STEP:  61 TIME =     0.02 SECS, INTEGRAL =      1.27 TIME LEFT: 172798.72
 STEP:  62 TIME =     0.02 SECS, INTEGRAL =      1.29 TIME LEFT: 172798.70
 STEP:  63 TIME =     0.02 SECS, INTEGRAL =      1.32 TIME LEFT: 172798.68
 STEP:  64 TIME =     0.02 SECS, INTEGRAL =      1.34 TIME LEFT: 172798.66
 STEP:  65 TIME =     0.02 SECS, INTEGRAL =      1.36 TIME LEFT: 172798.64
 STEP:  66 TIME =     0.02 SECS, INTEGRAL =      1.38 TIME LEFT: 172798.61

(To convert to Hartree/Bohr^2, multiply by (10^(-21) x N x a0^2)/(4.184 x 627.51) =  0.0642)


           FORCE MATRIX IN MILLIDYNES/ANGSTROM


                  C  1       C  2       C  3       C  4       C  5       C  6
 ------------------------------------------------------------------------------
     C    1  15.114049
     C    2   0.745349  14.698167
     C    3   0.747050   3.796685  14.574077
     C    4   4.002756   0.042020   0.036274  14.633328
     C    5   4.362380   4.823278   0.885780   0.645767  19.061331
     C    6   4.406088   0.801735   4.515408   0.566163   0.969150  18.948315
     C    7   0.682527   0.015669   0.006381   4.828074   0.152256   0.052754
     C    8   0.778143   0.680778   0.046009   0.112707  10.164383   0.051807
     C    9   0.116502   0.134037   0.011167   0.839978   1.174394   0.009500
     C   10   0.709388   0.051985   0.742100   0.047648   0.053516  10.896631
     H   11   4.152564   0.016867   0.019664   0.431383   0.401939   0.402253
     H   12   0.034247   4.536859   0.435309   0.004934   0.445851   0.031826
     H   13   0.019524   4.493423   0.442458   0.002026   0.426301   0.021531
     H   14   0.024365   0.435164   4.523238   0.001538   0.034447   0.432822
     H   15   0.450309   0.004304   0.002266   4.410732   0.015370   0.024251
     H   16   0.028232   0.439854   4.516821   0.004089   0.020160   0.434224
     H   17   0.438292   0.007751   0.001281   4.467693   0.048185   0.011721
     H   18   0.043244   0.008032   0.001399   0.425692   0.015441   0.007397
     H   19   0.111291   0.065808   0.003750   0.008374   0.461083   0.011132
     H   20   0.005147   0.008795   0.001294   0.119071   0.047821   0.001129
     H   21   0.088044   0.006411   0.122101   0.014504   0.004749   0.479056
     H   22   0.125312   0.001989   0.085832   0.010549   0.009612   0.477930


                  C  7       C  8       C  9       C 10       H 11       H 12
 ------------------------------------------------------------------------------
     C    7  17.891987
     C    8   1.111350  18.425405
     C    9  10.214726   5.554951  18.294073
     C   10   0.004575   0.010760   0.002491  18.093776
     H   11   0.013323   0.028492   0.016821   0.022072   4.599898
     H   12   0.001740   0.022017   0.010593   0.005679   0.000995   5.138674
     H   13   0.002121   0.024774   0.016805   0.003351   0.002330   0.568747
     H   14   0.000500   0.004745   0.000879   0.023646   0.002599   0.021737
     H   15   0.407886   0.017912   0.032599   0.005875   0.043648   0.000557
     H   16   0.000825   0.002737   0.000866   0.024714   0.001172   0.030295
     H   17   0.438183   0.009041   0.047654   0.008148   0.035830   0.001304
     H   18   4.857377   0.120444   0.442692   0.001188   0.003903   0.000667
     H   19   0.045688   4.882680   0.433171   0.002198   0.014308   0.009011
     H   20   0.444298   0.431004   4.869042   0.000773   0.000793   0.000853
     H   21   0.002872   0.001452   0.001240   5.093430   0.011795   0.000857
     H   22   0.001815   0.001961   0.000733   5.109418   0.015056   0.000519


                  H 13       H 14       H 15       H 16       H 17       H 18
 ------------------------------------------------------------------------------
     H   13   5.093147
     H   14   0.029698   5.124328
     H   15   0.000341   0.000279   5.012385
     H   16   0.031219   0.571245   0.000325   5.113598
     H   17   0.000554   0.000294   0.570048   0.000271   5.065002
     H   18   0.001049   0.000212   0.014773   0.000255   0.035036   5.230929
     H   19   0.009279   0.000472   0.000834   0.000454   0.001190   0.007560
     H   20   0.001051   0.000235   0.016200   0.000153   0.012065   0.065003
     H   21   0.000634   0.012847   0.002156   0.011997   0.014693   0.000613
     H   22   0.000408   0.010683   0.000695   0.010841   0.000696   0.000334


                  H 19       H 20       H 21       H 22
 ------------------------------------------------------
     H   19   5.255496
     H   20   0.028300   5.237832
     H   21   0.000255   0.000354   5.474617
     H   22   0.000467   0.000261   0.406833   5.488980


          HEAT OF FORMATION =      31.598098 KCALS/MOLE

          ZERO POINT ENERGY     118.849 KCAL/MOL


           NORMAL COORDINATE ANALYSIS (Total motion = 1 Angstrom)


   Root No.       1         2         3         4         5         6         7         8

                 1 A       2 A       3 A       4 A       5 A       6 A       7 A       8 A   

                  75.0     106.8     199.8     251.1     308.7     412.7     449.6     493.2
  
           1    0.0038    0.0009   -0.0000   -0.0151    0.0226   -0.0022    0.0181   -0.0035
           2   -0.0020    0.0011    0.0019    0.0148    0.0036    0.0196   -0.0143   -0.0307
           3   -0.0117    0.0178    0.0194    0.0289    0.0410    0.0070    0.0051    0.0102
           4    0.0035    0.0052   -0.0055   -0.0111    0.0111    0.0004   -0.0006    0.0257
           5   -0.0009    0.0066   -0.0033   -0.0017    0.0027   -0.0121    0.0172    0.0211
           6    0.0016    0.0413   -0.0405    0.0023   -0.0178    0.0035   -0.0022   -0.0107
           7    0.0009   -0.0034    0.0015    0.0006    0.0117    0.0158   -0.0245   -0.0179
           8   -0.0016    0.0039   -0.0011   -0.0013    0.0071   -0.0043    0.0122    0.0025
           9   -0.0498   -0.0406   -0.0072   -0.0093   -0.0097   -0.0007   -0.0003    0.0041
          10   -0.0176    0.0154    0.0052   -0.0339   -0.0187    0.0029    0.0150   -0.0195
          11   -0.0052    0.0032   -0.0054   -0.0291    0.0070   -0.0017    0.0018   -0.0007
          12   -0.0382    0.0353    0.0217   -0.0075   -0.0093    0.0032   -0.0060    0.0097
          13    0.0022    0.0025    0.0029   -0.0152    0.0203   -0.0127    0.0205    0.0280
          14    0.0024    0.0032    0.0060    0.0093    0.0023   -0.0032   -0.0137   -0.0087
          15    0.0080    0.0170    0.0245    0.0124    0.0326   -0.0312    0.0185   -0.0479
          16    0.0025   -0.0021    0.0011   -0.0007    0.0131    0.0154   -0.0204   -0.0115
          17   -0.0019    0.0019    0.0022    0.0137    0.0039    0.0137   -0.0034   -0.0391
          18    0.0019   -0.0088    0.0051    0.0179    0.0237    0.0326   -0.0088    0.0496
          19   -0.0060   -0.0035   -0.0164    0.0077   -0.0072   -0.0063   -0.0123   -0.0257
          20   -0.0015   -0.0038   -0.0169   -0.0323    0.0109   -0.0071    0.0031    0.0064
          21   -0.0141   -0.0096   -0.0497    0.0057    0.0057   -0.0304   -0.0227    0.0053
          22    0.0029   -0.0043    0.0067    0.0037   -0.0017   -0.0038   -0.0022    0.0092
          23    0.0089   -0.0070    0.0172   -0.0011   -0.0148    0.0024   -0.0316    0.0146
          24    0.0248   -0.0095    0.0537   -0.0130   -0.0152   -0.0144   -0.0213    0.0042
          25    0.0026   -0.0100   -0.0019    0.0180   -0.0122    0.0106   -0.0065   -0.0072
          26    0.0058   -0.0095   -0.0032   -0.0182    0.0066    0.0057    0.0017    0.0340
          27    0.0177   -0.0335   -0.0086    0.0043   -0.0139    0.0403    0.0346   -0.0080
          28    0.0058   -0.0027    0.0055    0.0418   -0.0264   -0.0196    0.0083    0.0222
          29   -0.0034    0.0014    0.0059    0.0473   -0.0227   -0.0087    0.0179   -0.0140
          30    0.0632   -0.0096   -0.0059   -0.0262   -0.0115   -0.0098    0.0036   -0.0100
          31    0.0268   -0.0117   -0.0029   -0.0012    0.0509   -0.0171    0.0389   -0.0240
          32    0.0016   -0.0129   -0.0044    0.0309    0.0012    0.0614   -0.0409   -0.0092
          33   -0.0199    0.0246    0.0214    0.0199    0.0307    0.0028    0.0034    0.0122
          34   -0.0089   -0.0324    0.0451   -0.0112    0.0473   -0.0355    0.0204   -0.0053
          35    0.0241    0.0438   -0.0117   -0.0015    0.0080   -0.0252    0.0407    0.0320
          36    0.0204    0.0891   -0.0953    0.0026   -0.0547    0.0385   -0.0192    0.0248
          37    0.0209    0.0585   -0.0753   -0.0149   -0.0361    0.0430   -0.0148    0.0853
          38   -0.0295   -0.0290   -0.0036   -0.0150   -0.0033   -0.0106    0.0289    0.0561
          39    0.0180    0.0763   -0.0730    0.0044   -0.0381    0.0233   -0.0122    0.0073
          40   -0.0342   -0.0284   -0.0016   -0.0145   -0.0105   -0.0093   -0.0235   -0.0937
          41   -0.0448   -0.0538    0.0178   -0.0184    0.0031   -0.0286    0.0244    0.0035
          42   -0.0898   -0.0856    0.0033   -0.0260   -0.0209   -0.0257    0.0074   -0.0259
          43   -0.0533    0.0506    0.0385   -0.0968   -0.0905    0.0253    0.0411   -0.0293
          44    0.0134   -0.0280   -0.0575   -0.0151    0.0327   -0.0452   -0.0282    0.0066
          45   -0.0425    0.0461    0.0437   -0.0063   -0.0128    0.0230    0.0066    0.0070
          46    0.0327    0.0153    0.0089    0.0235    0.0344    0.0558   -0.0429    0.0092
          47    0.0420    0.0642   -0.0231    0.0106    0.0094    0.0083    0.0132    0.0341
          48   -0.0926   -0.0880    0.0035   -0.0276   -0.0221   -0.0280    0.0080   -0.0293
          49   -0.0121    0.0139    0.0086   -0.0345   -0.0040    0.0028    0.0261   -0.0074
          50   -0.0260    0.0344    0.0403   -0.0742   -0.0234    0.0294    0.0467    0.0119
          51   -0.0715    0.0692    0.0581   -0.0494   -0.0764    0.0342    0.0109   -0.0090
          52   -0.0071   -0.0081   -0.0345    0.0189   -0.0020   -0.0168   -0.0244   -0.0215
          53   -0.0053   -0.0034   -0.0331   -0.0492    0.0119   -0.0146    0.0138   -0.0117
          54   -0.0224   -0.0245   -0.1318    0.0208    0.0250   -0.0748   -0.0476   -0.0057
          55    0.0041   -0.0082    0.0080    0.0143   -0.0168    0.0048   -0.0174   -0.0049
          56    0.0153   -0.0137    0.0296    0.0042   -0.0500    0.0069   -0.0758    0.0110
          57    0.0406   -0.0132    0.0880   -0.0467   -0.0594   -0.0408   -0.0939    0.0614
          58    0.0087   -0.0189    0.0000    0.0369   -0.0246    0.0288   -0.0113   -0.0041
          59    0.0088   -0.0152   -0.0093   -0.0171    0.0060    0.0168    0.0146    0.0299
          60    0.0374   -0.0699   -0.0445    0.0177   -0.0197    0.1115    0.1107   -0.0289
          61    0.0072   -0.0020    0.0055    0.0396   -0.0238   -0.0184    0.0067    0.0184
          62   -0.0039    0.0005    0.0115    0.0980   -0.0727   -0.0591    0.0688    0.0479
          63    0.1032    0.0102    0.0013   -0.0234   -0.0042   -0.0322    0.0178   -0.0528
          64    0.0073   -0.0039    0.0102    0.0893   -0.0747   -0.0698    0.0559    0.0821
          65   -0.0043    0.0023    0.0045    0.0300   -0.0034    0.0108    0.0002   -0.0363
          66    0.0779   -0.0301   -0.0234   -0.0702   -0.0535   -0.0335    0.0029   -0.0386


   Root No.       9        10        11        12        13        14        15        16

                 9 A      10 A      11 A      12 A      13 A      14 A      15 A      16 A   

                 495.5     511.0     598.0     638.7     660.0     761.1     790.0     808.2
  
           1   -0.0250    0.0124    0.0130    0.0105    0.0094    0.0010    0.0014   -0.0023
           2   -0.0058    0.0050    0.0056    0.0091    0.0046   -0.0007   -0.0094   -0.0005
           3    0.0208   -0.0104    0.0176    0.0046    0.0249    0.0130   -0.0167   -0.0022
           4   -0.0038   -0.0216    0.0073    0.0550   -0.0038   -0.0070   -0.0199    0.0175
           5   -0.0224   -0.0222   -0.0058   -0.0353    0.0059   -0.0003   -0.0033   -0.0004
           6    0.0097    0.0011   -0.0043   -0.0062   -0.0088    0.0032    0.0095    0.0251
           7   -0.0090   -0.0290   -0.0071   -0.0147    0.0040    0.0042    0.0123    0.0031
           8   -0.0315   -0.0197   -0.0045   -0.0506    0.0143    0.0040    0.0084   -0.0025
           9    0.0035    0.0035   -0.0029   -0.0013   -0.0068   -0.0025    0.0063    0.0241
          10   -0.0372    0.0234    0.0035    0.0059   -0.0089   -0.0195   -0.0116   -0.0022
          11    0.0358    0.0236   -0.0006   -0.0183    0.0058   -0.0026   -0.0205    0.0044
          12    0.0164   -0.0177    0.0018   -0.0011    0.0174   -0.0046   -0.0074    0.0127
          13   -0.0091   -0.0052    0.0093    0.0278    0.0059    0.0053    0.0030    0.0077
          14    0.0048   -0.0293   -0.0192    0.0228   -0.0263   -0.0161   -0.0205   -0.0035
          15    0.0128    0.0007   -0.0289    0.0047   -0.0258   -0.0036   -0.0029   -0.0164
          16   -0.0112   -0.0240   -0.0077   -0.0319    0.0056    0.0033    0.0061   -0.0051
          17   -0.0195    0.0140    0.0150    0.0218    0.0154    0.0093    0.0195    0.0040
          18   -0.0229    0.0489   -0.0129   -0.0080   -0.0255   -0.0079   -0.0052   -0.0192
          19    0.0219    0.0362   -0.0004   -0.0212    0.0025   -0.0115   -0.0354    0.0028
          20    0.0278    0.0287    0.0003   -0.0135   -0.0014   -0.0013   -0.0113   -0.0007
          21   -0.0303   -0.0056    0.0008    0.0098   -0.0007   -0.0208    0.0284   -0.0013
          22    0.0405    0.0195    0.0011   -0.0073    0.0043    0.0199    0.0401   -0.0068
          23   -0.0032   -0.0253   -0.0064    0.0259   -0.0189   -0.0171   -0.0199   -0.0019
          24   -0.0148    0.0201    0.0107   -0.0062    0.0104    0.0001    0.0052   -0.0127
          25    0.0346    0.0076   -0.0045   -0.0022   -0.0036   -0.0005    0.0072   -0.0013
          26    0.0370   -0.0100   -0.0042    0.0176   -0.0113    0.0114    0.0485   -0.0061
          27   -0.0042   -0.0137    0.0007   -0.0039    0.0082   -0.0306    0.0034    0.0039
          28    0.0027   -0.0175   -0.0108   -0.0296   -0.0029   -0.0019   -0.0031   -0.0053
          29   -0.0128    0.0268    0.0160    0.0329    0.0109    0.0079    0.0190    0.0063
          30    0.0058   -0.0067    0.0029    0.0028    0.0017    0.0004   -0.0002   -0.0018
          31   -0.0347    0.0316    0.0032    0.0275   -0.0215   -0.0083    0.0222   -0.0386
          32   -0.0463    0.0361    0.0239   -0.0158   -0.0099    0.0009    0.0027   -0.0173
          33    0.0315   -0.0225    0.0159    0.0044    0.0371    0.0159   -0.0246    0.0129
          34   -0.0117   -0.0148   -0.0289    0.0515   -0.0365    0.0013   -0.0086    0.1052
          35   -0.0249   -0.0176    0.0064   -0.0199    0.0158    0.0005   -0.0273   -0.0604
          36    0.0184   -0.0052    0.0377    0.0033    0.0283   -0.0055   -0.0089   -0.0838
          37    0.0023   -0.0275    0.0667    0.0773    0.0487   -0.0184   -0.0469   -0.0984
          38   -0.0377   -0.0179    0.0062   -0.0472    0.0219   -0.0005    0.0061    0.0596
          39    0.0170   -0.0032    0.0206    0.0071    0.0118   -0.0024   -0.0064   -0.0500
          40    0.0225   -0.0828    0.0441   -0.0067    0.0283    0.0234    0.0260   -0.0330
          41   -0.0199   -0.0567    0.0308   -0.0446    0.0266   -0.0013   -0.0331   -0.1040
          42    0.0240   -0.0409    0.0404    0.0073    0.0100    0.0016   -0.0151   -0.0551
          43   -0.0640    0.0189   -0.0395    0.0094   -0.0915    0.0228    0.0607   -0.0455
          44    0.0359    0.0481    0.0130   -0.0319    0.0312   -0.0809   -0.0334    0.0261
          45    0.0196   -0.0292    0.0002    0.0055    0.0141    0.0315   -0.0106    0.0065
          46   -0.0408    0.0338   -0.0500   -0.0224   -0.0087    0.0017    0.0421    0.0319
          47   -0.0462    0.0047   -0.0446   -0.0711    0.0002    0.0014    0.0270    0.1005
          48    0.0281   -0.0429    0.0443    0.0143    0.0090    0.0007   -0.0199   -0.0590
          49   -0.0376    0.0212    0.0111    0.0129    0.0002   -0.0148   -0.0143   -0.0018
          50    0.0231    0.0086   -0.0185   -0.0029   -0.0354    0.0617    0.0178   -0.0253
          51    0.0034   -0.0277   -0.0361   -0.0023   -0.0484    0.0484    0.0411   -0.0196
          52    0.0244    0.0298   -0.0067   -0.0129   -0.0127    0.0542   -0.0349   -0.0073
          53   -0.0178    0.0454    0.0028   -0.0152   -0.0127    0.0199   -0.0617   -0.0082
          54   -0.0825   -0.0038   -0.0156    0.0337   -0.0634    0.2223   -0.0369   -0.0437
          55    0.0463    0.0214   -0.0034   -0.0159   -0.0019    0.0135    0.0186   -0.0039
          56   -0.0102   -0.0105    0.0003    0.0047   -0.0192    0.0133   -0.0678    0.0264
          57   -0.0707    0.0592    0.0566   -0.0331    0.0418    0.1356   -0.0454    0.0689
          58    0.0184   -0.0342   -0.0142    0.0305   -0.0264    0.0259   -0.0140    0.0032
          59    0.0390   -0.0125   -0.0071    0.0159   -0.0167    0.0437    0.0269   -0.0023
          60    0.0034   -0.0444   -0.0188   -0.0031   -0.0289    0.1703   -0.1303    0.0288
          61    0.0031   -0.0213   -0.0036   -0.0343   -0.0068   -0.0018   -0.0013   -0.0038
          62    0.0025    0.0521    0.0081    0.0496   -0.0038   -0.0081   -0.0199    0.0091
          63    0.0396   -0.0713    0.2036   -0.0731   -0.1229   -0.0093    0.0201    0.0526
          64    0.0200   -0.0000   -0.0222   -0.0246   -0.0182   -0.0213   -0.0502   -0.0057
          65   -0.0198    0.0207    0.0244    0.0298    0.0135    0.0151    0.0378    0.0068
          66    0.0062   -0.0101   -0.1745    0.0949    0.1698    0.0269   -0.0051   -0.0033


   Root No.      17        18        19        20        21        22        23        24

                17 A      18 A      19 A      20 A      21 A      22 A      23 A      24 A   

                 856.1     903.8     921.6     939.5     957.2     982.7    1004.6    1028.0
  
           1    0.0300   -0.0024    0.0037    0.0076   -0.0110    0.0019    0.0138    0.0048
           2   -0.0025   -0.0018    0.0003    0.0256    0.0104    0.0164    0.0016   -0.0170
           3    0.0270   -0.0089    0.0031    0.0227   -0.0172    0.0031    0.0133   -0.0001
           4   -0.0450    0.0007    0.0053    0.0027    0.0087   -0.0010   -0.0054   -0.0010
           5   -0.0082    0.0024   -0.0084    0.0024    0.0015   -0.0013   -0.0015    0.0013
           6    0.0091    0.0092   -0.0006    0.0162    0.0144   -0.0142    0.0051    0.0200
           7   -0.0075   -0.0021    0.0377   -0.0199    0.0029   -0.0070   -0.0070    0.0039
           8   -0.0032   -0.0033    0.0235   -0.0106    0.0020   -0.0034   -0.0025    0.0039
           9    0.0026   -0.0217   -0.0050   -0.0099   -0.0149    0.0140   -0.0049   -0.0171
          10    0.0508    0.0006   -0.0137   -0.0045    0.0148   -0.0017   -0.0174   -0.0085
          11   -0.0170   -0.0022    0.0034   -0.0047   -0.0073   -0.0030    0.0113    0.0133
          12    0.0048    0.0038   -0.0061   -0.0203    0.0164   -0.0026   -0.0088    0.0015
          13   -0.0150    0.0027   -0.0024   -0.0009    0.0028   -0.0005    0.0010    0.0028
          14    0.0084    0.0037   -0.0006   -0.0038   -0.0085    0.0005   -0.0049   -0.0065
          15   -0.0099    0.0133   -0.0010   -0.0105   -0.0042    0.0127   -0.0137   -0.0225
          16   -0.0006    0.0011   -0.0113    0.0047    0.0002    0.0038    0.0018   -0.0025
          17   -0.0078    0.0004    0.0012   -0.0086   -0.0010   -0.0024   -0.0000   -0.0000
          18   -0.0074    0.0150    0.0010   -0.0066    0.0060   -0.0070   -0.0057    0.0274
          19   -0.0198   -0.0036    0.0035    0.0035   -0.0067    0.0003    0.0049   -0.0010
          20   -0.0054   -0.0004    0.0008    0.0043   -0.0011    0.0001   -0.0036   -0.0054
          21   -0.0014    0.0194    0.0044   -0.0025   -0.0042    0.0186    0.0243   -0.0007
          22   -0.0003    0.0013   -0.0003   -0.0020    0.0114    0.0050   -0.0061   -0.0068
          23    0.0219   -0.0153   -0.0051   -0.0006   -0.0037   -0.0057    0.0108    0.0113
          24   -0.0108   -0.0415   -0.0070   -0.0055    0.0236    0.0018    0.0139    0.0092
          25    0.0032    0.0004    0.0022    0.0048   -0.0053   -0.0036   -0.0013    0.0016
          26    0.0321    0.0085   -0.0042    0.0030    0.0087    0.0024   -0.0115   -0.0098
          27   -0.0115    0.0004    0.0072    0.0228   -0.0172   -0.0193   -0.0235   -0.0021
          28    0.0003    0.0034   -0.0470    0.0066   -0.0075   -0.0013    0.0028   -0.0015
          29   -0.0139    0.0029   -0.0171   -0.0175   -0.0065   -0.0105   -0.0029    0.0092
          30   -0.0012    0.0051    0.0020   -0.0044    0.0065   -0.0295    0.0174   -0.0309
          31    0.0392    0.0082    0.0239    0.0077   -0.0913    0.0307    0.0951    0.0197
          32   -0.0264    0.0245   -0.0035    0.1530    0.1239    0.1122    0.0080   -0.0514
          33    0.0265   -0.0169   -0.0026   -0.0044   -0.0145   -0.0253   -0.0137    0.0024
          34   -0.0630    0.0357   -0.0093    0.0525    0.0563   -0.0319   -0.0053    0.0494
          35   -0.0499    0.0610   -0.0490    0.0231    0.0338    0.0023   -0.0406    0.0432
          36    0.0158   -0.0130    0.0053   -0.0325   -0.0280    0.0196   -0.0059   -0.0233
          37   -0.0706   -0.0444   -0.0002   -0.0522   -0.0425    0.0510   -0.0130   -0.0810
          38   -0.0286   -0.0695   -0.0356    0.0132   -0.0209    0.0222    0.0463   -0.0754
          39    0.0039    0.0092    0.0047   -0.0135   -0.0038    0.0039   -0.0130    0.0050
          40    0.0124    0.0424    0.0785    0.0122    0.0534   -0.0738    0.0459    0.0543
          41   -0.0305    0.0472    0.0178   -0.0134    0.0140   -0.0008   -0.0355    0.0268
          42   -0.0059    0.0285    0.0072    0.0018    0.0126   -0.0108   -0.0046    0.0177
          43   -0.0587    0.0132    0.0198    0.0211   -0.0390    0.0312    0.0500    0.0108
          44    0.0096    0.0321   -0.0221   -0.0880    0.0436    0.0128    0.0143    0.0400
          45    0.0045   -0.0160    0.0032    0.0206   -0.0038   -0.0150   -0.0184   -0.0143
          46   -0.0054   -0.0428    0.0656   -0.1039   -0.0476    0.0309   -0.0684   -0.0170
          47    0.0020   -0.0562    0.0039    0.0141   -0.0053    0.0058    0.0317   -0.0320
          48   -0.0026    0.0332   -0.0046    0.0129    0.0143   -0.0104    0.0008    0.0173
          49    0.0975   -0.0066   -0.0115    0.0014   -0.0036   -0.0209   -0.0114    0.0102
          50   -0.0325   -0.0202    0.0398    0.0488   -0.0889   -0.0235    0.0651    0.0553
          51   -0.1255    0.0048    0.0253    0.0190   -0.0197    0.0270    0.0308   -0.0055
          52   -0.0249   -0.0335    0.0045    0.0112   -0.0065   -0.0171   -0.0061    0.0080
          53    0.0169   -0.0341   -0.0108    0.0213    0.0024   -0.0275   -0.0506   -0.0178
          54    0.0095   -0.1223   -0.0079    0.0448    0.0031   -0.0744   -0.0765    0.0100
          55    0.0162    0.0100    0.0058    0.0049   -0.0174   -0.0057    0.0005    0.0077
          56    0.0538    0.0660    0.0166    0.0163   -0.0784   -0.0167    0.0014    0.0128
          57    0.0082    0.1890    0.0364    0.0172   -0.0819    0.0195   -0.0511   -0.0600
          58    0.0531    0.0075   -0.0097   -0.0299   -0.0069    0.0103    0.0640    0.0525
          59    0.0376    0.0150   -0.0107   -0.0200    0.0254    0.0192    0.0018   -0.0131
          60    0.0295    0.0408   -0.0339   -0.1249    0.0792    0.0842    0.0800   -0.0015
          61   -0.0007    0.0024   -0.0583    0.0075   -0.0111    0.0043   -0.0003    0.0035
          62    0.0278   -0.0165    0.2192   -0.0113    0.0377    0.0050   -0.0033   -0.0054
          63   -0.0003   -0.0448    0.0013   -0.0039   -0.0386    0.1263   -0.0785    0.1109
          64    0.0511   -0.0176    0.1586    0.0364    0.0335    0.0395    0.0012   -0.0197
          65   -0.0342    0.0114   -0.0939   -0.0312   -0.0215   -0.0301   -0.0009    0.0136
          66    0.0220   -0.0203   -0.0093    0.0391   -0.0282    0.1212   -0.0600    0.1231


   Root No.      25        26        27        28        29        30        31        32

                25 A      26 A      27 A      28 A      29 A      30 A      31 A      32 A   

                1045.1    1061.8    1071.7    1074.9    1096.1    1098.5    1102.9    1154.7
  
           1    0.0091   -0.0016   -0.0137    0.0040   -0.0017   -0.0034    0.0081   -0.0080
           2    0.0110    0.0038   -0.0057    0.0027   -0.0011   -0.0035    0.0016   -0.0020
           3   -0.0117   -0.0042    0.0066    0.0007   -0.0164   -0.0091   -0.0405   -0.0043
           4    0.0005    0.0023    0.0005   -0.0287   -0.0048    0.0017    0.0016   -0.0016
           5   -0.0019    0.0034    0.0156    0.0362    0.0065   -0.0125    0.0011   -0.0000
           6   -0.0054   -0.0000   -0.0054   -0.0075    0.0085   -0.0312   -0.0041    0.0005
           7   -0.0080   -0.0002    0.0082    0.0045    0.0002    0.0005   -0.0012    0.0021
           8   -0.0036   -0.0041   -0.0167   -0.0424   -0.0084    0.0141   -0.0036    0.0040
           9    0.0077    0.0105   -0.0100    0.0162   -0.0183    0.0200   -0.0017    0.0003
          10   -0.0036   -0.0014    0.0069   -0.0035    0.0027    0.0025   -0.0087   -0.0071
          11    0.0347    0.0090   -0.0006   -0.0007    0.0098    0.0055    0.0040    0.0012
          12    0.0237   -0.0108   -0.0078    0.0012    0.0032   -0.0010    0.0390    0.0063
          13   -0.0011   -0.0026   -0.0058    0.0114    0.0035    0.0025   -0.0074    0.0084
          14   -0.0042   -0.0020    0.0060   -0.0013    0.0024    0.0029    0.0007   -0.0041
          15    0.0085   -0.0007    0.0114   -0.0070    0.0136    0.0116    0.0018   -0.0008
          16    0.0065    0.0029   -0.0028    0.0049   -0.0001   -0.0008    0.0012   -0.0056
          17    0.0027    0.0020   -0.0009    0.0058   -0.0004   -0.0019    0.0007   -0.0036
          18   -0.0095   -0.0116    0.0144   -0.0050    0.0096    0.0111    0.0089   -0.0020
          19   -0.0348   -0.0075   -0.0143    0.0086    0.0052    0.0020   -0.0023   -0.0031
          20   -0.0348   -0.0060   -0.0045    0.0028   -0.0039   -0.0027    0.0033    0.0046
          21   -0.0182    0.0225    0.0029   -0.0043    0.0034    0.0024    0.0001    0.0002
          22    0.0086    0.0145    0.0232   -0.0138   -0.0125   -0.0055    0.0084    0.0070
          23   -0.0098   -0.0032   -0.0062    0.0073   -0.0027   -0.0026   -0.0033   -0.0013
          24   -0.0075    0.0045   -0.0042    0.0004   -0.0022   -0.0035    0.0002   -0.0020
          25    0.0049   -0.0030   -0.0076    0.0017    0.0083    0.0048   -0.0056    0.0003
          26   -0.0098   -0.0146   -0.0134    0.0034    0.0050    0.0018   -0.0043   -0.0066
          27    0.0152   -0.0081    0.0011    0.0022    0.0008    0.0005    0.0009    0.0005
          28   -0.0013   -0.0014   -0.0034   -0.0069   -0.0010    0.0014   -0.0002    0.0013
          29   -0.0072   -0.0022    0.0029   -0.0056    0.0006    0.0021   -0.0004    0.0019
          30    0.0063    0.0066   -0.0074    0.0031   -0.0047   -0.0041   -0.0041    0.0006
          31    0.0507   -0.0984   -0.0526    0.0267   -0.0472   -0.0615    0.2009    0.0754
          32    0.0742    0.0170    0.0004   -0.0179    0.0186    0.0108    0.0152    0.0248
          33   -0.0369    0.0228    0.0175   -0.0016   -0.0064    0.0061   -0.1047   -0.0360
          34    0.0003    0.0272   -0.0113    0.0105   -0.0203   -0.0350    0.0052   -0.0092
          35    0.0302    0.0843   -0.0273    0.2240   -0.0876    0.0433    0.0176   -0.0168
          36    0.0028   -0.0053   -0.0024   -0.0022    0.0021    0.0192   -0.0041    0.0042
          37    0.0192   -0.0088    0.0535   -0.0049    0.0182    0.0399    0.0177   -0.0092
          38    0.0035   -0.0547    0.1380    0.0264    0.1366   -0.1065    0.0233   -0.0173
          39    0.0022    0.0123   -0.0185    0.0057   -0.0194    0.0141   -0.0037    0.0021
          40   -0.0542   -0.0699    0.1218    0.0965    0.0192    0.0980    0.0320    0.0108
          41    0.0040    0.0215   -0.0746   -0.1454    0.0213   -0.1046   -0.0253    0.0013
          42   -0.0055   -0.0008   -0.0023   -0.0118    0.0067   -0.0146   -0.0021    0.0018
          43    0.0152   -0.0519    0.0312    0.0047   -0.0590   -0.0272   -0.1524   -0.0450
          44    0.1864   -0.0713    0.0472   -0.0052   -0.0426   -0.0166   -0.1123   -0.0477
          45   -0.0568    0.0376   -0.0355    0.0024    0.0384    0.0144    0.1180    0.0375
          46    0.0072    0.0686   -0.0396    0.1034    0.0135   -0.1288   -0.0343    0.0190
          47    0.0001   -0.0329    0.0045   -0.0714   -0.0580    0.1586    0.0164   -0.0024
          48   -0.0024   -0.0024   -0.0013   -0.0095    0.0072   -0.0132    0.0006   -0.0031
          49    0.0106    0.0725    0.0207   -0.0262    0.0514    0.0339    0.0204   -0.0491
          50    0.0343    0.1413    0.0237   -0.0334    0.0772    0.0522    0.0043   -0.0600
          51   -0.0142   -0.0694   -0.0221    0.0272   -0.0530   -0.0348   -0.0289    0.0461
          52    0.0120   -0.0405   -0.0550    0.0247    0.0314    0.0118    0.0082   -0.1195
          53   -0.0607    0.0277    0.0873   -0.0296   -0.0663   -0.0273   -0.0165    0.2674
          54    0.1006   -0.0385   -0.0017    0.0028   -0.0005   -0.0019    0.0127   -0.0208
          55    0.0379    0.0522    0.0866   -0.0569   -0.0836   -0.0431    0.0699   -0.0291
          56    0.0363    0.0386    0.0817   -0.0505   -0.0933   -0.0473    0.0772   -0.0508
          57    0.0089   -0.0381   -0.0194    0.0162    0.0484    0.0345   -0.0361    0.0210
          58    0.1104    0.0256   -0.0388    0.0163    0.0840    0.0518   -0.0989    0.2374
          59   -0.0303   -0.0120   -0.0098    0.0006   -0.0039   -0.0037    0.0048   -0.0268
          60   -0.0589    0.0209    0.0125   -0.0089   -0.0218   -0.0134    0.0221   -0.0402
          61   -0.0025   -0.0028   -0.0034   -0.0084   -0.0008    0.0022    0.0007    0.0015
          62    0.0104    0.0081    0.0079    0.0235    0.0024   -0.0038   -0.0005   -0.0062
          63   -0.0181   -0.0134    0.0194   -0.0043    0.0138    0.0164    0.0155   -0.0027
          64    0.0233    0.0016   -0.0078    0.0255   -0.0042   -0.0098    0.0034   -0.0069
          65   -0.0163   -0.0026    0.0039   -0.0180    0.0015    0.0063   -0.0020    0.0051
          66   -0.0290   -0.0299    0.0326   -0.0147    0.0141    0.0116    0.0049   -0.0016


   Root No.      33        34        35        36        37        38        39        40

                33 A      34 A      35 A      36 A      37 A      38 A      39 A      40 A   

                1161.1    1192.4    1208.6    1267.5    1287.2    1331.0    1351.6    1372.8
  
           1    0.0023    0.0338    0.0236    0.0068   -0.0259   -0.0059    0.0063    0.0229
           2   -0.0412   -0.0145    0.0154   -0.0272    0.0194   -0.0180    0.0025   -0.0243
           3    0.0097   -0.0126   -0.0181   -0.0008    0.0115   -0.0028    0.0038    0.0059
           4   -0.0046   -0.0100   -0.0131   -0.0102    0.0185    0.0036   -0.0056   -0.0113
           5    0.0111   -0.0101    0.0182    0.0162    0.0529    0.0159   -0.0208    0.0127
           6   -0.0031   -0.0020   -0.0008   -0.0019   -0.0069   -0.0028    0.0017    0.0020
           7    0.0068   -0.0088   -0.0150    0.0390    0.0219    0.0192    0.0276    0.0188
           8    0.0080    0.0056   -0.0113   -0.0374   -0.0192   -0.0149   -0.0203    0.0025
           9    0.0051   -0.0014   -0.0011   -0.0001    0.0016   -0.0001   -0.0009   -0.0003
          10   -0.0073   -0.0037   -0.0131   -0.0085    0.0236   -0.0127    0.0125    0.0164
          11   -0.0049    0.0061    0.0121   -0.0104    0.0180   -0.0244    0.0233    0.0160
          12    0.0083   -0.0050    0.0017    0.0068   -0.0146    0.0135   -0.0132   -0.0166
          13    0.0198    0.0180    0.0368   -0.0009   -0.0055    0.0017    0.0063   -0.0317
          14    0.0082   -0.0146    0.0149    0.0002   -0.0051   -0.0071    0.0068    0.0057
          15    0.0028    0.0154   -0.0038    0.0022   -0.0052    0.0026   -0.0021   -0.0013
          16   -0.0276    0.0047    0.0113    0.0255   -0.0197   -0.0004   -0.0314   -0.0103
          17   -0.0178    0.0040    0.0097    0.0062   -0.0154    0.0283   -0.0145   -0.0014
          18   -0.0139    0.0025    0.0063   -0.0027   -0.0009   -0.0001    0.0004   -0.0003
          19    0.0087   -0.0007   -0.0074    0.0068   -0.0112    0.0103   -0.0087   -0.0060
          20    0.0051    0.0189   -0.0153    0.0040    0.0150    0.0139   -0.0111   -0.0115
          21   -0.0065   -0.0011    0.0041   -0.0037    0.0025   -0.0058    0.0046    0.0038
          22   -0.0070   -0.0228    0.0176   -0.0072    0.0118   -0.0126    0.0103    0.0056
          23    0.0112   -0.0055    0.0118    0.0047   -0.0196   -0.0076    0.0106    0.0050
          24   -0.0042    0.0004   -0.0055   -0.0015    0.0069    0.0035   -0.0046   -0.0020
          25    0.0005   -0.0113   -0.0021    0.0031   -0.0232   -0.0007   -0.0000    0.0062
          26   -0.0057    0.0071   -0.0185    0.0027   -0.0069    0.0068   -0.0078   -0.0004
          27    0.0036    0.0002    0.0048   -0.0001    0.0037   -0.0007    0.0013   -0.0014
          28    0.0067   -0.0015   -0.0010   -0.0099    0.0021   -0.0189   -0.0025   -0.0040
          29    0.0140    0.0027   -0.0066    0.0017    0.0018    0.0198    0.0127    0.0099
          30    0.0043   -0.0005   -0.0018    0.0007    0.0004    0.0016    0.0007    0.0007
          31    0.0081   -0.1285   -0.0692   -0.0089    0.0444   -0.0011   -0.0056   -0.0141
          32    0.2073    0.0347   -0.0366    0.0379   -0.0216    0.0136    0.0131    0.0271
          33   -0.0436    0.0302    0.0237   -0.0086   -0.0036   -0.0104    0.0048    0.0063
          34   -0.0465   -0.0204   -0.0887   -0.0436   -0.0366   -0.0189   -0.0470    0.0890
          35   -0.0680   -0.0014   -0.1114    0.0282   -0.0956   -0.0143    0.0839   -0.0281
          36    0.0214    0.0102    0.0431    0.0312    0.0152    0.0126    0.0597   -0.0974
          37   -0.0288    0.0096   -0.0754   -0.0450   -0.0387   -0.0172   -0.0672    0.1114
          38   -0.0652    0.0359   -0.0773    0.0194   -0.1009   -0.0139    0.0677   -0.0290
          39    0.0087   -0.0056    0.0007   -0.0158    0.0115   -0.0030   -0.0452    0.0596
          40    0.0580    0.0171   -0.0139   -0.1490   -0.0165   -0.0510    0.0150   -0.0444
          41   -0.0275   -0.0074   -0.0412    0.0522   -0.0158    0.0089    0.1181   -0.0377
          42    0.0026    0.0005   -0.0159   -0.0160   -0.0100   -0.0115    0.0683   -0.0424
          43    0.0061   -0.0296   -0.0332    0.0016    0.0134    0.0341   -0.0427   -0.1012
          44    0.0312   -0.0595    0.0052    0.0153   -0.0635    0.0241   -0.0181    0.0098
          45   -0.0108    0.0316    0.0090   -0.0072    0.0254   -0.0189    0.0180    0.0113
          46    0.1003    0.0062   -0.0329   -0.1477   -0.0176   -0.0527    0.0152   -0.0425
          47   -0.0305   -0.0058   -0.0354    0.0560   -0.0050    0.0126    0.1124   -0.0352
          48   -0.0128   -0.0010    0.0196    0.0235    0.0093    0.0140   -0.0698    0.0452
          49    0.0245   -0.0729   -0.0430    0.0028   -0.0040    0.0377   -0.0340   -0.0500
          50    0.0478   -0.0926   -0.0037    0.0143   -0.0726    0.0397   -0.0241    0.0046
          51   -0.0204    0.0707    0.0534    0.0018   -0.0238   -0.0464    0.0495    0.1156
          52    0.0126    0.0341   -0.0299   -0.0041    0.0444    0.0104   -0.0069   -0.0108
          53    0.0050   -0.0665    0.0318    0.0318   -0.1162    0.0188   -0.0191   -0.0036
          54    0.0042   -0.0036    0.0015   -0.0032    0.0067   -0.0038    0.0035    0.0011
          55   -0.0033    0.0990   -0.0187   -0.0084    0.0382    0.0152   -0.0134   -0.0241
          56    0.0167    0.1570   -0.0389    0.0040    0.0114    0.0292   -0.0206   -0.0334
          57   -0.0088   -0.0632    0.0109   -0.0037   -0.0070   -0.0132    0.0091    0.0126
          58   -0.0510    0.1132   -0.0861   -0.0022    0.0897    0.0328   -0.0295   -0.0239
          59   -0.0025   -0.0028   -0.0132    0.0034   -0.0174    0.0049   -0.0064    0.0020
          60    0.0054   -0.0226    0.0180   -0.0011   -0.0129   -0.0073    0.0064    0.0040
          61    0.0055   -0.0016    0.0015   -0.0233    0.0009   -0.0003    0.0032   -0.0004
          62   -0.0154    0.0096   -0.0166    0.1588   -0.0021   -0.2002   -0.0786   -0.0436
          63   -0.0160    0.0026    0.0065    0.0057   -0.0016   -0.0074   -0.0035   -0.0030
          64   -0.0651    0.0009    0.0435   -0.1047   -0.0262    0.2073    0.0361    0.0304
          65    0.0428    0.0024   -0.0251    0.0452    0.0127   -0.0756   -0.0048   -0.0045
          66   -0.0016   -0.0003   -0.0030    0.0051    0.0016   -0.0104   -0.0015   -0.0004


   Root No.      41        42        43        44        45        46        47        48

                41 A      42 A      43 A      44 A      45 A      46 A      47 A      48 A   

                1383.3    1404.3    1417.6    1423.5    1445.8    1840.9    1891.2    1920.5
  
           1    0.0023    0.0218   -0.0294   -0.0351    0.0721   -0.0014    0.0071    0.0086
           2   -0.0293    0.0030   -0.0468    0.0296    0.0219   -0.0003   -0.0304    0.0083
           3    0.0045   -0.0069    0.0143   -0.0017   -0.0168    0.0011    0.0038    0.0039
           4   -0.0135   -0.0126    0.0081   -0.0657    0.0092   -0.0039   -0.0110   -0.0182
           5   -0.0180    0.0276   -0.0070   -0.0235   -0.0046   -0.0026   -0.0158   -0.0136
           6    0.0046    0.0003    0.0014    0.0117   -0.0001    0.0006    0.0047    0.0049
           7    0.0035   -0.0181   -0.0403    0.0274    0.0095    0.0013    0.0136   -0.0199
           8    0.0089   -0.0356   -0.0090    0.0012    0.0013   -0.0015   -0.0082    0.0022
           9   -0.0006    0.0009    0.0016   -0.0016   -0.0006    0.0001   -0.0003    0.0012
          10   -0.0136   -0.0159    0.0236    0.0038   -0.0321    0.0076   -0.0017   -0.0012
          11    0.0397    0.0011   -0.0095   -0.0237   -0.0546   -0.0300    0.0085    0.0021
          12    0.0064    0.0102   -0.0140    0.0020    0.0264    0.0032   -0.0015   -0.0009
          13    0.0000   -0.0099   -0.0040    0.0732   -0.0497    0.0092    0.0135    0.0141
          14    0.0154   -0.0031    0.0185    0.0040    0.0279    0.0290    0.1276    0.1332
          15   -0.0039    0.0015   -0.0052   -0.0034   -0.0070   -0.0118   -0.0479   -0.0471
          16    0.0087    0.0060    0.0488   -0.0123   -0.0303   -0.0065   -0.0752    0.0936
          17    0.0094    0.0030    0.0359   -0.0093   -0.0220    0.0108    0.1071   -0.1296
          18   -0.0002    0.0007   -0.0029    0.0001    0.0017    0.0002    0.0069   -0.0069
          19   -0.0092    0.0027   -0.0058    0.0009    0.0006   -0.1623    0.0190    0.0090
          20    0.0000   -0.0046    0.0267    0.0219    0.0520    0.1592   -0.0219   -0.0119
          21    0.0013   -0.0004   -0.0029   -0.0036   -0.0093    0.0116   -0.0006    0.0006
          22    0.0231   -0.0068    0.0319    0.0125    0.0513   -0.0417   -0.0215   -0.0213
          23    0.0174   -0.0026    0.0137    0.0126    0.0079   -0.0310   -0.1094   -0.1063
          24   -0.0086    0.0016   -0.0082   -0.0059   -0.0077    0.0170    0.0423    0.0412
          25   -0.0095    0.0079   -0.0317   -0.0263   -0.0463    0.2070   -0.0133   -0.0032
          26   -0.0192    0.0045   -0.0202   -0.0147   -0.0255   -0.1012    0.0216    0.0146
          27    0.0054   -0.0021    0.0095    0.0083    0.0131   -0.0278   -0.0012   -0.0022
          28   -0.0050    0.0000   -0.0084    0.0029    0.0086    0.0065    0.0608   -0.0702
          29    0.0048   -0.0024   -0.0036   -0.0027   -0.0004   -0.0093   -0.0844    0.0972
          30    0.0005   -0.0002    0.0006   -0.0003   -0.0007   -0.0005   -0.0052    0.0059
          31   -0.0101   -0.0234    0.0352    0.0260   -0.0528    0.0020   -0.0015    0.0113
          32    0.0331   -0.0054    0.0275   -0.0165   -0.0196   -0.0011    0.0116    0.0009
          33   -0.0044    0.0098   -0.0214   -0.0106    0.0312   -0.0011   -0.0030   -0.0014
          34    0.0308    0.0660   -0.0028    0.0807    0.0019   -0.0004    0.0058    0.0014
          35    0.0241   -0.0803   -0.0069   -0.0166    0.0364    0.0041    0.0186    0.0167
          36   -0.0278   -0.0923    0.0110   -0.1186    0.0129   -0.0012   -0.0027   -0.0103
          37    0.0335    0.0966   -0.0155    0.1297   -0.0147   -0.0007   -0.0044   -0.0033
          38    0.0218   -0.0692   -0.0067   -0.0040    0.0237    0.0018    0.0082    0.0074
          39    0.0119    0.0673   -0.0081    0.0808   -0.0165   -0.0006   -0.0030    0.0035
          40   -0.0328    0.0666    0.0385   -0.0436    0.0054   -0.0016   -0.0099    0.0076
          41   -0.0239    0.1247    0.0454    0.0304   -0.0108    0.0012    0.0105   -0.0105
          42   -0.0297    0.1135    0.0559   -0.0091   -0.0072    0.0011    0.0050    0.0041
          43    0.1701    0.0590   -0.0943   -0.0249    0.0312   -0.0055    0.0004    0.0029
          44   -0.1226   -0.0159    0.0185    0.0349    0.0499   -0.0047   -0.0016    0.0005
          45    0.0438    0.0024   -0.0023   -0.0194   -0.0348   -0.0003    0.0031   -0.0005
          46   -0.0300    0.0566    0.0372   -0.0400    0.0047   -0.0014   -0.0118    0.0099
          47   -0.0263    0.1250    0.0437    0.0238   -0.0105    0.0016    0.0109   -0.0102
          48    0.0326   -0.1179   -0.0580    0.0131    0.0067   -0.0008   -0.0030   -0.0040
          49    0.0028    0.0050   -0.0104    0.0253    0.0174   -0.0050   -0.0067   -0.0034
          50   -0.1459   -0.0223    0.0256    0.0483    0.0419   -0.0472    0.0000    0.0004
          51   -0.1629   -0.0491    0.0814    0.0064   -0.0024    0.0093    0.0031    0.0038
          52   -0.0011   -0.0108    0.0363    0.0297    0.0416   -0.0925    0.0072    0.0020
          53   -0.0221    0.0269   -0.0710   -0.0433   -0.0441   -0.0934    0.0181    0.0099
          54    0.0042   -0.0015    0.0020    0.0011   -0.0030    0.0294   -0.0041   -0.0023
          55   -0.0229   -0.0043   -0.0081    0.0201   -0.0151   -0.0298    0.0776    0.0734
          56   -0.0441    0.0012   -0.0413    0.0204   -0.0846   -0.0244   -0.0113   -0.0158
          57    0.0160   -0.0015    0.0140   -0.0089    0.0288    0.0142    0.0039    0.0055
          58   -0.0066   -0.0078    0.0436    0.0282    0.0892   -0.0537    0.0309    0.0261
          59   -0.0217    0.0064   -0.0288   -0.0211   -0.0393   -0.1121    0.0208    0.0128
          60    0.0057    0.0007   -0.0035   -0.0026   -0.0072    0.0256   -0.0098   -0.0078
          61   -0.0032   -0.0010   -0.0088    0.0024    0.0083    0.0073    0.0708   -0.0833
          62   -0.0131    0.0156    0.0267   -0.0033   -0.0064    0.0053    0.0346   -0.0357
          63   -0.0013    0.0018   -0.0013    0.0003    0.0013   -0.0005   -0.0017    0.0024
          64    0.0260   -0.0075    0.0340   -0.0107   -0.0313   -0.0061   -0.0535    0.0597
          65   -0.0073    0.0010   -0.0190    0.0020    0.0149   -0.0060   -0.0571    0.0681
          66   -0.0005   -0.0006    0.0000   -0.0000    0.0002    0.0003    0.0003   -0.0005


   Root No.      49        50        51        52        53        54        55        56

                49 A      50 A      51 A      52 A      53 A      54 A      55 A      56 A   

                2854.9    2947.9    2965.8    2980.4    3028.7    3050.5    3054.5    3057.5
  
           1   -0.0205   -0.0011    0.0001    0.0000   -0.0006   -0.0000   -0.0005   -0.0001
           2   -0.0133   -0.0006   -0.0000   -0.0000   -0.0001    0.0000   -0.0002   -0.0003
           3   -0.0634   -0.0032   -0.0000   -0.0004    0.0004    0.0000   -0.0000    0.0002
           4    0.0002    0.0000   -0.0045   -0.0040   -0.0001    0.0216    0.0193   -0.0004
           5   -0.0000   -0.0000   -0.0025   -0.0023    0.0000   -0.0080   -0.0065    0.0002
           6    0.0001    0.0001   -0.0317   -0.0288    0.0000   -0.0009   -0.0008    0.0000
           7    0.0001   -0.0000    0.0012   -0.0012    0.0000   -0.0113    0.0130   -0.0000
           8    0.0001    0.0000    0.0005   -0.0006   -0.0000   -0.0172    0.0185   -0.0000
           9    0.0001    0.0001    0.0294   -0.0320   -0.0000    0.0011   -0.0012   -0.0000
          10    0.0036   -0.0337   -0.0000   -0.0000   -0.0279   -0.0000   -0.0000    0.0021
          11    0.0005   -0.0061   -0.0000   -0.0000    0.0259    0.0000    0.0000   -0.0013
          12    0.0034   -0.0462   -0.0000   -0.0000    0.0131    0.0000   -0.0000   -0.0002
          13   -0.0009    0.0003    0.0001    0.0000    0.0003    0.0003    0.0002    0.0001
          14    0.0010   -0.0001    0.0002    0.0001    0.0001    0.0005   -0.0002   -0.0002
          15   -0.0003   -0.0001   -0.0001   -0.0001   -0.0001   -0.0001    0.0000    0.0000
          16   -0.0002    0.0001    0.0000    0.0000   -0.0002   -0.0005    0.0002    0.0000
          17   -0.0010    0.0001   -0.0000   -0.0000   -0.0001    0.0003    0.0002    0.0000
          18   -0.0001   -0.0001   -0.0000   -0.0001    0.0001    0.0000   -0.0000    0.0000
          19   -0.0002    0.0012   -0.0000   -0.0000    0.0044    0.0002    0.0003    0.0306
          20    0.0001   -0.0002    0.0000   -0.0000    0.0023    0.0001    0.0001    0.0124
          21   -0.0001   -0.0003    0.0000    0.0000   -0.0015   -0.0001   -0.0001   -0.0094
          22   -0.0002    0.0001   -0.0002   -0.0001   -0.0001   -0.0001    0.0001   -0.0057
          23   -0.0006    0.0001   -0.0001   -0.0001   -0.0001   -0.0001   -0.0001    0.0043
          24    0.0000    0.0000   -0.0000   -0.0000    0.0000    0.0000    0.0000   -0.0013
          25    0.0002   -0.0003    0.0000    0.0000    0.0001    0.0000    0.0000   -0.0023
          26    0.0001   -0.0001   -0.0000   -0.0000   -0.0001   -0.0002   -0.0002   -0.0308
          27    0.0000   -0.0001   -0.0000   -0.0000   -0.0000    0.0000    0.0000    0.0054
          28   -0.0002   -0.0003    0.0000   -0.0000   -0.0005    0.0000   -0.0000    0.0000
          29    0.0003    0.0000    0.0000    0.0000    0.0000   -0.0000    0.0000   -0.0000
          30   -0.0001   -0.0000    0.0001   -0.0001    0.0000    0.0000   -0.0000   -0.0000
          31    0.2487    0.0079    0.0000    0.0007   -0.0000   -0.0000    0.0002   -0.0000
          32    0.1602    0.0065    0.0001    0.0004    0.0008    0.0001    0.0001   -0.0002
          33    0.7786    0.0391    0.0001    0.0021    0.0021   -0.0000    0.0007   -0.0005
          34   -0.0008   -0.0004    0.1609    0.1465    0.0006   -0.1800   -0.1617    0.0033
          35    0.0003    0.0001   -0.0361   -0.0363   -0.0001    0.0380    0.0356   -0.0006
          36   -0.0007   -0.0003    0.1503    0.1353    0.0006   -0.1963   -0.1765    0.0035
          37    0.0013    0.0003   -0.1085   -0.0998    0.0003   -0.0781   -0.0694    0.0015
          38   -0.0006   -0.0002    0.0667    0.0648   -0.0002    0.0543    0.0493   -0.0010
          39   -0.0027   -0.0006    0.2325    0.2105   -0.0007    0.2084    0.1858   -0.0039
          40    0.0012    0.0003    0.0711   -0.0763    0.0001    0.0652   -0.0716    0.0001
          41    0.0015    0.0004    0.1083   -0.1222    0.0001    0.1022   -0.1147    0.0003
          42   -0.0025   -0.0007   -0.1757    0.1912   -0.0001   -0.1939    0.2161   -0.0005
          43   -0.0084    0.0571   -0.0000    0.0000   -0.0763   -0.0000   -0.0000    0.0043
          44   -0.0197    0.2181   -0.0000    0.0002   -0.1666   -0.0001   -0.0001    0.0074
          45   -0.0333    0.4230    0.0000    0.0005   -0.3583   -0.0003   -0.0002    0.0152
          46   -0.0004   -0.0001   -0.0850    0.0904    0.0001    0.0729   -0.0807    0.0002
          47   -0.0007   -0.0002   -0.1150    0.1290    0.0001    0.0995   -0.1125    0.0003
          48   -0.0009   -0.0003   -0.1788    0.1927    0.0001    0.1809   -0.2024    0.0005
          49   -0.0287    0.3463    0.0001    0.0004    0.4130    0.0001    0.0003   -0.0286
          50    0.0137   -0.1392   -0.0000   -0.0002   -0.1440   -0.0000   -0.0001    0.0130
          51   -0.0162    0.1340    0.0000    0.0002    0.1953    0.0001    0.0001   -0.0140
[...]
 TRAVEL      0.0982         C  3 -- H 16         +11.0% ( 40.9%)      0.2%
 RED. MASS   0.4507         C  2 -- H 12          +6.7% ( 31.9%)      0.2%
 EFF. MASS   5.1683

 VIBRATION   40   40A         ATOM PAIR      ENERGY CONTRIBUTION    RADIAL
 FREQ.      1372.83         C  1 -- C  5         +13.0% ( 43.7%)     99.0%
 T-DIPOLE    0.0758         C  4 -- H 17         +10.2% ( 38.6%)      0.4%
 TRAVEL      0.0998         C  2 -- H 12          +7.9% ( 34.0%)      2.9%
 RED. MASS   0.4127         C  1 -- C  4          +7.6% ( 33.5%)     16.2%
 EFF. MASS   4.9308

 VIBRATION   41   41A         ATOM PAIR      ENERGY CONTRIBUTION    RADIAL
 FREQ.      1383.31         C  4 -- H 17         +19.1% ( 53.0%)      4.6%
 T-DIPOLE    0.1741         C  4 -- H 15         +18.6% ( 52.3%)      4.5%
 TRAVEL      0.1007         C  1 -- C  4          +9.3% ( 36.9%)      0.2%
 RED. MASS   0.4695         C  8 -- C  9          +7.7% ( 33.7%)     82.9%
 EFF. MASS   4.8065

 VIBRATION   42   42A         ATOM PAIR      ENERGY CONTRIBUTION    RADIAL
 FREQ.      1404.30         C  3 -- H 14         +17.6% ( 47.7%)      5.9%
 T-DIPOLE    0.1017         C  3 -- H 16         +17.6% ( 47.6%)      5.8%
 TRAVEL      0.1106         C  2 -- C  3         +11.7% ( 38.9%)     84.6%
 RED. MASS   0.3843         C  2 -- H 12         +10.2% ( 36.3%)      3.4%
 EFF. MASS   3.9229         C  2 -- H 13         +10.0% ( 35.9%)      3.2%

 VIBRATION   43   43A         ATOM PAIR      ENERGY CONTRIBUTION    RADIAL
 FREQ.      1417.63         C  1 -- C  6         +15.4% ( 58.5%)     79.5%
 T-DIPOLE    0.0976         C  3 -- C  6         +11.7% ( 50.9%)     81.6%
 TRAVEL      0.0708         C  8 -- C  9          +8.2% ( 42.7%)     99.3%
 RED. MASS   1.2786         C  1 -- C  4          +8.0% ( 42.1%)     86.4%
 EFF. MASS   9.4863

 VIBRATION   44   44A         ATOM PAIR      ENERGY CONTRIBUTION    RADIAL
 FREQ.      1423.46         C  2 -- C  5         +20.9% ( 67.5%)     85.1%
 T-DIPOLE    0.0714         C  1 -- C  5         +13.7% ( 54.6%)     84.9%
 TRAVEL      0.0715         C  2 -- H 13         +10.3% ( 47.4%)      5.8%
 RED. MASS   1.6701         C  2 -- H 12          +9.7% ( 46.0%)      7.7%
 EFF. MASS   9.2756

 VIBRATION   45   45A         ATOM PAIR      ENERGY CONTRIBUTION    RADIAL
 FREQ.      1445.84         C  1 -- C  4         +12.7% ( 55.3%)     80.3%
 T-DIPOLE    0.1816         C  1 -- C  5         +11.5% ( 52.6%)     69.0%
 TRAVEL      0.0660         C  4 -- C  7         +10.2% ( 49.6%)     92.2%
 RED. MASS   1.5375         C  8 -- C  9          +9.5% ( 47.7%)     99.3%
 EFF. MASS  10.7222

 VIBRATION   46   46A         ATOM PAIR      ENERGY CONTRIBUTION    RADIAL
 FREQ.      1840.88         C  7 -- C  9         +42.9% ( 96.9%)     99.9%
 T-DIPOLE    0.2879         C  8 -- C  9         +14.9% ( 57.2%)     61.6%
 TRAVEL      0.0555         C  4 -- C  7         +13.6% ( 54.5%)     48.2%
 RED. MASS   5.1500         C  9 -- H 20         +13.0% ( 53.3%)      4.4%
 EFF. MASS  11.8829         C  7 -- H 18         +12.5% ( 52.3%)      5.3%

 VIBRATION   47   47A         ATOM PAIR      ENERGY CONTRIBUTION    RADIAL
 FREQ.      1891.19         C  5 -- C  8         +22.6% ( 71.1%)     99.2%
 T-DIPOLE    0.4377         C  6 -- C 10         +20.0% ( 66.9%)    100.0%
 TRAVEL      0.0548         C  1 -- C  5          +9.0% ( 44.9%)     28.9%
 RED. MASS   2.6713         C  2 -- C  5          +8.8% ( 44.5%)     48.6%
 EFF. MASS  11.8860

 VIBRATION   48   48A         ATOM PAIR      ENERGY CONTRIBUTION    RADIAL
 FREQ.      1920.52         C  6 -- C 10         +24.3% ( 72.6%)    100.0%
 T-DIPOLE    0.3620         C  5 -- C  8         +19.6% ( 65.2%)     99.2%
 TRAVEL      0.0543         C  3 -- C  6         +10.2% ( 47.1%)     40.4%
 RED. MASS   2.9246         C  1 -- C  6         +10.0% ( 46.5%)     41.0%
 EFF. MASS  11.9066

 VIBRATION   49   49A         ATOM PAIR      ENERGY CONTRIBUTION    RADIAL
 FREQ.      2854.92         C  1 -- H 11         +96.6% ( 99.8%)    100.0%
 T-DIPOLE    0.1008         C  1 -- C  4          +1.0% ( 10.1%)      8.6%
 TRAVEL      0.1284         C  1 -- C  6          +1.0% ( 10.0%)      8.9%
 RED. MASS   0.9222         C  1 -- C  5          +1.0% ( 10.0%)      8.5%
 EFF. MASS   1.4332

 VIBRATION   50   50A         ATOM PAIR      ENERGY CONTRIBUTION    RADIAL
 FREQ.      2947.89         C  4 -- H 15         +57.0% ( 78.3%)     97.3%
 T-DIPOLE    0.0586         C  4 -- H 17         +40.3% ( 65.9%)     95.5%
 TRAVEL      0.1220         C  4 -- C  7          +1.1% ( 11.0%)      0.0%
 RED. MASS   0.5274         C  1 -- C  4          +1.1% ( 10.9%)      0.1%
 EFF. MASS   1.5367

 VIBRATION   51   51A         ATOM PAIR      ENERGY CONTRIBUTION    RADIAL
 FREQ.      2965.84         C  2 -- H 13         +30.7% ( 57.7%)     97.2%
 T-DIPOLE    0.0076         C  3 -- H 16         +23.2% ( 50.1%)     96.6%
 TRAVEL      0.1210         C  2 -- H 12         +22.4% ( 49.3%)     95.4%
 RED. MASS   0.2653         C  3 -- H 14         +21.2% ( 48.0%)     96.1%
 EFF. MASS   1.5528

 VIBRATION   52   52A         ATOM PAIR      ENERGY CONTRIBUTION    RADIAL
 FREQ.      2980.43         C  3 -- H 16         +27.7% ( 54.4%)     96.9%
 T-DIPOLE    0.0806         C  2 -- H 13         +25.8% ( 52.5%)     97.5%
 TRAVEL      0.1217         C  3 -- H 14         +25.8% ( 52.5%)     96.4%
 RED. MASS   0.2639         C  2 -- H 12         +18.7% ( 44.7%)     95.7%
 EFF. MASS   1.5271

 VIBRATION   53   53A         ATOM PAIR      ENERGY CONTRIBUTION    RADIAL
 FREQ.      3028.66         C  4 -- H 17         +57.8% ( 75.0%)     98.6%
 T-DIPOLE    0.0835         C  4 -- H 15         +39.9% ( 62.3%)     96.4%
 TRAVEL      0.1318         C  7 -- H 18          +0.9% (  9.5%)    100.0%
 RED. MASS   0.4891         C  4 -- C  7          +0.7% (  8.0%)     20.7%
 EFF. MASS   1.2811

 VIBRATION   54   54A         ATOM PAIR      ENERGY CONTRIBUTION    RADIAL
 FREQ.      3050.52         C  2 -- H 12         +32.0% ( 55.8%)     98.4%
 T-DIPOLE    0.0570         C  3 -- H 14         +23.0% ( 47.3%)     97.8%
 TRAVEL      0.1312         C  2 -- H 13         +22.7% ( 47.1%)     96.4%
 RED. MASS   0.2488         C  3 -- H 16         +21.0% ( 45.2%)     97.3%
 EFF. MASS   1.2849

 VIBRATION   55   55A         ATOM PAIR      ENERGY CONTRIBUTION    RADIAL
 FREQ.      3054.49         C  3 -- H 14         +28.5% ( 52.6%)     97.9%
 T-DIPOLE    0.1289         C  3 -- H 16         +26.2% ( 50.5%)     97.4%
 TRAVEL      0.1313         C  2 -- H 12         +25.8% ( 50.1%)     98.5%
 RED. MASS   0.2477         C  2 -- H 13         +18.1% ( 41.9%)     96.4%
 EFF. MASS   1.2812

 VIBRATION   56   56A         ATOM PAIR      ENERGY CONTRIBUTION    RADIAL
 FREQ.      3057.53         C  7 -- H 18         +51.6% ( 72.9%)    100.0%
 T-DIPOLE    0.2551         C  9 -- H 20         +43.4% ( 66.9%)    100.0%
 TRAVEL      0.1227         C  8 -- H 19          +2.1% ( 14.7%)     99.9%
 RED. MASS   0.4447         C  7 -- C  9          +1.1% ( 10.6%)      0.1%
 EFF. MASS   1.4649

 VIBRATION   57   57A         ATOM PAIR      ENERGY CONTRIBUTION    RADIAL
 FREQ.      3071.68         C  8 -- H 19         +55.0% ( 75.4%)    100.0%
 T-DIPOLE    0.2984         C  7 -- H 18         +25.7% ( 51.5%)     99.9%
 TRAVEL      0.1193         C  9 -- H 20         +15.8% ( 40.4%)     99.8%
 RED. MASS   0.3901         C  8 -- C  9          +1.1% ( 10.8%)      2.6%
 EFF. MASS   1.5422

 VIBRATION   58   58A         ATOM PAIR      ENERGY CONTRIBUTION    RADIAL
 FREQ.      3081.20         C  8 -- H 19         +39.8% ( 64.0%)    100.0%
 T-DIPOLE    0.4179         C  9 -- H 20         +37.8% ( 62.4%)    100.0%
 TRAVEL      0.1175         C  7 -- H 18         +18.7% ( 43.8%)     99.8%
 RED. MASS   0.3362         C  8 -- C  9          +1.3% ( 11.5%)     92.8%
 EFF. MASS   1.5838

 VIBRATION   59   59A         ATOM PAIR      ENERGY CONTRIBUTION    RADIAL
 FREQ.      3139.60         C 10 -- H 21         +88.2% ( 94.4%)     99.4%
 T-DIPOLE    0.2837         C 10 -- H 22         +10.3% ( 32.2%)     63.0%
 TRAVEL      0.1225         C  6 -- C 10          +1.5% ( 12.3%)     74.6%
 RED. MASS   0.7616
 EFF. MASS   1.4323

 VIBRATION   60   60A         ATOM PAIR      ENERGY CONTRIBUTION    RADIAL
 FREQ.      3145.19         C 10 -- H 22         +87.1% ( 95.2%)     99.7%
 T-DIPOLE    0.2388         C 10 -- H 21         +11.5% ( 34.6%)     81.6%
 TRAVEL      0.1171         C  6 -- C 10          +1.3% ( 11.8%)     15.2%
 RED. MASS   0.7911
 EFF. MASS   1.5632

      SYMMETRY NUMBER FOR POINT-GROUP C1  =  1


          SYSTEM IS A GROUND STATE



 InChI=1S/C10H12/c1-8-6-7-9-4-2-3-5-10(8)9/h2-4,10H,1,5-7H2


          MOLECULE IS NOT LINEAR

          THERE ARE 60 GENUINE VIBRATIONS IN THIS SYSTEM
          THIS THERMODYNAMICS CALCULATION IS LIMITED TO
          MOLECULES WHICH HAVE NO INTERNAL ROTATIONS




                    CALCULATED THERMODYNAMIC PROPERTIES
                                          *
   TEMP. (K)   PARTITION FUNCTION   H.O.F.    ENTHALPY  HEAT CAPACITY ENTROPY
                                   KCAL/MOL   CAL/MOLE    CAL/K/MOL  CAL/K/MOL


 298.00  VIB.     0.6058D+02                  3504.5987    28.3660    19.9158
         ROT.     0.5416D+06                   888.2813     2.9808    29.2165
         INT.     0.3281D+08                  4392.8801    31.3468    49.1323
         TRA.     0.1470D+28                  1480.4688     4.9680    40.5480
         TOT.                       31.598    5873.3489    36.3148    89.6802

 200.00  VIB.     0.9940D+01                  1349.5219    15.9275    11.3113
         ROT.     0.2978D+06                   596.1620     2.9808    28.0278
         INT.     0.2960D+07                  1945.6838    18.9083    39.3391
         TRA.     0.8080D+27                   993.6033     4.9680    38.5668
         TOT.                       28.664    2939.2871    23.8764    77.9059

 210.00  VIB.     0.1180D+02                  1514.5834    17.0905    12.1164
         ROT.     0.3204D+06                   625.9700     2.9808    28.1733
         INT.     0.3780D+07                  2140.5534    20.0713    40.2896
         TRA.     0.8694D+27                  1043.2834     4.9680    38.8092
         TOT.                       28.909    3183.8368    25.0393    79.0989

 220.00  VIB.     0.1404D+02                  1691.4407    18.2863    12.9389
         ROT.     0.3436D+06                   655.7781     2.9808    28.3119
         INT.     0.4825D+07                  2347.2188    21.2671    41.2508
         TRA.     0.9322D+27                  1092.9636     4.9680    39.0403
         TOT.                       29.165    3440.1824    26.2351    80.2912

 230.00  VIB.     0.1677D+02                  1880.4086    19.5121    13.7787
         ROT.     0.3672D+06                   685.5862     2.9808    28.4444
         INT.     0.6158D+07                  2565.9949    22.4929    42.2231
         TRA.     0.9965D+27                  1142.6437     4.9680    39.2612
         TOT.                       29.433    3708.6386    27.4609    81.4843

 240.00  VIB.     0.2008D+02                  2081.7717    20.7647    14.6355
         ROT.     0.3914D+06                   715.3943     2.9808    28.5713
         INT.     0.7862D+07                  2797.1660    23.7455    43.2068
         TRA.     0.1062D+28                  1192.3239     4.9680    39.4726
         TOT.                       29.714    3989.4899    28.7135    82.6794

 250.00  VIB.     0.2413D+02                  2295.7798    22.0405    15.5090
         ROT.     0.4162D+06                   745.2024     2.9808    28.6930
         INT.     0.1004D+08                  3040.9822    25.0213    44.2019
         TRA.     0.1129D+28                  1242.0041     4.9680    39.6754
         TOT.                       30.008    4282.9863    29.9893    83.8773

 260.00  VIB.     0.2907D+02                  2522.6457    23.3356    16.3986
         ROT.     0.4414D+06                   775.0105     2.9808    28.8099
         INT.     0.1283D+08                  3297.6562    26.3164    45.2085
         TRA.     0.1198D+28                  1291.6842     4.9680    39.8703
         TOT.                       30.314    4589.3404    31.2845    85.0787

 270.00  VIB.     0.3512D+02                  2762.5439    24.6463    17.3038
         ROT.     0.4671D+06                   804.8186     2.9808    28.9224
         INT.     0.1641D+08                  3567.3625    27.6271    46.2262
         TRA.     0.1267D+28                  1341.3644     4.9680    40.0578
         TOT.                       30.633    4908.7269    32.5951    86.2839

 280.00  VIB.     0.4256D+02                  3015.6101    25.9686    18.2240
         ROT.     0.4933D+06                   834.6267     2.9808    29.0308
         INT.     0.2100D+08                  3850.2368    28.9494    47.2548
         TRA.     0.1338D+28                  1391.0445     4.9680    40.2384
         TOT.                       30.966    5241.2813    33.9174    87.4932

 290.00  VIB.     0.5173D+02                  3281.9413    27.2987    19.1585
         ROT.     0.5199D+06                   864.4348     2.9808    29.1354
         INT.     0.2689D+08                  4146.3761    30.2795    48.2938
         TRA.     0.1411D+28                  1440.7247     4.9680    40.4128
         TOT.                       31.312    5587.1009    35.2475    88.7066

 300.00  VIB.     0.6304D+02                  3561.5977    28.6330    20.1064
         ROT.     0.5471D+06                   894.2429     2.9808    29.2364
         INT.     0.3449D+08                  4455.8406    31.6138    49.3428
         TRA.     0.1484D+28                  1490.4049     4.9680    40.5812
         TOT.                       31.671    5946.2455    36.5818    89.9240

 310.00  VIB.     0.7703D+02                  3854.6040    29.9681    21.0671
         ROT.     0.5746D+06                   924.0510     2.9808    29.3342
         INT.     0.4427D+08                  4778.6550    32.9489    50.4012
         TRA.     0.1559D+28                  1540.0850     4.9680    40.7441
         TOT.                       32.043    6318.7400    37.9169    91.1453

 320.00  VIB.     0.9438D+02                  4160.9516    31.3008    22.0396
         ROT.     0.6027D+06                   953.8591     2.9808    29.4288
         INT.     0.5688D+08                  5114.8107    34.2816    51.4684
         TRA.     0.1635D+28                  1589.7652     4.9680    40.9018
         TOT.                       32.429    6704.5759    39.2496    92.3702

 330.00  VIB.     0.1159D+03                  4480.6016    32.6281    23.0231
         ROT.     0.6311D+06                   983.6672     2.9808    29.5205
         INT.     0.7318D+08                  5464.2688    35.6089    52.5436
         TRA.     0.1713D+28                  1639.4454     4.9680    41.0547
         TOT.                       32.828    7103.7142    40.5769    93.5983

 340.00  VIB.     0.1428D+03                  4813.4869    33.9474    24.0167
         ROT.     0.6601D+06                  1013.4753     2.9808    29.6095
         INT.     0.9426D+08                  5826.9622    36.9282    53.6263
         TRA.     0.1791D+28                  1689.1255     4.9680    41.2030
         TOT.                       33.241    7516.0878    41.8963    94.8293

 350.00  VIB.     0.1763D+03                  5159.5156    35.2564    25.0197
         ROT.     0.6894D+06                  1043.2834     2.9808    29.6959
         INT.     0.1215D+09                  6202.7990    38.2372    54.7156
         TRA.     0.1871D+28                  1738.8057     4.9680    41.3470
         TOT.                       33.666    7941.6047    43.2052    96.0626

 360.00  VIB.     0.2182D+03                  5518.5731    36.5529    26.0311
         ROT.     0.7191D+06                  1073.0915     2.9808    29.7799
         INT.     0.1569D+09                  6591.6646    39.5337    55.8110
         TRA.     0.1951D+28                  1788.4859     4.9680    41.4870
         TOT.                       34.105    8380.1504    44.5017    97.2980

 370.00  VIB.     0.2706D+03                  5890.5255    37.8351    27.0501
         ROT.     0.7493D+06                  1102.8996     2.9808    29.8616
         INT.     0.2028D+09                  6993.4251    40.8159    56.9117
         TRA.     0.2033D+28                  1838.1660     4.9680    41.6231
         TOT.                       34.556    8831.5911    45.7839    98.5348

 380.00  VIB.     0.3364D+03                  6275.2219    39.1014    28.0760
         ROT.     0.7799D+06                  1132.7077     2.9808    29.9411
         INT.     0.2624D+09                  7407.9296    42.0822    58.0170
         TRA.     0.2116D+28                  1887.8462     4.9680    41.7556
         TOT.                       35.021    9295.7758    47.0503    99.7726

 390.00  VIB.     0.4191D+03                  6672.4969    40.3506    29.1078
         ROT.     0.8109D+06                  1162.5158     2.9808    30.0185
         INT.     0.3398D+09                  7835.0128    43.3314    59.1263
         TRA.     0.2200D+28                  1937.5263     4.9680    41.8846
         TOT.                       35.497    9772.5391    48.2994   101.0110

 400.00  VIB.     0.5231D+03                  7082.1733    41.5815    30.1450
         ROT.     0.8423D+06                  1192.3239     2.9808    30.0940
         INT.     0.4406D+09                  8274.4972    44.5623    60.2390
         TRA.     0.2285D+28                  1987.2065     4.9680    42.0104
         TOT.                       35.986   10261.7037    49.5303   102.2494

   *: NOTE: HEATS OF FORMATION ARE RELATIVE TO THE
            ELEMENTS IN THEIR STANDARD STATE AT 298K
              (=  Standard Enthalpy of Formation).

            Hvib:  Zero-point energy is not included.
                   frequencies of less than zero cm-1 are not included.
            Hrot = (3/2)RT
            Htra = (3/2)RT + pV = (5/2)RT

            Heat capacity is Cp, not Cv

          For more information, see: HTTP://OpenMOPAC.net/Manual/thermochemistry.html


           FORCE CONSTANT IN CARTESIAN COORDINATES (Millidynes/A)

    ATOM   CHEMICAL       X               Y               Z
   NUMBER   SYMBOL  FORCE CONSTANT  FORCE CONSTANT  FORCE CONSTANT

      1       C        9.285910        8.998607        7.795935
      2       C        9.517574        7.742694        8.091231
      3       C        8.529135        8.560983        8.079878
      4       C        8.455227        8.907197        7.937918
      5       C        9.131920       14.923781        4.306526
      6       C       11.275978       13.913377        2.844313
      7       C       12.997864       10.862367        3.016436
      8       C       10.472804       13.372817        3.875860
      9       C       12.740096       12.007009        2.810595
     10       C       11.320656       13.296425        1.995918
     11       H        1.007897        0.761101        4.027892
     12       H        2.767050        0.810647        2.840870
     13       H        1.286071        0.961682        4.095228
     14       H        1.056288        1.691308        3.642159
     15       H        0.763204        1.469909        4.011736
     16       H        1.202361        1.727330        3.452242
     17       H        3.919116        1.127060        1.315688
     18       H        4.210740        1.358056        0.702801
     19       H        3.713978        2.042725        0.513339
     20       H        0.754232        5.024678        0.494304
     21       H        5.397345        0.700069        0.339855
     22       H        1.331288        4.777991        0.337280

 **********************
 *                    *
 * JOB ENDED NORMALLY *
 *                    *
 **********************



 TOTAL JOB TIME:             2.21 SECONDS

 == MOPAC DONE ==
