 *******************************************************************************
 ** Site#: 14399        For non-commercial use only    Version 18.184L 64BITS **
 *******************************************************************************
 ** Cite this program as: MOPAC2016, Version: 18.184L, James J. P. Stewart,   **
 ** Stewart Computational Chemistry, web: HTTP://OpenMOPAC.net. Days left:  18**
 *******************************************************************************
 **                                                                           **
 **                                MOPAC2016                                  **
 **                                                                           **
 *******************************************************************************

                              PM3 CALCULATION RESULTS

 *******************************************************************************
 *  CALCULATION DONE:                                Sat Jun 15 10:10:56 2019  *
 *  PM3        - The PM3 Hamiltonian to be used
 *  PRECISE    - CRITERIA TO BE INCREASED BY 100 TIMES
 *  NOSYM      - POINT-GROUP SYMMETRY SET TO C1
 *  THREADS=1  - MULTI-THREADING NOT USED
 *  T=         - A TIME OF 172800.0 SECONDS REQUESTED
 *  DUMP=N     - RESTART FILE WRITTEN EVERY  7200.000 SECONDS
 *******************************************************************************
pm3  precise nosym THREADS=1
 InChI=1S/C7H8/c1-7-5-3-2-4-6-7/h2-5H,1,6H2

   ATOM   CHEMICAL          X               Y               Z
  NUMBER   SYMBOL      (ANGSTROMS)     (ANGSTROMS)     (ANGSTROMS)
 
     1       C         -0.23600000  *  -1.23060000  *  -0.02880000  *
     2       C         -0.93210000  *   0.11250000  *  -0.02650000  *
     3       C          1.26810000  *  -1.12760000  *  -0.07520000  *
     4       C         -0.14470000  *   1.36180000  *  -0.06730000  *
     5       C          1.91310000  *   0.04280000  *  -0.11060000  *
     6       C          1.18710000  *   1.32290000  *  -0.10650000  *
     7       C         -2.26500000  *   0.16620000  *   0.01260000  *
     8       H         -0.57350000  *  -1.81380000  *  -0.91220000  *
     9       H         -0.51960000  *  -1.78900000  *   0.88890000  *
    10       H          1.84510000  *  -2.04390000  *  -0.07980000  *
    11       H         -0.64500000  *   2.32320000  *  -0.06560000  *
    12       H          1.74890000  *   2.24780000  *  -0.13610000  *
    13       H          2.99510000  *   0.05410000  *  -0.14310000  *
    14       H         -2.85460000  *  -0.74190000  *   0.04270000  *
    15       H         -2.78680000  *   1.11540000  *   0.01510000  *
 


          CARTESIAN COORDINATES 

    NO.       ATOM           X           Y           Z

     1         C         -0.2360     -1.2306     -0.0288
     2         C         -0.9321      0.1125     -0.0265
     3         C          1.2681     -1.1276     -0.0752
     4         C         -0.1447      1.3618     -0.0673
     5         C          1.9131      0.0428     -0.1106
     6         C          1.1871      1.3229     -0.1065
     7         C         -2.2650      0.1662      0.0126
     8         H         -0.5735     -1.8138     -0.9122
     9         H         -0.5196     -1.7890      0.8889
    10         H          1.8451     -2.0439     -0.0798
    11         H         -0.6450      2.3232     -0.0656
    12         H          1.7489      2.2478     -0.1361
    13         H          2.9951      0.0541     -0.1431
    14         H         -2.8546     -0.7419      0.0427
    15         H         -2.7868      1.1154      0.0151

  H: (PM3): J. J. P. STEWART, J. COMP. CHEM. 10, 209 (1989).
  C: (PM3): J. J. P. STEWART, J. COMP. CHEM. 10, 209 (1989).

           Empirical Formula: C7 H8  =    15 atoms



      MOLECULAR POINT GROUP   :   C1  


      RHF CALCULATION, NO. OF DOUBLY OCCUPIED LEVELS = 18


          Geometry optimization using EF

          DIAGONAL MATRIX USED AS START HESSIAN

 CYCLE:     1 TIME:   0.004 TIME LEFT:  2.00D  GRAD.:    67.028 HEAT:  41.35698
 CYCLE:     2 TIME:   0.004 TIME LEFT:  2.00D  GRAD.:    58.543 HEAT:  40.66162
 CYCLE:     3 TIME:   0.004 TIME LEFT:  2.00D  GRAD.:    58.548 HEAT:  40.44452
 CYCLE:     4 TIME:   0.004 TIME LEFT:  2.00D  GRAD.:    35.153 HEAT:  39.96409
 CYCLE:     5 TIME:   0.004 TIME LEFT:  2.00D  GRAD.:    32.097 HEAT:  39.83701
 CYCLE:     6 TIME:   0.000 TIME LEFT:  2.00D  GRAD.:    18.278 HEAT:  39.61136
 CYCLE:     7 TIME:   0.004 TIME LEFT:  2.00D  GRAD.:    22.847 HEAT:  39.60778
 CYCLE:     8 TIME:   0.004 TIME LEFT:  2.00D  GRAD.:    12.543 HEAT:  39.41889
 CYCLE:     9 TIME:   0.004 TIME LEFT:  2.00D  GRAD.:    12.698 HEAT:  39.39044
 CYCLE:    10 TIME:   0.004 TIME LEFT:  2.00D  GRAD.:     6.527 HEAT:  39.34196
 CYCLE:    11 TIME:   0.004 TIME LEFT:  2.00D  GRAD.:     8.225 HEAT:  39.33421
 CYCLE:    12 TIME:   0.000 TIME LEFT:  2.00D  GRAD.:     6.169 HEAT:  39.32201
 CYCLE:    13 TIME:   0.004 TIME LEFT:  2.00D  GRAD.:     6.449 HEAT:  39.31903
 CYCLE:    14 TIME:   0.004 TIME LEFT:  2.00D  GRAD.:     2.972 HEAT:  39.31048
 CYCLE:    15 TIME:   0.000 TIME LEFT:  2.00D  GRAD.:     2.571 HEAT:  39.30842
 CYCLE:    16 TIME:   0.004 TIME LEFT:  2.00D  GRAD.:     2.723 HEAT:  39.30800
 CYCLE:    17 TIME:   0.004 TIME LEFT:  2.00D  GRAD.:     1.305 HEAT:  39.30625
 CYCLE:    18 TIME:   0.000 TIME LEFT:  2.00D  GRAD.:     1.138 HEAT:  39.30575
 CYCLE:    19 TIME:   0.004 TIME LEFT:  2.00D  GRAD.:     0.765 HEAT:  39.30518
 CYCLE:    20 TIME:   0.004 TIME LEFT:  2.00D  GRAD.:     1.020 HEAT:  39.30496
 CYCLE:    21 TIME:   0.000 TIME LEFT:  2.00D  GRAD.:     0.502 HEAT:  39.30468
 CYCLE:    22 TIME:   0.004 TIME LEFT:  2.00D  GRAD.:     0.397 HEAT:  39.30465
 CYCLE:    23 TIME:   0.000 TIME LEFT:  2.00D  GRAD.:     0.266 HEAT:  39.30457
 CYCLE:    24 TIME:   0.004 TIME LEFT:  2.00D  GRAD.:     0.180 HEAT:  39.30453
 CYCLE:    25 TIME:   0.004 TIME LEFT:  2.00D  GRAD.:     0.180 HEAT:  39.30449
 CYCLE:    26 TIME:   0.004 TIME LEFT:  2.00D  GRAD.:     0.149 HEAT:  39.30446
 CYCLE:    27 TIME:   0.000 TIME LEFT:  2.00D  GRAD.:     0.099 HEAT:  39.30445
 CYCLE:    28 TIME:   0.004 TIME LEFT:  2.00D  GRAD.:     0.090 HEAT:  39.30443
 CYCLE:    29 TIME:   0.000 TIME LEFT:  2.00D  GRAD.:     0.078 HEAT:  39.30441
 CYCLE:    30 TIME:   0.004 TIME LEFT:  2.00D  GRAD.:     0.065 HEAT:  39.30440
 CYCLE:    31 TIME:   0.004 TIME LEFT:  2.00D  GRAD.:     0.041 HEAT:  39.30440

     GRADIENT =  0.04114  IS LESS THAN CUTOFF =  0.05000



 -------------------------------------------------------------------------------
 pm3  precise nosym THREADS=1
 InChI=1S/C7H8/c1-7-5-3-2-4-6-7/h2-5H,1,6H2



     GEOMETRY OPTIMISED USING EIGENVECTOR FOLLOWING (EF).     
     SCF FIELD WAS ACHIEVED                                   


                              PM3 CALCULATION
                                                       MOPAC2016 (Version: 18.184L)
                                                       Sat Jun 15 10:10:56 2019
                                                       No. of days remaining =  18




          FINAL HEAT OF FORMATION =         39.30440 KCAL/MOL =     164.44960 KJ/MOL


          TOTAL ENERGY            =       -951.43994 EV
          ELECTRONIC ENERGY       =      -4182.87211 EV  POINT GROUP:     C1  
          CORE-CORE REPULSION     =       3231.43217 EV
          COSMO AREA              =        138.44 SQUARE ANGSTROMS
          COSMO VOLUME            =        130.28 CUBIC ANGSTROMS

          GRADIENT NORM           =          0.04114 = 0.01062 PER ATOM
          IONIZATION POTENTIAL    =          8.599115 EV
          HOMO LUMO ENERGIES (EV) =         -8.599 -0.197
          NO. OF FILLED LEVELS    =         18
          MOLECULAR WEIGHT        =         92.1402

          MOLECULAR DIMENSIONS (Angstroms)

            Atom       Atom       Distance
            H    14    H    13     5.96027
            H    11    H    10     4.65574
            H     9    H     8     1.77038


          SCF CALCULATIONS        =         36
 
          WALL-CLOCK TIME         =          0.098 SECONDS
          COMPUTATION TIME        =          0.084 SECONDS




   ATOM   CHEMICAL          X               Y               Z
  NUMBER   SYMBOL      (ANGSTROMS)     (ANGSTROMS)     (ANGSTROMS)
 
     1       C         -0.22081975  *  -1.20185110  *  -0.03002448  *
     2       C         -0.93369350  *   0.11377976  *  -0.02653376  *
     3       C          1.26038725  *  -1.11515011  *  -0.07493513  *
     4       C         -0.14064928  *   1.33605600  *  -0.06732224  *
     5       C          1.91934754  *   0.05074416  *  -0.11064126  *
     6       C          1.20164257  *   1.30789314  *  -0.10693631  *
     7       C         -2.27051852  *   0.16436945  *   0.01319606  *
     8       H         -0.56529228  *  -1.80257897  *  -0.89752627  *
     9       H         -0.51310404  *  -1.77902647  *   0.87192326  *
    10       H          1.79884047  *  -2.06939945  *  -0.07757369  *
    11       H         -0.68710783  *   2.28658027  *  -0.06433724  *
    12       H          1.78931759  *   2.23108493  *  -0.13735757  *
    13       H          3.01298554  *   0.08814303  *  -0.14346538  *
    14       H         -2.88813988  *  -0.72812150  *   0.04425102  *
    15       H         -2.82487929  *   1.09814934  *   0.01708282  *

                             CARTESIAN COORDINATES

   1    C       -0.220819748    -1.201851098    -0.030024478
   2    C       -0.933693505     0.113779761    -0.026533762
   3    C        1.260387252    -1.115150107    -0.074935131
   4    C       -0.140649278     1.336055997    -0.067322238
   5    C        1.919347542     0.050744164    -0.110641262
   6    C        1.201642575     1.307893143    -0.106936307
   7    C       -2.270518520     0.164369448     0.013196055
   8    H       -0.565292276    -1.802578973    -0.897526269
   9    H       -0.513104040    -1.779026470     0.871923257
  10    H        1.798840473    -2.069399446    -0.077573695
  11    H       -0.687107833     2.286580272    -0.064337238
  12    H        1.789317595     2.231084928    -0.137357570
  13    H        3.012985545     0.088143030    -0.143465383
  14    H       -2.888139880    -0.728121503     0.044251017
  15    H       -2.824879287     1.098149338     0.017082819


           Empirical Formula: C7 H8  =    15 atoms



      MOLECULAR POINT GROUP   :   C1  


                  EIGENVALUES  
 -39.67609 -32.08669 -30.28722 -25.20409 -21.71935 -20.08328 -17.62326 -16.54215
 -15.80974 -14.99003 -14.65458 -14.26916 -13.39446 -12.58131 -11.86399 -11.73789
 -10.81302  -8.59911  -0.19693   1.29267   2.33347   3.18730   3.32045   3.38653
   3.72477   3.81366   3.94405   4.23691   4.38052   4.39988   4.81849   5.23721
   5.36383   5.61224   6.15101   6.25572


              NET ATOMIC CHARGES AND DIPOLE CONTRIBUTIONS

  ATOM NO.   TYPE          CHARGE      No. of ELECS.   s-Pop       p-Pop       
    1          C          -0.020825        4.0208     1.13282     2.88800
    2          C          -0.074301        4.0743     1.18239     2.89192
    3          C          -0.127914        4.1279     1.19577     2.93215
    4          C          -0.095765        4.0958     1.18137     2.91440
    5          C          -0.117335        4.1173     1.17814     2.93920
    6          C          -0.094105        4.0941     1.17963     2.91447
    7          C          -0.173612        4.1736     1.18322     2.99039
    8          H           0.065711        0.9343     0.93429
    9          H           0.065702        0.9343     0.93430
   10          H           0.098381        0.9016     0.90162
   11          H           0.102490        0.8975     0.89751
   12          H           0.101035        0.8990     0.89897
   13          H           0.102413        0.8976     0.89759
   14          H           0.082583        0.9174     0.91742
   15          H           0.085542        0.9145     0.91446
 DIPOLE           X         Y         Z       TOTAL
 POINT-CHG.     0.130    -0.301     0.000     0.328
 HYBRID        -0.032    -0.034     0.001     0.047
 SUM            0.097    -0.334     0.002     0.348


          ATOMIC ORBITAL ELECTRON POPULATIONS

     Atom    s        px        py        pz   
    1  C   1.13282   0.93061   0.94827   1.00912
    2  C   1.18239   0.95103   0.94484   0.99605
    3  C   1.19577   0.96080   0.97635   0.99500
    4  C   1.18137   0.95070   0.95972   1.00397
    5  C   1.17814   0.98125   0.93881   1.01913
    6  C   1.17963   0.95183   0.96610   0.99655
    7  C   1.18322   0.94731   1.01421   1.02888
    8  H   0.93429
    9  H   0.93430
   10  H   0.90162
   11  H   0.89751
   12  H   0.89897
   13  H   0.89759
   14  H   0.91742
   15  H   0.91446
 *******************************************************************************
 ** Site#: 14399        For non-commercial use only    Version 18.184L 64BITS **
 *******************************************************************************
 ** Cite this program as: MOPAC2016, Version: 18.184L, James J. P. Stewart,   **
 ** Stewart Computational Chemistry, web: HTTP://OpenMOPAC.net. Days left:  18**
 *******************************************************************************
 **                                                                           **
 **                                MOPAC2016                                  **
 **                                                                           **
 *******************************************************************************

                              PM3 CALCULATION RESULTS

 *******************************************************************************
 *  CALCULATION DONE:                                Sat Jun 15 10:10:56 2019  *
 *  PM3        - The PM3 Hamiltonian to be used
 *  OLDGEO     - PREVIOUS GEOMETRY TO BE USED
 *  PRECISE    - CRITERIA TO BE INCREASED BY 100 TIMES
 *  NOSYM      - POINT-GROUP SYMMETRY SET TO C1
 *  THREADS=1  - MULTI-THREADING NOT USED
 *  T=         - A TIME OF 172800.0 SECONDS REQUESTED
 *  DUMP=N     - RESTART FILE WRITTEN EVERY  7200.000 SECONDS
 *  THERMO     - THERMODYNAMIC QUANTITIES TO BE CALCULATED
 *******************************************************************************
oldgeo thermo nosym precise THREADS=1  pm3
 InChI=1S/C7H8/c1-7-5-3-2-4-6-7/h2-5H,1,6H2

   ATOM   CHEMICAL          X               Y               Z
  NUMBER   SYMBOL      (ANGSTROMS)     (ANGSTROMS)     (ANGSTROMS)
 
     1       C         -0.22081975  *  -1.20185110  *  -0.03002448  *
     2       C         -0.93369350  *   0.11377976  *  -0.02653376  *
     3       C          1.26038725  *  -1.11515011  *  -0.07493513  *
     4       C         -0.14064928  *   1.33605600  *  -0.06732224  *
     5       C          1.91934754  *   0.05074416  *  -0.11064126  *
     6       C          1.20164257  *   1.30789314  *  -0.10693631  *
     7       C         -2.27051852  *   0.16436945  *   0.01319606  *
     8       H         -0.56529228  *  -1.80257897  *  -0.89752627  *
     9       H         -0.51310404  *  -1.77902647  *   0.87192326  *
    10       H          1.79884047  *  -2.06939945  *  -0.07757369  *
    11       H         -0.68710783  *   2.28658027  *  -0.06433724  *
    12       H          1.78931759  *   2.23108493  *  -0.13735757  *
    13       H          3.01298554  *   0.08814303  *  -0.14346538  *
    14       H         -2.88813988  *  -0.72812150  *   0.04425102  *
    15       H         -2.82487929  *   1.09814934  *   0.01708282  *
 


          CARTESIAN COORDINATES 

    NO.       ATOM           X           Y           Z

     1         C         -0.2208     -1.2019     -0.0300
     2         C         -0.9337      0.1138     -0.0265
     3         C          1.2604     -1.1152     -0.0749
     4         C         -0.1406      1.3361     -0.0673
     5         C          1.9193      0.0507     -0.1106
     6         C          1.2016      1.3079     -0.1069
     7         C         -2.2705      0.1644      0.0132
     8         H         -0.5653     -1.8026     -0.8975
     9         H         -0.5131     -1.7790      0.8719
    10         H          1.7988     -2.0694     -0.0776
    11         H         -0.6871      2.2866     -0.0643
    12         H          1.7893      2.2311     -0.1374
    13         H          3.0130      0.0881     -0.1435
    14         H         -2.8881     -0.7281      0.0443
    15         H         -2.8249      1.0981      0.0171

  H: (PM3): J. J. P. STEWART, J. COMP. CHEM. 10, 209 (1989).
  C: (PM3): J. J. P. STEWART, J. COMP. CHEM. 10, 209 (1989).

           Empirical Formula: C7 H8  =    15 atoms



      MOLECULAR POINT GROUP   :   C1  


      RHF CALCULATION, NO. OF DOUBLY OCCUPIED LEVELS = 18



          HEAT OF FORMATION =      39.304398 KCALS/MOLE


          CARTESIAN COORDINATE DERIVATIVES

   NUMBER  ATOM         X            Y            Z

     1       C      0.000659     0.008669     0.000142
     2       C     -0.000101    -0.011500    -0.003990
     3       C     -0.001800     0.004996    -0.002816
     4       C      0.003158    -0.010954    -0.003232
     5       C     -0.005142     0.020161    -0.000097
     6       C     -0.004381    -0.005031     0.006430
     7       C      0.000513    -0.012076     0.005777
     8       H     -0.003297    -0.003711    -0.000948
     9       H      0.000971    -0.003590     0.004386
    10       H      0.000651    -0.000532     0.000461
    11       H      0.004862     0.013279     0.000348
    12       H      0.003760    -0.005470    -0.002228
    13       H     -0.007054     0.008172    -0.000293
    14       H      0.013599    -0.002292    -0.002771
    15       H     -0.006399    -0.000122    -0.001170
 


          GRADIENT NORM =   0.04200


          TIME FOR SCF CALCULATION =    0.00

          TIME FOR DERIVATIVES     =    0.00

          MOLECULAR WEIGHT =   92.14



          ROTATIONAL CONSTANTS IN CM(-1)

          A =    0.17100812   B =    0.08967643   C =    0.05948315



           PRINCIPAL MOMENTS OF INERTIA IN UNITS OF 10**(-40)*GRAM-CM**2

          A =      163.6927   B =      312.1531   C =      470.6001


          ORIENTATION OF MOLECULE IN FORCE CALCULATION

    NO.       ATOM         X         Y         Z

     1          C      -0.9740   -0.8895   -0.0003
     2          C       0.5223   -0.8895   -0.0003
     3          C      -1.6036    0.4549   -0.0003
     4          C       1.2191    0.3908    0.0007
     5          C      -0.8925    1.5903    0.0004
     6          C       0.5548    1.5582    0.0011
     7          C       1.2038   -2.0414   -0.0012
     8          H      -1.3401   -1.4502    0.8849
     9          H      -1.3401   -1.4503   -0.8854
    10          H      -2.6991    0.4737   -0.0008
    11          H       2.3151    0.3632    0.0012
    12          H       1.0864    2.5152    0.0018
    13          H      -1.3807    2.5702    0.0004
    14          H       0.7134   -3.0101   -0.0021
    15          H       2.2889   -2.0839   -0.0012


    FIRST DERIVATIVES WILL BE USED IN THE CALCULATION OF SECOND DERIVATIVES

          ESTIMATED TIME TO COMPLETE CALCULATION =        0.70 SECONDS

    FOR POINT-GROUP C1   THERE ARE   1 UNIQUE SYMMETRY FUNCTIONS.

 STEP:   1 TIME =     0.01 SECS, INTEGRAL =      0.01 TIME LEFT: 172799.98
 STEP:   2 TIME =     0.01 SECS, INTEGRAL =      0.02 TIME LEFT: 172799.97
 STEP:   3 TIME =     0.01 SECS, INTEGRAL =      0.03 TIME LEFT: 172799.96
 STEP:   4 TIME =     0.01 SECS, INTEGRAL =      0.04 TIME LEFT: 172799.95
 STEP:   5 TIME =     0.01 SECS, INTEGRAL =      0.05 TIME LEFT: 172799.94
 STEP:   6 TIME =     0.01 SECS, INTEGRAL =      0.07 TIME LEFT: 172799.93
 STEP:   7 TIME =     0.01 SECS, INTEGRAL =      0.07 TIME LEFT: 172799.92
 STEP:   8 TIME =     0.01 SECS, INTEGRAL =      0.09 TIME LEFT: 172799.91
 STEP:   9 TIME =     0.01 SECS, INTEGRAL =      0.09 TIME LEFT: 172799.90
 STEP:  10 TIME =     0.01 SECS, INTEGRAL =      0.10 TIME LEFT: 172799.89
 STEP:  11 TIME =     0.01 SECS, INTEGRAL =      0.11 TIME LEFT: 172799.88
 STEP:  12 TIME =     0.01 SECS, INTEGRAL =      0.12 TIME LEFT: 172799.87
 STEP:  13 TIME =     0.01 SECS, INTEGRAL =      0.14 TIME LEFT: 172799.86
 STEP:  14 TIME =     0.01 SECS, INTEGRAL =      0.14 TIME LEFT: 172799.85
 STEP:  15 TIME =     0.01 SECS, INTEGRAL =      0.16 TIME LEFT: 172799.84
 STEP:  16 TIME =     0.01 SECS, INTEGRAL =      0.17 TIME LEFT: 172799.83
 STEP:  17 TIME =     0.01 SECS, INTEGRAL =      0.18 TIME LEFT: 172799.82
 STEP:  18 TIME =     0.01 SECS, INTEGRAL =      0.19 TIME LEFT: 172799.80
 STEP:  19 TIME =     0.01 SECS, INTEGRAL =      0.20 TIME LEFT: 172799.80
 STEP:  20 TIME =     0.01 SECS, INTEGRAL =      0.21 TIME LEFT: 172799.79
 STEP:  21 TIME =     0.01 SECS, INTEGRAL =      0.22 TIME LEFT: 172799.77
 STEP:  22 TIME =     0.01 SECS, INTEGRAL =      0.23 TIME LEFT: 172799.77
 STEP:  23 TIME =     0.01 SECS, INTEGRAL =      0.24 TIME LEFT: 172799.75
 STEP:  24 TIME =     0.01 SECS, INTEGRAL =      0.25 TIME LEFT: 172799.74
 STEP:  25 TIME =     0.01 SECS, INTEGRAL =      0.27 TIME LEFT: 172799.73
 STEP:  26 TIME =     0.01 SECS, INTEGRAL =      0.27 TIME LEFT: 172799.72
 STEP:  27 TIME =     0.01 SECS, INTEGRAL =      0.29 TIME LEFT: 172799.71
 STEP:  28 TIME =     0.01 SECS, INTEGRAL =      0.29 TIME LEFT: 172799.70
 STEP:  29 TIME =     0.01 SECS, INTEGRAL =      0.30 TIME LEFT: 172799.69
 STEP:  30 TIME =     0.01 SECS, INTEGRAL =      0.32 TIME LEFT: 172799.68
 STEP:  31 TIME =     0.01 SECS, INTEGRAL =      0.32 TIME LEFT: 172799.67
 STEP:  32 TIME =     0.01 SECS, INTEGRAL =      0.34 TIME LEFT: 172799.66
 STEP:  33 TIME =     0.01 SECS, INTEGRAL =      0.35 TIME LEFT: 172799.65
 STEP:  34 TIME =     0.01 SECS, INTEGRAL =      0.36 TIME LEFT: 172799.64
 STEP:  35 TIME =     0.01 SECS, INTEGRAL =      0.37 TIME LEFT: 172799.63
 STEP:  36 TIME =     0.01 SECS, INTEGRAL =      0.38 TIME LEFT: 172799.62
 STEP:  37 TIME =     0.01 SECS, INTEGRAL =      0.39 TIME LEFT: 172799.61
 STEP:  38 TIME =     0.01 SECS, INTEGRAL =      0.40 TIME LEFT: 172799.59
 STEP:  39 TIME =     0.01 SECS, INTEGRAL =      0.41 TIME LEFT: 172799.59
 STEP:  40 TIME =     0.01 SECS, INTEGRAL =      0.42 TIME LEFT: 172799.57
 STEP:  41 TIME =     0.01 SECS, INTEGRAL =      0.43 TIME LEFT: 172799.56
 STEP:  42 TIME =     0.01 SECS, INTEGRAL =      0.44 TIME LEFT: 172799.55
 STEP:  43 TIME =     0.01 SECS, INTEGRAL =      0.45 TIME LEFT: 172799.55
 STEP:  44 TIME =     0.01 SECS, INTEGRAL =      0.46 TIME LEFT: 172799.54
 STEP:  45 TIME =     0.01 SECS, INTEGRAL =      0.47 TIME LEFT: 172799.52

(To convert to Hartree/Bohr^2, multiply by (10^(-21) x N x a0^2)/(4.184 x 627.51) =  0.0642)


           FORCE MATRIX IN MILLIDYNES/ANGSTROM


                  C  1       C  2       C  3       C  4       C  5       C  6
 ------------------------------------------------------------------------------
     C    1  15.008937
     C    2   4.666740  18.696282
     C    3   5.021616   0.688852  18.031686
     C    4   0.604828   5.427252   0.210833  18.378073
     C    5   0.865093   0.170858  10.215976   1.174861  18.380001
     C    6   0.139359   1.080084   1.187919   9.976714   5.710529  18.301789
     C    7   0.828167  10.319398   0.063159   1.105319   0.058266   0.143896
     H    8   4.370619   0.418662   0.416067   0.026979   0.040809   0.015063
     H    9   4.371025   0.418739   0.416142   0.026979   0.040820   0.015076
     H   10   0.422768   0.049370   4.831251   0.010941   0.444637   0.123792
     H   11   0.041082   0.447581   0.011180   4.806598   0.123583   0.440157
     H   12   0.003753   0.122524   0.047942   0.439485   0.434768   4.860812
     H   13   0.121723   0.002651   0.443918   0.048403   4.859292   0.435424
     H   14   0.081227   0.474807   0.002546   0.125498   0.007845   0.010411
     H   15   0.113381   0.474463   0.007293   0.091255   0.006837   0.006764


                  C  7       H  8       H  9       H 10       H 11       H 12
 ------------------------------------------------------------------------------
     C    7  17.863904
     H    8   0.036838   4.958081
     H    9   0.036892   0.567787   4.958547
     H   10   0.008983   0.029810   0.029859   5.206818
     H   11   0.045266   0.004320   0.004331   0.009423   5.180444
     H   12   0.009366   0.000863   0.000854   0.007553   0.064040   5.223047
     H   13   0.001227   0.015671   0.015680   0.065033   0.006998   0.031597
     H   14   5.102356   0.012644   0.012661   0.002125   0.002047   0.009281
     H   15   5.098481   0.012221   0.012186   0.003631   0.028305   0.005810


                  H 13       H 14       H 15
 ------------------------------------------
     H   13   5.224772
     H   14   0.000301   5.490802
     H   15   0.000553   0.412217   5.490393


          HEAT OF FORMATION =      39.304398 KCALS/MOLE

          ZERO POINT ENERGY      79.041 KCAL/MOL


           NORMAL COORDINATE ANALYSIS (Total motion = 1 Angstrom)


   Root No.       1         2         3         4         5         6         7         8

                 1 A       2 A       3 A       4 A       5 A       6 A       7 A       8 A   

                  62.3     253.7     398.0     422.0     506.3     522.0     589.8     622.8
  
           1   -0.0000    0.0000   -0.0427   -0.0001    0.0469    0.0002   -0.0038   -0.0000
           2    0.0000   -0.0000   -0.0041    0.0000    0.0514    0.0002   -0.0705   -0.0000
           3   -0.0599   -0.0209    0.0000    0.0005   -0.0001    0.0112   -0.0000   -0.0033
           4   -0.0000    0.0000   -0.0414   -0.0001    0.0478    0.0002   -0.0217   -0.0000
           5   -0.0000   -0.0000   -0.0269   -0.0001   -0.0627   -0.0003   -0.0286    0.0000
           6   -0.0116    0.0285   -0.0002    0.0567   -0.0007    0.0653   -0.0001   -0.0204
           7   -0.0000   -0.0000   -0.0043   -0.0000   -0.0000    0.0001    0.1052    0.0000
           8    0.0000   -0.0000    0.0230    0.0000    0.0469    0.0002   -0.0194    0.0000
           9    0.0231    0.0493    0.0001   -0.0496    0.0000   -0.0010    0.0000   -0.0130
          10   -0.0000    0.0000   -0.0267   -0.0000   -0.0401   -0.0002   -0.0906   -0.0000
          11    0.0000   -0.0000   -0.0356   -0.0001   -0.0205   -0.0001    0.0244   -0.0000
          12   -0.0424    0.0539   -0.0000    0.0135    0.0003   -0.0305    0.0001    0.0200
          13   -0.0000    0.0000    0.0163   -0.0000   -0.0497   -0.0002    0.0196    0.0000
          14    0.0000    0.0000    0.0115   -0.0000    0.0754    0.0004    0.0411   -0.0000
          15    0.0440   -0.0278   -0.0001    0.0600    0.0002   -0.0144    0.0001    0.0089
          16    0.0000    0.0000    0.0131    0.0000   -0.0540   -0.0002    0.0091    0.0000
          17    0.0000    0.0000   -0.0176   -0.0000   -0.0203   -0.0001    0.0876   -0.0000
          18   -0.0132   -0.0478    0.0000   -0.0439   -0.0003    0.0271   -0.0000   -0.0187
          19    0.0000   -0.0000    0.0683    0.0001    0.0443    0.0002   -0.0109    0.0000
          20   -0.0000    0.0000    0.0373    0.0001   -0.0744   -0.0003   -0.0247    0.0000
          21    0.0603   -0.0221    0.0001   -0.0161    0.0001   -0.0135   -0.0000    0.0012
          22   -0.0319   -0.0374   -0.0577   -0.0356    0.0296   -0.0870   -0.0288   -0.0050
          23   -0.0732   -0.0844    0.0062    0.0459    0.0691   -0.0827   -0.0608    0.0111
          24   -0.1197   -0.0911   -0.0004    0.0156    0.0032   -0.0805   -0.0029    0.0019
          25    0.0319    0.0374   -0.0580    0.0354    0.0278    0.0870   -0.0290    0.0049
          26    0.0732    0.0844    0.0061   -0.0458    0.0674    0.0832   -0.0610   -0.0111
          27   -0.1197   -0.0911    0.0006    0.0156   -0.0015   -0.0805    0.0031    0.0019
          28   -0.0000   -0.0001   -0.0039    0.0000   -0.0011    0.0001    0.1043   -0.0000
          29    0.0000   -0.0000    0.0539    0.0001   -0.0116   -0.0000   -0.0107    0.0000
          30    0.0604    0.1362    0.0003   -0.1162    0.0005   -0.0522   -0.0000    0.0152
          31    0.0000   -0.0000   -0.0261    0.0000   -0.0383   -0.0002   -0.0908   -0.0001
          32    0.0000   -0.0000   -0.0559   -0.0001    0.0383    0.0002    0.0024   -0.0001
          33   -0.0815    0.1225    0.0001   -0.0421    0.0015   -0.1411    0.0002    0.1567
          34    0.0000    0.0000    0.0433    0.0001   -0.0149   -0.0000    0.0491    0.0000
          35    0.0000    0.0000   -0.0347    0.0000   -0.0409   -0.0002    0.0648   -0.0000
          36   -0.0299   -0.1034    0.0002   -0.1906   -0.0005    0.0470   -0.0002    0.0031
          37   -0.0000    0.0000    0.0373   -0.0000   -0.0326   -0.0001   -0.0631   -0.0000
          38   -0.0000    0.0000    0.0220   -0.0000    0.0832    0.0004   -0.0003   -0.0000
          39    0.1022   -0.0351   -0.0002    0.1789    0.0010   -0.0943    0.0002    0.0954
          40    0.0000   -0.0000    0.1968    0.0003    0.0412    0.0003   -0.0112   -0.0001
          41   -0.0001    0.0001   -0.0250    0.0001   -0.0735   -0.0004   -0.0259   -0.0002
          42    0.0944   -0.0803   -0.0000   -0.0898   -0.0004    0.0440   -0.0001    0.3236
          43    0.0000   -0.0000    0.0764    0.0001    0.0446    0.0002   -0.0117    0.0000
          44   -0.0000    0.0000    0.1750    0.0003   -0.0827   -0.0002   -0.0263    0.0002
          45    0.0896   -0.0128    0.0003   -0.0221    0.0015   -0.1691    0.0002   -0.2958


   Root No.       9        10        11        12        13        14        15        16

                 9 A      10 A      11 A      12 A      13 A      14 A      15 A      16 A   

                 757.9     811.8     859.5     907.2     931.2     958.4     973.5     994.6
  
           1   -0.0000   -0.0000   -0.0305    0.0000    0.0417   -0.0363   -0.0000    0.0000
           2   -0.0000   -0.0000    0.0140    0.0000    0.0411   -0.0306   -0.0000    0.0000
           3   -0.0124    0.0336   -0.0000    0.0514   -0.0001   -0.0000    0.0187    0.0043
           4   -0.0000   -0.0000    0.0249   -0.0000   -0.0170    0.0082    0.0000   -0.0000
           5   -0.0000    0.0000   -0.0331   -0.0000   -0.0046   -0.0082    0.0000    0.0000
           6    0.0361   -0.0008    0.0000   -0.0307    0.0001    0.0000   -0.0026    0.0089
           7    0.0000    0.0000   -0.0727   -0.0000   -0.0003    0.0169    0.0000    0.0000
           8   -0.0000   -0.0000    0.0094   -0.0000   -0.0143    0.0072    0.0000   -0.0000
           9   -0.0222    0.0037   -0.0000   -0.0208   -0.0000   -0.0000   -0.0355   -0.0174
          10    0.0000    0.0000   -0.0147   -0.0000   -0.0145    0.0655    0.0000   -0.0001
          11    0.0000    0.0000    0.0359    0.0000   -0.0010    0.0276    0.0000   -0.0000
          12   -0.0209   -0.0327   -0.0000    0.0191   -0.0000    0.0000   -0.0426    0.0135
          13    0.0000   -0.0000    0.0302    0.0000    0.0067   -0.0155   -0.0000    0.0000
          14    0.0000    0.0000   -0.0533   -0.0000   -0.0239    0.0255    0.0000   -0.0000
          15   -0.0300    0.0127    0.0001   -0.0336    0.0001    0.0000    0.0184    0.0291
          16   -0.0000    0.0000    0.0369    0.0000    0.0112   -0.0142   -0.0000    0.0000
          17    0.0000   -0.0000    0.0732    0.0000    0.0166   -0.0048   -0.0000    0.0000
          18   -0.0039   -0.0333    0.0000    0.0166    0.0000   -0.0000    0.0385   -0.0248
          19   -0.0000   -0.0000    0.0345   -0.0000   -0.0475   -0.0179    0.0000    0.0000
          20   -0.0000    0.0000   -0.0535   -0.0001   -0.0197   -0.0325    0.0000    0.0001
          21    0.0014   -0.0006   -0.0000   -0.0124   -0.0000   -0.0001    0.0012   -0.0443
          22   -0.0151   -0.0470   -0.0459   -0.0471    0.0684   -0.0821   -0.0666   -0.0643
          23    0.0664   -0.0757    0.0254   -0.1167    0.0430   -0.0199   -0.0068    0.0289
          24    0.0252   -0.0363   -0.0010   -0.0453    0.0109   -0.0105   -0.0139   -0.0039
          25    0.0151    0.0470   -0.0458    0.0471    0.0684   -0.0820    0.0665    0.0643
          26   -0.0664    0.0757    0.0252    0.1168    0.0427   -0.0201    0.0068   -0.0289
          27    0.0252   -0.0363    0.0010   -0.0453   -0.0109    0.0105   -0.0139   -0.0039
          28   -0.0001    0.0001   -0.0725   -0.0001   -0.0013    0.0172   -0.0001   -0.0000
          29   -0.0000   -0.0000    0.0936   -0.0000   -0.0809    0.0509   -0.0000   -0.0000
          30    0.2404   -0.1508   -0.0001    0.0243    0.0001    0.0001    0.1750    0.0875
          31   -0.0000   -0.0001   -0.0148    0.0000   -0.0152    0.0688   -0.0001   -0.0000
          32    0.0000   -0.0001    0.0416    0.0000   -0.0198    0.1157   -0.0001   -0.0001
          33    0.0186    0.2139    0.0003   -0.0919    0.0002    0.0000    0.2009   -0.0528
          34   -0.0001   -0.0001   -0.0211    0.0000    0.0004   -0.0978    0.0001    0.0000
          35   -0.0001   -0.0001    0.1081    0.0001    0.0227    0.0434    0.0001   -0.0001
          36    0.1875    0.1762    0.0001   -0.0753   -0.0000    0.0000   -0.1877    0.0970
          37   -0.0001   -0.0001    0.0290   -0.0001   -0.0292   -0.0272    0.0000    0.0000
          38   -0.0000   -0.0000   -0.0531   -0.0001   -0.0434    0.0217    0.0000    0.0000
          39    0.2015    0.0409   -0.0002    0.2022   -0.0004   -0.0002   -0.1008   -0.1184
          40   -0.0000    0.0000    0.0327    0.0002    0.1774    0.1299   -0.0001   -0.0002
          41    0.0001    0.0000   -0.0557   -0.0002   -0.1287   -0.1059    0.0001   -0.0000
          42   -0.0638   -0.0539   -0.0001    0.0598   -0.0000    0.0002   -0.0270    0.1805
          43   -0.0000   -0.0000    0.0348   -0.0000   -0.0341   -0.0092    0.0000    0.0000
          44    0.0000    0.0000   -0.0973    0.0002    0.2333    0.1012   -0.0002   -0.0002
          45   -0.0159    0.0545   -0.0001    0.0943    0.0000    0.0003    0.0146    0.1803


   Root No.      17        18        19        20        21        22        23        24

                17 A      18 A      19 A      20 A      21 A      22 A      23 A      24 A   

                1026.0    1044.9    1074.4    1084.4    1148.6    1157.9    1224.9    1315.0
  
           1    0.0000   -0.0068    0.0000    0.0116   -0.0061   -0.0019   -0.0175    0.0300
           2   -0.0000    0.0401   -0.0001    0.0020   -0.0012    0.0030    0.0123   -0.0211
           3   -0.0249   -0.0000    0.0063    0.0000   -0.0000    0.0000   -0.0000   -0.0000
           4    0.0000   -0.0051    0.0000    0.0051    0.0105    0.0116   -0.0200    0.0211
           5   -0.0000   -0.0058    0.0000    0.0040    0.0027    0.0067   -0.0141   -0.0175
           6    0.0287   -0.0000   -0.0402   -0.0001    0.0000   -0.0000   -0.0000   -0.0000
           7   -0.0000    0.0433   -0.0001    0.0169   -0.0058    0.0005   -0.0015   -0.0210
           8   -0.0000   -0.0207    0.0000    0.0022   -0.0119    0.0003    0.0197    0.0081
           9    0.0382    0.0001    0.0298    0.0001   -0.0000    0.0000    0.0000   -0.0000
          10   -0.0000    0.0015    0.0000   -0.0335   -0.0077   -0.0026    0.0000   -0.0048
          11    0.0000   -0.0037   -0.0000    0.0019    0.0098   -0.0045   -0.0176   -0.0161
          12   -0.0272    0.0000    0.0133    0.0000    0.0000    0.0000   -0.0000   -0.0000
          13    0.0000    0.0079   -0.0001    0.0392   -0.0001   -0.0018    0.0196   -0.0067
          14    0.0000   -0.0274    0.0001   -0.0295   -0.0043   -0.0058    0.0075    0.0097
          15   -0.0320   -0.0000   -0.0079    0.0000    0.0000   -0.0000    0.0000   -0.0000
          16   -0.0000   -0.0116    0.0001   -0.0390    0.0018   -0.0026    0.0176    0.0215
          17   -0.0000   -0.0092    0.0001   -0.0262   -0.0008   -0.0063   -0.0070    0.0052
          18    0.0286    0.0000   -0.0019   -0.0000   -0.0000    0.0000    0.0000    0.0000
          19    0.0000    0.0125   -0.0000   -0.0089   -0.0041   -0.0045    0.0079    0.0011
          20    0.0000    0.0078   -0.0000    0.0041   -0.0015   -0.0008    0.0038   -0.0087
          21   -0.0335    0.0000    0.0194    0.0000   -0.0000    0.0000   -0.0000    0.0000
          22   -0.0067   -0.1464   -0.2840    0.0301   -0.0820    0.0403    0.0849   -0.0841
          23    0.0686    0.1545    0.1602    0.0003    0.0431   -0.0179   -0.0631   -0.0012
          24    0.0171    0.0131   -0.0098    0.0046   -0.0021    0.0022   -0.0040   -0.0298
          25    0.0068   -0.1457    0.2842    0.0310   -0.0822    0.0404    0.0850   -0.0841
          26   -0.0687    0.1540   -0.1606   -0.0002    0.0432   -0.0179   -0.0632   -0.0012
          27    0.0171   -0.0131   -0.0097   -0.0047    0.0021   -0.0022    0.0040    0.0298
          28    0.0000    0.0424   -0.0001    0.0246   -0.0102    0.0058   -0.0050   -0.0225
          29    0.0000   -0.0291   -0.0004    0.1962   -0.1528    0.2600   -0.1437    0.0289
          30   -0.1156   -0.0002   -0.0430   -0.0000   -0.0000    0.0000   -0.0000   -0.0000
          31   -0.0001    0.0010    0.0001   -0.0331   -0.0033    0.0001    0.0038   -0.0031
          32   -0.0001    0.0122   -0.0004    0.1926    0.2169    0.0855    0.2099    0.0127
          33    0.0922   -0.0001   -0.0454    0.0000    0.0001    0.0000    0.0001   -0.0000
          34    0.0002   -0.0967    0.0005   -0.1204    0.2297    0.1798   -0.0912   -0.0465
          35   -0.0000    0.0365   -0.0002    0.0177   -0.1269   -0.1098    0.0544    0.0447
          36   -0.0922   -0.0001    0.0015   -0.0001    0.0000    0.0000   -0.0000    0.0000
          37    0.0001   -0.1228   -0.0000    0.1911    0.0919   -0.2518   -0.1151   -0.0288
          38    0.0000   -0.0955    0.0001    0.0450    0.0396   -0.1314   -0.0602    0.0008
          39    0.1025    0.0001    0.0109    0.0001    0.0000   -0.0001   -0.0000   -0.0000
          40   -0.0001   -0.0389    0.0001   -0.0119   -0.0035    0.0046   -0.0409   -0.2254
          41   -0.0001    0.0339   -0.0000    0.0067   -0.0010   -0.0048    0.0281    0.1160
          42    0.1235   -0.0000   -0.0732   -0.0001    0.0000   -0.0000    0.0000    0.0000
          43   -0.0000    0.0100   -0.0000   -0.0090   -0.0038   -0.0038    0.0054    0.0041
          44   -0.0001   -0.0405    0.0000    0.0376    0.0244    0.0240   -0.0160    0.2790
          45    0.1186   -0.0000   -0.0544   -0.0001    0.0000   -0.0000   -0.0000    0.0002


   Root No.      25        26        27        28        29        30        31        32

                25 A      26 A      27 A      28 A      29 A      30 A      31 A      32 A   

                1339.7    1387.9    1407.1    1509.4    1829.2    1839.9    1873.1    2925.8
  
           1   -0.0186    0.0534   -0.0252   -0.0881    0.0115   -0.0111    0.0161    0.0000
           2   -0.0302   -0.0453   -0.0460    0.0388   -0.0099   -0.0125   -0.0232    0.0000
           3    0.0000   -0.0000   -0.0000    0.0000   -0.0000   -0.0000   -0.0000   -0.0610
           4   -0.0206   -0.0030    0.0566    0.1090   -0.0461    0.0683   -0.0537    0.0000
           5   -0.0198    0.0162    0.0321    0.0656    0.0418   -0.1077    0.1207   -0.0000
           6   -0.0000    0.0000    0.0000    0.0000    0.0000   -0.0001    0.0001   -0.0001
           7    0.0008   -0.0289   -0.0132    0.0242    0.0310    0.0517    0.0361    0.0000
           8   -0.0154    0.0099    0.0470   -0.0533    0.0587    0.1236    0.0869    0.0000
           9   -0.0000   -0.0000    0.0000   -0.0000    0.0000    0.0001    0.0000   -0.0001
          10    0.0168   -0.0147   -0.0250   -0.0498   -0.0637    0.0073    0.0213   -0.0000
          11   -0.0002   -0.0312    0.0104   -0.0684    0.1530   -0.0082   -0.0904    0.0000
          12    0.0000   -0.0000   -0.0000   -0.0000    0.0000   -0.0000   -0.0000   -0.0002
          13   -0.0247   -0.0077    0.0585   -0.0575   -0.0746   -0.0865   -0.0504   -0.0000
          14    0.0075    0.0171    0.0001    0.0120   -0.0427   -0.1027   -0.0716   -0.0000
          15   -0.0000   -0.0000    0.0000   -0.0000   -0.0000   -0.0001   -0.0000   -0.0003
          16    0.0148    0.0370   -0.0323    0.0714    0.1225    0.0064   -0.0329    0.0000
          17    0.0110   -0.0052   -0.0223   -0.0055   -0.1334    0.0258    0.0590   -0.0000
          18    0.0000    0.0000   -0.0000    0.0000   -0.0000    0.0000    0.0000    0.0001
          19    0.0072   -0.0187   -0.0108   -0.0130    0.0306   -0.0546    0.0478   -0.0000
          20   -0.0019    0.0269   -0.0071   -0.0046   -0.0571    0.0915   -0.0811    0.0000
          21   -0.0000    0.0000   -0.0000   -0.0000   -0.0000    0.0001   -0.0001   -0.0001
          22    0.1386   -0.0782    0.0195    0.0316    0.0011    0.0176   -0.0107   -0.1565
          23    0.1825    0.0649    0.0714   -0.0218   -0.0038   -0.0242    0.0019   -0.2407
          24    0.1716    0.0127    0.0788    0.0081   -0.0020   -0.0008    0.0037    0.3693
          25    0.1387   -0.0783    0.0195    0.0316    0.0011    0.0177   -0.0108    0.1563
          26    0.1825    0.0650    0.0714   -0.0218   -0.0039   -0.0243    0.0019    0.2404
          27   -0.1717   -0.0127   -0.0789   -0.0081    0.0020    0.0008   -0.0037    0.3686
          28    0.0012   -0.0310   -0.0180    0.0246    0.0407    0.0684    0.0504   -0.0000
          29    0.0473    0.0392   -0.1345    0.0302   -0.0012   -0.0355   -0.0284   -0.0000
          30    0.0000    0.0000   -0.0000    0.0000    0.0000    0.0000    0.0000   -0.0016
          31    0.0195   -0.0134   -0.0297   -0.0493   -0.0943    0.0133    0.0341    0.0000
          32    0.0456    0.0987   -0.1004    0.0359   -0.0192   -0.0107    0.0477   -0.0000
          33    0.0000    0.0000   -0.0001    0.0000   -0.0000   -0.0000    0.0001   -0.0003
          34    0.0107   -0.0666   -0.0218   -0.0831   -0.0648    0.0465    0.0515   -0.0000
          35    0.0160    0.0539   -0.0338    0.0829   -0.0586    0.0088    0.0233    0.0000
          36    0.0000    0.0000   -0.0000   -0.0000   -0.0000    0.0000    0.0000    0.0000
          37    0.0375   -0.0457   -0.0853    0.0450   -0.0134    0.0659    0.0565    0.0000
          38    0.0409    0.0014   -0.0746    0.0675   -0.0235   -0.0487   -0.0337   -0.0000
          39    0.0000   -0.0000   -0.0000    0.0000   -0.0000    0.0000    0.0000   -0.0007
          40   -0.0639    0.1288    0.0225    0.0539   -0.0433    0.0646   -0.0514   -0.0000
          41    0.0352   -0.0511   -0.0222   -0.0351   -0.0322    0.0476   -0.0457   -0.0000
          42    0.0000   -0.0000   -0.0000   -0.0000   -0.0000    0.0001   -0.0000    0.0001
          43    0.0065   -0.0226   -0.0073   -0.0077    0.0406   -0.0738    0.0668    0.0000
          44    0.0342   -0.1331    0.0536    0.0473    0.0180   -0.0301    0.0285    0.0000
          45    0.0000   -0.0001    0.0000    0.0000    0.0000   -0.0000    0.0000   -0.0006


   Root No.      33        34        35        36        37        38        39

                33 A      34 A      35 A      36 A      37 A      38 A      39 A   

                3006.2    3045.0    3051.3    3065.2    3076.1    3142.8    3144.6
  
           1   -0.0219    0.0004   -0.0013   -0.0006    0.0008    0.0002    0.0004
           2   -0.0337    0.0005   -0.0018   -0.0010    0.0013   -0.0000   -0.0005
           3   -0.0000    0.0000   -0.0000   -0.0000    0.0000    0.0000   -0.0000
           4   -0.0008    0.0000    0.0002    0.0000   -0.0002    0.0029   -0.0013
           5    0.0002    0.0003   -0.0004    0.0004    0.0006   -0.0052    0.0009
           6   -0.0000    0.0000   -0.0000    0.0000    0.0000   -0.0000    0.0000
           7    0.0046   -0.0033   -0.0362   -0.0187    0.0181   -0.0001    0.0001
           8   -0.0006   -0.0000    0.0001   -0.0019    0.0027   -0.0000    0.0001
           9    0.0000   -0.0000   -0.0000   -0.0000    0.0000   -0.0000    0.0000
          10   -0.0004   -0.0461    0.0075   -0.0155   -0.0110    0.0007   -0.0003
          11    0.0001    0.0022   -0.0006    0.0029    0.0024   -0.0003    0.0008
          12    0.0000   -0.0000    0.0000   -0.0000   -0.0000    0.0000    0.0000
          13    0.0002    0.0025    0.0128   -0.0058    0.0110    0.0001   -0.0000
          14    0.0002   -0.0049   -0.0235    0.0172   -0.0269    0.0000   -0.0000
          15    0.0000    0.0000   -0.0000    0.0000   -0.0000    0.0000    0.0000
          16   -0.0002    0.0123    0.0012   -0.0114   -0.0107   -0.0001    0.0001
          17    0.0001    0.0185    0.0035   -0.0258   -0.0220    0.0003   -0.0002
          18    0.0000    0.0000    0.0000   -0.0000   -0.0000    0.0000   -0.0000
          19    0.0001   -0.0003    0.0000   -0.0001   -0.0000   -0.0361   -0.0502
          20   -0.0001    0.0001    0.0000   -0.0000   -0.0001    0.0328   -0.0421
          21    0.0000    0.0000    0.0000   -0.0000   -0.0000    0.0000   -0.0000
          22    0.1320   -0.0010    0.0057    0.0028   -0.0032    0.0000    0.0009
          23    0.2020   -0.0014    0.0128    0.0061   -0.0065   -0.0003   -0.0001
          24   -0.3720    0.0027   -0.0206   -0.0098    0.0108    0.0003   -0.0009
          25    0.1322   -0.0010    0.0057    0.0028   -0.0032    0.0000    0.0009
          26    0.2024   -0.0014    0.0129    0.0061   -0.0065   -0.0003   -0.0001
          27    0.3725   -0.0028    0.0207    0.0099   -0.0108   -0.0003    0.0009
          28   -0.0505    0.0382    0.4261    0.2093   -0.1902    0.0002   -0.0003
          29   -0.0022   -0.0013   -0.0117   -0.0036    0.0027    0.0000   -0.0000
          30   -0.0000    0.0000    0.0002    0.0001   -0.0001    0.0000    0.0000
          31    0.0086    0.5338   -0.0862    0.1669    0.1112   -0.0080    0.0017
          32    0.0001   -0.0086    0.0019   -0.0050   -0.0035    0.0012    0.0015
          33    0.0000    0.0002   -0.0000    0.0001    0.0000   -0.0000    0.0000
          34   -0.0006   -0.1347   -0.0158    0.1516    0.1315   -0.0005    0.0003
          35   -0.0010   -0.2360   -0.0332    0.2761    0.2331   -0.0010    0.0005
          36   -0.0000   -0.0002   -0.0000    0.0002    0.0002   -0.0000   -0.0000
          37   -0.0010   -0.0265   -0.1459    0.0859   -0.1422   -0.0002    0.0000
          38    0.0032    0.0561    0.2866   -0.1784    0.2828    0.0004   -0.0000
          39    0.0000    0.0000    0.0000   -0.0000    0.0000    0.0000    0.0000
          40   -0.0017   -0.0020    0.0005   -0.0011   -0.0007   -0.1761    0.2537
          41   -0.0010   -0.0042    0.0012   -0.0020   -0.0015   -0.3173    0.5113
          42   -0.0000   -0.0000    0.0000   -0.0000   -0.0000   -0.0003    0.0004
          43   -0.0002    0.0043   -0.0011    0.0020    0.0013    0.5700    0.3537
          44    0.0002   -0.0015    0.0002   -0.0005   -0.0003   -0.0118   -0.0245
          45    0.0000   -0.0000   -0.0000    0.0000   -0.0000    0.0000   -0.0000


           MASS-WEIGHTED COORDINATE ANALYSIS (NORMAL COORDINATES)


   Root No.       1         2         3         4         5         6         7         8

                 1 A       2 A       3 A       4 A       5 A       6 A       7 A       8 A   

                  62.3     253.7     398.0     422.0     506.3     522.0     589.8     622.8
  
           1   -0.0000    0.0000   -0.2900   -0.0005    0.2420    0.0013   -0.0187   -0.0002
           2    0.0001   -0.0000   -0.0279    0.0001    0.2649    0.0013   -0.3503   -0.0001
           3   -0.4401   -0.1589    0.0001    0.0034   -0.0004    0.0903   -0.0002   -0.0229
           4   -0.0000    0.0001   -0.2816   -0.0004    0.2464    0.0013   -0.1081   -0.0001
           5   -0.0000   -0.0000   -0.1829   -0.0004   -0.3232   -0.0027   -0.1421    0.0001
           6   -0.0849    0.2165   -0.0011    0.4009   -0.0035    0.5271   -0.0005   -0.1430
           7   -0.0001   -0.0001   -0.0294   -0.0001   -0.0000    0.0005    0.5228    0.0000
           8    0.0001   -0.0001    0.1565    0.0003    0.2421    0.0016   -0.0964    0.0000
           9    0.1697    0.3744    0.0007   -0.3508    0.0002   -0.0078    0.0000   -0.0912
          10   -0.0000    0.0000   -0.1815   -0.0000   -0.2066   -0.0018   -0.4504   -0.0000
          11    0.0001   -0.0002   -0.2419   -0.0005   -0.1055   -0.0006    0.1213   -0.0001
          12   -0.3117    0.4092   -0.0001    0.0952    0.0016   -0.2464    0.0003    0.1400
          13   -0.0001    0.0000    0.1106   -0.0001   -0.2563   -0.0014    0.0972    0.0001
          14    0.0000    0.0001    0.0780   -0.0000    0.3888    0.0028    0.2042   -0.0001
          15    0.3235   -0.2115   -0.0006    0.4244    0.0008   -0.1160    0.0004    0.0623
          16    0.0001    0.0001    0.0890    0.0002   -0.2783   -0.0018    0.0451    0.0001
          17    0.0001    0.0000   -0.1193   -0.0003   -0.1046   -0.0004    0.4354   -0.0000
          18   -0.0970   -0.3633    0.0002   -0.3107   -0.0016    0.2184   -0.0002   -0.1310
          19    0.0002   -0.0000    0.4642    0.0007    0.2285    0.0018   -0.0541    0.0002
          20   -0.0003    0.0002    0.2533    0.0006   -0.3837   -0.0023   -0.1228    0.0002
          21    0.4430   -0.1676    0.0003   -0.1136    0.0004   -0.1088   -0.0001    0.0084
          22   -0.0680   -0.0824   -0.1136   -0.0730    0.0442   -0.2034   -0.0414   -0.0100
          23   -0.1559   -0.1858    0.0121    0.0941    0.1033   -0.1934   -0.0876    0.0225
          24   -0.2550   -0.2005   -0.0007    0.0319    0.0048   -0.1883   -0.0042    0.0039
          25    0.0679    0.0824   -0.1142    0.0726    0.0415    0.2035   -0.0418    0.0099
          26    0.1559    0.1858    0.0121   -0.0940    0.1007    0.1945   -0.0879   -0.0225
          27   -0.2550   -0.2005    0.0011    0.0319   -0.0022   -0.1883    0.0045    0.0039
          28   -0.0001   -0.0001   -0.0077    0.0000   -0.0017    0.0002    0.1502   -0.0000
          29    0.0000   -0.0001    0.1061    0.0002   -0.0173   -0.0000   -0.0155    0.0000
          30    0.1286    0.2999    0.0005   -0.2382    0.0008   -0.1221   -0.0000    0.0309
          31    0.0000   -0.0000   -0.0513    0.0000   -0.0572   -0.0004   -0.1307   -0.0001
          32    0.0001   -0.0001   -0.1100   -0.0001    0.0573    0.0005    0.0035   -0.0002
          33   -0.1735    0.2697    0.0002   -0.0863    0.0023   -0.3298    0.0003    0.3175
          34    0.0001    0.0001    0.0852    0.0003   -0.0222   -0.0001    0.0707    0.0000
          35    0.0000    0.0001   -0.0683    0.0000   -0.0612   -0.0004    0.0933   -0.0000
          36   -0.0636   -0.2275    0.0004   -0.3907   -0.0007    0.1098   -0.0003    0.0064
          37   -0.0001    0.0000    0.0735   -0.0000   -0.0486   -0.0002   -0.0908   -0.0000
          38   -0.0000    0.0000    0.0433   -0.0000    0.1242    0.0009   -0.0005   -0.0001
          39    0.2176   -0.0772   -0.0004    0.3668    0.0015   -0.2206    0.0003    0.1933
          40    0.0001   -0.0000    0.3875    0.0006    0.0616    0.0006   -0.0161   -0.0001
          41   -0.0002    0.0002   -0.0493    0.0001   -0.1099   -0.0008   -0.0373   -0.0004
          42    0.2011   -0.1768   -0.0000   -0.1841   -0.0006    0.1030   -0.0002    0.6559
          43    0.0000   -0.0000    0.1504    0.0002    0.0666    0.0005   -0.0168    0.0001
          44   -0.0001    0.0000    0.3446    0.0006   -0.1235   -0.0004   -0.0379    0.0004
          45    0.1909   -0.0282    0.0007   -0.0452    0.0023   -0.3953    0.0003   -0.5995


   Root No.       9        10        11        12        13        14        15        16

                 9 A      10 A      11 A      12 A      13 A      14 A      15 A      16 A   

                 757.9     811.8     859.5     907.2     931.2     958.4     973.5     994.6
  
           1   -0.0000   -0.0000   -0.1804    0.0002    0.3065   -0.2739   -0.0001    0.0002
           2   -0.0000   -0.0001    0.0830    0.0004    0.3023   -0.2310   -0.0001    0.0002
           3   -0.0990    0.2840   -0.0001    0.4247   -0.0004   -0.0002    0.1485    0.0377
           4   -0.0000   -0.0001    0.1473   -0.0000   -0.1251    0.0623    0.0001   -0.0000
           5   -0.0002    0.0001   -0.1957   -0.0000   -0.0338   -0.0618    0.0001    0.0000
           6    0.2875   -0.0068    0.0001   -0.2533    0.0005    0.0000   -0.0202    0.0775
           7    0.0001    0.0002   -0.4295   -0.0003   -0.0021    0.1278    0.0003    0.0000
           8   -0.0000   -0.0000    0.0554   -0.0000   -0.1055    0.0544    0.0001   -0.0000
           9   -0.1764    0.0308   -0.0000   -0.1717   -0.0000   -0.0000   -0.2818   -0.1513
          10    0.0000    0.0003   -0.0869   -0.0002   -0.1063    0.4948    0.0001   -0.0005
          11    0.0001    0.0001    0.2119    0.0001   -0.0077    0.2085    0.0001   -0.0003
          12   -0.1664   -0.2760   -0.0001    0.1578   -0.0004    0.0003   -0.3380    0.1179
          13    0.0002   -0.0001    0.1786    0.0003    0.0494   -0.1167   -0.0001    0.0000
          14    0.0001    0.0001   -0.3147   -0.0004   -0.1756    0.1929    0.0001   -0.0002
          15   -0.2389    0.1069    0.0003   -0.2772    0.0004    0.0002    0.1456    0.2535
          16   -0.0000    0.0000    0.2183    0.0002    0.0823   -0.1071   -0.0002    0.0001
          17    0.0001   -0.0001    0.4329    0.0004    0.1222   -0.0364   -0.0003    0.0001
          18   -0.0312   -0.2810    0.0000    0.1370    0.0001   -0.0000    0.3054   -0.2166
          19   -0.0000   -0.0002    0.2040   -0.0003   -0.3494   -0.1350    0.0002    0.0003
          20   -0.0000    0.0001   -0.3164   -0.0004   -0.1445   -0.2452    0.0002    0.0005
          21    0.0113   -0.0055   -0.0002   -0.1024   -0.0001   -0.0006    0.0092   -0.3867
          22   -0.0348   -0.1150   -0.0786   -0.1127    0.1456   -0.1796   -0.1532   -0.1624
          23    0.1531   -0.1852    0.0435   -0.2793    0.0916   -0.0436   -0.0155    0.0731
          24    0.0581   -0.0888   -0.0017   -0.1085    0.0233   -0.0229   -0.0321   -0.0098
          25    0.0347    0.1149   -0.0784    0.1128    0.1456   -0.1793    0.1528    0.1625
          26   -0.1531    0.1851    0.0432    0.2795    0.0909   -0.0440    0.0155   -0.0730
          27    0.0581   -0.0887    0.0018   -0.1085   -0.0231    0.0230   -0.0320   -0.0098
          28   -0.0002    0.0002   -0.1242   -0.0001   -0.0028    0.0377   -0.0002   -0.0001
          29   -0.0001   -0.0000    0.1603   -0.0001   -0.1724    0.1114   -0.0001   -0.0001
          30    0.5542   -0.3689   -0.0002    0.0582    0.0002    0.0003    0.4023    0.2210
          31   -0.0000   -0.0002   -0.0253    0.0001   -0.0323    0.1504   -0.0002   -0.0001
          32    0.0000   -0.0002    0.0713    0.0001   -0.0422    0.2530   -0.0002   -0.0002
          33    0.0430    0.5233    0.0006   -0.2199    0.0005    0.0001    0.4619   -0.1334
          34   -0.0002   -0.0002   -0.0361    0.0000    0.0008   -0.2140    0.0002    0.0001
          35   -0.0002   -0.0003    0.1851    0.0003    0.0483    0.0950    0.0001   -0.0002
          36    0.4323    0.4311    0.0002   -0.1802   -0.0001    0.0000   -0.4314    0.2449
          37   -0.0001   -0.0001    0.0496   -0.0002   -0.0621   -0.0595    0.0000    0.0001
          38   -0.0001   -0.0000   -0.0909   -0.0002   -0.0924    0.0475    0.0001    0.0000
          39    0.4644    0.1002   -0.0003    0.4840   -0.0008   -0.0003   -0.2317   -0.2990
          40   -0.0000    0.0001    0.0561    0.0005    0.3779    0.2843   -0.0003   -0.0004
          41    0.0001    0.0001   -0.0954   -0.0006   -0.2741   -0.2318    0.0003   -0.0001
          42   -0.1471   -0.1320   -0.0002    0.1432   -0.0001    0.0005   -0.0619    0.4561
          43   -0.0000   -0.0000    0.0595   -0.0001   -0.0725   -0.0202    0.0000    0.0000
          44    0.0000    0.0001   -0.1665    0.0004    0.4969    0.2214   -0.0004   -0.0006
          45   -0.0366    0.1334   -0.0002    0.2257    0.0000    0.0006    0.0335    0.4555


   Root No.      17        18        19        20        21        22        23        24

                17 A      18 A      19 A      20 A      21 A      22 A      23 A      24 A   

                1026.0    1044.9    1074.4    1084.4    1148.6    1157.9    1224.9    1315.0
  
           1    0.0001   -0.0531    0.0001    0.0875   -0.0504   -0.0145   -0.1563    0.2273
           2   -0.0001    0.3131   -0.0005    0.0148   -0.0103    0.0229    0.1102   -0.1597
           3   -0.2155   -0.0000    0.0421    0.0001   -0.0000    0.0000   -0.0000   -0.0000
           4    0.0001   -0.0400    0.0001    0.0384    0.0874    0.0880   -0.1785    0.1600
           5   -0.0001   -0.0450    0.0003    0.0299    0.0226    0.0505   -0.1261   -0.1328
           6    0.2488   -0.0004   -0.2709   -0.0005    0.0000   -0.0000   -0.0001   -0.0001
           7   -0.0003    0.3380   -0.0008    0.1278   -0.0483    0.0040   -0.0133   -0.1592
           8   -0.0000   -0.1617    0.0001    0.0168   -0.0985    0.0026    0.1757    0.0615
           9    0.3309    0.0007    0.2005    0.0004   -0.0002    0.0000    0.0001   -0.0000
          10   -0.0001    0.0118    0.0003   -0.2523   -0.0635   -0.0195    0.0001   -0.0368
          11    0.0001   -0.0292   -0.0000    0.0143    0.0810   -0.0343   -0.1570   -0.1217
          12   -0.2352    0.0001    0.0896    0.0000    0.0001    0.0000   -0.0000   -0.0000
          13    0.0001    0.0614   -0.0006    0.2958   -0.0006   -0.0137    0.1746   -0.0510
          14    0.0002   -0.2140    0.0008   -0.2225   -0.0360   -0.0437    0.0666    0.0738
          15   -0.2770   -0.0003   -0.0530    0.0000    0.0001   -0.0001    0.0000   -0.0000
          16   -0.0000   -0.0903    0.0006   -0.2944    0.0146   -0.0199    0.1576    0.1630
          17   -0.0001   -0.0720    0.0004   -0.1977   -0.0068   -0.0475   -0.0624    0.0397
          18    0.2472    0.0000   -0.0129   -0.0002   -0.0000    0.0000    0.0001    0.0001
          19    0.0000    0.0978   -0.0001   -0.0675   -0.0341   -0.0344    0.0707    0.0087
          20    0.0003    0.0608   -0.0003    0.0306   -0.0122   -0.0062    0.0335   -0.0659
          21   -0.2904    0.0001    0.1305    0.0003   -0.0000    0.0000   -0.0000    0.0000
          22   -0.0167   -0.3309   -0.5536    0.0657   -0.1969    0.0884    0.2196   -0.1846
          23    0.1721    0.3492    0.3123    0.0006    0.1035   -0.0391   -0.1633   -0.0027
          24    0.0428    0.0297   -0.0191    0.0101   -0.0050    0.0047   -0.0103   -0.0654
          25    0.0170   -0.3294    0.5540    0.0677   -0.1974    0.0886    0.2199   -0.1847
          26   -0.1723    0.3482   -0.3132   -0.0004    0.1038   -0.0392   -0.1635   -0.0027
          27    0.0428   -0.0297   -0.0189   -0.0102    0.0050   -0.0047    0.0103    0.0654
          28    0.0001    0.0959   -0.0002    0.0537   -0.0246    0.0128   -0.0128   -0.0494
          29    0.0001   -0.0658   -0.0008    0.4288   -0.3669    0.5695   -0.3717    0.0635
          30   -0.2897   -0.0003   -0.0838   -0.0001   -0.0001    0.0001   -0.0001   -0.0000
          31   -0.0001    0.0022    0.0001   -0.0723   -0.0079    0.0002    0.0098   -0.0067
          32   -0.0002    0.0275   -0.0007    0.4208    0.5207    0.1873    0.5429    0.0279
          33    0.2312   -0.0001   -0.0885    0.0001    0.0002    0.0000    0.0002   -0.0000
          34    0.0004   -0.2186    0.0009   -0.2631    0.5514    0.3939   -0.2359   -0.1020
          35   -0.0000    0.0825   -0.0003    0.0387   -0.3046   -0.2405    0.1407    0.0983
          36   -0.2312   -0.0002    0.0029   -0.0002    0.0001    0.0001   -0.0001    0.0000
          37    0.0001   -0.2777   -0.0001    0.4177    0.2206   -0.5516   -0.2979   -0.0632
          38    0.0001   -0.2159    0.0003    0.0984    0.0949   -0.2877   -0.1557    0.0018
          39    0.2570    0.0001    0.0212    0.0002    0.0000   -0.0002   -0.0001   -0.0000
          40   -0.0001   -0.0880    0.0003   -0.0261   -0.0084    0.0102   -0.1059   -0.4951
          41   -0.0002    0.0766   -0.0001    0.0145   -0.0024   -0.0105    0.0726    0.2549
          42    0.3096   -0.0001   -0.1426   -0.0003    0.0000   -0.0000    0.0001    0.0001
          43   -0.0000    0.0227   -0.0000   -0.0197   -0.0092   -0.0082    0.0138    0.0091
          44   -0.0002   -0.0915    0.0000    0.0821    0.0585    0.0526   -0.0414    0.6127
          45    0.2974   -0.0001   -0.1061   -0.0002    0.0000   -0.0000   -0.0000    0.0004


   Root No.      25        26        27        28        29        30        31        32

                25 A      26 A      27 A      28 A      29 A      30 A      31 A      32 A   

                1339.7    1387.9    1407.1    1509.4    1829.2    1839.9    1873.1    2925.8
  
           1   -0.1365    0.4114   -0.1734   -0.4032    0.0401   -0.0428    0.0663    0.0001
           2   -0.2215   -0.3488   -0.3161    0.1773   -0.0343   -0.0483   -0.0956    0.0001
           3    0.0001   -0.0000   -0.0000    0.0000   -0.0000   -0.0000   -0.0000   -0.3037
           4   -0.1505   -0.0231    0.3885    0.4987   -0.1608    0.2634   -0.2212    0.0000
           5   -0.1448    0.1245    0.2204    0.3001    0.1456   -0.4155    0.4975   -0.0000
           6   -0.0001    0.0001    0.0001    0.0002    0.0001   -0.0003    0.0003   -0.0003
           7    0.0059   -0.2223   -0.0910    0.1106    0.1080    0.1994    0.1488    0.0000
           8   -0.1126    0.0761    0.3230   -0.2440    0.2044    0.4769    0.3582    0.0000
           9   -0.0000   -0.0001    0.0000   -0.0000    0.0001    0.0002    0.0002   -0.0003
          10    0.1228   -0.1135   -0.1718   -0.2280   -0.2219    0.0281    0.0879   -0.0000
          11   -0.0015   -0.2404    0.0713   -0.3132    0.5330   -0.0317   -0.3723    0.0000
          12    0.0000   -0.0001   -0.0000   -0.0002    0.0002   -0.0000   -0.0001   -0.0008
          13   -0.1806   -0.0593    0.4015   -0.2631   -0.2600   -0.3337   -0.2078   -0.0000
          14    0.0550    0.1318    0.0005    0.0551   -0.1487   -0.3960   -0.2952   -0.0000
          15   -0.0001   -0.0000    0.0001   -0.0001   -0.0001   -0.0002   -0.0002   -0.0014
          16    0.1084    0.2847   -0.2215    0.3266    0.4268    0.0247   -0.1354    0.0000
          17    0.0805   -0.0402   -0.1531   -0.0253   -0.4648    0.0996    0.2432   -0.0000
          18    0.0001    0.0001   -0.0002    0.0001   -0.0001    0.0000    0.0000    0.0004
          19    0.0530   -0.1441   -0.0743   -0.0595    0.1064   -0.2104    0.1970   -0.0000
          20   -0.0141    0.2074   -0.0486   -0.0211   -0.1988    0.3531   -0.3341    0.0000
          21   -0.0000    0.0001   -0.0000   -0.0000   -0.0001    0.0003   -0.0002   -0.0007
          22    0.2941   -0.1745    0.0389    0.0419    0.0011    0.0197   -0.0128   -0.2256
          23    0.3871    0.1449    0.1420   -0.0289   -0.0039   -0.0271    0.0023   -0.3470
          24    0.3641    0.0283    0.1569    0.0108   -0.0020   -0.0009    0.0044    0.5323
          25    0.2943   -0.1746    0.0388    0.0418    0.0011    0.0197   -0.0129    0.2253
          26    0.3871    0.1450    0.1420   -0.0289   -0.0039   -0.0271    0.0023    0.3465
          27   -0.3642   -0.0284   -0.1569   -0.0108    0.0020    0.0009   -0.0044    0.5313
          28    0.0026   -0.0692   -0.0358    0.0326    0.0411    0.0764    0.0601   -0.0000
          29    0.1003    0.0875   -0.2676    0.0401   -0.0012   -0.0397   -0.0339   -0.0000
          30    0.0000    0.0000   -0.0001    0.0001    0.0000    0.0000    0.0000   -0.0023
          31    0.0414   -0.0300   -0.0591   -0.0654   -0.0951    0.0149    0.0408    0.0000
          32    0.0967    0.2202   -0.1998    0.0476   -0.0194   -0.0120    0.0569   -0.0000
          33    0.0000    0.0001   -0.0001    0.0000   -0.0000   -0.0000    0.0001   -0.0004
          34    0.0228   -0.1487   -0.0434   -0.1101   -0.0654    0.0519    0.0615   -0.0000
          35    0.0339    0.1202   -0.0672    0.1099   -0.0592    0.0098    0.0278    0.0000
          36    0.0000    0.0000   -0.0000   -0.0000   -0.0000    0.0000    0.0000    0.0000
          37    0.0796   -0.1020   -0.1698    0.0597   -0.0135    0.0736    0.0674    0.0000
          38    0.0867    0.0032   -0.1484    0.0895   -0.0237   -0.0545   -0.0402   -0.0000
          39    0.0000   -0.0000   -0.0001    0.0000   -0.0000    0.0000    0.0000   -0.0011
          40   -0.1356    0.2875    0.0447    0.0714   -0.0437    0.0722   -0.0613   -0.0000
          41    0.0748   -0.1141   -0.0441   -0.0466   -0.0325    0.0532   -0.0546   -0.0000
          42    0.0000   -0.0000   -0.0000   -0.0000   -0.0000    0.0001   -0.0000    0.0001
          43    0.0137   -0.0504   -0.0145   -0.0103    0.0410   -0.0824    0.0798    0.0000
          44    0.0726   -0.2970    0.1067    0.0627    0.0182   -0.0337    0.0341    0.0000
          45    0.0000   -0.0002    0.0001    0.0000    0.0000   -0.0000    0.0000   -0.0009


   Root No.      33        34        35        36        37        38        39

                33 A      34 A      35 A      36 A      37 A      38 A      39 A   

                3006.2    3045.0    3051.3    3065.2    3076.1    3142.8    3144.6
  
           1   -0.1172    0.0023   -0.0081   -0.0042    0.0058    0.0012    0.0019
           2   -0.1805    0.0028   -0.0110   -0.0071    0.0093   -0.0001   -0.0023
           3   -0.0002    0.0000   -0.0000   -0.0000    0.0000    0.0000   -0.0000
           4   -0.0044    0.0002    0.0015    0.0001   -0.0016    0.0145   -0.0061
           5    0.0012    0.0018   -0.0024    0.0027    0.0041   -0.0259    0.0044
           6   -0.0000    0.0000   -0.0000    0.0000    0.0000   -0.0000    0.0000
           7    0.0246   -0.0183   -0.2209   -0.1346    0.1265   -0.0005    0.0003
           8   -0.0034   -0.0001    0.0006   -0.0138    0.0188   -0.0002    0.0003
           9    0.0000   -0.0000   -0.0001   -0.0001    0.0001   -0.0000    0.0000
          10   -0.0020   -0.2527    0.0455   -0.1112   -0.0768    0.0036   -0.0015
          11    0.0003    0.0122   -0.0035    0.0211    0.0169   -0.0015    0.0039
          12    0.0000   -0.0001    0.0000   -0.0000   -0.0000    0.0000    0.0000
          13    0.0013    0.0136    0.0780   -0.0415    0.0771    0.0004   -0.0001
          14    0.0010   -0.0269   -0.1435    0.1232   -0.1883    0.0001   -0.0000
          15    0.0000    0.0000   -0.0000    0.0000   -0.0000    0.0000    0.0000
          16   -0.0008    0.0674    0.0071   -0.0819   -0.0749   -0.0005    0.0005
          17    0.0006    0.1012    0.0211   -0.1856   -0.1540    0.0017   -0.0009
          18    0.0000    0.0001    0.0000   -0.0001   -0.0001    0.0000   -0.0000
          19    0.0003   -0.0018    0.0001   -0.0004   -0.0000   -0.1790   -0.2446
          20   -0.0005    0.0003    0.0001   -0.0000   -0.0004    0.1627   -0.2050
          21    0.0000    0.0000    0.0000   -0.0000   -0.0000    0.0001   -0.0002
          22    0.2046   -0.0017    0.0101    0.0059   -0.0065    0.0000    0.0013
          23    0.3133   -0.0022    0.0226    0.0127   -0.0132   -0.0004   -0.0001
          24   -0.5767    0.0044   -0.0365   -0.0205    0.0219    0.0004   -0.0013
          25    0.2050   -0.0017    0.0102    0.0059   -0.0065    0.0000    0.0013
          26    0.3138   -0.0022    0.0227    0.0127   -0.0132   -0.0004   -0.0001
          27    0.5775   -0.0044    0.0366    0.0205   -0.0219   -0.0004    0.0013
          28   -0.0783    0.0607    0.7530    0.4355   -0.3855    0.0002   -0.0004
          29   -0.0034   -0.0020   -0.0207   -0.0074    0.0055    0.0000   -0.0000
          30   -0.0000    0.0000    0.0003    0.0002   -0.0002    0.0000    0.0000
          31    0.0133    0.8484   -0.1523    0.3471    0.2254   -0.0115    0.0024
          32    0.0002   -0.0136    0.0034   -0.0105   -0.0071    0.0017    0.0021
          33    0.0000    0.0003   -0.0001    0.0001    0.0001   -0.0000    0.0000
          34   -0.0009   -0.2141   -0.0279    0.3153    0.2665   -0.0007    0.0004
          35   -0.0015   -0.3750   -0.0587    0.5744    0.4724   -0.0015    0.0007
          36   -0.0000   -0.0003   -0.0000    0.0004    0.0004   -0.0000   -0.0000
          37   -0.0015   -0.0421   -0.2578    0.1788   -0.2882   -0.0002    0.0000
          38    0.0050    0.0891    0.5065   -0.3712    0.5731    0.0005   -0.0000
          39    0.0000    0.0000    0.0000   -0.0000    0.0000    0.0000    0.0000
          40   -0.0026   -0.0031    0.0009   -0.0022   -0.0015   -0.2527    0.3578
          41   -0.0016   -0.0066    0.0021   -0.0042   -0.0031   -0.4554    0.7211
          42   -0.0000   -0.0000    0.0000   -0.0000   -0.0000   -0.0004    0.0006
          43   -0.0003    0.0069   -0.0019    0.0042    0.0026    0.8179    0.4989
          44    0.0003   -0.0023    0.0004   -0.0010   -0.0006   -0.0169   -0.0346
          45    0.0000   -0.0000   -0.0000    0.0000   -0.0000    0.0000   -0.0000


          DESCRIPTION OF VIBRATIONS


 VIBRATION    1    1A         ATOM PAIR      ENERGY CONTRIBUTION    RADIAL
 FREQ.        62.27         C  1 -- C  3         +22.0% (788.8%)      0.0%
 T-DIPOLE    0.0643         C  1 -- C  2         +18.1% (715.5%)      0.0%
 TRAVEL      0.0468         C  1 -- H  9         +17.6% (705.5%)     98.0%
 RED. MASS   1.1941         C  1 -- H  8         +17.6% (705.5%)     97.9%
 EFF. MASS 494.4204

 VIBRATION    2    2A         ATOM PAIR      ENERGY CONTRIBUTION    RADIAL
 FREQ.       253.71         C  4 -- C  6         +18.4% (146.6%)      0.0%
 T-DIPOLE    0.0980         C  1 -- C  3         +12.3% (120.3%)      0.0%
 TRAVEL      0.0992         C  1 -- H  8         +11.8% (117.5%)     17.9%
 RED. MASS   0.8801         C  1 -- H  9         +11.8% (117.5%)     17.9%
 EFF. MASS  27.0309         C  3 -- C  5         +11.3% (115.2%)      0.0%

 VIBRATION    3    3A         ATOM PAIR      ENERGY CONTRIBUTION    RADIAL
 FREQ.       398.01         C  2 -- C  7         +24.9% (194.2%)      0.0%
 T-DIPOLE    0.0415         C  7 -- H 14         +13.3% (142.0%)     95.2%
 TRAVEL      0.0780         C  7 -- H 15         +12.8% (139.3%)     94.2%
 RED. MASS   1.3412         C  1 -- C  2          +6.9% (102.1%)      0.3%
 EFF. MASS  27.8245

 VIBRATION    4    4A         ATOM PAIR      ENERGY CONTRIBUTION    RADIAL
 FREQ.       422.03         C  3 -- C  5         +20.4% ( 89.7%)      0.0%
 T-DIPOLE    0.1660         C  5 -- C  6         +18.2% ( 84.8%)      0.0%
 TRAVEL      0.1084         C  2 -- C  7         +10.9% ( 65.7%)      0.0%
 RED. MASS   1.0433         C  1 -- C  2          +8.4% ( 57.7%)      0.0%
 EFF. MASS  13.6026

 VIBRATION    5    5A         ATOM PAIR      ENERGY CONTRIBUTION    RADIAL
 FREQ.       506.28         C  1 -- C  2         +12.7% (136.2%)      0.0%
 T-DIPOLE    0.1942         C  2 -- C  4         +10.9% (126.4%)      0.3%
 TRAVEL      0.0801         C  7 -- H 15         +10.2% (122.1%)     31.5%
 RED. MASS   1.7406         C  7 -- H 14         +10.2% (122.0%)     27.8%
 EFF. MASS  20.7560

 VIBRATION    6    6A         ATOM PAIR      ENERGY CONTRIBUTION    RADIAL
 FREQ.       521.95         C  2 -- C  4         +18.6% ( 77.8%)      0.0%
 T-DIPOLE    0.3755         C  1 -- H  8         +15.1% ( 70.2%)      2.0%
 TRAVEL      0.1256         C  1 -- H  9         +15.1% ( 70.1%)      2.1%
 RED. MASS   1.0691         C  2 -- C  7         +14.0% ( 67.4%)      0.0%
 EFF. MASS   8.1892         C  1 -- C  2         +10.9% ( 59.5%)      0.0%

 VIBRATION    7    7A         ATOM PAIR      ENERGY CONTRIBUTION    RADIAL
 FREQ.       589.81         C  1 -- C  3         +13.1% (116.8%)      0.0%
 T-DIPOLE    0.1188         C  4 -- C  6         +12.5% (114.1%)      0.2%
 TRAVEL      0.0749         C  5 -- C  6         +11.9% (111.3%)      5.8%
 RED. MASS   2.1994         C  3 -- C  5         +11.2% (107.9%)      0.3%
 EFF. MASS  20.3693         C  2 -- C  4         +11.1% (107.3%)      2.5%

 VIBRATION    8    8A         ATOM PAIR      ENERGY CONTRIBUTION    RADIAL
 FREQ.       622.84         C  7 -- H 14         +41.1% ( 77.7%)      0.0%
 T-DIPOLE    0.1881         C  7 -- H 15         +35.1% ( 71.9%)      0.0%
 TRAVEL      0.2330         C  4 -- H 11          +6.5% ( 30.9%)      0.0%
 RED. MASS   0.3426         C  2 -- C  4          +3.6% ( 22.9%)      0.0%
 EFF. MASS   1.9942

 VIBRATION    9    9A         ATOM PAIR      ENERGY CONTRIBUTION    RADIAL
 FREQ.       757.87         C  3 -- H 10         +28.6% ( 66.2%)      0.0%
 T-DIPOLE    0.5384         C  5 -- H 13         +24.2% ( 60.8%)      0.0%
 TRAVEL      0.1741         C  6 -- H 12         +13.4% ( 45.3%)      0.0%
 RED. MASS   0.3224         C  2 -- C  4          +6.3% ( 31.0%)      0.0%
 EFF. MASS   2.9359

 VIBRATION   10   10A         ATOM PAIR      ENERGY CONTRIBUTION    RADIAL
 FREQ.       811.79         C  4 -- H 11         +24.6% ( 64.4%)      0.0%
 T-DIPOLE    0.2703         C  6 -- H 12         +18.8% ( 56.3%)      0.0%
 TRAVEL      0.1577         C  1 -- H  8         +11.7% ( 44.4%)     14.7%
 RED. MASS   0.3603         C  1 -- H  9         +11.7% ( 44.4%)     14.7%
 EFF. MASS   3.3416

 VIBRATION   11   11A         ATOM PAIR      ENERGY CONTRIBUTION    RADIAL
 FREQ.       859.50         C  5 -- C  6         +16.1% ( 89.6%)      0.1%
 T-DIPOLE    0.1352         C  3 -- C  5         +12.4% ( 78.7%)      0.0%
 TRAVEL      0.0736         C  4 -- C  6          +9.0% ( 66.8%)      1.2%
 RED. MASS   1.6330         C  7 -- H 15          +7.6% ( 61.4%)     52.1%
 EFF. MASS  14.4756

 VIBRATION   12   12A         ATOM PAIR      ENERGY CONTRIBUTION    RADIAL
 FREQ.       907.23         C  1 -- H  8         +16.8% ( 56.6%)     16.2%
 T-DIPOLE    0.2573         C  1 -- H  9         +16.8% ( 56.5%)     16.3%
 TRAVEL      0.1187         C  1 -- C  2         +16.1% ( 55.4%)      0.0%
 RED. MASS   0.6175         C  5 -- H 13         +15.6% ( 54.5%)      0.0%
 EFF. MASS   5.2714         C  1 -- C  3         +14.5% ( 52.5%)      0.0%

 VIBRATION   13   13A         ATOM PAIR      ENERGY CONTRIBUTION    RADIAL
 FREQ.       931.17         C  7 -- H 15         +19.2% ( 73.5%)     13.0%
 T-DIPOLE    0.0362         C  7 -- H 14         +19.1% ( 73.4%)      8.3%
 TRAVEL      0.0994         C  1 -- C  2         +12.5% ( 59.2%)     62.3%
 RED. MASS   0.7982         C  1 -- C  3         +11.2% ( 56.0%)     21.7%
 EFF. MASS   7.3259

 VIBRATION   14   14A         ATOM PAIR      ENERGY CONTRIBUTION    RADIAL
 FREQ.       958.43         C  4 -- C  6         +16.6% ( 71.1%)      1.7%
 T-DIPOLE    0.0221         C  2 -- C  4         +15.6% ( 68.9%)     75.8%
 TRAVEL      0.0843         C  4 -- H 11         +11.6% ( 59.4%)     98.9%
 RED. MASS   1.3422         C  7 -- H 14          +8.3% ( 50.1%)     23.0%
 EFF. MASS   9.9058

 VIBRATION   15   15A         ATOM PAIR      ENERGY CONTRIBUTION    RADIAL
 FREQ.       973.48         C  4 -- H 11         +23.2% ( 52.1%)      0.0%
 T-DIPOLE    0.0774         C  6 -- H 12         +19.8% ( 48.2%)      0.0%
 TRAVEL      0.1382         C  3 -- H 10         +17.3% ( 45.1%)      0.0%
 RED. MASS   0.4596         C  4 -- C  6          +8.6% ( 31.8%)      0.0%
 EFF. MASS   3.6284

 VIBRATION   16   16A         ATOM PAIR      ENERGY CONTRIBUTION    RADIAL
 FREQ.       994.57         C  7 -- H 14         +24.5% ( 51.4%)      0.0%
 T-DIPOLE    0.4585         C  7 -- H 15         +24.1% ( 50.9%)      0.0%
 TRAVEL      0.1424         C  5 -- H 13         +11.2% ( 34.7%)      0.0%
 RED. MASS   0.4570         C  6 -- H 12          +7.8% ( 28.9%)      0.0%
 EFF. MASS   3.3412

 VIBRATION   17   17A         ATOM PAIR      ENERGY CONTRIBUTION    RADIAL
 FREQ.      1026.01         C  3 -- H 10         +10.8% ( 37.2%)      0.0%
 T-DIPOLE    0.3495         C  7 -- H 14          +9.6% ( 35.1%)      0.0%
 TRAVEL      0.1086         C  7 -- H 15          +9.0% ( 34.0%)      0.0%
 RED. MASS   0.4900         C  1 -- C  3          +8.1% ( 32.2%)      0.0%
 EFF. MASS   5.5771

 VIBRATION   18   18A         ATOM PAIR      ENERGY CONTRIBUTION    RADIAL
 FREQ.      1044.92         C  1 -- C  3         +20.8% ( 63.4%)     93.8%
 T-DIPOLE    0.1128         C  1 -- H  8         +14.9% ( 53.7%)     11.9%
 TRAVEL      0.1044         C  1 -- H  9         +14.8% ( 53.6%)     12.0%
 RED. MASS   0.5196         C  3 -- C  5         +13.1% ( 50.3%)     46.1%
 EFF. MASS   5.9239

 VIBRATION   19   19A         ATOM PAIR      ENERGY CONTRIBUTION    RADIAL
 FREQ.      1074.40         C  1 -- H  9         +40.0% ( 63.7%)      0.1%
 T-DIPOLE    0.1804         C  1 -- H  8         +39.9% ( 63.6%)      0.1%
 TRAVEL      0.1728         C  2 -- C  7          +3.6% ( 19.2%)      0.0%
 RED. MASS   0.4195         C  2 -- C  4          +3.2% ( 18.1%)      0.0%
 EFF. MASS   2.1009

 VIBRATION   20   20A         ATOM PAIR      ENERGY CONTRIBUTION    RADIAL
 FREQ.      1084.44         C  5 -- C  6         +22.7% ( 66.6%)    100.0%
 T-DIPOLE    0.0081         C  5 -- H 13         +13.9% ( 52.1%)     46.0%
 TRAVEL      0.0985         C  4 -- H 11         +13.0% ( 50.5%)     14.6%
 RED. MASS   0.5769         C  4 -- C  6         +12.0% ( 48.6%)     57.2%
 EFF. MASS   6.4104         C  3 -- H 10         +11.0% ( 46.5%)      3.8%

 VIBRATION   21   21A         ATOM PAIR      ENERGY CONTRIBUTION    RADIAL
 FREQ.      1148.57         C  6 -- H 12         +36.5% ( 61.8%)      0.0%
 T-DIPOLE    0.0388         C  4 -- H 11         +25.9% ( 52.0%)      1.0%
 TRAVEL      0.1977         C  3 -- H 10         +12.9% ( 36.7%)      1.1%
 RED. MASS   0.2636         C  5 -- H 13          +5.7% ( 24.3%)      0.5%
 EFF. MASS   1.5013

 VIBRATION   22   22A         ATOM PAIR      ENERGY CONTRIBUTION    RADIAL
 FREQ.      1157.89         C  5 -- H 13         +36.4% ( 60.4%)      0.1%
 T-DIPOLE    0.0306         C  3 -- H 10         +31.2% ( 55.9%)      0.0%
 TRAVEL      0.2154         C  6 -- H 12         +20.4% ( 45.2%)      0.5%
 RED. MASS   0.3057         C  4 -- H 11          +3.9% ( 19.9%)      0.4%
 EFF. MASS   1.2556

 VIBRATION   23   23A         ATOM PAIR      ENERGY CONTRIBUTION    RADIAL
 FREQ.      1224.92         C  4 -- H 11         +23.6% ( 57.2%)      0.0%
 T-DIPOLE    0.0432         C  3 -- H 10         +13.2% ( 42.7%)      0.0%
 TRAVEL      0.1500         C  5 -- H 13         +11.9% ( 40.5%)      0.1%
 RED. MASS   0.2245         C  6 -- H 12          +8.5% ( 34.3%)      0.1%
 EFF. MASS   2.4473

 VIBRATION   24   24A         ATOM PAIR      ENERGY CONTRIBUTION    RADIAL
 FREQ.      1314.99         C  7 -- H 15         +23.7% ( 53.1%)      0.1%
 T-DIPOLE    0.0796         C  7 -- H 14         +18.7% ( 47.1%)      1.0%
 TRAVEL      0.1288         C  1 -- C  3          +9.3% ( 33.2%)     66.9%
 RED. MASS   0.3603         C  1 -- H  9          +8.3% ( 31.4%)      0.0%
 EFF. MASS   3.0917

 VIBRATION   25   25A         ATOM PAIR      ENERGY CONTRIBUTION    RADIAL
 FREQ.      1339.67         C  1 -- H  9         +28.2% ( 54.2%)      3.7%
 T-DIPOLE    0.1559         C  1 -- H  8         +28.2% ( 54.2%)      3.7%
 TRAVEL      0.1310         C  1 -- C  2          +6.0% ( 24.9%)      3.2%
 RED. MASS   0.3774         C  5 -- C  6          +6.0% ( 24.9%)     98.8%
 EFF. MASS   2.9316

 VIBRATION   26   26A         ATOM PAIR      ENERGY CONTRIBUTION    RADIAL
 FREQ.      1387.93         C  1 -- C  3         +15.1% ( 55.5%)     73.4%
 T-DIPOLE    0.0184         C  1 -- H  9         +13.3% ( 52.0%)      0.2%
 TRAVEL      0.0814         C  1 -- H  8         +13.3% ( 52.0%)      0.2%
 RED. MASS   1.2799         C  1 -- C  2         +11.5% ( 48.4%)     45.7%
 EFF. MASS   7.3352

 VIBRATION   27   27A         ATOM PAIR      ENERGY CONTRIBUTION    RADIAL
 FREQ.      1407.14         C  1 -- C  2         +13.6% ( 52.9%)     52.3%
 T-DIPOLE    0.0588         C  5 -- C  6         +12.6% ( 51.0%)     93.2%
 TRAVEL      0.0736         C  1 -- C  3         +10.9% ( 47.4%)     71.2%
 RED. MASS   1.2382         C  2 -- C  4          +9.4% ( 43.9%)     47.3%
 EFF. MASS   8.8528

 VIBRATION   28   28A         ATOM PAIR      ENERGY CONTRIBUTION    RADIAL
 FREQ.      1509.43         C  2 -- C  4         +19.4% ( 66.7%)     86.8%
 T-DIPOLE    0.0935         C  1 -- C  2         +18.7% ( 65.5%)     98.2%
 TRAVEL      0.0627         C  2 -- C  7          +9.6% ( 47.0%)      0.0%
 RED. MASS   2.3654         C  1 -- C  3          +9.4% ( 46.5%)     81.4%
 EFF. MASS  11.3574

 VIBRATION   29   29A         ATOM PAIR      ENERGY CONTRIBUTION    RADIAL
 FREQ.      1829.18         C  4 -- C  6         +33.6% ( 86.2%)     99.7%
 T-DIPOLE    0.1693         C  5 -- C  6         +15.1% ( 57.8%)     84.2%
 TRAVEL      0.0555         C  6 -- H 12         +10.9% ( 49.2%)      3.3%
 RED. MASS   3.4275         C  2 -- C  4         +10.3% ( 47.7%)     62.9%
 EFF. MASS  11.9482

 VIBRATION   30   30A         ATOM PAIR      ENERGY CONTRIBUTION    RADIAL
 FREQ.      1839.86         C  3 -- C  5         +24.9% ( 74.0%)    100.0%
 T-DIPOLE    0.5492         C  2 -- C  7         +19.8% ( 66.0%)    100.0%
 TRAVEL      0.0556         C  5 -- C  6          +8.2% ( 42.3%)     32.3%
 RED. MASS   2.7695         C  1 -- C  3          +7.8% ( 41.5%)     41.6%
 EFF. MASS  11.8449

 VIBRATION   31   31A         ATOM PAIR      ENERGY CONTRIBUTION    RADIAL
 FREQ.      1873.05         C  2 -- C  7         +20.7% ( 67.0%)     99.5%
 T-DIPOLE    0.3322         C  2 -- C  4         +14.5% ( 56.2%)     44.6%
 TRAVEL      0.0552         C  3 -- C  5         +12.9% ( 52.8%)     99.6%
 RED. MASS   2.1348         C  4 -- C  6          +9.8% ( 46.2%)     97.2%
 EFF. MASS  11.8279

 VIBRATION   32   32A         ATOM PAIR      ENERGY CONTRIBUTION    RADIAL
 FREQ.      2925.76         C  1 -- H  8         +49.0% ( 72.6%)     96.5%
 T-DIPOLE    0.0659         C  1 -- H  9         +48.9% ( 72.5%)     96.5%
 TRAVEL      0.1226         C  1 -- C  2          +1.1% ( 10.8%)      0.0%
 RED. MASS   0.5175         C  1 -- C  3          +1.1% ( 10.8%)      0.0%
 EFF. MASS   1.5339

 VIBRATION   33   33A         ATOM PAIR      ENERGY CONTRIBUTION    RADIAL
 FREQ.      3006.16         C  1 -- H  9         +49.1% ( 69.0%)     97.8%
 T-DIPOLE    0.1211         C  1 -- H  8         +48.9% ( 68.9%)     97.8%
 TRAVEL      0.1325         C  3 -- H 10          +0.7% (  8.3%)    100.0%
 RED. MASS   0.4774         C  1 -- C  3          +0.7% (  8.0%)     19.5%
 EFF. MASS   1.2783

 VIBRATION   34   34A         ATOM PAIR      ENERGY CONTRIBUTION    RADIAL
 FREQ.      3044.98         C  4 -- H 11         +76.2% ( 88.7%)    100.0%
 T-DIPOLE    0.2861         C  6 -- H 12         +19.7% ( 45.1%)     99.9%
 TRAVEL      0.1222         C  4 -- C  6          +1.2% ( 11.2%)      5.9%
 RED. MASS   0.6093         C  2 -- C  4          +1.1% ( 10.7%)     19.5%
 EFF. MASS   1.4823

 VIBRATION   35   35A         ATOM PAIR      ENERGY CONTRIBUTION    RADIAL
 FREQ.      3051.32         C  3 -- H 10         +60.0% ( 78.6%)    100.0%
 T-DIPOLE    0.2500         C  5 -- H 13         +34.2% ( 59.4%)    100.0%
 TRAVEL      0.1228         C  4 -- H 11          +2.5% ( 15.9%)    100.0%
 RED. MASS   0.4674         C  3 -- C  5          +1.1% ( 10.6%)      1.2%
 EFF. MASS   1.4663

 VIBRATION   36   36A         ATOM PAIR      ENERGY CONTRIBUTION    RADIAL
 FREQ.      3065.19         C  6 -- H 12         +45.5% ( 68.6%)     99.9%
 T-DIPOLE    0.3587         C  3 -- H 10         +20.0% ( 45.5%)     99.9%
 TRAVEL      0.1185         C  5 -- H 13         +18.0% ( 43.2%)     99.8%
 RED. MASS   0.2956         C  4 -- H 11         +12.8% ( 36.3%)     99.8%
 EFF. MASS   1.5671

 VIBRATION   37   37A         ATOM PAIR      ENERGY CONTRIBUTION    RADIAL
 FREQ.      3076.05         C  5 -- H 13         +43.7% ( 67.0%)    100.0%
 T-DIPOLE    0.3901         C  6 -- H 12         +31.2% ( 56.6%)    100.0%
 TRAVEL      0.1170         C  3 -- H 10         +15.8% ( 40.3%)     99.8%
 RED. MASS   0.3174         C  4 -- H 11          +5.4% ( 23.6%)     99.7%
 EFF. MASS   1.6009

 VIBRATION   38   38A         ATOM PAIR      ENERGY CONTRIBUTION    RADIAL
 FREQ.      3142.80         C  7 -- H 15         +70.6% ( 84.1%)     98.1%
 T-DIPOLE    0.3538         C  7 -- H 14         +27.9% ( 52.8%)     88.2%
 TRAVEL      0.1243         C  2 -- C  7          +1.4% ( 12.0%)     93.2%
 RED. MASS   0.5667
 EFF. MASS   1.3891

 VIBRATION   39   39A         ATOM PAIR      ENERGY CONTRIBUTION    RADIAL
 FREQ.      3144.56         C  7 -- H 14         +69.7% ( 85.5%)     98.8%
 T-DIPOLE    0.1997         C  7 -- H 15         +29.0% ( 55.1%)     93.2%
 TRAVEL      0.1159         C  2 -- C  7          +1.3% ( 11.8%)      3.4%
 RED. MASS   0.6108
 EFF. MASS   1.5957

      SYMMETRY NUMBER FOR POINT-GROUP C1  =  1


          SYSTEM IS A GROUND STATE



 InChI=1S/C7H8/c1-7-5-3-2-4-6-7/h2-5H,1,6H2


          MOLECULE IS NOT LINEAR

          THERE ARE 39 GENUINE VIBRATIONS IN THIS SYSTEM
          THIS THERMODYNAMICS CALCULATION IS LIMITED TO
          MOLECULES WHICH HAVE NO INTERNAL ROTATIONS




                    CALCULATED THERMODYNAMIC PROPERTIES
                                          *
   TEMP. (K)   PARTITION FUNCTION   H.O.F.    ENTHALPY  HEAT CAPACITY ENTROPY
                                   KCAL/MOL   CAL/MOLE    CAL/K/MOL  CAL/K/MOL


 298.00  VIB.     0.1140D+02                  2068.5110    17.7257    11.7778
         ROT.     0.1749D+06                   888.2813     2.9808    26.9706
         INT.     0.1995D+07                  2956.7923    20.7065    38.7485
         TRA.     0.8551D+27                  1480.4688     4.9680    39.4718
         TOT.                       39.304    4437.2611    25.6745    78.2203

 200.00  VIB.     0.4039D+01                   748.9348     9.3757     6.5190
         ROT.     0.9618D+05                   596.1620     2.9808    25.7820
         INT.     0.3885D+06                  1345.0967    12.3565    32.3010
         TRA.     0.4701D+27                   993.6033     4.9680    37.4906
         TOT.                       37.206    2338.7000    17.3245    69.7916

 210.00  VIB.     0.4444D+01                   846.6191    10.1650     6.9955
         ROT.     0.1035D+06                   625.9700     2.9808    25.9274
         INT.     0.4599D+06                  1472.5891    13.1458    32.9229
         TRA.     0.5058D+27                  1043.2834     4.9680    37.7330
         TOT.                       37.383    2515.8725    18.1138    70.6559

 220.00  VIB.     0.4900D+01                   952.3056    10.9757     7.4870
         ROT.     0.1110D+06                   655.7781     2.9808    26.0661
         INT.     0.5438D+06                  1608.0837    13.9565    33.5531
         TRA.     0.5424D+27                  1092.9636     4.9680    37.9641
         TOT.                       37.568    2701.0473    18.9245    71.5172

 230.00  VIB.     0.5417D+01                  1066.1950    11.8051     7.9931
         ROT.     0.1186D+06                   685.5862     2.9808    26.1986
         INT.     0.6425D+06                  1751.7812    14.7859    34.1917
         TRA.     0.5798D+27                  1142.6437     4.9680    38.1850
         TOT.                       37.762    2894.4250    19.7539    72.3767

 240.00  VIB.     0.6003D+01                  1188.4606    12.6504     8.5133
         ROT.     0.1264D+06                   715.3943     2.9808    26.3254
         INT.     0.7589D+06                  1903.8549    15.6312    34.8388
         TRA.     0.6180D+27                  1192.3239     4.9680    38.3964
         TOT.                       37.963    3096.1788    20.5993    73.2352

 250.00  VIB.     0.6667D+01                  1319.2474    13.5089     9.0471
         ROT.     0.1344D+06                   745.2024     2.9808    26.4471
         INT.     0.8962D+06                  2064.4499    16.4897    35.4942
         TRA.     0.6570D+27                  1242.0041     4.9680    38.5992
         TOT.                       38.174    3306.4539    21.4577    74.0935

 260.00  VIB.     0.7423D+01                  1458.6724    14.3776     9.5938
         ROT.     0.1426D+06                   775.0105     2.9808    26.5640
         INT.     0.1058D+07                  2233.6829    17.3584    36.1579
         TRA.     0.6968D+27                  1291.6842     4.9680    38.7941
         TOT.                       38.393    3525.3671    22.3264    74.9519

 270.00  VIB.     0.8284D+01                  1606.8245    15.2539    10.1529
         ROT.     0.1509D+06                   804.8186     2.9808    26.6765
         INT.     0.1250D+07                  2411.6431    18.2347    36.8294
         TRA.     0.7374D+27                  1341.3644     4.9680    38.9816
         TOT.                       38.620    3753.0075    23.2027    75.8110

 280.00  VIB.     0.9267D+01                  1763.7659    16.1350    10.7235
         ROT.     0.1593D+06                   834.6267     2.9808    26.7849
         INT.     0.1476D+07                  2598.3926    19.1158    37.5085
         TRA.     0.7788D+27                  1391.0445     4.9680    39.1622
         TOT.                       38.857    3989.4371    24.0839    76.6707

 290.00  VIB.     0.1039D+02                  1929.5332    17.0186    11.3051
         ROT.     0.1679D+06                   864.4348     2.9808    26.8895
         INT.     0.1745D+07                  2793.9680    19.9995    38.1947
         TRA.     0.8209D+27                  1440.7247     4.9680    39.3366
         TOT.                       39.102    4234.6928    24.9675    77.5312

 300.00  VIB.     0.1167D+02                  2104.1391    17.9024    11.8970
         ROT.     0.1767D+06                   894.2429     2.9808    26.9906
         INT.     0.2063D+07                  2998.3820    20.8832    38.8876
         TRA.     0.8637D+27                  1490.4049     4.9680    39.5050
         TOT.                       39.356    4488.7869    25.8512    78.3926

 310.00  VIB.     0.1315D+02                  2287.5739    18.7841    12.4984
         ROT.     0.1856D+06                   924.0510     2.9808    27.0883
         INT.     0.2440D+07                  3211.6250    21.7649    39.5867
         TRA.     0.9072D+27                  1540.0850     4.9680    39.6679
         TOT.                       39.619    4751.7100    26.7329    79.2546

 320.00  VIB.     0.1483D+02                  2479.8078    19.6619    13.1086
         ROT.     0.1947D+06                   953.8591     2.9808    27.1830
         INT.     0.2887D+07                  3433.6669    22.6427    40.2916
         TRA.     0.9515D+27                  1589.7652     4.9680    39.8256
         TOT.                       39.891    5023.4321    27.6107    80.1172

 330.00  VIB.     0.1677D+02                  2680.7925    20.5340    13.7270
         ROT.     0.2039D+06                   983.6672     2.9808    27.2747
         INT.     0.3419D+07                  3664.4597    23.5148    41.0017
         TRA.     0.9964D+27                  1639.4454     4.9680    39.9785
         TOT.                       40.171    5303.9051    28.4828    80.9802

 340.00  VIB.     0.1900D+02                  2890.4634    21.3989    14.3529
         ROT.     0.2132D+06                  1013.4753     2.9808    27.3637
         INT.     0.4051D+07                  3903.9387    24.3797    41.7166
         TRA.     0.1042D+28                  1689.1255     4.9680    40.1268
         TOT.                       40.460    5593.0642    29.3477    81.8434

 350.00  VIB.     0.2157D+02                  3108.7415    22.2552    14.9856
         ROT.     0.2227D+06                  1043.2834     2.9808    27.4501
         INT.     0.4803D+07                  4152.0249    25.2360    42.4357
         TRA.     0.1088D+28                  1738.8057     4.9680    40.2708
         TOT.                       40.758    5890.8306    30.2040    82.7065

 360.00  VIB.     0.2453D+02                  3335.5352    23.1018    15.6244
         ROT.     0.2323D+06                  1073.0915     2.9808    27.5341
         INT.     0.5698D+07                  4408.6267    26.0826    43.1585
         TRA.     0.1135D+28                  1788.4859     4.9680    40.4108
         TOT.                       41.064    6197.1126    31.0507    83.5692

 370.00  VIB.     0.2795D+02                  3570.7422    23.9377    16.2688
         ROT.     0.2420D+06                  1102.8996     2.9808    27.6157
         INT.     0.6764D+07                  4673.6419    26.9185    43.8845
         TRA.     0.1183D+28                  1838.1660     4.9680    40.5469
         TOT.                       41.379    6511.8079    31.8865    84.4314

 380.00  VIB.     0.3190D+02                  3814.2511    24.7621    16.9182
         ROT.     0.2519D+06                  1132.7077     2.9808    27.6952
         INT.     0.8034D+07                  4946.9588    27.7429    44.6134
         TRA.     0.1231D+28                  1887.8462     4.9680    40.6794
         TOT.                       41.702    6834.8050    32.7109    85.2928

 390.00  VIB.     0.3646D+02                  4065.9427    25.5742    17.5719
         ROT.     0.2619D+06                  1162.5158     2.9808    27.7726
         INT.     0.9549D+07                  5228.4585    28.5550    45.3445
         TRA.     0.1280D+28                  1937.5263     4.9680    40.8084
         TOT.                       42.033    7165.9849    33.5230    86.1530

 400.00  VIB.     0.4174D+02                  4325.6920    26.3735    18.2295
         ROT.     0.2720D+06                  1192.3239     2.9808    27.8481
         INT.     0.1136D+08                  5518.0159    29.3543    46.0776
         TRA.     0.1330D+28                  1987.2065     4.9680    40.9342
         TOT.                       42.372    7505.2224    34.3223    87.0118

   *: NOTE: HEATS OF FORMATION ARE RELATIVE TO THE
            ELEMENTS IN THEIR STANDARD STATE AT 298K
              (=  Standard Enthalpy of Formation).

            Hvib:  Zero-point energy is not included.
                   frequencies of less than zero cm-1 are not included.
            Hrot = (3/2)RT
            Htra = (3/2)RT + pV = (5/2)RT

            Heat capacity is Cp, not Cv

          For more information, see: HTTP://OpenMOPAC.net/Manual/thermochemistry.html


           FORCE CONSTANT IN CARTESIAN COORDINATES (Millidynes/A)

    ATOM   CHEMICAL       X               Y               Z
   NUMBER   SYMBOL  FORCE CONSTANT  FORCE CONSTANT  FORCE CONSTANT

      1       C        9.103139        9.180387        7.599082
      2       C       11.210655       14.389641        2.631297
      3       C       11.415569       13.253646        2.383770
      4       C       11.441747       13.857249        2.216343
      5       C       11.641163       13.796526        2.206880
      6       C       11.470055       13.874913        2.212110
      7       C       10.787901       13.634863        1.931705
      8       H        1.096659        1.631897        3.434422
      9       H        1.097012        1.632376        3.434471
     10       H        5.135628        0.770931        0.349042
     11       H        5.106475        0.792841        0.345428
     12       H        1.805339        4.111891        0.346049
     13       H        1.643348        4.275700        0.347484
     14       H        1.673202        4.459838        0.328221
     15       H        5.427455        0.721195        0.326412

 **********************
 *                    *
 * JOB ENDED NORMALLY *
 *                    *
 **********************



 TOTAL JOB TIME:             0.68 SECONDS

 == MOPAC DONE ==
