 *******************************************************************************
 ** Site#: 14399        For non-commercial use only    Version 18.184L 64BITS **
 *******************************************************************************
 ** Cite this program as: MOPAC2016, Version: 18.184L, James J. P. Stewart,   **
 ** Stewart Computational Chemistry, web: HTTP://OpenMOPAC.net. Days left:  18**
 *******************************************************************************
 **                                                                           **
 **                                MOPAC2016                                  **
 **                                                                           **
 *******************************************************************************

                              PM3 CALCULATION RESULTS

 *******************************************************************************
 *  CALCULATION DONE:                                Sat Jun 15 11:02:00 2019  *
 *  PM3        - The PM3 Hamiltonian to be used
 *  PRECISE    - CRITERIA TO BE INCREASED BY 100 TIMES
 *  NOSYM      - POINT-GROUP SYMMETRY SET TO C1
 *  THREADS=1  - MULTI-THREADING NOT USED
 *  T=         - A TIME OF 172800.0 SECONDS REQUESTED
 *  DUMP=N     - RESTART FILE WRITTEN EVERY  7200.000 SECONDS
 *******************************************************************************
pm3  precise nosym THREADS=1
 InChI=1S/C7H12O2/c1-3-5-7-6(4-2)8-9-7/h3,5-7H,4H2,1-2H3

   ATOM   CHEMICAL          X               Y               Z
  NUMBER   SYMBOL      (ANGSTROMS)     (ANGSTROMS)     (ANGSTROMS)
 
     1       O         -0.89580000  *  -2.24920000  *  -0.97320000  *
     2       O         -0.00560000  *  -2.53740000  *  -0.01620000  *
     3       C         -0.91010000  *  -0.88790000  *  -0.65500000  *
     4       C          0.07400000  *  -1.21010000  *   0.41430000  *
     5       C         -2.29310000  *  -0.45480000  *  -0.15150000  *
     6       C         -2.27730000  *   0.99030000  *   0.33830000  *
     7       C          3.07000000  *   1.21820000  *   0.17820000  *
     8       C          1.44450000  *  -0.64070000  *   0.17200000  *
     9       C          1.70550000  *   0.65000000  *   0.41500000  *
    10       H         -0.52000000  *  -0.27490000  *  -1.49880000  *
    11       H         -0.28730000  *  -1.10090000  *   1.46090000  *
    12       H         -3.01880000  *  -0.53990000  *  -0.98870000  *
    13       H         -2.63930000  *  -1.12080000  *   0.66950000  *
    14       H         -3.30210000  *   1.29010000  *   0.64290000  *
    15       H         -1.60430000  *   1.09490000  *   1.21510000  *
    16       H         -1.93370000  *   1.66890000  *  -0.47130000  *
    17       H          3.81500000  *   0.69160000  *   0.81130000  *
    18       H          3.34720000  *   1.10460000  *  -0.89120000  *
    19       H          3.07670000  *   2.29740000  *   0.43810000  *
    20       H          2.23280000  *  -1.29300000  *  -0.19550000  *
    21       H          0.92170000  *   1.30370000  *   0.78750000  *
 


          CARTESIAN COORDINATES 

    NO.       ATOM           X           Y           Z

     1         O         -0.8958     -2.2492     -0.9732
     2         O         -0.0056     -2.5374     -0.0162
     3         C         -0.9101     -0.8879     -0.6550
     4         C          0.0740     -1.2101      0.4143
     5         C         -2.2931     -0.4548     -0.1515
     6         C         -2.2773      0.9903      0.3383
     7         C          3.0700      1.2182      0.1782
     8         C          1.4445     -0.6407      0.1720
     9         C          1.7055      0.6500      0.4150
    10         H         -0.5200     -0.2749     -1.4988
    11         H         -0.2873     -1.1009      1.4609
    12         H         -3.0188     -0.5399     -0.9887
    13         H         -2.6393     -1.1208      0.6695
    14         H         -3.3021      1.2901      0.6429
    15         H         -1.6043      1.0949      1.2151
    16         H         -1.9337      1.6689     -0.4713
    17         H          3.8150      0.6916      0.8113
    18         H          3.3472      1.1046     -0.8912
    19         H          3.0767      2.2974      0.4381
    20         H          2.2328     -1.2930     -0.1955
    21         H          0.9217      1.3037      0.7875

  H: (PM3): J. J. P. STEWART, J. COMP. CHEM. 10, 209 (1989).
  C: (PM3): J. J. P. STEWART, J. COMP. CHEM. 10, 209 (1989).
  O: (PM3): J. J. P. STEWART, J. COMP. CHEM. 10, 209 (1989).

           Empirical Formula: C7 H12 O2  =    21 atoms



      MOLECULAR POINT GROUP   :   C1  


      RHF CALCULATION, NO. OF DOUBLY OCCUPIED LEVELS = 26


          Geometry optimization using EF

          DIAGONAL MATRIX USED AS START HESSIAN

 CYCLE:     1 TIME:   0.004 TIME LEFT:  2.00D  GRAD.:   279.409 HEAT:  13.03369
 CYCLE:     2 TIME:   0.004 TIME LEFT:  2.00D  GRAD.:   131.131 HEAT: -3.278272
 CYCLE:     3 TIME:   0.008 TIME LEFT:  2.00D  GRAD.:    79.513 HEAT: -6.657976
 CYCLE:     4 TIME:   0.008 TIME LEFT:  2.00D  GRAD.:    62.128 HEAT: -7.718652
 CYCLE:     5 TIME:   0.004 TIME LEFT:  2.00D  GRAD.:    68.005 HEAT: -7.769526
 CYCLE:     6 TIME:   0.008 TIME LEFT:  2.00D  GRAD.:    47.285 HEAT: -8.138118
 CYCLE:     7 TIME:   0.004 TIME LEFT:  2.00D  GRAD.:    38.017 HEAT: -8.467865
 CYCLE:     8 TIME:   0.008 TIME LEFT:  2.00D  GRAD.:    19.761 HEAT: -8.818371
 CYCLE:     9 TIME:   0.008 TIME LEFT:  2.00D  GRAD.:    12.213 HEAT: -8.938820
 CYCLE:    10 TIME:   0.004 TIME LEFT:  2.00D  GRAD.:    15.450 HEAT: -8.967406
 CYCLE:    11 TIME:   0.004 TIME LEFT:  2.00D  GRAD.:    16.927 HEAT: -9.014258
 CYCLE:    12 TIME:   0.008 TIME LEFT:  2.00D  GRAD.:    11.206 HEAT: -9.066881
 CYCLE:    13 TIME:   0.004 TIME LEFT:  2.00D  GRAD.:    12.306 HEAT: -9.076755
 CYCLE:    14 TIME:   0.004 TIME LEFT:  2.00D  GRAD.:    11.871 HEAT: -9.093423
 CYCLE:    15 TIME:   0.008 TIME LEFT:  2.00D  GRAD.:     6.120 HEAT: -9.131930
 CYCLE:    16 TIME:   0.004 TIME LEFT:  2.00D  GRAD.:     8.614 HEAT: -9.135957
 CYCLE:    17 TIME:   0.004 TIME LEFT:  2.00D  GRAD.:     5.267 HEAT: -9.163068
 CYCLE:    18 TIME:   0.008 TIME LEFT:  2.00D  GRAD.:     6.206 HEAT: -9.170676
 CYCLE:    19 TIME:   0.004 TIME LEFT:  2.00D  GRAD.:     3.327 HEAT: -9.187444
 CYCLE:    20 TIME:   0.004 TIME LEFT:  2.00D  GRAD.:     4.604 HEAT: -9.197815
 CYCLE:    21 TIME:   0.004 TIME LEFT:  2.00D  GRAD.:     3.496 HEAT: -9.211352
 CYCLE:    22 TIME:   0.004 TIME LEFT:  2.00D  GRAD.:     2.557 HEAT: -9.218749
 CYCLE:    23 TIME:   0.004 TIME LEFT:  2.00D  GRAD.:     2.224 HEAT: -9.225373
 CYCLE:    24 TIME:   0.004 TIME LEFT:  2.00D  GRAD.:     3.084 HEAT: -9.234172
 CYCLE:    25 TIME:   0.004 TIME LEFT:  2.00D  GRAD.:     2.913 HEAT: -9.241626
 CYCLE:    26 TIME:   0.004 TIME LEFT:  2.00D  GRAD.:     2.246 HEAT: -9.247662
 CYCLE:    27 TIME:   0.008 TIME LEFT:  2.00D  GRAD.:     2.989 HEAT: -9.253641
 CYCLE:    28 TIME:   0.004 TIME LEFT:  2.00D  GRAD.:     2.770 HEAT: -9.261300
 CYCLE:    29 TIME:   0.004 TIME LEFT:  2.00D  GRAD.:     3.606 HEAT: -9.276080
 CYCLE:    30 TIME:   0.004 TIME LEFT:  2.00D  GRAD.:     3.736 HEAT: -9.288054
 CYCLE:    31 TIME:   0.004 TIME LEFT:  2.00D  GRAD.:     2.835 HEAT: -9.298106
 CYCLE:    32 TIME:   0.004 TIME LEFT:  2.00D  GRAD.:     3.315 HEAT: -9.305502
 CYCLE:    33 TIME:   0.004 TIME LEFT:  2.00D  GRAD.:     2.371 HEAT: -9.313359
 CYCLE:    34 TIME:   0.004 TIME LEFT:  2.00D  GRAD.:     2.344 HEAT: -9.321325
 CYCLE:    35 TIME:   0.004 TIME LEFT:  2.00D  GRAD.:     2.524 HEAT: -9.332474
 CYCLE:    36 TIME:   0.004 TIME LEFT:  2.00D  GRAD.:     2.765 HEAT: -9.338891
 CYCLE:    37 TIME:   0.008 TIME LEFT:  2.00D  GRAD.:     1.815 HEAT: -9.344243
 CYCLE:    38 TIME:   0.004 TIME LEFT:  2.00D  GRAD.:     1.367 HEAT: -9.347864
 CYCLE:    39 TIME:   0.004 TIME LEFT:  2.00D  GRAD.:     1.491 HEAT: -9.352713
 CYCLE:    40 TIME:   0.004 TIME LEFT:  2.00D  GRAD.:     1.384 HEAT: -9.355398
 CYCLE:    41 TIME:   0.004 TIME LEFT:  2.00D  GRAD.:     1.043 HEAT: -9.358417
 CYCLE:    42 TIME:   0.004 TIME LEFT:  2.00D  GRAD.:     1.046 HEAT: -9.361348
 CYCLE:    43 TIME:   0.004 TIME LEFT:  2.00D  GRAD.:     1.209 HEAT: -9.363908
 CYCLE:    44 TIME:   0.004 TIME LEFT:  2.00D  GRAD.:     1.384 HEAT: -9.367894
 CYCLE:    45 TIME:   0.004 TIME LEFT:  2.00D  GRAD.:     1.365 HEAT: -9.371650
 CYCLE:    46 TIME:   0.004 TIME LEFT:  2.00D  GRAD.:     1.087 HEAT: -9.375020
 CYCLE:    47 TIME:   0.004 TIME LEFT:  2.00D  GRAD.:     1.028 HEAT: -9.377380
 CYCLE:    48 TIME:   0.008 TIME LEFT:  2.00D  GRAD.:     0.966 HEAT: -9.379530
 CYCLE:    49 TIME:   0.004 TIME LEFT:  2.00D  GRAD.:     0.946 HEAT: -9.381551
 CYCLE:    50 TIME:   0.004 TIME LEFT:  2.00D  GRAD.:     0.813 HEAT: -9.383251
 CYCLE:    51 TIME:   0.004 TIME LEFT:  2.00D  GRAD.:     0.756 HEAT: -9.384610
 CYCLE:    52 TIME:   0.004 TIME LEFT:  2.00D  GRAD.:     0.754 HEAT: -9.385944
 CYCLE:    53 TIME:   0.004 TIME LEFT:  2.00D  GRAD.:     0.817 HEAT: -9.387811
 CYCLE:    54 TIME:   0.004 TIME LEFT:  2.00D  GRAD.:     0.832 HEAT: -9.389776
 CYCLE:    55 TIME:   0.004 TIME LEFT:  2.00D  GRAD.:     0.581 HEAT: -9.391182
 CYCLE:    56 TIME:   0.004 TIME LEFT:  2.00D  GRAD.:     0.378 HEAT: -9.391825
 CYCLE:    57 TIME:   0.008 TIME LEFT:  2.00D  GRAD.:     0.347 HEAT: -9.392169
 CYCLE:    58 TIME:   0.004 TIME LEFT:  2.00D  GRAD.:     0.385 HEAT: -9.392517
 CYCLE:    59 TIME:   0.004 TIME LEFT:  2.00D  GRAD.:     0.422 HEAT: -9.392904
 CYCLE:    60 TIME:   0.004 TIME LEFT:  2.00D  GRAD.:     0.356 HEAT: -9.393251
 CYCLE:    61 TIME:   0.004 TIME LEFT:  2.00D  GRAD.:     0.376 HEAT: -9.393636
 CYCLE:    62 TIME:   0.004 TIME LEFT:  2.00D  GRAD.:     0.433 HEAT: -9.393940
 CYCLE:    63 TIME:   0.004 TIME LEFT:  2.00D  GRAD.:     0.502 HEAT: -9.394456
 CYCLE:    64 TIME:   0.004 TIME LEFT:  2.00D  GRAD.:     0.563 HEAT: -9.395061
 CYCLE:    65 TIME:   0.004 TIME LEFT:  2.00D  GRAD.:     0.552 HEAT: -9.395623
 CYCLE:    66 TIME:   0.004 TIME LEFT:  2.00D  GRAD.:     0.781 HEAT: -9.397234
 CYCLE:    67 TIME:   0.004 TIME LEFT:  2.00D  GRAD.:     0.814 HEAT: -9.398472
 CYCLE:    68 TIME:   0.008 TIME LEFT:  2.00D  GRAD.:     3.386 HEAT: -9.400451
 CYCLE:    69 TIME:   0.004 TIME LEFT:  2.00D  GRAD.:     1.554 HEAT: -9.403753
 CYCLE:    70 TIME:   0.004 TIME LEFT:  2.00D  GRAD.:     1.002 HEAT: -9.406660
 CYCLE:    71 TIME:   0.004 TIME LEFT:  2.00D  GRAD.:     2.428 HEAT: -9.410075
 CYCLE:    72 TIME:   0.004 TIME LEFT:  2.00D  GRAD.:     2.203 HEAT: -9.414341
 CYCLE:    73 TIME:   0.004 TIME LEFT:  2.00D  GRAD.:     8.888 HEAT: -9.425143
 CYCLE:    74 TIME:   0.012 TIME LEFT:  2.00D  GRAD.:     3.490 HEAT: -9.458313
 CYCLE:    75 TIME:   0.004 TIME LEFT:  2.00D  GRAD.:     2.241 HEAT: -9.476915
 CYCLE:    76 TIME:   0.004 TIME LEFT:  2.00D  GRAD.:     1.899 HEAT: -9.496432
 CYCLE:    77 TIME:   0.004 TIME LEFT:  2.00D  GRAD.:     3.144 HEAT: -9.513303
 CYCLE:    78 TIME:   0.004 TIME LEFT:  2.00D  GRAD.:     3.499 HEAT: -9.537542
 CYCLE:    79 TIME:   0.008 TIME LEFT:  2.00D  GRAD.:     6.227 HEAT: -9.552888
 CYCLE:    80 TIME:   0.004 TIME LEFT:  2.00D  GRAD.:     3.603 HEAT: -9.587302
 CYCLE:    81 TIME:   0.004 TIME LEFT:  2.00D  GRAD.:     3.544 HEAT: -9.604981
 CYCLE:    82 TIME:   0.008 TIME LEFT:  2.00D  GRAD.:     6.176 HEAT: -9.656534
 CYCLE:    83 TIME:   0.008 TIME LEFT:  2.00D  GRAD.:     5.832 HEAT: -9.671873
 CYCLE:    84 TIME:   0.004 TIME LEFT:  2.00D  GRAD.:     2.335 HEAT: -9.702993
 CYCLE:    85 TIME:   0.008 TIME LEFT:  2.00D  GRAD.:     2.806 HEAT: -9.721811
 CYCLE:    86 TIME:   0.004 TIME LEFT:  2.00D  GRAD.:     3.883 HEAT: -9.739898
 CYCLE:    87 TIME:   0.004 TIME LEFT:  2.00D  GRAD.:     5.052 HEAT: -9.760262
 CYCLE:    88 TIME:   0.004 TIME LEFT:  2.00D  GRAD.:     3.612 HEAT: -9.793477
 CYCLE:    89 TIME:   0.004 TIME LEFT:  2.00D  GRAD.:     5.329 HEAT: -9.827492
 CYCLE:    90 TIME:   0.004 TIME LEFT:  2.00D  GRAD.:     4.102 HEAT: -9.888547
 CYCLE:    91 TIME:   0.008 TIME LEFT:  2.00D  GRAD.:     6.873 HEAT: -9.906101
 CYCLE:    92 TIME:   0.004 TIME LEFT:  2.00D  GRAD.:     5.740 HEAT: -9.931382
 CYCLE:    93 TIME:   0.004 TIME LEFT:  2.00D  GRAD.:     2.213 HEAT: -9.961985
 CYCLE:    94 TIME:   0.008 TIME LEFT:  2.00D  GRAD.:     4.419 HEAT: -9.978300
 CYCLE:    95 TIME:   0.004 TIME LEFT:  2.00D  GRAD.:     2.135 HEAT: -9.988454
 CYCLE:    96 TIME:   0.004 TIME LEFT:  2.00D  GRAD.:     1.413 HEAT: -9.994265
 CYCLE:    97 TIME:   0.004 TIME LEFT:  2.00D  GRAD.:     1.589 HEAT: -9.999602
 CYCLE:    98 TIME:   0.004 TIME LEFT:  2.00D  GRAD.:     1.201 HEAT: -10.00451
 CYCLE:    99 TIME:   0.004 TIME LEFT:  2.00D  GRAD.:     0.899 HEAT: -10.00726
 CYCLE:   100 TIME:   0.004 TIME LEFT:  2.00D  GRAD.:     1.406 HEAT: -10.00822
 CYCLE:   101 TIME:   0.004 TIME LEFT:  2.00D  GRAD.:     0.703 HEAT: -10.00957
 CYCLE:   102 TIME:   0.004 TIME LEFT:  2.00D  GRAD.:     0.536 HEAT: -10.01025
 CYCLE:   103 TIME:   0.004 TIME LEFT:  2.00D  GRAD.:     0.454 HEAT: -10.01104
 CYCLE:   104 TIME:   0.008 TIME LEFT:  2.00D  GRAD.:     0.586 HEAT: -10.01150
 CYCLE:   105 TIME:   0.004 TIME LEFT:  2.00D  GRAD.:     0.613 HEAT: -10.01231
 CYCLE:   106 TIME:   0.004 TIME LEFT:  2.00D  GRAD.:     0.546 HEAT: -10.01293
 CYCLE:   107 TIME:   0.004 TIME LEFT:  2.00D  GRAD.:     1.086 HEAT: -10.01661
 CYCLE:   108 TIME:   0.004 TIME LEFT:  2.00D  GRAD.:     0.809 HEAT: -10.01797
 CYCLE:   109 TIME:   0.004 TIME LEFT:  2.00D  GRAD.:     1.059 HEAT: -10.02178
 CYCLE:   110 TIME:   0.004 TIME LEFT:  2.00D  GRAD.:     1.054 HEAT: -10.02447
 CYCLE:   111 TIME:   0.004 TIME LEFT:  2.00D  GRAD.:     1.131 HEAT: -10.02928
 CYCLE:   112 TIME:   0.004 TIME LEFT:  2.00D  GRAD.:     1.714 HEAT: -10.03231
 CYCLE:   113 TIME:   0.008 TIME LEFT:  2.00D  GRAD.:     1.481 HEAT: -10.03659
 CYCLE:   114 TIME:   0.004 TIME LEFT:  2.00D  GRAD.:     1.269 HEAT: -10.04011
 CYCLE:   115 TIME:   0.004 TIME LEFT:  2.00D  GRAD.:     1.177 HEAT: -10.04398
 CYCLE:   116 TIME:   0.004 TIME LEFT:  2.00D  GRAD.:     1.016 HEAT: -10.04565
 CYCLE:   117 TIME:   0.004 TIME LEFT:  2.00D  GRAD.:     0.685 HEAT: -10.04693
 CYCLE:   118 TIME:   0.004 TIME LEFT:  2.00D  GRAD.:     0.435 HEAT: -10.04770
 CYCLE:   119 TIME:   0.004 TIME LEFT:  2.00D  GRAD.:     0.424 HEAT: -10.04800
 CYCLE:   120 TIME:   0.004 TIME LEFT:  2.00D  GRAD.:     0.364 HEAT: -10.04831
 CYCLE:   121 TIME:   0.008 TIME LEFT:  2.00D  GRAD.:     0.453 HEAT: -10.04898
 CYCLE:   122 TIME:   0.004 TIME LEFT:  2.00D  GRAD.:     0.543 HEAT: -10.04949
 CYCLE:   123 TIME:   0.004 TIME LEFT:  2.00D  GRAD.:     0.584 HEAT: -10.05005
 CYCLE:   124 TIME:   0.004 TIME LEFT:  2.00D  GRAD.:     0.637 HEAT: -10.05066
 CYCLE:   125 TIME:   0.004 TIME LEFT:  2.00D  GRAD.:     0.533 HEAT: -10.05109
 CYCLE:   126 TIME:   0.004 TIME LEFT:  2.00D  GRAD.:     0.799 HEAT: -10.05218
 CYCLE:   127 TIME:   0.004 TIME LEFT:  2.00D  GRAD.:     0.767 HEAT: -10.05298
 CYCLE:   128 TIME:   0.004 TIME LEFT:  2.00D  GRAD.:     1.386 HEAT: -10.05571
 CYCLE:   129 TIME:   0.004 TIME LEFT:  2.00D  GRAD.:     0.792 HEAT: -10.05694
 CYCLE:   130 TIME:   0.008 TIME LEFT:  2.00D  GRAD.:     0.587 HEAT: -10.05807
 CYCLE:   131 TIME:   0.004 TIME LEFT:  2.00D  GRAD.:     0.430 HEAT: -10.05884
 CYCLE:   132 TIME:   0.004 TIME LEFT:  2.00D  GRAD.:     0.303 HEAT: -10.05917
 CYCLE:   133 TIME:   0.004 TIME LEFT:  2.00D  GRAD.:     0.212 HEAT: -10.05932
 CYCLE:   134 TIME:   0.004 TIME LEFT:  2.00D  GRAD.:     0.202 HEAT: -10.05947
 CYCLE:   135 TIME:   0.004 TIME LEFT:  2.00D  GRAD.:     0.200 HEAT: -10.05954
 CYCLE:   136 TIME:   0.004 TIME LEFT:  2.00D  GRAD.:     0.247 HEAT: -10.05962
 CYCLE:   137 TIME:   0.004 TIME LEFT:  2.00D  GRAD.:     0.277 HEAT: -10.05971
 CYCLE:   138 TIME:   0.004 TIME LEFT:  2.00D  GRAD.:     0.267 HEAT: -10.05980
 CYCLE:   139 TIME:   0.004 TIME LEFT:  2.00D  GRAD.:     0.398 HEAT: -10.06035
 CYCLE:   140 TIME:   0.004 TIME LEFT:  2.00D  GRAD.:     0.476 HEAT: -10.06102
 CYCLE:   141 TIME:   0.008 TIME LEFT:  2.00D  GRAD.:     1.049 HEAT: -10.06175
 CYCLE:   142 TIME:   0.004 TIME LEFT:  2.00D  GRAD.:     0.475 HEAT: -10.06300
 CYCLE:   143 TIME:   0.004 TIME LEFT:  2.00D  GRAD.:     0.678 HEAT: -10.06485
 CYCLE:   144 TIME:   0.004 TIME LEFT:  2.00D  GRAD.:     1.392 HEAT: -10.06605
 CYCLE:   145 TIME:   0.004 TIME LEFT:  2.00D  GRAD.:     0.920 HEAT: -10.06756
 CYCLE:   146 TIME:   0.004 TIME LEFT:  2.00D  GRAD.:     0.520 HEAT: -10.06804
 CYCLE:   147 TIME:   0.004 TIME LEFT:  2.00D  GRAD.:     0.498 HEAT: -10.06811
 CYCLE:   148 TIME:   0.004 TIME LEFT:  2.00D  GRAD.:     0.137 HEAT: -10.06837
 CYCLE:   149 TIME:   0.004 TIME LEFT:  2.00D  GRAD.:     0.114 HEAT: -10.06840
 CYCLE:   150 TIME:   0.008 TIME LEFT:  2.00D  GRAD.:     0.090 HEAT: -10.06843
 CYCLE:   151 TIME:   0.004 TIME LEFT:  2.00D  GRAD.:     0.030 HEAT: -10.06843

     GRADIENT =  0.02968  IS LESS THAN CUTOFF =  0.05000



 -------------------------------------------------------------------------------
 pm3  precise nosym THREADS=1
 InChI=1S/C7H12O2/c1-3-5-7-6(4-2)8-9-7/h3,5-7H,4H2,1-2H3



     GEOMETRY OPTIMISED USING EIGENVECTOR FOLLOWING (EF).     
     SCF FIELD WAS ACHIEVED                                   


                              PM3 CALCULATION
                                                       MOPAC2016 (Version: 18.184L)
                                                       Sat Jun 15 11:02:00 2019
                                                       No. of days remaining =  18




          FINAL HEAT OF FORMATION =        -10.06843 KCAL/MOL =     -42.12632 KJ/MOL


          TOTAL ENERGY            =      -1598.76153 EV
          ELECTRONIC ENERGY       =      -7648.52927 EV  POINT GROUP:     C1  
          CORE-CORE REPULSION     =       6049.76774 EV
          COSMO AREA              =        174.95 SQUARE ANGSTROMS
          COSMO VOLUME            =        173.93 CUBIC ANGSTROMS

          GRADIENT NORM           =          0.02968 = 0.00648 PER ATOM
          IONIZATION POTENTIAL    =         10.123823 EV
          HOMO LUMO ENERGIES (EV) =        -10.124  0.389
          NO. OF FILLED LEVELS    =         26
          MOLECULAR WEIGHT        =        128.1706

          MOLECULAR DIMENSIONS (Angstroms)

            Atom       Atom       Distance
            H    19    H    12     7.25603
            O     2    H    14     4.99052
            H    11    H    18     3.23051


          SCF CALCULATIONS        =        165
 
          WALL-CLOCK TIME         =          0.703 SECONDS
          COMPUTATION TIME        =          0.649 SECONDS




   ATOM   CHEMICAL          X               Y               Z
  NUMBER   SYMBOL      (ANGSTROMS)     (ANGSTROMS)     (ANGSTROMS)
 
     1       O         -1.02382432  *  -2.36302295  *  -0.97423294  *
     2       O          0.07596594  *  -2.64147286  *   0.10731008  *
     3       C         -0.97225671  *  -0.95533293  *  -0.64960202  *
     4       C          0.12030397  *  -1.22877545  *   0.41099062  *
     5       C         -2.30043225  *  -0.42720762  *  -0.12843432  *
     6       C         -2.21811527  *   1.05641863  *   0.14945511  *
     7       C          3.03054857  *   1.28303924  *   0.23917692  *
     8       C          1.45103917  *  -0.61770557  *   0.13637583  *
     9       C          1.72640840  *   0.63637661  *   0.49907656  *
    10       H         -0.63217535  *  -0.37860425  *  -1.53765875  *
    11       H         -0.19053031  *  -1.06431809  *   1.46699493  *
    12       H         -3.09396476  *  -0.63526228  *  -0.87347860  *
    13       H         -2.60336286  *  -0.97324556  *   0.78758307  *
    14       H         -3.16700220  *   1.43803108  *   0.54684170  *
    15       H         -1.43529045  *   1.28522921  *   0.88683072  *
    16       H         -1.98775146  *   1.62906702  *  -0.75890922  *
    17       H          3.74096259  *   0.62361122  *  -0.27705232  *
    18       H          2.89801771  *   2.17961705  *  -0.38139710  *
    19       H          3.49611383  *   1.59957142  *   1.18234030  *
    20       H          2.19009972  *  -1.24620561  *  -0.37761912  *
    21       H          0.97504815  *   1.24992854  *   1.01466303  *

                             CARTESIAN COORDINATES

   1    O       -1.023824324    -2.363022952    -0.974232938
   2    O        0.075965944    -2.641472856     0.107310081
   3    C       -0.972256709    -0.955332930    -0.649602016
   4    C        0.120303973    -1.228775447     0.410990623
   5    C       -2.300432251    -0.427207617    -0.128434315
   6    C       -2.218115266     1.056418626     0.149455110
   7    C        3.030548569     1.283039241     0.239176920
   8    C        1.451039166    -0.617705571     0.136375826
   9    C        1.726408402     0.636376612     0.499076564
  10    H       -0.632175349    -0.378604246    -1.537658746
  11    H       -0.190530311    -1.064318087     1.466994925
  12    H       -3.093964756    -0.635262284    -0.873478604
  13    H       -2.603362860    -0.973245562     0.787583066
  14    H       -3.167002199     1.438031079     0.546841695
  15    H       -1.435290446     1.285229208     0.886830725
  16    H       -1.987751457     1.629067016    -0.758909223
  17    H        3.740962589     0.623611218    -0.277052318
  18    H        2.898017707     2.179617046    -0.381397097
  19    H        3.496113825     1.599571424     1.182340304
  20    H        2.190099719    -1.246205607    -0.377619116
  21    H        0.975048150     1.249928536     1.014663026


           Empirical Formula: C7 H12 O2  =    21 atoms



      MOLECULAR POINT GROUP   :   C1  


                  EIGENVALUES  
 -40.46776 -35.52840 -34.05026 -31.98102 -28.52063 -25.36015 -22.64282 -20.60005
 -20.01127 -17.94350 -17.45954 -16.99382 -15.71240 -15.50125 -15.01776 -14.52936
 -14.44461 -13.66039 -13.42477 -13.37347 -12.92395 -12.62384 -12.47568 -11.93686
 -11.04720 -10.12382   0.38917   0.77102   2.56888   2.78400   3.11699   3.24879
   3.30835   3.45788   3.60763   3.70184   3.78601   3.95122   4.01493   4.08581
   4.18319   4.25861   4.32628   4.56374   4.61021   4.76008   5.30919   5.55390


              NET ATOMIC CHARGES AND DIPOLE CONTRIBUTIONS

  ATOM NO.   TYPE          CHARGE      No. of ELECS.   s-Pop       p-Pop       
    1          O          -0.132139        6.1321     1.92647     4.20567
    2          O          -0.129024        6.1290     1.92654     4.20248
    3          C           0.027636        3.9724     1.19268     2.77968
    4          C           0.062773        3.9372     1.17716     2.76007
    5          C          -0.117776        4.1178     1.16165     2.95613
    6          C          -0.108598        4.1086     1.13723     2.97137
    7          C          -0.077891        4.0779     1.12533     2.95256
    8          C          -0.183477        4.1835     1.20069     2.98279
    9          C          -0.123118        4.1231     1.19240     2.93072
   10          H           0.081094        0.9189     0.91891
   11          H           0.082162        0.9178     0.91784
   12          H           0.065106        0.9349     0.93489
   13          H           0.065162        0.9348     0.93484
   14          H           0.044423        0.9556     0.95558
   15          H           0.038277        0.9617     0.96172
   16          H           0.041447        0.9586     0.95855
   17          H           0.045964        0.9540     0.95404
   18          H           0.047139        0.9529     0.95286
   19          H           0.048244        0.9518     0.95176
   20          H           0.124377        0.8756     0.87562
   21          H           0.098218        0.9018     0.90178
 DIPOLE           X         Y         Z       TOTAL
 POINT-CHG.     0.156     2.662     0.541     2.721
 HYBRID         0.009     0.373     0.080     0.382
 SUM            0.165     3.035     0.621     3.102


          ATOMIC ORBITAL ELECTRON POPULATIONS

     Atom    s        px        py        pz   
    1  O   1.92647   1.51006   1.22015   1.47546
    2  O   1.92654   1.50947   1.20874   1.48427
    3  C   1.19268   0.94981   0.86161   0.96827
    4  C   1.17716   0.93636   0.84127   0.98244
    5  C   1.16165   0.96399   0.96748   1.02466
    6  C   1.13723   1.01381   0.94775   1.00981
    7  C   1.12533   0.94750   0.99848   1.00659
    8  C   1.20069   0.97925   0.97539   1.02815
    9  C   1.19240   0.98063   0.96127   0.98882
   10  H   0.91891
   11  H   0.91784
   12  H   0.93489
   13  H   0.93484
   14  H   0.95558
   15  H   0.96172
   16  H   0.95855
   17  H   0.95404
   18  H   0.95286
   19  H   0.95176
   20  H   0.87562
   21  H   0.90178
 *******************************************************************************
 ** Site#: 14399        For non-commercial use only    Version 18.184L 64BITS **
 *******************************************************************************
 ** Cite this program as: MOPAC2016, Version: 18.184L, James J. P. Stewart,   **
 ** Stewart Computational Chemistry, web: HTTP://OpenMOPAC.net. Days left:  18**
 *******************************************************************************
 **                                                                           **
 **                                MOPAC2016                                  **
 **                                                                           **
 *******************************************************************************

                              PM3 CALCULATION RESULTS

 *******************************************************************************
 *  CALCULATION DONE:                                Sat Jun 15 11:02:00 2019  *
 *  PM3        - The PM3 Hamiltonian to be used
 *  OLDGEO     - PREVIOUS GEOMETRY TO BE USED
 *  PRECISE    - CRITERIA TO BE INCREASED BY 100 TIMES
 *  NOSYM      - POINT-GROUP SYMMETRY SET TO C1
 *  THREADS=1  - MULTI-THREADING NOT USED
 *  T=         - A TIME OF 172800.0 SECONDS REQUESTED
 *  DUMP=N     - RESTART FILE WRITTEN EVERY  7200.000 SECONDS
 *  THERMO     - THERMODYNAMIC QUANTITIES TO BE CALCULATED
 *******************************************************************************
oldgeo thermo nosym precise THREADS=1  pm3
 InChI=1S/C7H12O2/c1-3-5-7-6(4-2)8-9-7/h3,5-7H,4H2,1-2H3

   ATOM   CHEMICAL          X               Y               Z
  NUMBER   SYMBOL      (ANGSTROMS)     (ANGSTROMS)     (ANGSTROMS)
 
     1       O         -1.02382432  *  -2.36302295  *  -0.97423294  *
     2       O          0.07596594  *  -2.64147286  *   0.10731008  *
     3       C         -0.97225671  *  -0.95533293  *  -0.64960202  *
     4       C          0.12030397  *  -1.22877545  *   0.41099062  *
     5       C         -2.30043225  *  -0.42720762  *  -0.12843432  *
     6       C         -2.21811527  *   1.05641863  *   0.14945511  *
     7       C          3.03054857  *   1.28303924  *   0.23917692  *
     8       C          1.45103917  *  -0.61770557  *   0.13637583  *
     9       C          1.72640840  *   0.63637661  *   0.49907656  *
    10       H         -0.63217535  *  -0.37860425  *  -1.53765875  *
    11       H         -0.19053031  *  -1.06431809  *   1.46699493  *
    12       H         -3.09396476  *  -0.63526228  *  -0.87347860  *
    13       H         -2.60336286  *  -0.97324556  *   0.78758307  *
    14       H         -3.16700220  *   1.43803108  *   0.54684170  *
    15       H         -1.43529045  *   1.28522921  *   0.88683072  *
    16       H         -1.98775146  *   1.62906702  *  -0.75890922  *
    17       H          3.74096259  *   0.62361122  *  -0.27705232  *
    18       H          2.89801771  *   2.17961705  *  -0.38139710  *
    19       H          3.49611383  *   1.59957142  *   1.18234030  *
    20       H          2.19009972  *  -1.24620561  *  -0.37761912  *
    21       H          0.97504815  *   1.24992854  *   1.01466303  *
 


          CARTESIAN COORDINATES 

    NO.       ATOM           X           Y           Z

     1         O         -1.0238     -2.3630     -0.9742
     2         O          0.0760     -2.6415      0.1073
     3         C         -0.9723     -0.9553     -0.6496
     4         C          0.1203     -1.2288      0.4110
     5         C         -2.3004     -0.4272     -0.1284
     6         C         -2.2181      1.0564      0.1495
     7         C          3.0305      1.2830      0.2392
     8         C          1.4510     -0.6177      0.1364
     9         C          1.7264      0.6364      0.4991
    10         H         -0.6322     -0.3786     -1.5377
    11         H         -0.1905     -1.0643      1.4670
    12         H         -3.0940     -0.6353     -0.8735
    13         H         -2.6034     -0.9732      0.7876
    14         H         -3.1670      1.4380      0.5468
    15         H         -1.4353      1.2852      0.8868
    16         H         -1.9878      1.6291     -0.7589
    17         H          3.7410      0.6236     -0.2771
    18         H          2.8980      2.1796     -0.3814
    19         H          3.4961      1.5996      1.1823
    20         H          2.1901     -1.2462     -0.3776
    21         H          0.9750      1.2499      1.0147

  H: (PM3): J. J. P. STEWART, J. COMP. CHEM. 10, 209 (1989).
  C: (PM3): J. J. P. STEWART, J. COMP. CHEM. 10, 209 (1989).
  O: (PM3): J. J. P. STEWART, J. COMP. CHEM. 10, 209 (1989).

           Empirical Formula: C7 H12 O2  =    21 atoms



      MOLECULAR POINT GROUP   :   C1  


      RHF CALCULATION, NO. OF DOUBLY OCCUPIED LEVELS = 26



          HEAT OF FORMATION =     -10.068433 KCALS/MOLE


          CARTESIAN COORDINATE DERIVATIVES

   NUMBER  ATOM         X            Y            Z

     1       O      0.002203    -0.000056    -0.003452
     2       O      0.005535    -0.004313    -0.006431
     3       C     -0.001804     0.003038    -0.000410
     4       C      0.000426     0.003060    -0.001932
     5       C     -0.002956     0.000695    -0.000359
     6       C      0.000291     0.001039    -0.000592
     7       C      0.007054     0.007450     0.007316
     8       C     -0.000319    -0.006060    -0.001667
     9       C      0.004697     0.004669     0.001624
    10       H      0.004329    -0.003132    -0.002524
    11       H      0.001322     0.003809     0.001575
    12       H     -0.003998    -0.001179     0.008633
    13       H     -0.003041     0.003272    -0.001170
    14       H      0.000876     0.000515    -0.000805
    15       H     -0.003535    -0.002150     0.000719
    16       H      0.002539     0.002882     0.002970
    17       H      0.000891     0.000563     0.001315
    18       H     -0.005692     0.002330    -0.005544
    19       H     -0.004263    -0.010522    -0.003152
    20       H     -0.001217    -0.002663     0.002743
    21       H     -0.003339    -0.003247     0.001143
 


          GRADIENT NORM =   0.02912

          MOLECULAR WEIGHT =  128.17



          ROTATIONAL CONSTANTS IN CM(-1)

          A =    0.07047200   B =    0.03599860   C =    0.02573101



           PRINCIPAL MOMENTS OF INERTIA IN UNITS OF 10**(-40)*GRAM-CM**2

          A =      397.2184   B =      777.6073   C =     1087.9003


          ORIENTATION OF MOLECULE IN FORCE CALCULATION

    NO.       ATOM         X         Y         Z

     1          O      -1.0281   -1.9527    0.2867
     2          O       0.5394   -1.9527    0.2867
     3          C      -1.0180   -0.5071    0.2867
     4          C       0.5290   -0.5071    0.2767
     5          C      -1.6841    0.0815    1.5213
     6          C      -1.6981    1.5917    1.4571
     7          C       2.0063    1.9939   -2.2474
     8          C       1.1647    0.0693   -0.9412
     9          C       1.3854    1.3803   -1.0539
    10          H      -1.4946   -0.1295   -0.6445
    11          H       1.0104   -0.1242    1.2043
    12          H      -2.7180   -0.3095    1.6001
    13          H      -1.1676   -0.2590    2.4413
    14          H      -2.1575    2.0219    2.3559
    15          H      -0.6807    2.0009    1.3779
    16          H      -2.2650    1.9576    0.5905
    17          H       2.2657    1.2593   -3.0215
    18          H       1.3258    2.7277   -2.7003
    19          H       2.9275    2.5241   -1.9705
    20          H       1.4403   -0.6337   -1.7382
    21          H       1.1050    2.0688   -0.2450


    FIRST DERIVATIVES WILL BE USED IN THE CALCULATION OF SECOND DERIVATIVES

    FOR POINT-GROUP C1   THERE ARE   1 UNIQUE SYMMETRY FUNCTIONS.

 STEP:   1 TIME =     0.02 SECS, INTEGRAL =      0.02 TIME LEFT: 172799.98
 STEP:   2 TIME =     0.02 SECS, INTEGRAL =      0.04 TIME LEFT: 172799.96
 STEP:   3 TIME =     0.02 SECS, INTEGRAL =      0.06 TIME LEFT: 172799.94
 STEP:   4 TIME =     0.02 SECS, INTEGRAL =      0.08 TIME LEFT: 172799.92
 STEP:   5 TIME =     0.02 SECS, INTEGRAL =      0.09 TIME LEFT: 172799.91
 STEP:   6 TIME =     0.02 SECS, INTEGRAL =      0.11 TIME LEFT: 172799.89
 STEP:   7 TIME =     0.02 SECS, INTEGRAL =      0.13 TIME LEFT: 172799.87
 STEP:   8 TIME =     0.02 SECS, INTEGRAL =      0.15 TIME LEFT: 172799.85
 STEP:   9 TIME =     0.02 SECS, INTEGRAL =      0.17 TIME LEFT: 172799.83
 STEP:  10 TIME =     0.02 SECS, INTEGRAL =      0.18 TIME LEFT: 172799.82
 STEP:  11 TIME =     0.02 SECS, INTEGRAL =      0.20 TIME LEFT: 172799.80
 STEP:  12 TIME =     0.02 SECS, INTEGRAL =      0.22 TIME LEFT: 172799.78
 STEP:  13 TIME =     0.02 SECS, INTEGRAL =      0.24 TIME LEFT: 172799.76
 STEP:  14 TIME =     0.02 SECS, INTEGRAL =      0.26 TIME LEFT: 172799.74
 STEP:  15 TIME =     0.02 SECS, INTEGRAL =      0.27 TIME LEFT: 172799.73
 STEP:  16 TIME =     0.02 SECS, INTEGRAL =      0.29 TIME LEFT: 172799.71
 STEP:  17 TIME =     0.02 SECS, INTEGRAL =      0.31 TIME LEFT: 172799.69
 STEP:  18 TIME =     0.02 SECS, INTEGRAL =      0.33 TIME LEFT: 172799.67
 STEP:  19 TIME =     0.02 SECS, INTEGRAL =      0.34 TIME LEFT: 172799.66
 STEP:  20 TIME =     0.02 SECS, INTEGRAL =      0.36 TIME LEFT: 172799.64
 STEP:  21 TIME =     0.02 SECS, INTEGRAL =      0.38 TIME LEFT: 172799.62
 STEP:  22 TIME =     0.02 SECS, INTEGRAL =      0.40 TIME LEFT: 172799.60
 STEP:  23 TIME =     0.02 SECS, INTEGRAL =      0.42 TIME LEFT: 172799.58
 STEP:  24 TIME =     0.02 SECS, INTEGRAL =      0.44 TIME LEFT: 172799.56
 STEP:  25 TIME =     0.02 SECS, INTEGRAL =      0.46 TIME LEFT: 172799.54
 STEP:  26 TIME =     0.02 SECS, INTEGRAL =      0.47 TIME LEFT: 172799.53
 STEP:  27 TIME =     0.02 SECS, INTEGRAL =      0.49 TIME LEFT: 172799.51
 STEP:  28 TIME =     0.02 SECS, INTEGRAL =      0.51 TIME LEFT: 172799.49
 STEP:  29 TIME =     0.02 SECS, INTEGRAL =      0.53 TIME LEFT: 172799.47
 STEP:  30 TIME =     0.02 SECS, INTEGRAL =      0.55 TIME LEFT: 172799.45
 STEP:  31 TIME =     0.02 SECS, INTEGRAL =      0.57 TIME LEFT: 172799.43
 STEP:  32 TIME =     0.02 SECS, INTEGRAL =      0.58 TIME LEFT: 172799.42
 STEP:  33 TIME =     0.02 SECS, INTEGRAL =      0.60 TIME LEFT: 172799.40
 STEP:  34 TIME =     0.02 SECS, INTEGRAL =      0.62 TIME LEFT: 172799.38
 STEP:  35 TIME =     0.02 SECS, INTEGRAL =      0.63 TIME LEFT: 172799.37
 STEP:  36 TIME =     0.02 SECS, INTEGRAL =      0.65 TIME LEFT: 172799.35
 STEP:  37 TIME =     0.02 SECS, INTEGRAL =      0.67 TIME LEFT: 172799.33
 STEP:  38 TIME =     0.02 SECS, INTEGRAL =      0.69 TIME LEFT: 172799.31
 STEP:  39 TIME =     0.02 SECS, INTEGRAL =      0.71 TIME LEFT: 172799.29
 STEP:  40 TIME =     0.02 SECS, INTEGRAL =      0.73 TIME LEFT: 172799.27
 STEP:  41 TIME =     0.02 SECS, INTEGRAL =      0.74 TIME LEFT: 172799.26
 STEP:  42 TIME =     0.02 SECS, INTEGRAL =      0.76 TIME LEFT: 172799.24
 STEP:  43 TIME =     0.02 SECS, INTEGRAL =      0.78 TIME LEFT: 172799.22
 STEP:  44 TIME =     0.02 SECS, INTEGRAL =      0.80 TIME LEFT: 172799.20
 STEP:  45 TIME =     0.02 SECS, INTEGRAL =      0.82 TIME LEFT: 172799.18
 STEP:  46 TIME =     0.02 SECS, INTEGRAL =      0.84 TIME LEFT: 172799.16
 STEP:  47 TIME =     0.02 SECS, INTEGRAL =      0.85 TIME LEFT: 172799.15
 STEP:  48 TIME =     0.02 SECS, INTEGRAL =      0.87 TIME LEFT: 172799.13
 STEP:  49 TIME =     0.02 SECS, INTEGRAL =      0.88 TIME LEFT: 172799.12
 STEP:  50 TIME =     0.02 SECS, INTEGRAL =      0.90 TIME LEFT: 172799.10
 STEP:  51 TIME =     0.02 SECS, INTEGRAL =      0.92 TIME LEFT: 172799.08
 STEP:  52 TIME =     0.02 SECS, INTEGRAL =      0.94 TIME LEFT: 172799.06
 STEP:  53 TIME =     0.02 SECS, INTEGRAL =      0.95 TIME LEFT: 172799.05
 STEP:  54 TIME =     0.02 SECS, INTEGRAL =      0.97 TIME LEFT: 172799.03
 STEP:  55 TIME =     0.02 SECS, INTEGRAL =      0.99 TIME LEFT: 172799.01
 STEP:  56 TIME =     0.02 SECS, INTEGRAL =      1.01 TIME LEFT: 172798.99
 STEP:  57 TIME =     0.02 SECS, INTEGRAL =      1.03 TIME LEFT: 172798.97
 STEP:  58 TIME =     0.02 SECS, INTEGRAL =      1.04 TIME LEFT: 172798.96
 STEP:  59 TIME =     0.02 SECS, INTEGRAL =      1.06 TIME LEFT: 172798.94
 STEP:  60 TIME =     0.02 SECS, INTEGRAL =      1.08 TIME LEFT: 172798.92
 STEP:  61 TIME =     0.02 SECS, INTEGRAL =      1.10 TIME LEFT: 172798.90
 STEP:  62 TIME =     0.02 SECS, INTEGRAL =      1.12 TIME LEFT: 172798.88
 STEP:  63 TIME =     0.02 SECS, INTEGRAL =      1.14 TIME LEFT: 172798.86

(To convert to Hartree/Bohr^2, multiply by (10^(-21) x N x a0^2)/(4.184 x 627.51) =  0.0642)


           FORCE MATRIX IN MILLIDYNES/ANGSTROM


                  O  1       O  2       C  3       C  4       C  5       C  6
 ------------------------------------------------------------------------------
     O    1   7.714050
     O    2   2.624414   7.717668
     C    3   4.425759   2.138628  14.564602
     C    4   2.137996   4.417947   3.332974  14.948702
     C    5   0.727585   0.060391   4.045017   0.514738  14.408430
     C    6   0.064457   0.006331   0.659737   0.026960   4.481891  14.370282
     C    7   0.003662   0.010655   0.018800   0.145801   0.002737   0.000725
     C    8   0.062280   0.771665   0.545448   4.796314   0.037616   0.002288
     C    9   0.009253   0.061309   0.028711   0.852033   0.002874   0.006467
     H   10   0.340908   0.049851   4.343697   0.426692   0.423930   0.028876
     H   11   0.049906   0.339211   0.428338   4.303667   0.022333   0.006046
     H   12   0.037835   0.004562   0.445399   0.046788   4.474454   0.439815
     H   13   0.029288   0.002041   0.461910   0.026327   4.459021   0.436098
     H   14   0.010618   0.001104   0.050060   0.003060   0.451345   4.766527
     H   15   0.003788   0.001643   0.025063   0.006923   0.462393   4.677217
     H   16   0.003356   0.000927   0.027849   0.002817   0.463257   4.726499
     H   17   0.000517   0.000930   0.000840   0.002750   0.000181   0.000190
     H   18   0.000723   0.000579   0.002862   0.019362   0.000782   0.000236
     H   19   0.000675   0.002102   0.002901   0.019327   0.000329   0.000193
     H   20   0.003691   0.056705   0.019124   0.462836   0.003174   0.000476
     H   21   0.002615   0.004929   0.012618   0.089314   0.002530   0.010860


                  C  7       C  8       C  9       H 10       H 11       H 12
 ------------------------------------------------------------------------------
     C    7  14.720931
     C    8   0.855644  18.199822
     C    9   5.280180  10.649107  18.157796
     H   10   0.001074   0.018776   0.004766   4.740786
     H   11   0.010824   0.415015   0.033080   0.032267   4.695681
     H   12   0.000706   0.006828   0.001053   0.022286   0.002725   5.085640
     H   13   0.000359   0.001567   0.000415   0.041601   0.023083   0.570758
     H   14   0.000536   0.000585   0.000676   0.001666   0.000481   0.028235
     H   15   0.000780   0.001791   0.010686   0.001864   0.006324   0.048546
     H   16   0.000273   0.000823   0.000786   0.019943   0.000489   0.025249
     H   17   4.730650   0.039634   0.481476   0.000206   0.000501   0.000150
     H   18   4.706145   0.035257   0.438720   0.000432   0.001422   0.000227
     H   19   4.707877   0.038559   0.436989   0.000153   0.001474   0.000133
     H   20   0.086907   4.785842   0.467645   0.002812   0.025221   0.000664
     H   21   0.425388   0.472696   4.736762   0.000694   0.015232   0.000777


                  H 13       H 14       H 15       H 16       H 17       H 18
 ------------------------------------------------------------------------------
     H   13   5.077335
     H   14   0.031166   5.494812
     H   15   0.023179   0.569243   5.416025
     H   16   0.047641   0.572240   0.573849   5.465389
     H   17   0.000103   0.000111   0.000171   0.000095   5.451923
     H   18   0.000146   0.000104   0.000104   0.000115   0.563308   5.423183
     H   19   0.000111   0.000072   0.000150   0.000108   0.563336   0.574997
     H   20   0.000604   0.000122   0.000279   0.000290   0.029179   0.010020
     H   21   0.000397   0.000956   0.011937   0.000820   0.041879   0.023333


                  H 19       H 20       H 21
 ------------------------------------------
     H   19   5.424216
     H   20   0.010225   5.165586
     H   21   0.023637   0.105707   5.113355


          HEAT OF FORMATION =     -10.068433 KCALS/MOLE

          ZERO POINT ENERGY     110.697 KCAL/MOL


           NORMAL COORDINATE ANALYSIS (Total motion = 1 Angstrom)


   Root No.       1         2         3         4         5         6         7         8

                 1 A       2 A       3 A       4 A       5 A       6 A       7 A       8 A   

                  51.0      70.9      83.9     114.7     142.0     185.4     224.3     252.2
  
           1    0.0060    0.0110   -0.0001    0.0018    0.0026    0.0005   -0.0037    0.0023
           2   -0.0097   -0.0078   -0.0184   -0.0108   -0.0138    0.0050    0.0054    0.0071
           3    0.0221   -0.0074    0.0321    0.0226    0.0349    0.0149   -0.0208    0.0454
           4    0.0060    0.0112    0.0005    0.0016    0.0018   -0.0005   -0.0017   -0.0003
           5    0.0062    0.0210   -0.0175    0.0071    0.0049   -0.0053    0.0044   -0.0091
           6   -0.0061    0.0292   -0.0089   -0.0105   -0.0199   -0.0254    0.0620   -0.0070
           7   -0.0086   -0.0152   -0.0005   -0.0144   -0.0142    0.0087   -0.0010    0.0122
           8   -0.0096   -0.0076   -0.0184   -0.0105   -0.0132    0.0054    0.0051    0.0096
           9    0.0072   -0.0139   -0.0028    0.0042    0.0067    0.0116   -0.0142   -0.0095
          10   -0.0087   -0.0150   -0.0009   -0.0146   -0.0152    0.0087   -0.0024    0.0150
          11    0.0060    0.0206   -0.0178    0.0070    0.0052   -0.0045    0.0011   -0.0096
          12   -0.0115    0.0042   -0.0041   -0.0144   -0.0180   -0.0022   -0.0193   -0.0171
          13    0.0009   -0.0362   -0.0011   -0.0040    0.0011   -0.0032    0.0279   -0.0293
          14   -0.0020   -0.0156    0.0198   -0.0033   -0.0022    0.0031    0.0001    0.0095
          15    0.0085   -0.0213   -0.0223    0.0065    0.0104    0.0061    0.0048   -0.0308
          16   -0.0192    0.0406    0.0532    0.0047    0.0069   -0.0222   -0.0002   -0.0257
          17   -0.0031   -0.0129    0.0198   -0.0035   -0.0027    0.0028   -0.0005    0.0107
          18   -0.0130    0.0283   -0.0453    0.0018    0.0030    0.0118    0.0027    0.0377
          19    0.0162    0.0051   -0.0327    0.0251    0.0536    0.0017    0.0059   -0.0035
          20    0.0044   -0.0096    0.0309    0.0027    0.0015   -0.0052    0.0316    0.0237
          21    0.0021   -0.0148    0.0286    0.0033    0.0145   -0.0089    0.0260    0.0019
          22   -0.0320   -0.0155   -0.0067   -0.0229   -0.0010    0.0022   -0.0145    0.0265
          23    0.0087    0.0090   -0.0024    0.0090    0.0088    0.0010   -0.0309   -0.0244
          24   -0.0223   -0.0017    0.0004   -0.0177   -0.0088   -0.0031   -0.0436   -0.0218
          25    0.0380    0.0067   -0.0139    0.0189   -0.0525    0.0090   -0.0125    0.0136
          26   -0.0002    0.0048    0.0009    0.0036    0.0154   -0.0002   -0.0284   -0.0213
          27    0.0111   -0.0064    0.0224    0.0007   -0.0332   -0.0021   -0.0174   -0.0136
          28   -0.0235   -0.0125    0.0016   -0.0305   -0.0347    0.0111   -0.0141    0.0247
          29   -0.0244   -0.0186   -0.0424   -0.0268   -0.0346    0.0048    0.0102   -0.0098
          30    0.0088   -0.0195   -0.0140    0.0060    0.0088    0.0094   -0.0048   -0.0238
          31   -0.0023   -0.0326   -0.0020   -0.0121   -0.0140    0.0191    0.0034    0.0186
          32    0.0138    0.0461   -0.0222    0.0141    0.0079   -0.0195    0.0435   -0.0084
          33   -0.0180    0.0027   -0.0014   -0.0182   -0.0188   -0.0016   -0.0394   -0.0196
          34    0.0071   -0.0579   -0.0160   -0.0057    0.0002   -0.0008    0.0371   -0.0372
          35   -0.0144    0.0314    0.0568    0.0027    0.0026   -0.0077   -0.0172    0.0158
          36    0.0288   -0.0754   -0.0347    0.0141    0.0232   -0.0100    0.0388   -0.0905
          37    0.0185   -0.0887   -0.0285   -0.0002    0.0089   -0.0129    0.0622   -0.0743
          38    0.0176   -0.0708    0.0154   -0.0033    0.0007    0.0072    0.0118   -0.0254
          39    0.0059   -0.0122   -0.0086    0.0044    0.0071    0.0128   -0.0098   -0.0182
          40   -0.0048    0.0226    0.0335    0.0156    0.0066   -0.2451   -0.0575    0.0201
          41    0.0045   -0.0202    0.0489    0.0025    0.0033   -0.0143   -0.0101   -0.0330
          42   -0.0093    0.0225   -0.0694    0.0045   -0.0000   -0.0938   -0.0219    0.0826
          43   -0.0258    0.0644    0.0703    0.0067    0.0084   -0.0130   -0.0050   -0.0286
          44    0.0079   -0.0605   -0.0160   -0.0103   -0.0065    0.0256    0.0215    0.0115
          45   -0.0416    0.0862   -0.0116   -0.0089    0.0036    0.2539    0.0565    0.0081
          46   -0.0427    0.0968    0.0994   -0.0007    0.0102    0.1743    0.0378   -0.0679
          47   -0.0228    0.0435    0.0265   -0.0028   -0.0048   -0.0031   -0.0130    0.0549
          48   -0.0060    0.0154   -0.0727    0.0056   -0.0001   -0.1197   -0.0275    0.0845
          49   -0.0852   -0.0310   -0.0379    0.2003    0.0360   -0.0018    0.0410    0.0023
          50    0.0184   -0.0146    0.0498   -0.0197    0.0035   -0.0089    0.0703    0.0532
          51   -0.0452   -0.0222    0.0091    0.0833    0.0067   -0.0066    0.0018   -0.0236
          52    0.0473    0.0204   -0.0436   -0.0538    0.1433   -0.0023    0.0063   -0.0198
          53    0.0773    0.0135    0.0364   -0.1399    0.0740   -0.0089    0.0409    0.0275
          54    0.0737   -0.0004    0.0538   -0.1100   -0.0015   -0.0090    0.0404    0.0321
          55    0.0734    0.0264   -0.0328   -0.0796    0.0836    0.0025   -0.0118   -0.0107
          56   -0.0795   -0.0396    0.0311    0.1686   -0.0863   -0.0021    0.0358    0.0310
          57   -0.0273   -0.0284    0.0286    0.0327    0.0846   -0.0177    0.0779    0.0125
          58   -0.1100   -0.0356   -0.0110   -0.0552    0.0856   -0.0074   -0.0276    0.0352
          59    0.0190    0.0032    0.0109    0.0133   -0.0006    0.0030   -0.0328   -0.0257
          60   -0.0583   -0.0036   -0.0124   -0.0327    0.0292   -0.0086   -0.0442   -0.0166
          61    0.1165    0.0280   -0.0087    0.0464   -0.1503    0.0177   -0.0229    0.0002
          62   -0.0112    0.0114   -0.0161    0.0004    0.0287   -0.0005   -0.0572   -0.0396
          63    0.0477   -0.0047    0.0390    0.0130   -0.0784    0.0011    0.0052   -0.0017


   Root No.       9        10        11        12        13        14        15        16

                 9 A      10 A      11 A      12 A      13 A      14 A      15 A      16 A   

                 332.6     386.4     436.7     474.6     572.6     768.8     819.7     829.2
  
           1   -0.0221   -0.0059    0.0340   -0.0054   -0.0020   -0.0381   -0.0404    0.0659
           2   -0.0102    0.0154   -0.0100    0.0496    0.0019   -0.0437    0.0198    0.0062
           3    0.0210   -0.0085   -0.0227    0.0391    0.0136   -0.0065    0.0030   -0.0003
           4   -0.0237   -0.0077    0.0317   -0.0082   -0.0035   -0.0305    0.0600   -0.0493
           5    0.0102    0.0022    0.0435    0.0300    0.0106    0.0482   -0.0105   -0.0203
           6    0.0108   -0.0053   -0.0429   -0.0128   -0.0244   -0.0050   -0.0007    0.0024
           7   -0.0311    0.0060   -0.0317    0.0131    0.0017    0.0338    0.0009   -0.0030
           8   -0.0115    0.0088   -0.0035    0.0384    0.0025   -0.0328    0.0027    0.0191
           9   -0.0203    0.0456    0.0090   -0.0249   -0.0245    0.0345   -0.0043   -0.0068
          10   -0.0265    0.0112   -0.0287    0.0098   -0.0064    0.0165   -0.0253   -0.0196
          11    0.0115    0.0042    0.0299    0.0231    0.0137    0.0350   -0.0156    0.0043
          12   -0.0181    0.0162   -0.0027   -0.0125    0.0630    0.0107   -0.0093   -0.0072
          13    0.0170   -0.0395   -0.0121    0.0081    0.0248    0.0377    0.0232    0.0268
          14   -0.0151   -0.0196    0.0184   -0.0362   -0.0051   -0.0001    0.0002   -0.0004
          15    0.0088    0.0359    0.0202   -0.0072   -0.0267   -0.0134    0.0090    0.0109
          16    0.0074    0.0087   -0.0025    0.0128    0.0048    0.0053    0.0057    0.0080
          17   -0.0182   -0.0225    0.0240   -0.0490   -0.0086    0.0007   -0.0033   -0.0011
          18   -0.0034   -0.0265    0.0056   -0.0200   -0.0006   -0.0041    0.0011    0.0017
          19   -0.0054    0.0091   -0.0193   -0.0157    0.0074   -0.0038    0.0066    0.0041
          20    0.0236    0.0307   -0.0197   -0.0335    0.0201   -0.0054    0.0001   -0.0001
          21   -0.0207   -0.0110    0.0263    0.0263   -0.0090    0.0071   -0.0004    0.0006
          22    0.0563    0.0079    0.0192    0.0022   -0.0306    0.0107   -0.0211   -0.0160
          23    0.0035   -0.0125   -0.0459   -0.0116   -0.0122   -0.0020    0.0022    0.0021
          24    0.0178   -0.0054   -0.0017   -0.0175    0.0397   -0.0180    0.0091    0.0079
          25    0.0400    0.0129    0.0040   -0.0173    0.0005   -0.0011    0.0091    0.0055
          26    0.0060   -0.0151   -0.0483   -0.0079   -0.0271    0.0004   -0.0047   -0.0026
          27   -0.0032   -0.0305    0.0115    0.0276   -0.0342    0.0036    0.0007    0.0004
          28   -0.0586    0.0152   -0.0653    0.0201    0.0387    0.0550   -0.0121   -0.0573
          29   -0.0318    0.0392   -0.0184    0.0438   -0.0018   -0.0241    0.0337   -0.0094
          30   -0.0123    0.0515    0.0212   -0.0269   -0.0450    0.0263    0.0128    0.0097
          31   -0.0626    0.0353   -0.0555    0.0144   -0.0338    0.0565   -0.0723   -0.0308
          32    0.0256   -0.0090    0.0560    0.0322   -0.0032    0.0505    0.0258   -0.0105
          33   -0.0031    0.0080    0.0020   -0.0181    0.0837   -0.0155   -0.0000    0.0042
          34    0.0251   -0.0501   -0.0134    0.0153    0.0353    0.0060   -0.0123   -0.0138
          35   -0.0244   -0.0009    0.0295   -0.0574   -0.0237    0.0477    0.0628    0.0723
          36    0.0648   -0.0116    0.0483   -0.0132    0.0124   -0.1484   -0.1012   -0.1159
          37    0.0658   -0.0880    0.0033    0.0180    0.0666   -0.0882   -0.0829   -0.0913
          38   -0.0057   -0.0205    0.0305   -0.0538   -0.0041   -0.0392   -0.0735   -0.0942
          39   -0.0141    0.0608    0.0157   -0.0186   -0.0475    0.0398    0.0378    0.0382
          40   -0.0121    0.0304   -0.0011    0.0168   -0.0060   -0.0308   -0.0301   -0.0362
          41   -0.0125    0.0473    0.0371   -0.0273   -0.0450   -0.0632   -0.0066   -0.0012
          42   -0.0163   -0.0502    0.0003   -0.0298    0.0116    0.0094   -0.0157   -0.0212
          43    0.0064    0.0263    0.0003    0.0183   -0.0034   -0.0347   -0.0302   -0.0362
          44   -0.0125   -0.0701    0.0170   -0.0626    0.0141    0.0942    0.0755    0.0957
          45    0.0110   -0.0547    0.0043   -0.0287    0.0132   -0.0017   -0.0218   -0.0280
          46    0.0211    0.0217    0.0021    0.0179   -0.0016   -0.0385   -0.0315   -0.0370
          47   -0.0312   -0.0466    0.0206   -0.0630    0.0028   -0.0294   -0.0819   -0.1010
          48   -0.0179   -0.0461    0.0012   -0.0298    0.0088    0.0106   -0.0107   -0.0148
          49   -0.0316    0.0246   -0.0223   -0.0229    0.0409   -0.0093   -0.0083   -0.0060
          50    0.0359    0.0649    0.0026   -0.0553    0.0684   -0.0171    0.0178    0.0113
          51   -0.0408   -0.0370    0.0045    0.0434   -0.0410    0.0157   -0.0215   -0.0130
          52   -0.0392   -0.0012   -0.0432   -0.0077    0.0065   -0.0021   -0.0326   -0.0222
          53    0.0174    0.0380   -0.0213   -0.0379    0.0367   -0.0086   -0.0112   -0.0077
          54    0.0186    0.0155    0.0593    0.0087    0.0183    0.0001    0.0375    0.0260
          55   -0.0017   -0.0020   -0.0248   -0.0093   -0.0110   -0.0003    0.0021    0.0009
          56    0.0370    0.0377   -0.0104   -0.0408    0.0248   -0.0089    0.0230    0.0152
          57   -0.0599    0.0141    0.0249    0.0173    0.0475    0.0008   -0.0314   -0.0196
          58    0.1174    0.0036    0.0541   -0.0024   -0.0981    0.0059    0.0449    0.0195
          59   -0.0072   -0.0292   -0.0689   -0.0037   -0.0518   -0.0101   -0.0055   -0.0120
          60    0.0484    0.0081    0.0307   -0.0254    0.0504   -0.0120    0.0383    0.0328
          61    0.0097    0.0061   -0.0298   -0.0183    0.0289   -0.0098   -0.0367   -0.0236
          62    0.0117   -0.0203   -0.0671   -0.0221   -0.0167   -0.0137    0.0130    0.0106
          63   -0.0181   -0.0270    0.0167    0.0386   -0.0310    0.0125   -0.0299   -0.0206


   Root No.      17        18        19        20        21        22        23        24

                17 A      18 A      19 A      20 A      21 A      22 A      23 A      24 A   

                 853.8     916.3     946.5     963.8     967.7     981.8    1018.9    1027.5
  
           1   -0.0036    0.0035   -0.0035    0.0002    0.0008    0.0083    0.0030   -0.0007
           2    0.0027    0.0006   -0.0278   -0.0012   -0.0182   -0.0209   -0.0080    0.0047
           3    0.0003   -0.0001    0.0046   -0.0003    0.0025    0.0056    0.0032   -0.0014
           4    0.0060   -0.0010    0.0004    0.0013   -0.0054    0.0052   -0.0017    0.0002
           5   -0.0020   -0.0024    0.0205    0.0186   -0.0122    0.0185   -0.0150   -0.0034
           6   -0.0006    0.0004    0.0016    0.0058   -0.0024    0.0047   -0.0029   -0.0005
           7   -0.0097    0.0079   -0.0034   -0.0067    0.0239   -0.0081   -0.0054    0.0049
           8   -0.0012    0.0037    0.0102    0.0034    0.0076    0.0246    0.0009   -0.0035
           9   -0.0104    0.0114   -0.0304    0.0042   -0.0058    0.0056    0.0023    0.0030
          10    0.0031   -0.0126    0.0100    0.0023   -0.0154   -0.0267    0.0049   -0.0029
          11   -0.0028    0.0006   -0.0101   -0.0112    0.0086   -0.0205    0.0064    0.0047
          12   -0.0030   -0.0047    0.0062   -0.0188   -0.0092   -0.0124    0.0065    0.0011
          13    0.0043    0.0036   -0.0090    0.0004    0.0076    0.0069   -0.0224   -0.0026
          14    0.0008   -0.0003   -0.0008    0.0003   -0.0015   -0.0019   -0.0026    0.0007
          15    0.0117   -0.0073    0.0121   -0.0027    0.0065   -0.0010    0.0008   -0.0046
          16    0.0016   -0.0007   -0.0035    0.0018   -0.0134    0.0034    0.0186    0.0004
          17    0.0022   -0.0032    0.0125   -0.0030    0.0082   -0.0044   -0.0024    0.0006
          18    0.0049   -0.0068    0.0248   -0.0048    0.0075   -0.0166   -0.0085    0.0061
          19   -0.0167   -0.0065    0.0046   -0.0069   -0.0044   -0.0039   -0.0017   -0.0379
          20    0.0029   -0.0013    0.0008   -0.0360   -0.0108    0.0158   -0.0078    0.0070
          21   -0.0081   -0.0033    0.0009   -0.0038   -0.0006   -0.0059   -0.0003   -0.0160
          22    0.0346   -0.0315   -0.0101    0.0023    0.0034    0.0050    0.0044   -0.0247
          23   -0.0047    0.0047    0.0007    0.0140    0.0042   -0.0072    0.0028    0.0027
          24    0.0106   -0.0059   -0.0066    0.0158    0.0055    0.0083   -0.0093   -0.0065
          25   -0.0190   -0.0131   -0.0031    0.0048    0.0030    0.0047    0.0013    0.0539
          26    0.0035    0.0003    0.0001   -0.0001    0.0010   -0.0039    0.0044   -0.0078
          27   -0.0077   -0.0073   -0.0009   -0.0037   -0.0003    0.0045    0.0016    0.0234
          28   -0.0355    0.0150    0.0934   -0.0308    0.0648    0.0331    0.1007    0.0185
          29   -0.0162    0.0286    0.0640   -0.0009    0.0953    0.1988    0.1242   -0.0437
          30   -0.0021    0.0163   -0.0600    0.0147    0.0054    0.0487   -0.0056   -0.0196
          31   -0.0489    0.0113    0.0653    0.0764   -0.1002    0.0035   -0.0256    0.0441
          32    0.0100    0.0082   -0.0904   -0.1118    0.1280   -0.1253    0.1208    0.0106
          33    0.0195   -0.0195    0.0071   -0.0197   -0.0095    0.0117   -0.0220   -0.0263
          34   -0.0150    0.0140   -0.0168   -0.0025    0.0339    0.0121   -0.0465   -0.0019
          35    0.0416   -0.0290    0.0265    0.0061   -0.0807   -0.0238    0.0848    0.0031
          36   -0.0226   -0.0160    0.0309   -0.0044   -0.0577   -0.0335    0.1149    0.0106
          37   -0.0360    0.0040    0.0172   -0.0014   -0.0209   -0.0147    0.0393    0.0170
          38   -0.0415    0.0294   -0.0776    0.0000    0.0342    0.0199   -0.0305   -0.0126
          39    0.0168    0.0041   -0.0327   -0.0019    0.0351    0.0193   -0.0428   -0.0205
          40   -0.0151    0.0057   -0.0049   -0.0038    0.0273    0.0002   -0.0310   -0.0006
          41    0.0249   -0.0388    0.1602   -0.0335    0.0907   -0.0834   -0.0890    0.0280
          42   -0.0149    0.0140   -0.0498    0.0075   -0.0131    0.0209    0.0100   -0.0082
          43   -0.0139    0.0064   -0.0026   -0.0026    0.0257    0.0000   -0.0295   -0.0009
          44    0.0341   -0.0155   -0.0031    0.0088   -0.0847    0.0104    0.1130    0.0010
          45   -0.0158    0.0133   -0.0448    0.0065   -0.0086    0.0201    0.0087   -0.0084
          46   -0.0130    0.0051    0.0046   -0.0035    0.0278   -0.0036   -0.0306    0.0003
          47   -0.0530    0.0427   -0.1155    0.0132    0.0260    0.0622   -0.0258   -0.0294
          48   -0.0107    0.0102   -0.0386    0.0058   -0.0114    0.0173    0.0124   -0.0071
          49    0.0427    0.0221   -0.0072    0.0723    0.0222   -0.0095    0.0124    0.0412
          50   -0.0095    0.0087   -0.0016    0.1146    0.0317   -0.0344    0.0187   -0.0135
          51    0.0232   -0.0024   -0.0011   -0.1132   -0.0299    0.0373   -0.0196    0.0297
          52    0.0844    0.0248   -0.0107   -0.0526   -0.0115    0.0471   -0.0105    0.1113
          53    0.0445    0.0166   -0.0077   -0.0007    0.0023    0.0203   -0.0022    0.0714
          54   -0.0868   -0.0195    0.0092    0.1208    0.0314   -0.0737    0.0222   -0.1291
          55   -0.0162   -0.0122    0.0062   -0.0634   -0.0209    0.0152   -0.0116   -0.0346
          56   -0.0532   -0.0182    0.0101   -0.0156   -0.0090   -0.0090   -0.0050   -0.0796
          57    0.1066    0.0517   -0.0239    0.1494    0.0528   -0.0200    0.0278    0.1491
          58   -0.0842    0.2578    0.0552   -0.0081   -0.0277   -0.0420    0.0145    0.0546
          59    0.0158   -0.0355   -0.0018    0.0619    0.0144   -0.0056    0.0207   -0.0214
          60   -0.0486    0.1297    0.0180   -0.0292   -0.0134   -0.0102   -0.0208    0.0421
          61    0.1343    0.2353    0.0223    0.0213   -0.0043   -0.0334    0.0027   -0.1332
          62   -0.0190   -0.0221   -0.0074    0.0709    0.0281   -0.0222    0.0176    0.0139
          63    0.0643    0.0978    0.0139   -0.0572   -0.0251    0.0059   -0.0086   -0.0596


   Root No.      25        26        27        28        29        30        31        32

                25 A      26 A      27 A      28 A      29 A      30 A      31 A      32 A   

                1116.3    1121.8    1129.0    1153.0    1155.5    1170.1    1188.0    1221.5
  
           1   -0.0015    0.0023    0.0019   -0.0016   -0.0039    0.0040    0.0030   -0.0093
           2   -0.0046   -0.0010   -0.0039    0.0040   -0.0110    0.0038    0.0007   -0.0292
           3    0.0033   -0.0017   -0.0025   -0.0002    0.0034   -0.0016   -0.0017   -0.0012
           4   -0.0016   -0.0036    0.0015    0.0004    0.0015   -0.0036   -0.0052   -0.0060
           5   -0.0003    0.0078   -0.0026   -0.0037   -0.0022    0.0166    0.0198    0.0214
           6   -0.0020    0.0012   -0.0001    0.0027   -0.0031   -0.0027   -0.0010    0.0002
           7   -0.0170    0.0082    0.0044    0.0170   -0.0210    0.0009    0.0045    0.0534
           8   -0.0034    0.0006    0.0043   -0.0065    0.0037    0.0051    0.0075    0.0433
           9   -0.0288   -0.0131    0.0094   -0.0168   -0.0409   -0.0053    0.0130   -0.0094
          10    0.0304   -0.0009   -0.0146   -0.0120    0.0310   -0.0088    0.0052    0.0304
          11   -0.0019   -0.0059    0.0024    0.0147   -0.0028   -0.0268   -0.0309   -0.0285
          12    0.0246    0.0071   -0.0183   -0.0212    0.0077   -0.0068    0.0025   -0.0296
          13    0.0256   -0.0052    0.0164   -0.0048   -0.0066   -0.0003   -0.0008   -0.0231
          14   -0.0043    0.0283    0.0397   -0.0168    0.0029   -0.0055    0.0015    0.0030
          15    0.0289    0.0091   -0.0096    0.0328    0.0136    0.0197   -0.0021    0.0061
          16   -0.0276    0.0075   -0.0212   -0.0001    0.0121    0.0005   -0.0007    0.0049
          17    0.0028   -0.0313   -0.0402    0.0147   -0.0061    0.0061    0.0012   -0.0030
          18   -0.0209    0.0072    0.0060   -0.0146    0.0028   -0.0086   -0.0013   -0.0055
          19   -0.0009    0.0011   -0.0012   -0.0071   -0.0047    0.0110   -0.0099    0.0026
          20   -0.0033   -0.0039    0.0045   -0.0006    0.0042    0.0069    0.0133    0.0005
          21   -0.0047   -0.0070    0.0078    0.0163    0.0111   -0.0209    0.0248   -0.0060
          22   -0.0077   -0.0024    0.0035    0.0029   -0.0075   -0.0079   -0.0072   -0.0173
          23    0.0013    0.0009   -0.0009    0.0087   -0.0004   -0.0153   -0.0190    0.0071
          24   -0.0197   -0.0200    0.0228    0.0044    0.0099    0.0285   -0.0017    0.0199
          25    0.0057    0.0015   -0.0024    0.0066    0.0054   -0.0146    0.0045    0.0011
          26    0.0025    0.0027   -0.0033    0.0023   -0.0034   -0.0115   -0.0170   -0.0003
          27    0.0071    0.0070   -0.0085   -0.0188   -0.0079    0.0240   -0.0104    0.0028
          28   -0.0495    0.0821    0.0463    0.1241   -0.0916    0.0900    0.0090   -0.1588
          29    0.0403   -0.0527    0.0035   -0.0729    0.0542   -0.0893   -0.0452   -0.0695
          30    0.0062   -0.0718   -0.0139   -0.0974    0.0130   -0.0876   -0.0078    0.0605
          31   -0.0282   -0.1288    0.0923    0.0032    0.1253    0.0655   -0.0970   -0.1256
          32    0.0128   -0.0717    0.0456   -0.0699    0.0866    0.1012    0.0253    0.0533
          33    0.0506    0.1007   -0.0927    0.0016   -0.0782   -0.0970    0.0349    0.0236
          34   -0.0282   -0.0100   -0.0406   -0.0122    0.0087    0.0040    0.0024   -0.0299
          35    0.1320    0.0437    0.2020    0.0039   -0.0503   -0.0224   -0.0058    0.0355
          36    0.0093    0.0159    0.0273    0.0382   -0.0308   -0.0058    0.0046    0.0914
          37   -0.0463   -0.0509    0.0204   -0.0390   -0.0756   -0.0221    0.0196    0.0147
          38   -0.0955    0.1839    0.0125   -0.0225    0.1576   -0.0135   -0.0421   -0.0362
          39    0.0352    0.0928   -0.0230    0.0514    0.1070    0.0296   -0.0285   -0.0279
          40    0.0253   -0.0077    0.0107    0.0041   -0.0118    0.0043   -0.0026   -0.0043
          41   -0.0243   -0.0525   -0.0123   -0.0348   -0.0256   -0.0254   -0.0082   -0.0307
          42    0.0206    0.0107    0.0071    0.0141    0.0016    0.0095    0.0013    0.0037
          43    0.0176    0.0004    0.0232   -0.0068   -0.0076   -0.0019    0.0016   -0.0046
          44   -0.0965   -0.0167   -0.1511    0.0382    0.0413    0.0164   -0.0050    0.0208
          45    0.0279    0.0037    0.0004    0.0196    0.0016    0.0107   -0.0024    0.0060
          46    0.0186   -0.0114    0.0122   -0.0021   -0.0119   -0.0010    0.0023   -0.0078
          47    0.1502   -0.0721   -0.0360    0.0853   -0.0281    0.0409    0.0030   -0.0010
          48    0.0133    0.0036   -0.0130    0.0180    0.0091    0.0085   -0.0024    0.0036
          49    0.0118    0.0150   -0.0170   -0.0286   -0.0203    0.0336   -0.0411    0.0063
          50    0.0133    0.0189   -0.0215   -0.0419   -0.0283    0.0527   -0.0530    0.0083
          51   -0.0165   -0.0244    0.0277    0.0504    0.0374   -0.0600    0.0762   -0.0112
          52    0.0032    0.0017   -0.0021   -0.0196   -0.0018    0.0377    0.0115    0.0035
          53    0.0029    0.0020   -0.0022   -0.0124   -0.0022    0.0233   -0.0003    0.0060
          54   -0.0006    0.0016   -0.0016    0.0197   -0.0028   -0.0414   -0.0308    0.0009
          55   -0.0052   -0.0044    0.0049   -0.0042    0.0026    0.0127    0.0150   -0.0020
          56   -0.0049   -0.0023    0.0027   -0.0129   -0.0035    0.0282   -0.0019    0.0060
          57    0.0134    0.0090   -0.0102    0.0240    0.0005   -0.0565   -0.0269   -0.0002
          58    0.0573    0.0434   -0.0562   -0.0563   -0.0076    0.0175    0.0613   -0.0394
          59    0.0325    0.0404   -0.0462   -0.0912   -0.0311    0.0824    0.1001   -0.0871
          60   -0.0243   -0.0388    0.0416    0.0702    0.0363   -0.0466   -0.0851    0.0947
          61   -0.0276   -0.0260    0.0310    0.0268    0.0269   -0.0159    0.1056   -0.0282
          62   -0.0089   -0.0257    0.0293    0.0301    0.0625   -0.0305    0.2258   -0.0434
          63    0.0051    0.0210   -0.0241   -0.0351   -0.0559    0.0398   -0.1830    0.0301


   Root No.      33        34        35        36        37        38        39        40

                33 A      34 A      35 A      36 A      37 A      38 A      39 A      40 A   

                1233.1    1243.4    1275.4    1348.2    1384.3    1393.1    1394.6    1406.3
  
           1   -0.0095   -0.0028   -0.0067   -0.0015   -0.0022    0.0018   -0.0000   -0.0003
           2   -0.0365   -0.0048   -0.0071    0.0043   -0.0053    0.0019   -0.0000   -0.0011
           3   -0.0031    0.0000    0.0018    0.0003   -0.0006    0.0001    0.0000   -0.0001
           4    0.0141    0.0045    0.0038   -0.0021    0.0016   -0.0002    0.0000    0.0004
           5   -0.0251   -0.0084   -0.0160   -0.0056   -0.0054    0.0039   -0.0001   -0.0013
           6   -0.0012   -0.0011    0.0007    0.0015    0.0010   -0.0007    0.0000    0.0002
           7   -0.0076    0.0009    0.0482    0.0077   -0.0142    0.0026    0.0001   -0.0046
           8    0.0697    0.0065    0.0059   -0.0312    0.0094    0.0036   -0.0002    0.0017
           9    0.0037   -0.0019   -0.0194   -0.0145    0.0070    0.0026   -0.0001    0.0025
          10   -0.0201   -0.0056   -0.0313    0.0187    0.0172   -0.0140    0.0002    0.0042
          11    0.0199    0.0170    0.0434    0.0298    0.0113   -0.0149    0.0005    0.0029
          12    0.0300    0.0070    0.0038   -0.0223   -0.0120    0.0128   -0.0004   -0.0029
          13   -0.0061   -0.0006   -0.0050   -0.0134   -0.0032    0.0117   -0.0003    0.0022
          14    0.0307    0.0023   -0.0231    0.0382   -0.0047   -0.0039    0.0001    0.0034
          15    0.0196    0.0017   -0.0055    0.0189    0.0088   -0.0214    0.0005   -0.0057
          16    0.0052    0.0005   -0.0006    0.0038   -0.0012    0.0001   -0.0001   -0.0300
          17   -0.0085   -0.0006    0.0010    0.0132   -0.0187    0.0179   -0.0003   -0.0043
          18   -0.0119   -0.0008    0.0026   -0.0052    0.0013   -0.0007   -0.0000   -0.0188
          19   -0.0025    0.0071   -0.0010   -0.0042   -0.0103   -0.0011   -0.0386   -0.0018
          20   -0.0033   -0.0025    0.0031   -0.0037   -0.0261   -0.0189    0.0063    0.0003
          21    0.0046   -0.0166    0.0029    0.0082    0.0147   -0.0048   -0.0174    0.0045
          22    0.0128    0.0107   -0.0020   -0.0115   -0.0041    0.0063   -0.0005   -0.0009
          23    0.0042   -0.0285   -0.0111   -0.0013    0.0074    0.0026   -0.0001    0.0008
          24   -0.0194   -0.0316    0.0109    0.0196    0.0074   -0.0096    0.0002    0.0018
          25    0.0042   -0.0253   -0.0054   -0.0016    0.0045    0.0032   -0.0008    0.0003
          26    0.0066    0.0117   -0.0177   -0.0163   -0.0057    0.0084   -0.0002   -0.0016
          27   -0.0095    0.0591    0.0032    0.0000   -0.0107   -0.0052    0.0000   -0.0013
          28   -0.0222   -0.0111   -0.0908   -0.0022    0.0202   -0.0059   -0.0000    0.0023
          29   -0.1202   -0.0048    0.0027    0.0545   -0.0094   -0.0065    0.0003    0.0052
          30   -0.0630   -0.0005    0.0508    0.0241   -0.0184    0.0029    0.0002   -0.0004
          31    0.0704    0.0097    0.0675   -0.0135   -0.0242    0.0170   -0.0002   -0.0029
          32    0.0027   -0.0421   -0.0693   -0.0409   -0.0086    0.0161   -0.0005   -0.0026
          33   -0.0095    0.0210   -0.0023    0.0229    0.0184   -0.0164    0.0002    0.0028
          34    0.0334    0.0021   -0.0375    0.0292   -0.0181    0.0225   -0.0006    0.0078
          35   -0.0917   -0.0058    0.0827   -0.0872    0.0341   -0.0300    0.0007   -0.0146
          36   -0.0598   -0.0027    0.0872   -0.0023   -0.0969    0.1320   -0.0031    0.0242
          37    0.0241    0.0002   -0.0240   -0.0068    0.0852   -0.1227    0.0030   -0.0311
          38   -0.0860   -0.0047    0.0537   -0.0887    0.0416   -0.0346    0.0007   -0.0115
          39   -0.0390   -0.0011    0.0334   -0.0286   -0.0323    0.0546   -0.0014    0.0098
          40   -0.0030   -0.0022    0.0028   -0.0223    0.0170   -0.0087    0.0010    0.3212
          41   -0.0895   -0.0084    0.0447   -0.1100    0.0492   -0.0240    0.0003    0.0315
          42    0.0195    0.0012   -0.0131    0.0332   -0.0176    0.0120    0.0002    0.1469
          43    0.0110    0.0008   -0.0129    0.0352   -0.0302    0.0271   -0.0006   -0.0413
          44   -0.0240   -0.0019    0.0355   -0.0819    0.0669   -0.0587    0.0015    0.1198
          45    0.0046   -0.0011    0.0027    0.0053   -0.0137    0.0229   -0.0000    0.2119
          46   -0.0058    0.0002    0.0022   -0.0276    0.0318   -0.0338    0.0011    0.0891
          47   -0.0176   -0.0006    0.0301   -0.0844    0.0642   -0.0576    0.0008   -0.1226
          48   -0.0056   -0.0004    0.0105   -0.0182    0.0083   -0.0042   -0.0004   -0.1207
          49   -0.0098    0.0601    0.0057    0.0116    0.0016   -0.0192    0.3834    0.0055
          50   -0.0177    0.1042    0.0141    0.0258   -0.0034   -0.0595   -0.0448    0.0154
          51    0.0165   -0.1025   -0.0090   -0.0177    0.0046    0.0436    0.1715   -0.0105
          52   -0.0195    0.0613    0.0269    0.0461    0.1275    0.0782   -0.0350   -0.0005
          53   -0.0132    0.0422    0.0091    0.0243    0.1206    0.1131    0.1186   -0.0109
          54    0.0182   -0.0423   -0.0343   -0.0322    0.0185    0.0767    0.2179   -0.0165
          55   -0.0038    0.0012    0.0101    0.0000   -0.0673   -0.0790    0.1268    0.0097
          56   -0.0151    0.0494    0.0111    0.0301    0.1432    0.1285   -0.1483   -0.0114
          57    0.0250   -0.0691   -0.0413   -0.0536   -0.0748   -0.0030   -0.1795   -0.0107
          58    0.0221   -0.0572    0.0461    0.0132    0.0034   -0.0026    0.0012    0.0002
          59    0.0422   -0.1813    0.1241    0.0430    0.0156   -0.0098   -0.0000    0.0017
          60   -0.0488    0.0746   -0.0891   -0.0091    0.0037   -0.0026    0.0007    0.0016
          61   -0.0015    0.0530    0.0155    0.0004   -0.0028   -0.0016   -0.0023    0.0030
          62   -0.0144    0.1938    0.0117   -0.0082   -0.0205   -0.0055    0.0007    0.0018
          63    0.0058   -0.0641   -0.0162   -0.0075   -0.0025    0.0045   -0.0012   -0.0032


   Root No.      41        42        43        44        45        46        47        48

                41 A      42 A      43 A      44 A      45 A      46 A      47 A      48 A   

                1409.3    1412.4    1427.2    1442.2    1885.1    2887.8    2902.5    2957.5
  
           1   -0.0005    0.0022   -0.0005    0.0061   -0.0012    0.0005    0.0002   -0.0001
           2   -0.0015    0.0076   -0.0019    0.0127   -0.0014    0.0007   -0.0002   -0.0000
           3   -0.0004    0.0011    0.0006    0.0011   -0.0003   -0.0003    0.0003    0.0000
           4    0.0006   -0.0029    0.0008   -0.0050    0.0019   -0.0001    0.0005    0.0001
           5   -0.0016    0.0069    0.0005    0.0147    0.0014    0.0005   -0.0004   -0.0000
           6    0.0003   -0.0012    0.0000   -0.0017   -0.0024    0.0004   -0.0000   -0.0000
           7   -0.0058    0.0253   -0.0029    0.0322    0.0014    0.0066   -0.0244   -0.0020
           8    0.0034   -0.0208    0.0131   -0.0270    0.0002   -0.0059    0.0182    0.0013
           9    0.0041   -0.0186    0.0039   -0.0211    0.0003    0.0132   -0.0456   -0.0034
          10    0.0050   -0.0192   -0.0028   -0.0401    0.0127   -0.0256   -0.0073    0.0002
          11    0.0030   -0.0104   -0.0075   -0.0409    0.0211   -0.0198   -0.0047   -0.0001
          12   -0.0034    0.0132    0.0044    0.0350   -0.0212   -0.0481   -0.0129   -0.0003
          13    0.0013   -0.0174    0.0011   -0.0117   -0.0005   -0.0013    0.0042   -0.0479
          14    0.0027    0.0033   -0.0442    0.0263    0.0001    0.0002   -0.0001   -0.0011
          15   -0.0011    0.0273    0.0015    0.0156    0.0002   -0.0008    0.0022   -0.0269
          16    0.0198    0.0002   -0.0018    0.0010    0.0001   -0.0002   -0.0004    0.0027
          17   -0.0107    0.0050    0.0490   -0.0182    0.0000   -0.0000   -0.0001    0.0001
          18   -0.0292   -0.0072   -0.0018   -0.0008    0.0000    0.0001   -0.0003    0.0014
          19   -0.0030    0.0143   -0.0106   -0.0222   -0.0154   -0.0000    0.0000    0.0000
          20   -0.0006    0.0053   -0.0082   -0.0213   -0.0227    0.0000   -0.0000   -0.0000
          21    0.0066   -0.0303    0.0210    0.0426    0.0281   -0.0000   -0.0000   -0.0000
          22   -0.0010    0.0030    0.0033    0.0164   -0.0579   -0.0002   -0.0004   -0.0000
          23    0.0017   -0.0099    0.0086    0.0189   -0.2295    0.0009    0.0002   -0.0000
          24    0.0018   -0.0070   -0.0043   -0.0244    0.0599    0.0007    0.0002    0.0000
          25    0.0007   -0.0045    0.0052    0.0134    0.0590   -0.0000   -0.0000   -0.0000
          26   -0.0017    0.0059    0.0030    0.0185    0.2321   -0.0000   -0.0000    0.0000
          27   -0.0021    0.0110   -0.0105   -0.0256   -0.0644   -0.0002   -0.0001    0.0000
          28    0.0089   -0.0347    0.0004   -0.0459    0.0042   -0.0814    0.2876    0.0183
          29   -0.0048    0.0186   -0.0188    0.0202    0.0006    0.0616   -0.2072   -0.0141
          30   -0.0063    0.0288   -0.0107    0.0393   -0.0016   -0.1635    0.5481    0.0423
          31   -0.0066    0.0226   -0.0025    0.0427   -0.0059    0.3079    0.0849    0.0015
          32   -0.0020    0.0031    0.0092    0.0324   -0.0243    0.2234    0.0587    0.0003
          33    0.0049   -0.0142   -0.0019   -0.0391    0.0074    0.5757    0.1512   -0.0003
          34    0.0030   -0.0274   -0.0445    0.0086   -0.0006    0.0051   -0.0304    0.3802
          35   -0.0021    0.0302    0.0869   -0.0309    0.0001    0.0024   -0.0122    0.1460
          36   -0.0153   -0.1129   -0.0719   -0.0052    0.0006    0.0002    0.0006   -0.0356
          37    0.0106    0.1191    0.0799    0.0128    0.0001    0.0062   -0.0214    0.1943
          38   -0.0032    0.0257    0.0917   -0.0413    0.0001   -0.0053    0.0149   -0.1330
          39   -0.0096   -0.0531   -0.0029   -0.0233   -0.0003    0.0124   -0.0316    0.3582
          40   -0.0099    0.0259   -0.0107    0.0060   -0.0003   -0.0002    0.0004    0.0011
          41    0.1538   -0.0226   -0.0931    0.0163   -0.0004    0.0001   -0.0007   -0.0001
          42   -0.0931    0.0203    0.0513   -0.0113   -0.0000    0.0002   -0.0011   -0.0007
          43    0.0443    0.0077    0.0522   -0.0189    0.0001    0.0017    0.0030   -0.0238
          44   -0.0446   -0.0063   -0.1079    0.0397   -0.0002    0.0014    0.0011   -0.0054
          45    0.2810    0.0474    0.0184   -0.0053   -0.0008   -0.0002   -0.0005    0.0020
          46   -0.2789   -0.0211   -0.0343    0.0143   -0.0000   -0.0006    0.0025   -0.0124
          47   -0.0201   -0.0324   -0.1180    0.0380    0.0000    0.0004   -0.0021    0.0038
          48    0.1709   -0.0033   -0.0370    0.0098    0.0001   -0.0003    0.0025   -0.0196
          49    0.0090   -0.0404    0.0232    0.0415    0.0161   -0.0000   -0.0000   -0.0000
          50    0.0214   -0.0958    0.0549    0.0977    0.0423    0.0001    0.0001    0.0001
          51   -0.0143    0.0649   -0.0368   -0.0644   -0.0238    0.0001    0.0001    0.0001
          52    0.0024   -0.0184    0.0227    0.0494   -0.0085   -0.0001   -0.0001   -0.0000
          53   -0.0117    0.0450   -0.0140   -0.0157   -0.0143    0.0002    0.0001    0.0000
          54   -0.0213    0.0925   -0.0468   -0.0737    0.0161   -0.0002   -0.0001   -0.0000
          55    0.0119   -0.0473    0.0172    0.0199   -0.0090   -0.0001    0.0000    0.0000
          56   -0.0127    0.0478   -0.0131   -0.0122   -0.0135   -0.0001    0.0000   -0.0000
          57   -0.0169    0.0783   -0.0486   -0.0861    0.0147    0.0001   -0.0000    0.0000
          58    0.0000    0.0029   -0.0048   -0.0137    0.0611    0.0006   -0.0001   -0.0001
          59    0.0015   -0.0046   -0.0072   -0.0310   -0.0219   -0.0101   -0.0026    0.0000
          60    0.0027   -0.0134    0.0074    0.0093   -0.1378   -0.0081   -0.0017    0.0001
          61    0.0020    0.0024   -0.0023   -0.0024   -0.0590    0.0005   -0.0001    0.0002
          62   -0.0006    0.0193   -0.0141   -0.0258    0.0160    0.0009    0.0007   -0.0003
          63   -0.0030    0.0034    0.0006    0.0053    0.1335   -0.0008    0.0003   -0.0003


   Root No.      49        50        51        52        53        54        55        56

                49 A      50 A      51 A      52 A      53 A      54 A      55 A      56 A   

                3026.9    3038.1    3043.1    3069.9    3070.0    3076.3    3084.6    3169.1
  
           1    0.0000   -0.0001    0.0000   -0.0000    0.0000    0.0000   -0.0000    0.0000
           2    0.0000    0.0001    0.0000    0.0000   -0.0000   -0.0000   -0.0000    0.0000
           3   -0.0000    0.0002   -0.0000    0.0000    0.0000   -0.0000    0.0000   -0.0000
           4   -0.0000    0.0000    0.0002    0.0000    0.0000   -0.0000    0.0000    0.0000
           5    0.0000    0.0000    0.0003    0.0000    0.0000   -0.0000   -0.0000    0.0000
           6    0.0000    0.0000   -0.0005    0.0000   -0.0000    0.0000    0.0000   -0.0000
           7   -0.0000   -0.0002   -0.0001    0.0000    0.0000    0.0000   -0.0001   -0.0000
           8   -0.0000    0.0002   -0.0001   -0.0002    0.0000    0.0000    0.0003    0.0000
           9    0.0001    0.0009    0.0001    0.0001    0.0000    0.0000    0.0001    0.0000
          10   -0.0001   -0.0000   -0.0005    0.0001   -0.0001   -0.0000   -0.0000   -0.0000
          11   -0.0005   -0.0002   -0.0005    0.0000   -0.0000   -0.0000    0.0000   -0.0000
          12    0.0002   -0.0003   -0.0010    0.0001   -0.0000    0.0001   -0.0000    0.0000
          13   -0.0000   -0.0158   -0.0002   -0.0030    0.0000    0.0001    0.0005    0.0000
          14    0.0002   -0.0209   -0.0003   -0.0010    0.0000    0.0000    0.0016    0.0000
          15   -0.0004    0.0278    0.0004   -0.0001   -0.0000    0.0000   -0.0026   -0.0000
          16   -0.0031    0.0031    0.0002   -0.0476    0.0005    0.0015    0.0076    0.0000
[...]
 EFF. MASS   6.4256

 VIBRATION   37   37A         ATOM PAIR      ENERGY CONTRIBUTION    RADIAL
 FREQ.      1384.27         C  7 -- H 18         +17.4% ( 46.9%)      3.9%
 T-DIPOLE    0.2163         C  7 -- H 19         +17.1% ( 46.6%)      4.2%
 TRAVEL      0.1181         C  7 -- C  9          +6.5% ( 28.8%)     96.7%
 RED. MASS   0.2874         C  3 -- C  4          +5.4% ( 26.3%)     73.7%
 EFF. MASS   3.4954

 VIBRATION   38   38A         ATOM PAIR      ENERGY CONTRIBUTION    RADIAL
 FREQ.      1393.10         C  7 -- H 18         +13.1% ( 38.6%)      1.9%
 T-DIPOLE    0.1375         C  5 -- H 13         +12.7% ( 38.0%)      3.2%
 TRAVEL      0.1268         C  5 -- H 12         +12.3% ( 37.4%)      3.2%
 RED. MASS   0.2201         C  7 -- H 19         +12.1% ( 37.1%)      2.6%
 EFF. MASS   3.0104

 VIBRATION   39   39A         ATOM PAIR      ENERGY CONTRIBUTION    RADIAL
 FREQ.      1394.56         C  7 -- H 17         +53.8% ( 63.3%)      0.0%
 T-DIPOLE    0.0806         C  7 -- H 19         +21.7% ( 40.2%)     10.1%
 TRAVEL      0.1759         C  7 -- H 18         +19.4% ( 38.1%)     12.8%
 RED. MASS   0.4209         C  7 -- C  9          +5.1% ( 19.4%)      0.0%
 EFF. MASS   1.5619

 VIBRATION   40   40A         ATOM PAIR      ENERGY CONTRIBUTION    RADIAL
 FREQ.      1406.29         C  6 -- H 14         +50.3% ( 61.8%)      0.1%
 T-DIPOLE    0.0635         C  6 -- H 15         +24.9% ( 43.5%)      7.8%
 TRAVEL      0.1726         C  6 -- H 16         +15.8% ( 34.7%)     16.1%
 RED. MASS   0.3996         C  5 -- C  6          +5.0% ( 19.4%)      3.7%
 EFF. MASS   1.6100

 VIBRATION   41   41A         ATOM PAIR      ENERGY CONTRIBUTION    RADIAL
 FREQ.      1409.32         C  6 -- H 16         +42.9% ( 57.8%)      0.4%
 T-DIPOLE    0.0775         C  6 -- H 15         +33.6% ( 51.2%)      1.9%
 TRAVEL      0.1687         C  6 -- H 14         +13.5% ( 32.4%)     30.4%
 RED. MASS   0.3829         C  5 -- C  6          +5.2% ( 20.1%)     11.8%
 EFF. MASS   1.6810

 VIBRATION   42   42A         ATOM PAIR      ENERGY CONTRIBUTION    RADIAL
 FREQ.      1412.40         C  3 -- C  5         +10.5% ( 42.9%)     94.4%
 T-DIPOLE    0.1095         C  5 -- H 13          +8.9% ( 39.4%)      3.5%
 TRAVEL      0.0929         C  7 -- H 17          +8.6% ( 38.8%)      8.3%
 RED. MASS   0.5146         C  3 -- C  4          +8.1% ( 37.7%)     64.5%
 EFF. MASS   5.5292

 VIBRATION   43   43A         ATOM PAIR      ENERGY CONTRIBUTION    RADIAL
 FREQ.      1427.22         C  5 -- C  6         +18.1% ( 55.1%)     99.9%
 T-DIPOLE    0.0754         C  6 -- H 16         +12.6% ( 45.9%)      3.8%
 TRAVEL      0.0922         C  6 -- H 15         +12.1% ( 45.0%)      3.2%
 RED. MASS   0.8200         C  6 -- H 14         +10.8% ( 42.7%)      4.0%
 EFF. MASS   5.5538         C  5 -- H 13         +10.3% ( 41.7%)      3.3%
                            C  5 -- H 12         +10.3% ( 41.6%)      3.1%

 VIBRATION   44   44A         ATOM PAIR      ENERGY CONTRIBUTION    RADIAL
 FREQ.      1442.19         C  4 -- C  8         +11.3% ( 54.3%)     89.1%
 T-DIPOLE    0.4553         C  3 -- C  4         +10.7% ( 52.9%)     61.6%
 TRAVEL      0.0705         C  7 -- C  9          +8.3% ( 46.6%)     99.8%
 RED. MASS   1.3852         C  4 -- H 11          +7.6% ( 44.7%)      0.0%
 EFF. MASS   9.3975

 VIBRATION   45   45A         ATOM PAIR      ENERGY CONTRIBUTION    RADIAL
 FREQ.      1885.06         C  8 -- C  9         +43.8% ( 97.7%)     96.5%
 T-DIPOLE    0.7310         C  7 -- C  9         +14.5% ( 56.3%)     56.7%
 TRAVEL      0.0551         C  4 -- C  8         +13.8% ( 54.9%)     50.3%
 RED. MASS   5.3926         C  9 -- H 21         +13.5% ( 54.2%)      3.3%
 EFF. MASS  11.7972         C  8 -- H 20         +13.1% ( 53.4%)      4.0%

 VIBRATION   46   46A         ATOM PAIR      ENERGY CONTRIBUTION    RADIAL
 FREQ.      2887.79         C  4 -- H 11         +88.4% ( 96.3%)    100.0%
 T-DIPOLE    0.0822         C  3 -- H 10          +6.9% ( 27.0%)    100.0%
 TRAVEL      0.1261         C  3 -- C  4          +1.2% ( 11.2%)     20.3%
 RED. MASS   0.8039         C  4 -- C  8          +1.0% ( 10.5%)     12.8%
 EFF. MASS   1.4683

 VIBRATION   47   47A         ATOM PAIR      ENERGY CONTRIBUTION    RADIAL
 FREQ.      2902.47         C  3 -- H 10         +88.1% ( 96.0%)     99.9%
 T-DIPOLE    0.1382         C  4 -- H 11          +6.9% ( 26.8%)     99.8%
 TRAVEL      0.1262         C  3 -- C  5          +1.1% ( 10.5%)     10.6%
 RED. MASS   0.7941         O  2 -- C  3          +1.0% ( 10.4%)     31.6%
 EFF. MASS   1.4588

 VIBRATION   48   48A         ATOM PAIR      ENERGY CONTRIBUTION    RADIAL
 FREQ.      2957.52         C  5 -- H 13         +50.5% ( 73.8%)     96.8%
 T-DIPOLE    0.1187         C  5 -- H 12         +46.3% ( 70.7%)     96.2%
 TRAVEL      0.1216         C  5 -- C  6          +1.2% ( 11.2%)      0.0%
 RED. MASS   0.5091         C  3 -- C  5          +1.1% ( 11.0%)      0.0%
 EFF. MASS   1.5410

 VIBRATION   49   49A         ATOM PAIR      ENERGY CONTRIBUTION    RADIAL
 FREQ.      3026.88         C  9 -- H 21         +95.5% ( 99.1%)    100.0%
 T-DIPOLE    0.2492         C  8 -- C  9          +1.4% ( 12.1%)     38.5%
 TRAVEL      0.1215         C  7 -- C  9          +1.4% ( 11.9%)     12.4%
 RED. MASS   0.8991         C  7 -- H 17          +0.8% (  9.0%)     97.7%
 EFF. MASS   1.5089

 VIBRATION   50   50A         ATOM PAIR      ENERGY CONTRIBUTION    RADIAL
 FREQ.      3038.05         C  5 -- H 12         +51.2% ( 70.5%)     98.0%
 T-DIPOLE    0.1246         C  5 -- H 13         +46.6% ( 67.3%)     97.4%
 TRAVEL      0.1319         C  5 -- C  6          +0.6% (  7.8%)     26.1%
 RED. MASS   0.4765         C  6 -- H 14          +0.6% (  7.7%)     97.7%
 EFF. MASS   1.2761

 VIBRATION   51   51A         ATOM PAIR      ENERGY CONTRIBUTION    RADIAL
 FREQ.      3043.09         C  8 -- H 20         +96.7% ( 99.8%)    100.0%
 T-DIPOLE    0.3853         C  8 -- C  9          +1.6% ( 12.7%)     40.4%
 TRAVEL      0.1206         C  4 -- C  8          +1.4% ( 11.9%)     15.2%
 RED. MASS   0.9236         C  7 -- H 17          +0.1% (  3.5%)     99.5%
 EFF. MASS   1.5224

 VIBRATION   52   52A         ATOM PAIR      ENERGY CONTRIBUTION    RADIAL
 FREQ.      3069.86         C  6 -- H 15         +67.5% ( 84.7%)     98.9%
 T-DIPOLE    0.0323         C  6 -- H 16         +26.0% ( 52.5%)     91.6%
 TRAVEL      0.1211         C  6 -- H 14          +4.7% ( 22.3%)     54.1%
 RED. MASS   0.5521         C  5 -- C  6          +1.0% ( 10.2%)      0.0%
 EFF. MASS   1.4990

 VIBRATION   53   53A         ATOM PAIR      ENERGY CONTRIBUTION    RADIAL
 FREQ.      3069.97         C  7 -- H 18         +49.9% ( 72.9%)     97.2%
 T-DIPOLE    0.0512         C  7 -- H 19         +48.2% ( 71.6%)     96.9%
 TRAVEL      0.1209         C  7 -- C  9          +1.0% ( 10.2%)      0.0%
 RED. MASS   0.5094         C  7 -- H 17          +0.9% (  9.9%)      0.2%
 EFF. MASS   1.5015

 VIBRATION   54   54A         ATOM PAIR      ENERGY CONTRIBUTION    RADIAL
 FREQ.      3076.29         C  7 -- H 17         +62.7% ( 81.6%)     98.9%
 T-DIPOLE    0.0741         C  7 -- H 19         +18.1% ( 43.9%)     85.7%
 TRAVEL      0.1205         C  7 -- H 18         +16.7% ( 42.2%)     84.3%
 RED. MASS   0.4822         C  9 -- H 21          +1.2% ( 11.2%)    100.0%
 EFF. MASS   1.5097

 VIBRATION   55   55A         ATOM PAIR      ENERGY CONTRIBUTION    RADIAL
 FREQ.      3084.65         C  6 -- H 14         +53.9% ( 75.7%)     98.0%
 T-DIPOLE    0.0486         C  6 -- H 16         +39.4% ( 64.8%)     95.1%
 TRAVEL      0.1206         C  6 -- H 15          +5.1% ( 23.2%)     53.4%
 RED. MASS   0.4771         C  5 -- C  6          +1.0% ( 10.3%)      0.0%
 EFF. MASS   1.5035

 VIBRATION   56   56A         ATOM PAIR      ENERGY CONTRIBUTION    RADIAL
 FREQ.      3169.12         C  7 -- H 17         +34.9% ( 56.9%)     97.3%
 T-DIPOLE    0.0960         C  7 -- H 19         +32.5% ( 54.9%)     97.0%
 TRAVEL      0.1367         C  7 -- H 18         +32.2% ( 54.7%)     97.0%
 RED. MASS   0.3274         C  7 -- C  9          +0.3% (  5.4%)    100.0%
 EFF. MASS   1.1394

 VIBRATION   57   57A         ATOM PAIR      ENERGY CONTRIBUTION    RADIAL
 FREQ.      3176.79         C  6 -- H 14         +41.1% ( 61.8%)     98.1%
 T-DIPOLE    0.0365         C  6 -- H 16         +33.7% ( 55.9%)     97.0%
 TRAVEL      0.1365         C  6 -- H 15         +24.9% ( 48.0%)     95.2%
 RED. MASS   0.3377         C  5 -- C  6          +0.3% (  5.2%)     96.6%
 EFF. MASS   1.1400

      SYMMETRY NUMBER FOR POINT-GROUP C1  =  1


          SYSTEM IS A GROUND STATE



 InChI=1S/C7H12O2/c1-3-5-7-6(4-2)8-9-7/h3,5-7H,4H2,1-2H3


          MOLECULE IS NOT LINEAR

          THERE ARE 57 GENUINE VIBRATIONS IN THIS SYSTEM
          THIS THERMODYNAMICS CALCULATION IS LIMITED TO
          MOLECULES WHICH HAVE NO INTERNAL ROTATIONS




                    CALCULATED THERMODYNAMIC PROPERTIES
                                          *
   TEMP. (K)   PARTITION FUNCTION   H.O.F.    ENTHALPY  HEAT CAPACITY ENTROPY
                                   KCAL/MOL   CAL/MOLE    CAL/K/MOL  CAL/K/MOL


 298.00  VIB.     0.1977D+04                  4761.7738    30.7818    31.0610
         ROT.     0.6539D+06                   888.2813     2.9808    29.5910
         INT.     0.1293D+10                  5650.0551    33.7626    60.6520
         TRA.     0.1403D+28                  1480.4688     4.9680    40.4556
         TOT.                      -10.068    7130.5239    38.7306   101.1076

 200.00  VIB.     0.1333D+03                  2249.1272    20.8480    20.9680
         ROT.     0.3595D+06                   596.1620     2.9808    28.4023
         INT.     0.4792D+08                  2845.2891    23.8288    49.3703
         TRA.     0.7713D+27                   993.6033     4.9680    38.4745
         TOT.                      -13.360    3838.8924    28.7968    87.8448

 210.00  VIB.     0.1767D+03                  2462.1250    21.7559    22.0070
         ROT.     0.3868D+06                   625.9700     2.9808    28.5478
         INT.     0.6835D+08                  3088.0950    24.7367    50.5548
         TRA.     0.8299D+27                  1043.2834     4.9680    38.7168
         TOT.                      -13.068    4131.3784    29.7047    89.2716

 220.00  VIB.     0.2338D+03                  2684.3325    22.6901    23.0406
         ROT.     0.4148D+06                   655.7781     2.9808    28.6864
         INT.     0.9698D+08                  3340.1106    25.6709    51.7270
         TRA.     0.8899D+27                  1092.9636     4.9680    38.9480
         TOT.                      -12.766    4433.0742    30.6390    90.6750

 230.00  VIB.     0.3088D+03                  2916.0173    23.6513    24.0703
         ROT.     0.4434D+06                   685.5862     2.9808    28.8189
         INT.     0.1369D+09                  3601.6035    26.6321    52.8892
         TRA.     0.9512D+27                  1142.6437     4.9680    39.1688
         TOT.                      -12.455    4744.2473    31.6001    92.0580

 240.00  VIB.     0.4072D+03                  3157.4464    24.6388    25.0977
         ROT.     0.4726D+06                   715.3943     2.9808    28.9458
         INT.     0.1924D+09                  3872.8408    27.6196    54.0435
         TRA.     0.1014D+28                  1192.3239     4.9680    39.3802
         TOT.                      -12.134    5065.1647    32.5876    93.4237

 250.00  VIB.     0.5361D+03                  3408.8770    25.6513    26.1239
         ROT.     0.5025D+06                   745.2024     2.9808    29.0675
         INT.     0.2694D+09                  4154.0794    28.6321    55.1914
         TRA.     0.1078D+28                  1242.0041     4.9680    39.5830
         TOT.                      -11.803    5396.0835    33.6001    94.7744

 260.00  VIB.     0.7050D+03                  3670.5485    26.6866    27.1501
         ROT.     0.5329D+06                   775.0105     2.9808    29.1844
         INT.     0.3757D+09                  4445.5590    29.6674    56.3345
         TRA.     0.1143D+28                  1291.6842     4.9680    39.7779
         TOT.                      -11.462    5737.2432    34.6355    96.1123

 270.00  VIB.     0.9261D+03                  3942.6776    27.7424    28.1770
         ROT.     0.5640D+06                   804.8186     2.9808    29.2969
         INT.     0.5223D+09                  4747.4962    30.7232    57.4739
         TRA.     0.1210D+28                  1341.3644     4.9680    39.9654
         TOT.                      -11.110    6088.8606    35.6912    97.4392

 280.00  VIB.     0.1215D+04                  4225.4540    28.8156    29.2052
         ROT.     0.5956D+06                   834.6267     2.9808    29.4053
         INT.     0.7237D+09                  5060.0807    31.7964    58.6105
         TRA.     0.1278D+28                  1391.0445     4.9680    40.1461
         TOT.                      -10.748    6451.1253    36.7644    98.7566

 290.00  VIB.     0.1593D+04                  4519.0377    29.9033    30.2354
         ROT.     0.6278D+06                   864.4348     2.9808    29.5099
         INT.     0.1000D+10                  5383.4725    32.8841    59.7452
         TRA.     0.1347D+28                  1440.7247     4.9680    40.3204
         TOT.                      -10.375    6824.1972    37.8521   100.0656

 300.00  VIB.     0.2087D+04                  4823.5579    31.0024    31.2676
         ROT.     0.6605D+06                   894.2429     2.9808    29.6109
         INT.     0.1378D+10                  5717.8008    33.9832    60.8786
         TRA.     0.1417D+28                  1490.4049     4.9680    40.4888
         TOT.                       -9.991    7208.2057    38.9512   101.3674

 310.00  VIB.     0.2732D+04                  5139.1126    32.1097    32.3022
         ROT.     0.6938D+06                   924.0510     2.9808    29.7087
         INT.     0.1896D+10                  6063.1636    35.0905    62.0109
         TRA.     0.1488D+28                  1540.0850     4.9680    40.6517
         TOT.                       -9.596    7603.2486    40.0585   102.6626

 320.00  VIB.     0.3575D+04                  5465.7691    33.2222    33.3392
         ROT.     0.7277D+06                   953.8591     2.9808    29.8033
         INT.     0.2601D+10                  6419.6282    36.2031    63.1425
         TRA.     0.1561D+28                  1589.7652     4.9680    40.8094
         TOT.                       -9.190    8009.3934    41.1711   103.9520

 330.00  VIB.     0.4675D+04                  5803.5652    34.3371    34.3786
         ROT.     0.7620D+06                   983.6672     2.9808    29.8950
         INT.     0.3563D+10                  6787.2325    37.3180    64.2736
         TRA.     0.1635D+28                  1639.4454     4.9680    40.9623
         TOT.                       -8.772    8426.6778    42.2860   105.2360

 340.00  VIB.     0.6112D+04                  6152.5108    35.4517    35.4202
         ROT.     0.7969D+06                  1013.4753     2.9808    29.9840
         INT.     0.4871D+10                  7165.9861    38.4325    65.4042
         TRA.     0.1710D+28                  1689.1255     4.9680    41.1106
         TOT.                       -8.344    8855.1116    43.4005   106.5149

 350.00  VIB.     0.7988D+04                  6512.5895    36.5634    36.4639
         ROT.     0.8324D+06                  1043.2834     2.9808    30.0704
         INT.     0.6649D+10                  7555.8729    39.5442    66.5343
         TRA.     0.1786D+28                  1738.8057     4.9680    41.2546
         TOT.                       -7.904    9294.6786    44.5122   107.7890

 360.00  VIB.     0.1044D+05                  6883.7613    37.6699    37.5095
         ROT.     0.8683D+06                  1073.0915     2.9808    30.1544
         INT.     0.9063D+10                  7956.8528    40.6508    67.6639
         TRA.     0.1863D+28                  1788.4859     4.9680    41.3946
         TOT.                       -7.454    9745.3387    45.6188   109.0585

 370.00  VIB.     0.1363D+05                  7265.9645    38.7693    38.5566
         ROT.     0.9047D+06                  1102.8996     2.9808    30.2361
         INT.     0.1233D+11                  8368.8641    41.7501    68.7927
         TRA.     0.1941D+28                  1838.1660     4.9680    41.5307
         TOT.                       -6.992   10207.0301    46.7182   110.3234

 380.00  VIB.     0.1781D+05                  7659.1179    39.8597    39.6050
         ROT.     0.9416D+06                  1132.7077     2.9808    30.3156
         INT.     0.1677D+11                  8791.8256    42.8405    69.9206
         TRA.     0.2020D+28                  1887.8462     4.9680    41.6632
         TOT.                       -6.519   10679.6717    47.8085   111.5838

 390.00  VIB.     0.2325D+05                  8063.1234    40.9395    40.6544
         ROT.     0.9790D+06                  1162.5158     2.9808    30.3930
         INT.     0.2277D+11                  9225.6392    43.9203    71.0474
         TRA.     0.2100D+28                  1937.5263     4.9680    41.7923
         TOT.                       -6.036   11163.1655    48.8883   112.8396

 400.00  VIB.     0.3036D+05                  8477.8680    42.0073    41.7044
         ROT.     0.1017D+07                  1192.3239     2.9808    30.4685
         INT.     0.3087D+11                  9670.1919    44.9881    72.1728
         TRA.     0.2182D+28                  1987.2065     4.9680    41.9180
         TOT.                       -5.542   11657.3984    49.9561   114.0908

   *: NOTE: HEATS OF FORMATION ARE RELATIVE TO THE
            ELEMENTS IN THEIR STANDARD STATE AT 298K
              (=  Standard Enthalpy of Formation).

            Hvib:  Zero-point energy is not included.
                   frequencies of less than zero cm-1 are not included.
            Hrot = (3/2)RT
            Htra = (3/2)RT + pV = (5/2)RT

            Heat capacity is Cp, not Cv

          For more information, see: HTTP://OpenMOPAC.net/Manual/thermochemistry.html


           FORCE CONSTANT IN CARTESIAN COORDINATES (Millidynes/A)

    ATOM   CHEMICAL       X               Y               Z
   NUMBER   SYMBOL  FORCE CONSTANT  FORCE CONSTANT  FORCE CONSTANT

      1       O        4.227519        6.218876        0.673658
      2       O        4.226500        6.217426        0.696455
      3       C        8.362265        8.275362        8.307522
      4       C        8.278548        8.474709        8.791423
      5       C        8.237303        8.532557        8.178854
      6       C        8.210410        8.322990        8.353237
      7       C        8.153388        8.486288        8.815880
      8       C        3.948879       15.097491        8.129085
      9       C        3.891471       14.907676        8.360707
     10       H        1.453843        1.032496        3.498261
     11       H        1.461350        1.033725        3.417834
     12       H        4.478453        1.214398        0.707578
     13       H        1.711252        1.091441        3.614891
     14       H        1.507961        1.373840        3.913310
     15       H        4.726466        1.297420        0.694497
     16       H        1.947825        1.188297        3.638303
     17       H        0.913396        2.903309        2.948762
     18       H        2.547504        2.702214        1.405154
     19       H        3.932743        1.701531        1.021209
     20       H        0.707139        2.523794        3.010821
     21       H        0.715193        2.438404        3.026255

 **********************
 *                    *
 * JOB ENDED NORMALLY *
 *                    *
 **********************



 TOTAL JOB TIME:             2.58 SECONDS

 == MOPAC DONE ==
