 *******************************************************************************
 ** Site#: 14399        For non-commercial use only    Version 18.184L 64BITS **
 *******************************************************************************
 ** Cite this program as: MOPAC2016, Version: 18.184L, James J. P. Stewart,   **
 ** Stewart Computational Chemistry, web: HTTP://OpenMOPAC.net. Days left:  18**
 *******************************************************************************
 **                                                                           **
 **                                MOPAC2016                                  **
 **                                                                           **
 *******************************************************************************

                              PM3 CALCULATION RESULTS

 *******************************************************************************
 *  CALCULATION DONE:                                Sat Jun 15 10:15:50 2019  *
 *  PM3        - The PM3 Hamiltonian to be used
 *  PRECISE    - CRITERIA TO BE INCREASED BY 100 TIMES
 *  NOSYM      - POINT-GROUP SYMMETRY SET TO C1
 *  THREADS=1  - MULTI-THREADING NOT USED
 *  T=         - A TIME OF 172800.0 SECONDS REQUESTED
 *  DUMP=N     - RESTART FILE WRITTEN EVERY  7200.000 SECONDS
 *******************************************************************************
pm3  precise nosym THREADS=1
 InChI=1S/C10H10/c1-2-4-9-7(3-1)5-8-6-10(8)9/h1-5,8-10H,6H2

   ATOM   CHEMICAL          X               Y               Z
  NUMBER   SYMBOL      (ANGSTROMS)     (ANGSTROMS)     (ANGSTROMS)
 
     1       C          1.42340000  *  -0.53860000  *   0.57740000  *
     2       C          1.69530000  *   0.96240000  *   0.69730000  *
     3       C          0.18050000  *  -0.69530000  *  -0.30540000  *
     4       C          2.64230000  *   0.07580000  *  -0.09800000  *
     5       C         -0.28560000  *   0.70320000  *  -0.50950000  *
     6       C          0.55720000  *   1.59790000  *  -0.02910000  *
     7       C         -0.91420000  *  -1.52750000  *   0.31870000  *
     8       C         -1.68810000  *   0.98390000  *  -0.83860000  *
     9       C         -2.20780000  *  -1.20760000  *   0.13910000  *
    10       C         -2.60300000  *   0.05470000  *  -0.53690000  *
    11       H          1.56510000  *  -1.10390000  *   1.52400000  *
    12       H          1.92340000  *   1.24120000  *   1.74790000  *
    13       H          0.45950000  *  -1.14810000  *  -1.28160000  *
    14       H          3.60220000  *  -0.12620000  *   0.42110000  *
    15       H          2.58120000  *   0.19870000  *  -1.20120000  *
    16       H          0.34620000  *   2.65880000  *   0.01050000  *
    17       H         -0.66000000  *  -2.46040000  *   0.80630000  *
    18       H         -3.65090000  *   0.25320000  *  -0.72110000  *
    19       H         -1.98780000  *   1.94710000  *  -1.23240000  *
    20       H         -2.97890000  *  -1.86960000  *   0.51150000  *
 


          CARTESIAN COORDINATES 

    NO.       ATOM           X           Y           Z

     1         C          1.4234     -0.5386      0.5774
     2         C          1.6953      0.9624      0.6973
     3         C          0.1805     -0.6953     -0.3054
     4         C          2.6423      0.0758     -0.0980
     5         C         -0.2856      0.7032     -0.5095
     6         C          0.5572      1.5979     -0.0291
     7         C         -0.9142     -1.5275      0.3187
     8         C         -1.6881      0.9839     -0.8386
     9         C         -2.2078     -1.2076      0.1391
    10         C         -2.6030      0.0547     -0.5369
    11         H          1.5651     -1.1039      1.5240
    12         H          1.9234      1.2412      1.7479
    13         H          0.4595     -1.1481     -1.2816
    14         H          3.6022     -0.1262      0.4211
    15         H          2.5812      0.1987     -1.2012
    16         H          0.3462      2.6588      0.0105
    17         H         -0.6600     -2.4604      0.8063
    18         H         -3.6509      0.2532     -0.7211
    19         H         -1.9878      1.9471     -1.2324
    20         H         -2.9789     -1.8696      0.5115

  H: (PM3): J. J. P. STEWART, J. COMP. CHEM. 10, 209 (1989).
  C: (PM3): J. J. P. STEWART, J. COMP. CHEM. 10, 209 (1989).

           Empirical Formula: C10 H10  =    20 atoms



      MOLECULAR POINT GROUP   :   C1  


      RHF CALCULATION, NO. OF DOUBLY OCCUPIED LEVELS = 25


          Geometry optimization using EF

          DIAGONAL MATRIX USED AS START HESSIAN

 CYCLE:     1 TIME:   0.008 TIME LEFT:  2.00D  GRAD.:   123.443 HEAT:  85.10700
 CYCLE:     2 TIME:   0.008 TIME LEFT:  2.00D  GRAD.:   139.836 HEAT:  83.49401
 CYCLE:     3 TIME:   0.004 TIME LEFT:  2.00D  GRAD.:    81.648 HEAT:  79.60046
 CYCLE:     4 TIME:   0.008 TIME LEFT:  2.00D  GRAD.:    70.738 HEAT:  78.23323
 CYCLE:     5 TIME:   0.004 TIME LEFT:  2.00D  GRAD.:    64.122 HEAT:  76.88025
 CYCLE:     6 TIME:   0.008 TIME LEFT:  2.00D  GRAD.:    50.709 HEAT:  76.11029
 CYCLE:     7 TIME:   0.004 TIME LEFT:  2.00D  GRAD.:    34.328 HEAT:  75.30837
 CYCLE:     8 TIME:   0.008 TIME LEFT:  2.00D  GRAD.:    34.627 HEAT:  74.99084
 CYCLE:     9 TIME:   0.004 TIME LEFT:  2.00D  GRAD.:    24.998 HEAT:  74.62343
 CYCLE:    10 TIME:   0.004 TIME LEFT:  2.00D  GRAD.:    34.198 HEAT:  74.39301
 CYCLE:    11 TIME:   0.008 TIME LEFT:  2.00D  GRAD.:    27.979 HEAT:  74.21173
 CYCLE:    12 TIME:   0.004 TIME LEFT:  2.00D  GRAD.:    28.936 HEAT:  74.14529
 CYCLE:    13 TIME:   0.004 TIME LEFT:  2.00D  GRAD.:    21.636 HEAT:  73.99890
 CYCLE:    14 TIME:   0.008 TIME LEFT:  2.00D  GRAD.:    24.766 HEAT:  73.97716
 CYCLE:    15 TIME:   0.004 TIME LEFT:  2.00D  GRAD.:    15.865 HEAT:  73.85353
 CYCLE:    16 TIME:   0.008 TIME LEFT:  2.00D  GRAD.:     9.760 HEAT:  73.79897
 CYCLE:    17 TIME:   0.004 TIME LEFT:  2.00D  GRAD.:     9.556 HEAT:  73.76660
 CYCLE:    18 TIME:   0.008 TIME LEFT:  2.00D  GRAD.:    10.325 HEAT:  73.72559
 CYCLE:    19 TIME:   0.004 TIME LEFT:  2.00D  GRAD.:     7.773 HEAT:  73.66332
 CYCLE:    20 TIME:   0.004 TIME LEFT:  2.00D  GRAD.:    10.529 HEAT:  73.61370
 CYCLE:    21 TIME:   0.004 TIME LEFT:  2.00D  GRAD.:    15.591 HEAT:  73.60753
 CYCLE:    22 TIME:   0.004 TIME LEFT:  2.00D  GRAD.:    12.243 HEAT:  73.56862
 CYCLE:    23 TIME:   0.004 TIME LEFT:  2.00D  GRAD.:    13.368 HEAT:  73.55454
 CYCLE:    24 TIME:   0.004 TIME LEFT:  2.00D  GRAD.:     7.897 HEAT:  73.51941
 CYCLE:    25 TIME:   0.004 TIME LEFT:  2.00D  GRAD.:     8.009 HEAT:  73.50524
 CYCLE:    26 TIME:   0.004 TIME LEFT:  2.00D  GRAD.:     5.085 HEAT:  73.48576
 CYCLE:    27 TIME:   0.004 TIME LEFT:  2.00D  GRAD.:     4.736 HEAT:  73.46766
 CYCLE:    28 TIME:   0.004 TIME LEFT:  2.00D  GRAD.:     3.452 HEAT:  73.44301
 CYCLE:    29 TIME:   0.008 TIME LEFT:  2.00D  GRAD.:     3.677 HEAT:  73.40960
 CYCLE:    30 TIME:   0.004 TIME LEFT:  2.00D  GRAD.:     2.917 HEAT:  73.39994
 CYCLE:    31 TIME:   0.004 TIME LEFT:  2.00D  GRAD.:     2.023 HEAT:  73.39165
 CYCLE:    32 TIME:   0.004 TIME LEFT:  2.00D  GRAD.:     1.876 HEAT:  73.38392
 CYCLE:    33 TIME:   0.004 TIME LEFT:  2.00D  GRAD.:     1.620 HEAT:  73.38037
 CYCLE:    34 TIME:   0.004 TIME LEFT:  2.00D  GRAD.:     1.173 HEAT:  73.37716
 CYCLE:    35 TIME:   0.004 TIME LEFT:  2.00D  GRAD.:     1.017 HEAT:  73.37442
 CYCLE:    36 TIME:   0.004 TIME LEFT:  2.00D  GRAD.:     0.940 HEAT:  73.37300
 CYCLE:    37 TIME:   0.004 TIME LEFT:  2.00D  GRAD.:     0.804 HEAT:  73.37166
 CYCLE:    38 TIME:   0.004 TIME LEFT:  2.00D  GRAD.:     0.944 HEAT:  73.37007
 CYCLE:    39 TIME:   0.004 TIME LEFT:  2.00D  GRAD.:     0.888 HEAT:  73.36854
 CYCLE:    40 TIME:   0.004 TIME LEFT:  2.00D  GRAD.:     0.631 HEAT:  73.36767
 CYCLE:    41 TIME:   0.004 TIME LEFT:  2.00D  GRAD.:     0.343 HEAT:  73.36721
 CYCLE:    42 TIME:   0.004 TIME LEFT:  2.00D  GRAD.:     0.323 HEAT:  73.36697
 CYCLE:    43 TIME:   0.004 TIME LEFT:  2.00D  GRAD.:     0.317 HEAT:  73.36676
 CYCLE:    44 TIME:   0.008 TIME LEFT:  2.00D  GRAD.:     0.247 HEAT:  73.36658
 CYCLE:    45 TIME:   0.004 TIME LEFT:  2.00D  GRAD.:     0.205 HEAT:  73.36644
 CYCLE:    46 TIME:   0.004 TIME LEFT:  2.00D  GRAD.:     0.201 HEAT:  73.36633
 CYCLE:    47 TIME:   0.004 TIME LEFT:  2.00D  GRAD.:     0.226 HEAT:  73.36622
 CYCLE:    48 TIME:   0.004 TIME LEFT:  2.00D  GRAD.:     0.240 HEAT:  73.36607
 CYCLE:    49 TIME:   0.004 TIME LEFT:  2.00D  GRAD.:     0.211 HEAT:  73.36593
 CYCLE:    50 TIME:   0.004 TIME LEFT:  2.00D  GRAD.:     0.168 HEAT:  73.36581
 CYCLE:    51 TIME:   0.004 TIME LEFT:  2.00D  GRAD.:     0.141 HEAT:  73.36574
 CYCLE:    52 TIME:   0.004 TIME LEFT:  2.00D  GRAD.:     0.121 HEAT:  73.36569
 CYCLE:    53 TIME:   0.004 TIME LEFT:  2.00D  GRAD.:     0.096 HEAT:  73.36566
 CYCLE:    54 TIME:   0.004 TIME LEFT:  2.00D  GRAD.:     0.088 HEAT:  73.36564
 CYCLE:    55 TIME:   0.004 TIME LEFT:  2.00D  GRAD.:     0.062 HEAT:  73.36562
 CYCLE:    56 TIME:   0.004 TIME LEFT:  2.00D  GRAD.:     0.044 HEAT:  73.36562

     GRADIENT =  0.04371  IS LESS THAN CUTOFF =  0.05000



 -------------------------------------------------------------------------------
 pm3  precise nosym THREADS=1
 InChI=1S/C10H10/c1-2-4-9-7(3-1)5-8-6-10(8)9/h1-5,8-10H,6H2



     GEOMETRY OPTIMISED USING EIGENVECTOR FOLLOWING (EF).     
     SCF FIELD WAS ACHIEVED                                   


                              PM3 CALCULATION
                                                       MOPAC2016 (Version: 18.184L)
                                                       Sat Jun 15 10:15:50 2019
                                                       No. of days remaining =  18




          FINAL HEAT OF FORMATION =         73.36562 KCAL/MOL =     306.96175 KJ/MOL


          TOTAL ENERGY            =      -1336.54951 EV
          ELECTRONIC ENERGY       =      -7177.89490 EV  POINT GROUP:     C1  
          CORE-CORE REPULSION     =       5841.34539 EV
          COSMO AREA              =        168.68 SQUARE ANGSTROMS
          COSMO VOLUME            =        170.47 CUBIC ANGSTROMS

          GRADIENT NORM           =          0.04371 = 0.00977 PER ATOM
          IONIZATION POTENTIAL    =          8.639462 EV
          HOMO LUMO ENERGIES (EV) =         -8.639 -0.207
          NO. OF FILLED LEVELS    =         25
          MOLECULAR WEIGHT        =        130.1890

          MOLECULAR DIMENSIONS (Angstroms)

            Atom       Atom       Distance
            H    18    H    14     7.33548
            H    17    H    16     5.28974
            H    15    H    12     3.07603


          SCF CALCULATIONS        =         64
 
          WALL-CLOCK TIME         =          0.273 SECONDS
          COMPUTATION TIME        =          0.251 SECONDS




   ATOM   CHEMICAL          X               Y               Z
  NUMBER   SYMBOL      (ANGSTROMS)     (ANGSTROMS)     (ANGSTROMS)
 
     1       C          1.42535481  *  -0.54241765  *   0.59096626  *
     2       C          1.70877401  *   0.94933069  *   0.72153332  *
     3       C          0.15091692  *  -0.68113765  *  -0.23699306  *
     4       C          2.59102586  *   0.07621967  *  -0.13128466  *
     5       C         -0.32102267  *   0.74942115  *  -0.40268083  *
     6       C          0.57337769  *   1.64557575  *   0.05963264  *
     7       C         -0.93177286  *  -1.53231522  *   0.32691256  *
     8       C         -1.68003141  *   0.95935350  *  -0.85611805  *
     9       C         -2.21836147  *  -1.20772677  *   0.12128242  *
    10       C         -2.59136587  *   0.00390462  *  -0.59217406  *
    11       H          1.57332525  *  -1.26642409  *   1.40306260  *
    12       H          2.10299419  *   1.42326625  *   1.63113556  *
    13       H          0.40773090  *  -1.10766891  *  -1.23976404  *
    14       H          3.60901134  *  -0.14217205  *   0.20928618  *
    15       H          2.57740165  *   0.17263223  *  -1.22329616  *
    16       H          0.48824811  *   2.73079203  *   0.03898354  *
    17       H         -0.63493343  *  -2.43346580  *   0.87245112  *
    18       H         -3.63963779  *   0.11735780  *  -0.88568385  *
    19       H         -1.93244442  *   1.90071991  *  -1.35275223  *
    20       H         -3.03028993  *  -1.84327375  *   0.48922612  *

                             CARTESIAN COORDINATES

   1    C        1.425354814    -0.542417652     0.590966257
   2    C        1.708774009     0.949330693     0.721533315
   3    C        0.150916915    -0.681137653    -0.236993055
   4    C        2.591025862     0.076219666    -0.131284656
   5    C       -0.321022674     0.749421149    -0.402680830
   6    C        0.573377693     1.645575749     0.059632643
   7    C       -0.931772856    -1.532315225     0.326912565
   8    C       -1.680031410     0.959353496    -0.856118047
   9    C       -2.218361470    -1.207726772     0.121282418
  10    C       -2.591365872     0.003904622    -0.592174063
  11    H        1.573325254    -1.266424095     1.403062603
  12    H        2.102994189     1.423266252     1.631135563
  13    H        0.407730905    -1.107668913    -1.239764043
  14    H        3.609011345    -0.142172046     0.209286184
  15    H        2.577401654     0.172632231    -1.223296160
  16    H        0.488248111     2.730792029     0.038983544
  17    H       -0.634933427    -2.433465797     0.872451124
  18    H       -3.639637793     0.117357801    -0.885683848
  19    H       -1.932444422     1.900719907    -1.352752230
  20    H       -3.030289932    -1.843273745     0.489226122


           Empirical Formula: C10 H10  =    20 atoms



      MOLECULAR POINT GROUP   :   C1  


                  EIGENVALUES  
 -42.55451 -36.50465 -30.88029 -28.95582 -26.18213 -22.35946 -21.19168 -20.15480
 -19.51163 -17.79894 -16.86392 -16.31547 -15.83629 -15.04480 -14.65217 -13.75385
 -13.48907 -13.16745 -12.54126 -12.40114 -11.85422 -11.65444 -11.11013 -10.06590
  -8.63946  -0.20716   1.17711   2.16360   2.86525   3.01231   3.11688   3.32538
   3.38756   3.46293   3.52746   3.80324   3.92717   4.03372   4.14134   4.19953
   4.47642   4.71404   4.82499   5.00803   5.10326   5.33786   5.47612   5.68448
   6.17621   6.24094


              NET ATOMIC CHARGES AND DIPOLE CONTRIBUTIONS

  ATOM NO.   TYPE          CHARGE      No. of ELECS.   s-Pop       p-Pop       
    1          C          -0.138771        4.1388     1.18905     2.94972
    2          C          -0.108725        4.1087     1.17411     2.93462
    3          C           0.012042        3.9880     1.15181     2.83615
    4          C          -0.130916        4.1309     1.16370     2.96722
    5          C          -0.102570        4.1026     1.19315     2.90942
    6          C          -0.104124        4.1041     1.19129     2.91283
    7          C          -0.117583        4.1176     1.19612     2.92147
    8          C          -0.079486        4.0795     1.17433     2.90515
    9          C          -0.119273        4.1193     1.18033     2.93895
   10          C          -0.098421        4.0984     1.18162     2.91680
   11          H           0.107512        0.8925     0.89249
   12          H           0.105017        0.8950     0.89498
   13          H           0.086075        0.9139     0.91392
   14          H           0.076098        0.9239     0.92390
   15          H           0.082697        0.9173     0.91730
   16          H           0.117331        0.8827     0.88267
   17          H           0.104144        0.8959     0.89586
   18          H           0.101047        0.8990     0.89895
   19          H           0.106159        0.8938     0.89384
   20          H           0.101747        0.8983     0.89825
 DIPOLE           X         Y         Z       TOTAL
 POINT-CHG.     0.181    -0.155     0.023     0.240
 HYBRID         0.027    -0.008     0.021     0.035
 SUM            0.209    -0.163     0.043     0.268


          ATOMIC ORBITAL ELECTRON POPULATIONS

     Atom    s        px        py        pz   
    1  C   1.18905   0.95993   0.97015   1.01964
    2  C   1.17411   0.99933   0.92604   1.00925
    3  C   1.15181   0.92466   0.93230   0.97919
    4  C   1.16370   0.95125   1.02449   0.99148
    5  C   1.19315   0.94964   0.95299   1.00679
    6  C   1.19129   0.95358   0.97470   0.98455
    7  C   1.19612   0.94859   0.98514   0.98774
    8  C   1.17433   0.92730   0.98242   0.99544
    9  C   1.18033   0.96260   0.97193   1.00442
   10  C   1.18162   0.97926   0.94974   0.98781
   11  H   0.89249
   12  H   0.89498
   13  H   0.91392
   14  H   0.92390
   15  H   0.91730
   16  H   0.88267
   17  H   0.89586
   18  H   0.89895
   19  H   0.89384
   20  H   0.89825
 *******************************************************************************
 ** Site#: 14399        For non-commercial use only    Version 18.184L 64BITS **
 *******************************************************************************
 ** Cite this program as: MOPAC2016, Version: 18.184L, James J. P. Stewart,   **
 ** Stewart Computational Chemistry, web: HTTP://OpenMOPAC.net. Days left:  18**
 *******************************************************************************
 **                                                                           **
 **                                MOPAC2016                                  **
 **                                                                           **
 *******************************************************************************

                              PM3 CALCULATION RESULTS

 *******************************************************************************
 *  CALCULATION DONE:                                Sat Jun 15 10:15:50 2019  *
 *  PM3        - The PM3 Hamiltonian to be used
 *  OLDGEO     - PREVIOUS GEOMETRY TO BE USED
 *  PRECISE    - CRITERIA TO BE INCREASED BY 100 TIMES
 *  NOSYM      - POINT-GROUP SYMMETRY SET TO C1
 *  THREADS=1  - MULTI-THREADING NOT USED
 *  T=         - A TIME OF 172800.0 SECONDS REQUESTED
 *  DUMP=N     - RESTART FILE WRITTEN EVERY  7200.000 SECONDS
 *  THERMO     - THERMODYNAMIC QUANTITIES TO BE CALCULATED
 *******************************************************************************
oldgeo thermo nosym precise THREADS=1  pm3
 InChI=1S/C10H10/c1-2-4-9-7(3-1)5-8-6-10(8)9/h1-5,8-10H,6H2

   ATOM   CHEMICAL          X               Y               Z
  NUMBER   SYMBOL      (ANGSTROMS)     (ANGSTROMS)     (ANGSTROMS)
 
     1       C          1.42535481  *  -0.54241765  *   0.59096626  *
     2       C          1.70877401  *   0.94933069  *   0.72153332  *
     3       C          0.15091692  *  -0.68113765  *  -0.23699306  *
     4       C          2.59102586  *   0.07621967  *  -0.13128466  *
     5       C         -0.32102267  *   0.74942115  *  -0.40268083  *
     6       C          0.57337769  *   1.64557575  *   0.05963264  *
     7       C         -0.93177286  *  -1.53231522  *   0.32691256  *
     8       C         -1.68003141  *   0.95935350  *  -0.85611805  *
     9       C         -2.21836147  *  -1.20772677  *   0.12128242  *
    10       C         -2.59136587  *   0.00390462  *  -0.59217406  *
    11       H          1.57332525  *  -1.26642409  *   1.40306260  *
    12       H          2.10299419  *   1.42326625  *   1.63113556  *
    13       H          0.40773090  *  -1.10766891  *  -1.23976404  *
    14       H          3.60901134  *  -0.14217205  *   0.20928618  *
    15       H          2.57740165  *   0.17263223  *  -1.22329616  *
    16       H          0.48824811  *   2.73079203  *   0.03898354  *
    17       H         -0.63493343  *  -2.43346580  *   0.87245112  *
    18       H         -3.63963779  *   0.11735780  *  -0.88568385  *
    19       H         -1.93244442  *   1.90071991  *  -1.35275223  *
    20       H         -3.03028993  *  -1.84327375  *   0.48922612  *
 


          CARTESIAN COORDINATES 

    NO.       ATOM           X           Y           Z

     1         C          1.4254     -0.5424      0.5910
     2         C          1.7088      0.9493      0.7215
     3         C          0.1509     -0.6811     -0.2370
     4         C          2.5910      0.0762     -0.1313
     5         C         -0.3210      0.7494     -0.4027
     6         C          0.5734      1.6456      0.0596
     7         C         -0.9318     -1.5323      0.3269
     8         C         -1.6800      0.9594     -0.8561
     9         C         -2.2184     -1.2077      0.1213
    10         C         -2.5914      0.0039     -0.5922
    11         H          1.5733     -1.2664      1.4031
    12         H          2.1030      1.4233      1.6311
    13         H          0.4077     -1.1077     -1.2398
    14         H          3.6090     -0.1422      0.2093
    15         H          2.5774      0.1726     -1.2233
    16         H          0.4882      2.7308      0.0390
    17         H         -0.6349     -2.4335      0.8725
    18         H         -3.6396      0.1174     -0.8857
    19         H         -1.9324      1.9007     -1.3528
    20         H         -3.0303     -1.8433      0.4892

  H: (PM3): J. J. P. STEWART, J. COMP. CHEM. 10, 209 (1989).
  C: (PM3): J. J. P. STEWART, J. COMP. CHEM. 10, 209 (1989).

           Empirical Formula: C10 H10  =    20 atoms



      MOLECULAR POINT GROUP   :   C1  


      RHF CALCULATION, NO. OF DOUBLY OCCUPIED LEVELS = 25



          HEAT OF FORMATION =      73.365618 KCALS/MOLE


          CARTESIAN COORDINATE DERIVATIVES

   NUMBER  ATOM         X            Y            Z

     1       C     -0.002836     0.000138    -0.001470
     2       C      0.001146     0.000835     0.001584
     3       C      0.009569    -0.005232    -0.004734
     4       C     -0.005216     0.001811    -0.000818
     5       C     -0.001355     0.007311     0.003207
     6       C      0.002111    -0.000042    -0.002040
     7       C      0.000911    -0.014167    -0.007859
     8       C      0.014096    -0.005421    -0.001959
     9       C      0.008387     0.003265     0.002256
    10       C     -0.003870    -0.000129     0.010109
    11       H     -0.002755     0.011380     0.010087
    12       H     -0.003312    -0.001332    -0.000541
    13       H      0.001203    -0.013447    -0.010487
    14       H     -0.001059     0.001300     0.001046
    15       H     -0.007666     0.013438     0.009529
    16       H     -0.002075     0.002058     0.000361
    17       H      0.001659    -0.010464    -0.006773
    18       H     -0.006961     0.001752     0.000918
    19       H     -0.004883    -0.003468    -0.001501
    20       H      0.002906     0.010415    -0.000914
 


          GRADIENT NORM =   0.04704

          MOLECULAR WEIGHT =  130.19



          ROTATIONAL CONSTANTS IN CM(-1)

          A =    0.10479206   B =    0.03965145   C =    0.03127216



           PRINCIPAL MOMENTS OF INERTIA IN UNITS OF 10**(-40)*GRAM-CM**2

          A =      267.1269   B =      705.9710   C =      895.1342


          ORIENTATION OF MOLECULE IN FORCE CALCULATION

    NO.       ATOM         X         Y         Z

     1          C      -0.2266   -1.7081   -0.3304
     2          C       1.2974   -1.7081   -0.3304
     3          C      -0.6703   -0.2479   -0.3304
     4          C       0.5338   -2.1437   -1.5532
     5          C       0.6280    0.5165   -0.1671
     6          C       1.7111   -0.2822   -0.2419
     7          C      -1.6565    0.1585    0.7074
     8          C       0.5419    1.9137    0.2032
     9          C      -1.5957    1.3857    1.2489
    10          C      -0.5402    2.3214    0.8931
    11          H      -0.8382   -2.4148    0.2459
    12          H       1.9126   -2.4260    0.2295
    13          H      -1.1260   -0.0014   -1.3229
    14          H       0.5386   -3.2031   -1.8317
    15          H       0.5321   -1.5222   -2.4564
    16          H       2.7557    0.0181   -0.1794
    17          H      -2.4366   -0.5614    0.9738
    18          H      -0.6492    3.3589    1.2243
    19          H       1.3738    2.5790   -0.0454
    20          H      -2.3372    1.7207    1.9813


    FIRST DERIVATIVES WILL BE USED IN THE CALCULATION OF SECOND DERIVATIVES

    FOR POINT-GROUP C1   THERE ARE   1 UNIQUE SYMMETRY FUNCTIONS.

 STEP:   1 TIME =     0.02 SECS, INTEGRAL =      0.02 TIME LEFT: 172799.98
 STEP:   2 TIME =     0.02 SECS, INTEGRAL =      0.04 TIME LEFT: 172799.96
 STEP:   3 TIME =     0.02 SECS, INTEGRAL =      0.06 TIME LEFT: 172799.94
 STEP:   4 TIME =     0.02 SECS, INTEGRAL =      0.08 TIME LEFT: 172799.92
 STEP:   5 TIME =     0.02 SECS, INTEGRAL =      0.09 TIME LEFT: 172799.91
 STEP:   6 TIME =     0.02 SECS, INTEGRAL =      0.11 TIME LEFT: 172799.89
 STEP:   7 TIME =     0.02 SECS, INTEGRAL =      0.13 TIME LEFT: 172799.87
 STEP:   8 TIME =     0.02 SECS, INTEGRAL =      0.15 TIME LEFT: 172799.85
 STEP:   9 TIME =     0.02 SECS, INTEGRAL =      0.17 TIME LEFT: 172799.83
 STEP:  10 TIME =     0.02 SECS, INTEGRAL =      0.19 TIME LEFT: 172799.81
 STEP:  11 TIME =     0.02 SECS, INTEGRAL =      0.21 TIME LEFT: 172799.79
 STEP:  12 TIME =     0.02 SECS, INTEGRAL =      0.23 TIME LEFT: 172799.77
 STEP:  13 TIME =     0.02 SECS, INTEGRAL =      0.25 TIME LEFT: 172799.75
 STEP:  14 TIME =     0.02 SECS, INTEGRAL =      0.27 TIME LEFT: 172799.73
 STEP:  15 TIME =     0.02 SECS, INTEGRAL =      0.29 TIME LEFT: 172799.71
 STEP:  16 TIME =     0.02 SECS, INTEGRAL =      0.30 TIME LEFT: 172799.70
 STEP:  17 TIME =     0.02 SECS, INTEGRAL =      0.32 TIME LEFT: 172799.68
 STEP:  18 TIME =     0.02 SECS, INTEGRAL =      0.34 TIME LEFT: 172799.66
 STEP:  19 TIME =     0.02 SECS, INTEGRAL =      0.36 TIME LEFT: 172799.64
 STEP:  20 TIME =     0.02 SECS, INTEGRAL =      0.38 TIME LEFT: 172799.62
 STEP:  21 TIME =     0.02 SECS, INTEGRAL =      0.40 TIME LEFT: 172799.60
 STEP:  22 TIME =     0.02 SECS, INTEGRAL =      0.42 TIME LEFT: 172799.58
 STEP:  23 TIME =     0.02 SECS, INTEGRAL =      0.44 TIME LEFT: 172799.56
 STEP:  24 TIME =     0.02 SECS, INTEGRAL =      0.46 TIME LEFT: 172799.54
 STEP:  25 TIME =     0.02 SECS, INTEGRAL =      0.48 TIME LEFT: 172799.52
 STEP:  26 TIME =     0.02 SECS, INTEGRAL =      0.50 TIME LEFT: 172799.50
 STEP:  27 TIME =     0.02 SECS, INTEGRAL =      0.52 TIME LEFT: 172799.48
 STEP:  28 TIME =     0.02 SECS, INTEGRAL =      0.53 TIME LEFT: 172799.47
 STEP:  29 TIME =     0.02 SECS, INTEGRAL =      0.55 TIME LEFT: 172799.45
 STEP:  30 TIME =     0.02 SECS, INTEGRAL =      0.57 TIME LEFT: 172799.43
 STEP:  31 TIME =     0.02 SECS, INTEGRAL =      0.59 TIME LEFT: 172799.41
 STEP:  32 TIME =     0.02 SECS, INTEGRAL =      0.61 TIME LEFT: 172799.39
 STEP:  33 TIME =     0.02 SECS, INTEGRAL =      0.62 TIME LEFT: 172799.38
 STEP:  34 TIME =     0.02 SECS, INTEGRAL =      0.64 TIME LEFT: 172799.36
 STEP:  35 TIME =     0.02 SECS, INTEGRAL =      0.66 TIME LEFT: 172799.34
 STEP:  36 TIME =     0.02 SECS, INTEGRAL =      0.68 TIME LEFT: 172799.32
 STEP:  37 TIME =     0.02 SECS, INTEGRAL =      0.70 TIME LEFT: 172799.30
 STEP:  38 TIME =     0.02 SECS, INTEGRAL =      0.72 TIME LEFT: 172799.28
 STEP:  39 TIME =     0.02 SECS, INTEGRAL =      0.74 TIME LEFT: 172799.26
 STEP:  40 TIME =     0.02 SECS, INTEGRAL =      0.76 TIME LEFT: 172799.24
 STEP:  41 TIME =     0.02 SECS, INTEGRAL =      0.77 TIME LEFT: 172799.23
 STEP:  42 TIME =     0.02 SECS, INTEGRAL =      0.79 TIME LEFT: 172799.21
 STEP:  43 TIME =     0.02 SECS, INTEGRAL =      0.81 TIME LEFT: 172799.19
 STEP:  44 TIME =     0.02 SECS, INTEGRAL =      0.83 TIME LEFT: 172799.17
 STEP:  45 TIME =     0.02 SECS, INTEGRAL =      0.84 TIME LEFT: 172799.16
 STEP:  46 TIME =     0.02 SECS, INTEGRAL =      0.86 TIME LEFT: 172799.14
 STEP:  47 TIME =     0.02 SECS, INTEGRAL =      0.88 TIME LEFT: 172799.12
 STEP:  48 TIME =     0.02 SECS, INTEGRAL =      0.90 TIME LEFT: 172799.10
 STEP:  49 TIME =     0.02 SECS, INTEGRAL =      0.91 TIME LEFT: 172799.09
 STEP:  50 TIME =     0.02 SECS, INTEGRAL =      0.93 TIME LEFT: 172799.07
 STEP:  51 TIME =     0.02 SECS, INTEGRAL =      0.95 TIME LEFT: 172799.05
 STEP:  52 TIME =     0.02 SECS, INTEGRAL =      0.97 TIME LEFT: 172799.03
 STEP:  53 TIME =     0.02 SECS, INTEGRAL =      0.99 TIME LEFT: 172799.01
 STEP:  54 TIME =     0.02 SECS, INTEGRAL =      1.01 TIME LEFT: 172798.99
 STEP:  55 TIME =     0.02 SECS, INTEGRAL =      1.03 TIME LEFT: 172798.97
 STEP:  56 TIME =     0.02 SECS, INTEGRAL =      1.04 TIME LEFT: 172798.96
 STEP:  57 TIME =     0.02 SECS, INTEGRAL =      1.06 TIME LEFT: 172798.94
 STEP:  58 TIME =     0.02 SECS, INTEGRAL =      1.08 TIME LEFT: 172798.92
 STEP:  59 TIME =     0.02 SECS, INTEGRAL =      1.10 TIME LEFT: 172798.90
 STEP:  60 TIME =     0.02 SECS, INTEGRAL =      1.12 TIME LEFT: 172798.88

(To convert to Hartree/Bohr^2, multiply by (10^(-21) x N x a0^2)/(4.184 x 627.51) =  0.0642)


           FORCE MATRIX IN MILLIDYNES/ANGSTROM


                  C  1       C  2       C  3       C  4       C  5       C  6
 ------------------------------------------------------------------------------
     C    1  15.279808
     C    2   4.103472  15.608544
     C    3   3.849102   0.771460  15.210252
     C    4   4.847150   4.720061   0.581348  15.255727
     C    5   0.914668   1.288698   4.024980   0.092961  19.217526
     C    6   0.912704   4.789618   1.034946   0.595687   9.777301  18.084094
     C    7   0.562542   0.026156   4.884771   0.042451   0.727306   0.051200
     C    8   0.049662   0.136290   0.597393   0.024750   5.795311   0.870527
     C    9   0.053115   0.022051   0.902189   0.008529   0.165983   0.057058
     C   10   0.013914   0.035844   0.143683   0.007581   1.199016   0.141475
     H   11   4.787180   0.413049   0.420456   0.427161   0.030667   0.037083
     H   12   0.401374   4.755978   0.040535   0.434594   0.039719   0.416610
     H   13   0.422713   0.036231   4.116954   0.027939   0.412756   0.033984
     H   14   0.454500   0.456381   0.044278   4.840953   0.006753   0.044706
     H   15   0.461715   0.458990   0.026551   4.809265   0.008731   0.027621
     H   16   0.041427   0.412525   0.105056   0.014395   0.456948   5.048769
     H   17   0.017363   0.003363   0.433548   0.002232   0.041493   0.006164
     H   18   0.001364   0.007957   0.004571   0.001439   0.119006   0.011132
     H   19   0.007053   0.007295   0.035168   0.001359   0.444491   0.019404
     H   20   0.012446   0.001065   0.116535   0.001376   0.004415   0.001201


                  C  7       C  8       C  9       C 10       H 11       H 12
 ------------------------------------------------------------------------------
     C    7  17.915058
     C    8   0.180979  18.242616
     C    9  10.090417   1.119683  18.170032
     C   10   1.115030   9.848870   5.467985  18.098071
     H   11   0.020205   0.005015   0.002966   0.001139   5.324480
     H   12   0.002282   0.013246   0.001652   0.003270   0.014336   5.285190
     H   13   0.387139   0.015405   0.035360   0.017596   0.016156   0.006269
     H   14   0.007000   0.004514   0.002360   0.001128   0.017739   0.018475
     H   15   0.004089   0.002415   0.001328   0.001077   0.035594   0.034673
     H   16   0.018121   0.057102   0.008890   0.010751   0.003271   0.015251
     H   17   4.866117   0.014966   0.443147   0.120287   0.018689   0.000520
     H   18   0.047333   0.439366   0.431734   4.869398   0.000295   0.000791
     H   19   0.017501   4.880963   0.119450   0.446604   0.001157   0.000810
     H   20   0.443679   0.047601   4.858403   0.432766   0.000656   0.000321


                  H 13       H 14       H 15       H 16       H 17       H 18
 ------------------------------------------------------------------------------
     H   13   4.581806
     H   14   0.003764   5.437255
     H   15   0.023151   0.488575   5.422228
     H   16   0.015932   0.001090   0.003353   5.441060
     H   17   0.013362   0.000531   0.000737   0.003754   5.244966
     H   18   0.001043   0.000212   0.000319   0.003494   0.007433   5.234316
     H   19   0.004145   0.000392   0.000452   0.006154   0.008375   0.060514
     H   20   0.014516   0.000335   0.000204   0.000695   0.063285   0.031751


                  H 19       H 20
 ------------------------------
     H   19   5.255665
     H   20   0.007017   5.223278


          HEAT OF FORMATION =      73.365618 KCALS/MOLE

          ZERO POINT ENERGY     106.192 KCAL/MOL


           NORMAL COORDINATE ANALYSIS (Total motion = 1 Angstrom)


   Root No.       1         2         3         4         5         6         7         8

                 1 A       2 A       3 A       4 A       5 A       6 A       7 A       8 A   

                 146.9     167.4     317.1     344.1     423.4     439.9     480.2     564.1
  
           1   -0.0146    0.0124    0.0136   -0.0075   -0.0162    0.0024    0.0008   -0.0003
           2   -0.0010   -0.0114   -0.0245   -0.0047    0.0198    0.0006    0.0012   -0.0408
           3   -0.0307    0.0106    0.0135   -0.0371    0.0158   -0.0176   -0.0117    0.0202
           4   -0.0151    0.0128    0.0160   -0.0074   -0.0183    0.0039   -0.0029   -0.0090
           5   -0.0104   -0.0103    0.0021    0.0006   -0.0053   -0.0154   -0.0149   -0.0305
           6    0.0193   -0.0332    0.0048    0.0098    0.0460    0.0007   -0.0068    0.0195
           7   -0.0079    0.0137   -0.0237   -0.0156    0.0085    0.0086    0.0247    0.0218
           8    0.0001   -0.0121   -0.0310   -0.0039    0.0143    0.0055    0.0062   -0.0230
           9   -0.0002    0.0429    0.0171    0.0058    0.0120    0.0282    0.0130   -0.0213
          10    0.0230   -0.0228    0.0217    0.0425    0.0012    0.0252   -0.0064   -0.0003
          11    0.0299    0.0262    0.0347   -0.0292    0.0499   -0.0131   -0.0169    0.0119
          12   -0.0191   -0.0251   -0.0076   -0.0042    0.0178   -0.0074   -0.0090   -0.0016
          13   -0.0042    0.0150   -0.0305   -0.0170    0.0237    0.0163    0.0206   -0.0021
          14   -0.0063   -0.0148   -0.0155   -0.0005    0.0006   -0.0142    0.0097    0.0082
          15    0.0038    0.0419   -0.0166   -0.0040   -0.0246    0.0423   -0.0168   -0.0097
          16   -0.0079    0.0141   -0.0137   -0.0153    0.0168    0.0133    0.0097   -0.0171
          17   -0.0139   -0.0125    0.0064    0.0050   -0.0088   -0.0136   -0.0133   -0.0169
          18    0.0453    0.0016    0.0049   -0.0331   -0.0445   -0.0289    0.0162   -0.0211
          19    0.0196    0.0022   -0.0264    0.0123   -0.0034   -0.0337    0.0281    0.0464
          20   -0.0103   -0.0021    0.0175    0.0013   -0.0214    0.0309   -0.0002    0.0209
          21    0.0323    0.0264   -0.0021    0.0363    0.0072   -0.0140    0.0204   -0.0284
          22   -0.0108    0.0067    0.0019    0.0105    0.0106   -0.0229   -0.0324   -0.0310
          23    0.0048   -0.0099   -0.0160   -0.0081   -0.0094    0.0006    0.0173    0.0144
          24   -0.0368    0.0202   -0.0196    0.0313   -0.0068   -0.0193   -0.0328    0.0238
          25    0.0219   -0.0281    0.0008   -0.0118   -0.0192   -0.0029   -0.0372    0.0132
          26   -0.0048    0.0251    0.0220    0.0259   -0.0152    0.0094    0.0203    0.0094
          27    0.0202   -0.0310   -0.0106   -0.0124   -0.0122    0.0358   -0.0182    0.0041
          28   -0.0054   -0.0228    0.0342    0.0000   -0.0002   -0.0069    0.0048   -0.0238
          29    0.0081    0.0155   -0.0042    0.0165   -0.0340    0.0028   -0.0060    0.0488
          30   -0.0308   -0.0407    0.0211    0.0002   -0.0062    0.0067    0.0453    0.0201
          31   -0.0375    0.0282    0.0303   -0.0213   -0.0433   -0.0107   -0.0134   -0.0146
          32   -0.0158   -0.0243   -0.0514   -0.0149    0.0149   -0.0071    0.0080   -0.0430
          33   -0.0730    0.0109   -0.0038   -0.0630   -0.0189   -0.0409   -0.0176    0.0003
          34   -0.0376    0.0295    0.0352   -0.0211   -0.0437   -0.0082   -0.0130    0.0064
          35   -0.0262   -0.0292    0.0013    0.0272   -0.0064   -0.0081   -0.0258   -0.0283
          36    0.0230   -0.0759   -0.0184    0.0588    0.0699    0.0233   -0.0091    0.0040
          37   -0.0242    0.0169   -0.0406   -0.0393    0.0035    0.0500   -0.0001    0.0311
          38    0.0184    0.0008   -0.0639    0.0115    0.0272    0.0352    0.0162   -0.0635
          39    0.0125    0.0433    0.0157    0.0211    0.0164    0.0152    0.0263   -0.0359
          40    0.0242   -0.0285    0.0429    0.0514   -0.0244    0.0116   -0.0226    0.0093
          41    0.0386    0.0351    0.0488   -0.0376    0.0672   -0.0156   -0.0220    0.0357
          42   -0.0517   -0.0588   -0.0583    0.0259   -0.0418    0.0004    0.0078   -0.0845
          43    0.0584   -0.0513    0.0090    0.0841    0.0460    0.0612    0.0026   -0.0016
          44    0.0584    0.0541    0.0773   -0.0537    0.1026   -0.0200   -0.0310    0.0817
          45    0.0003   -0.0061    0.0206   -0.0202    0.0520   -0.0117   -0.0178    0.0437
          46   -0.0076    0.0155   -0.0220   -0.0155    0.0262    0.0201    0.0150   -0.0098
          47   -0.0216   -0.0137    0.0340    0.0139   -0.0240   -0.0179   -0.0381   -0.0336
          48    0.0763   -0.0163    0.0111   -0.0734   -0.1340   -0.1249    0.0496   -0.0659
          49    0.0407    0.0160   -0.0639    0.0381    0.0097   -0.0857    0.0407    0.0582
          50   -0.0204   -0.0080    0.0526   -0.0079   -0.0377    0.0623   -0.0153    0.0132
          51    0.0662    0.0499   -0.0173    0.0866    0.0013   -0.0822    0.0174   -0.0122
          52   -0.0210   -0.0371    0.0809    0.0164    0.0081   -0.0185    0.0606   -0.0348
          53    0.0164    0.0286   -0.0132    0.0165   -0.0391    0.0154   -0.0279    0.0481
          54   -0.0626   -0.0864    0.0648    0.0055    0.0137   -0.0363    0.1343    0.0187
          55   -0.0251    0.0195    0.0138    0.0449    0.0078   -0.0678   -0.0714   -0.0270
          56    0.0081   -0.0185   -0.0358   -0.0319    0.0055    0.0244    0.0501    0.0144
          57   -0.0750    0.0394   -0.0336    0.0816    0.0234   -0.1058   -0.0763    0.0360
          58    0.0458   -0.0478   -0.0150   -0.0258   -0.0330    0.0095   -0.1158    0.0107
          59   -0.0088    0.0504    0.0502    0.0423    0.0019    0.0097    0.0452   -0.0547
          60    0.0461   -0.0626   -0.0390   -0.0337   -0.0344    0.0481   -0.1093    0.0308


   Root No.       9        10        11        12        13        14        15        16

                 9 A      10 A      11 A      12 A      13 A      14 A      15 A      16 A   

                 567.6     678.6     715.7     763.8     812.9     842.5     868.8     884.9
  
           1   -0.0206   -0.0120   -0.0348   -0.0054   -0.0004   -0.0030    0.0132   -0.0203
           2   -0.0264    0.0138   -0.0373   -0.0137   -0.0159    0.0029    0.0096    0.0064
           3   -0.0058   -0.0018   -0.0073    0.0000    0.0119   -0.0034    0.0040    0.0060
           4   -0.0300    0.0025   -0.0335   -0.0065   -0.0069   -0.0028   -0.0161    0.0126
           5    0.0179    0.0276    0.0470    0.0054   -0.0027    0.0051    0.0022   -0.0084
           6    0.0061    0.0018    0.0008   -0.0022   -0.0046    0.0000   -0.0049   -0.0072
           7    0.0116   -0.0118    0.0169    0.0050   -0.0079   -0.0074   -0.0155   -0.0120
           8   -0.0229    0.0003   -0.0218   -0.0013    0.0129   -0.0156    0.0066    0.0157
           9    0.0235   -0.0413    0.0131    0.0115   -0.0188    0.0143   -0.0112   -0.0041
          10   -0.0070   -0.0093   -0.0041    0.0023    0.0141   -0.0044    0.0096    0.0156
          11   -0.0042    0.0144    0.0000   -0.0038   -0.0055    0.0007   -0.0119    0.0156
          12   -0.0046    0.0144   -0.0022   -0.0045   -0.0021   -0.0005   -0.0161    0.0242
          13   -0.0096   -0.0132    0.0205    0.0119    0.0042    0.0155    0.0088    0.0092
          14    0.0234   -0.0450   -0.0026    0.0035    0.0106   -0.0033   -0.0042   -0.0057
          15    0.0606    0.0518   -0.0215    0.0030    0.0040   -0.0128    0.0039   -0.0086
          16   -0.0237    0.0217    0.0355    0.0114   -0.0154    0.0285    0.0094    0.0037
          17    0.0207    0.0149    0.0243   -0.0000   -0.0103    0.0046   -0.0129   -0.0226
          18   -0.0005   -0.0010    0.0021    0.0096   -0.0030   -0.0200   -0.0018   -0.0110
          19   -0.0020    0.0297    0.0171   -0.0221   -0.0103   -0.0299   -0.0081   -0.0143
          20   -0.0431    0.0030    0.0140    0.0096    0.0134   -0.0087   -0.0116   -0.0167
          21   -0.0087   -0.0091   -0.0008   -0.0101   -0.0039   -0.0066    0.0128    0.0101
          22    0.0241   -0.0286   -0.0024   -0.0065    0.0307   -0.0046   -0.0106   -0.0128
          23    0.0522   -0.0468   -0.0196    0.0095    0.0144   -0.0029    0.0019   -0.0012
          24   -0.0140   -0.0075    0.0062   -0.0221    0.0103    0.0215   -0.0021    0.0056
          25    0.0341    0.0002   -0.0039   -0.0144   -0.0303    0.0077    0.0141    0.0193
          26   -0.0294    0.0091    0.0056    0.0082    0.0105    0.0007   -0.0049   -0.0079
          27   -0.0459   -0.0166    0.0201   -0.0062    0.0053   -0.0310   -0.0022   -0.0133
          28    0.0263    0.0090   -0.0045   -0.0086    0.0128    0.0050   -0.0052   -0.0036
          29    0.0103    0.0052   -0.0114   -0.0013   -0.0286    0.0236    0.0172    0.0260
          30    0.0094    0.0141   -0.0038   -0.0160    0.0095    0.0194   -0.0014    0.0060
          31   -0.0277    0.0019   -0.0337   -0.0033    0.0252    0.0056    0.1257   -0.0781
          32   -0.0376    0.0259   -0.0542   -0.0220   -0.0041   -0.0192    0.0443    0.0198
          33   -0.0266    0.0275   -0.0274   -0.0082    0.0516   -0.0194    0.1662   -0.0415
          34   -0.0203   -0.0088   -0.0421   -0.0025    0.0165   -0.0435   -0.1071    0.0932
          35    0.0334    0.0286    0.0534   -0.0020   -0.0018    0.0124   -0.0006   -0.0462
          36    0.0153    0.0149    0.0195   -0.0151   -0.0274    0.0540    0.0948   -0.1431
          37    0.0481    0.0335    0.0075    0.0449    0.0133   -0.0266   -0.0357   -0.0196
          38    0.0077    0.0439   -0.0188    0.0087    0.0013   -0.0415    0.0235    0.0619
          39    0.0133   -0.0510    0.0174   -0.0043   -0.0299    0.0169    0.0036    0.0109
          40    0.0375    0.0119    0.1394    0.0548    0.1266   -0.0677    0.0960    0.1620
          41   -0.0046    0.0110   -0.0043   -0.0053    0.0061   -0.0001    0.0067    0.0019
          42   -0.0027    0.0280    0.0146    0.0001   -0.0401    0.0019   -0.0753    0.0716
          43   -0.0282   -0.0363   -0.0958   -0.0337   -0.0562    0.0493   -0.0462   -0.0751
          44   -0.0059    0.0027   -0.0160   -0.0097    0.0252    0.0001    0.0404   -0.0242
          45   -0.0054    0.0060   -0.0125   -0.0081    0.0176   -0.0010    0.0172   -0.0011
          46   -0.0162    0.0146    0.0411    0.0193   -0.0085    0.0304    0.0235    0.0123
          47    0.0148    0.0553   -0.0061   -0.0172   -0.0329   -0.0305   -0.0623   -0.0564
          48   -0.1064   -0.0844    0.0583   -0.0370   -0.0093    0.1334    0.0013    0.0193
          49   -0.0278    0.1010   -0.0376    0.0580    0.0890    0.0179   -0.0525   -0.0431
          50   -0.0192   -0.0397    0.0458   -0.0389   -0.0548   -0.0224    0.0245    0.0091
          51   -0.0202    0.0839   -0.0745    0.0927    0.1024    0.0978   -0.0188   -0.0035
          52   -0.0116    0.0607   -0.0150    0.0924   -0.0436   -0.0328    0.0102   -0.0105
          53   -0.0075    0.0058    0.0073   -0.0449   -0.0039    0.0323    0.0046    0.0186
          54    0.0525    0.0259   -0.0667    0.1556   -0.0867   -0.0184    0.0447    0.0292
          55    0.0064   -0.0350   -0.0096    0.0536   -0.0512   -0.0658    0.0043   -0.0158
          56    0.0519   -0.0741   -0.0079   -0.0118    0.0691    0.0289   -0.0041    0.0001
          57   -0.0717   -0.0996    0.0123    0.1207   -0.1181   -0.0982    0.0315   -0.0005
          58    0.0004   -0.0028   -0.0374    0.1079    0.0010    0.0792   -0.0115    0.0045
          59   -0.0151   -0.0173    0.0209   -0.0491    0.0127   -0.0427    0.0176    0.0004
          60   -0.0863   -0.0084   -0.0210    0.1443    0.0367    0.0615   -0.0381   -0.0323


   Root No.      17        18        19        20        21        22        23        24

                17 A      18 A      19 A      20 A      21 A      22 A      23 A      24 A   

                 898.7     945.3     958.7     968.7     992.4    1007.7    1043.4    1060.9
  
           1   -0.0120    0.0124   -0.0101    0.0009   -0.0278    0.0045    0.0123   -0.0176
           2   -0.0041    0.0233    0.0056   -0.0003   -0.0141   -0.0063   -0.0116   -0.0001
           3    0.0096    0.0123    0.0177   -0.0055    0.0012    0.0055    0.0011   -0.0131
           4   -0.0027   -0.0229   -0.0215    0.0075   -0.0111   -0.0098    0.0004    0.0148
           5   -0.0018    0.0053    0.0134   -0.0019    0.0097    0.0033    0.0016   -0.0087
           6   -0.0097   -0.0027   -0.0131    0.0029   -0.0135    0.0040    0.0141   -0.0066
           7    0.0165    0.0275   -0.0136   -0.0087    0.0007    0.0112   -0.0066    0.0011
           8    0.0121    0.0070   -0.0145   -0.0013    0.0044    0.0057   -0.0093   -0.0110
           9    0.0089    0.0374   -0.0111   -0.0133    0.0006    0.0072   -0.0273    0.0140
          10    0.0104    0.0110    0.0125   -0.0031    0.0046   -0.0011   -0.0035    0.0003
          11   -0.0042    0.0182    0.0217   -0.0022   -0.0176   -0.0032    0.0202    0.0127
          12    0.0111   -0.0182   -0.0022    0.0052    0.0089   -0.0100   -0.0075    0.0090
          13   -0.0119   -0.0160    0.0085    0.0021    0.0032   -0.0023    0.0002   -0.0034
          14   -0.0035    0.0020   -0.0010    0.0001    0.0019    0.0061    0.0013   -0.0056
          15    0.0278   -0.0161    0.0184    0.0081   -0.0139   -0.0264   -0.0031   -0.0040
          16   -0.0244   -0.0335    0.0028    0.0018    0.0068   -0.0051   -0.0043   -0.0068
          17    0.0025   -0.0124   -0.0096    0.0006    0.0090    0.0048   -0.0043   -0.0052
          18   -0.0538    0.0068   -0.0083    0.0000    0.0187    0.0130   -0.0069   -0.0002
          19    0.0134    0.0174    0.0085    0.0262    0.0044   -0.0234    0.0021    0.0145
          20    0.0014   -0.0018    0.0084   -0.0036   -0.0081   -0.0003   -0.0151    0.0196
          21   -0.0011   -0.0099   -0.0056    0.0177    0.0117   -0.0055    0.0349   -0.0152
          22    0.0008   -0.0059    0.0051    0.0225   -0.0041    0.0070   -0.0025   -0.0033
          23   -0.0039   -0.0250    0.0096    0.0015   -0.0065   -0.0194    0.0044   -0.0021
          24   -0.0098    0.0071   -0.0032    0.0272    0.0017    0.0350   -0.0004    0.0060
          25   -0.0047   -0.0064    0.0031   -0.0189   -0.0057    0.0227   -0.0112    0.0250
          26   -0.0014    0.0015   -0.0021    0.0092    0.0046   -0.0114    0.0118    0.0033
          27    0.0060   -0.0214    0.0123   -0.0116   -0.0154    0.0230   -0.0100   -0.0133
          28   -0.0027    0.0048   -0.0066   -0.0151    0.0044   -0.0184    0.0028   -0.0103
          29   -0.0072    0.0005   -0.0079   -0.0039    0.0008    0.0154   -0.0052   -0.0295
          30   -0.0155    0.0060   -0.0099   -0.0288    0.0082   -0.0322    0.0077   -0.0046
          31   -0.0123    0.0373    0.0379   -0.0191    0.0364    0.0104    0.0470    0.0426
          32    0.0112    0.0341   -0.0159    0.0043    0.0164   -0.0113   -0.0517    0.0104
          33    0.0265    0.0520    0.0440   -0.0213    0.1074    0.0057   -0.0105    0.0645
          34    0.0221   -0.0406    0.0119    0.0081    0.0749    0.0103   -0.0016   -0.0412
          35    0.0437   -0.0094   -0.0019    0.0028    0.0104    0.0029    0.0041   -0.0328
          36    0.0196   -0.0008   -0.0686    0.0081   -0.1098   -0.0192    0.0202    0.0249
          37    0.0861    0.0225   -0.0451   -0.1165    0.0311    0.1316    0.1995   -0.0023
          38    0.0765   -0.0028   -0.1315   -0.0408    0.0847    0.0358    0.0488    0.0808
          39   -0.0079    0.0359   -0.0248    0.0273    0.0069   -0.0413   -0.1084    0.0376
          40    0.0218    0.0679   -0.0223   -0.0013   -0.0318   -0.0148   -0.0477    0.0150
          41    0.0138   -0.0129   -0.0068    0.0029    0.0053   -0.0043   -0.0032    0.0027
          42   -0.0487    0.0914    0.0965   -0.0121   -0.0707   -0.0074    0.0725    0.0434
          43    0.0501    0.0043    0.1470   -0.0363    0.1803    0.0312   -0.0289    0.0002
          44    0.0493   -0.0709   -0.0567    0.0131    0.0519   -0.0094   -0.0503   -0.0125
          45    0.0448   -0.0748   -0.0522    0.0151    0.0532   -0.0139   -0.0529   -0.0075
          46   -0.0445   -0.0316    0.0281    0.0000    0.0106   -0.0077    0.0064   -0.0362
          47    0.0026   -0.0197   -0.1014    0.0112    0.0123    0.0224   -0.0464    0.0938
          48    0.2727   -0.0257    0.0148   -0.0167   -0.0560   -0.0381    0.0161    0.0053
          49    0.0128    0.0167    0.0142   -0.0782   -0.0378    0.0299   -0.0938   -0.0094
          50   -0.0135   -0.0217    0.0123    0.0589    0.0189   -0.0336    0.0713    0.0871
          51   -0.0445   -0.0659    0.0215   -0.1195   -0.0387    0.0600   -0.0153    0.0870
          52    0.0540    0.0108    0.0069    0.0693   -0.0072    0.0951   -0.0055   -0.0836
          53   -0.0250    0.0151   -0.0240   -0.0461    0.0127   -0.0186    0.0047   -0.0529
          54    0.0566   -0.0409    0.0448    0.1313   -0.0329    0.1121   -0.0241    0.0428
          55    0.0258   -0.0026   -0.0050   -0.0698   -0.0070   -0.0609   -0.0209   -0.0848
          56   -0.0342   -0.0550    0.0313    0.0580   -0.0049    0.0039    0.0362    0.1153
          57   -0.0063   -0.0592    0.0207   -0.1306   -0.0035   -0.1281    0.0237    0.0552
          58   -0.0078    0.0535   -0.0398    0.0618    0.0443   -0.0510    0.0669    0.0287
          59   -0.0034   -0.0776    0.0139   -0.0417   -0.0195    0.0763    0.0603    0.0244
          60    0.0031    0.0735   -0.0381    0.0935    0.0461   -0.0919    0.0488   -0.0202


   Root No.      25        26        27        28        29        30        31        32

                25 A      26 A      27 A      28 A      29 A      30 A      31 A      32 A   

                1068.5    1081.3    1100.3    1122.1    1136.4    1144.7    1161.5    1183.9
  
           1   -0.0112   -0.0196    0.0351   -0.0085    0.0168   -0.0087   -0.0176   -0.0112
           2   -0.0218   -0.0012   -0.0078   -0.0068   -0.0111   -0.0045   -0.0024   -0.0108
           3   -0.0195   -0.0017   -0.0111   -0.0005    0.0620   -0.0199    0.0054    0.0119
           4    0.0172    0.0076   -0.0387    0.0055   -0.0169    0.0077   -0.0141   -0.0165
           5    0.0033   -0.0200   -0.0027   -0.0041   -0.0005   -0.0000    0.0046   -0.0053
           6    0.0056   -0.0056    0.0797   -0.0074   -0.0255    0.0062   -0.0106    0.0029
           7   -0.0115   -0.0014   -0.0015    0.0033   -0.0171    0.0144    0.0027   -0.0036
           8   -0.0038   -0.0085    0.0069    0.0063    0.0250    0.0044   -0.0097    0.0152
           9    0.0018   -0.0036   -0.0066   -0.0028   -0.0111   -0.0001    0.0027   -0.0023
          10   -0.0032   -0.0024   -0.0151   -0.0020    0.0099   -0.0099    0.0722    0.0219
          11    0.0196    0.0100   -0.0092    0.0061   -0.0070    0.0055   -0.0026    0.0067
          12    0.0114    0.0035   -0.0349    0.0055   -0.0124    0.0052    0.0084   -0.0221
          13    0.0012    0.0003    0.0028    0.0039   -0.0012   -0.0017   -0.0062    0.0151
          14   -0.0029   -0.0051   -0.0007    0.0027   -0.0077   -0.0028    0.0044   -0.0149
          15   -0.0071   -0.0039    0.0147    0.0067   -0.0006   -0.0009    0.0001   -0.0022
          16   -0.0014    0.0189    0.0145   -0.0053    0.0105   -0.0003    0.0015    0.0063
          17   -0.0114    0.0072    0.0197   -0.0033    0.0053   -0.0043    0.0148   -0.0209
          18   -0.0007   -0.0055   -0.0247   -0.0006    0.0047   -0.0008   -0.0016    0.0021
          19   -0.0005   -0.0048   -0.0015   -0.0072    0.0054   -0.0042    0.0026   -0.0083
          20    0.0034   -0.0070    0.0034   -0.0118    0.0041    0.0004    0.0001   -0.0006
          21   -0.0102    0.0095   -0.0068   -0.0025    0.0022    0.0017   -0.0042    0.0100
          22    0.0139    0.0143   -0.0051   -0.0132   -0.0015   -0.0044   -0.0019    0.0044
          23    0.0117    0.0173   -0.0037   -0.0053   -0.0022    0.0022    0.0007   -0.0024
          24   -0.0011   -0.0024   -0.0013    0.0033   -0.0015    0.0013    0.0028   -0.0059
          25   -0.0120   -0.0184    0.0052    0.0041    0.0074    0.0019   -0.0003    0.0009
          26   -0.0030   -0.0006    0.0005   -0.0002    0.0027    0.0044   -0.0006    0.0030
          27    0.0132    0.0112   -0.0019   -0.0002   -0.0082   -0.0005    0.0009   -0.0008
          28    0.0022    0.0040   -0.0003    0.0053   -0.0002   -0.0043   -0.0016    0.0062
          29    0.0173    0.0180   -0.0062    0.0025   -0.0029   -0.0011   -0.0039    0.0125
          30   -0.0028    0.0009   -0.0000    0.0015    0.0010    0.0046   -0.0002    0.0003
          31    0.1325    0.0077    0.0787    0.0270   -0.0209    0.0325   -0.0311   -0.0303
          32   -0.1027    0.0186   -0.0094   -0.0354   -0.1439    0.0077    0.0475    0.0388
          33    0.0373    0.0531    0.0365    0.0034   -0.1400    0.0395    0.0510    0.0516
          34    0.0172   -0.1232    0.0800   -0.0189   -0.1018    0.0332   -0.0787    0.1158
          35    0.0248   -0.1508   -0.1201   -0.0009   -0.0377    0.0263   -0.1113    0.1449
          36    0.0334   -0.0259   -0.2022    0.0239    0.0236    0.0106   -0.0842    0.0458
          37   -0.0451    0.0562   -0.0999   -0.0498   -0.0453   -0.0212   -0.0024   -0.0011
          38    0.1529   -0.0595    0.0720   -0.0217    0.1298   -0.0644    0.0185   -0.0413
          39    0.0564   -0.0434    0.0568    0.0151    0.0290   -0.0009    0.0117   -0.0166
          40   -0.0607    0.0593   -0.0014    0.0088    0.0019    0.0146   -0.2248   -0.0657
          41    0.0007   -0.0002   -0.0177    0.0012   -0.0103    0.0033    0.0008   -0.0016
          42    0.0754    0.0366   -0.0082    0.0223   -0.0046    0.0142   -0.0091    0.0038
          43   -0.0207    0.0425   -0.0131    0.0156    0.0612    0.0055   -0.1870   -0.0545
          44   -0.0260   -0.0242   -0.0441   -0.0050   -0.0208    0.0014    0.0089   -0.0330
          45   -0.0172   -0.0187   -0.0550   -0.0015   -0.0193    0.0021    0.0162   -0.0492
          46    0.0109   -0.0319   -0.0098   -0.0194   -0.0015    0.0025    0.0182   -0.0419
          47   -0.0516    0.1806    0.0840    0.0442    0.0495   -0.0125   -0.0444    0.1460
          48   -0.0041    0.0156    0.0716   -0.0002   -0.0073   -0.0036   -0.0010    0.0077
          49    0.0442    0.0013    0.0075    0.0575    0.0232    0.0535    0.0169    0.0063
          50   -0.0594   -0.0333    0.0003   -0.1194   -0.0340   -0.0913   -0.0200   -0.0314
          51   -0.0449   -0.0376    0.0093   -0.0990   -0.0515   -0.0788   -0.0164   -0.0261
          52    0.0080   -0.0030    0.0076    0.1744   -0.1007   -0.1794    0.0077   -0.0573
          53    0.0138    0.0158   -0.0036    0.0500   -0.0280   -0.0451   -0.0016   -0.0031
          54    0.0116    0.0085   -0.0067   -0.0902    0.0472    0.0894   -0.0048    0.0319
          55    0.0365    0.0457   -0.0106   -0.0946    0.0005    0.0573    0.0080   -0.0224
          56   -0.0264   -0.0295    0.0096    0.1265   -0.0055   -0.0959   -0.0174    0.0447
          57   -0.0336   -0.0305    0.0173    0.0858   -0.0005   -0.0511   -0.0114    0.0292
          58   -0.0610   -0.0343    0.0157    0.0665    0.0256    0.1139    0.0278   -0.0299
          59   -0.0736   -0.0372    0.0261    0.1248    0.0317    0.2203    0.0549   -0.0562
          60   -0.0039    0.0134   -0.0034    0.0041   -0.0038    0.0159    0.0040   -0.0047


   Root No.      33        34        35        36        37        38        39        40

                33 A      34 A      35 A      36 A      37 A      38 A      39 A      40 A   

                1190.0    1210.9    1284.4    1328.3    1381.4    1397.9    1417.5    1489.0
  
           1   -0.0018    0.0163   -0.0096    0.0275    0.0222   -0.0037    0.0117    0.0038
           2    0.0246    0.0018   -0.0575   -0.0213   -0.0159    0.0137   -0.0316    0.0087
           3   -0.0152    0.0039   -0.0052   -0.0130   -0.0097   -0.0008   -0.0057   -0.0014
           4   -0.0039    0.0051    0.0295   -0.0081   -0.0044   -0.0278    0.0083   -0.0217
           5    0.0116    0.0027   -0.0150    0.0450    0.0150   -0.0608    0.0268    0.0063
           6    0.0065    0.0059    0.0072   -0.0064   -0.0030   -0.0132    0.0075   -0.0064
           7   -0.0165   -0.0150    0.0094    0.0467   -0.0288    0.0165   -0.0351    0.0774
           8    0.0112   -0.0365    0.0614    0.0053   -0.0127   -0.0012    0.0577    0.0042
           9    0.0191    0.0046   -0.0021   -0.0223    0.0005   -0.0063    0.0392   -0.0271
          10    0.0012   -0.0092   -0.0059   -0.0044   -0.0029    0.0053   -0.0022    0.0016
          11   -0.0158    0.0008    0.0120    0.0006   -0.0023   -0.0033   -0.0074    0.0052
          12    0.0132   -0.0123   -0.0081    0.0162   -0.0050   -0.0206   -0.0180    0.0159
          13   -0.0071   -0.0217   -0.0119    0.0029    0.0285   -0.0182   -0.0290   -0.0708
          14   -0.0101   -0.0196    0.0137   -0.0089    0.0220   -0.0012   -0.0434   -0.0766
          15   -0.0027   -0.0061    0.0087    0.0030    0.0022    0.0009   -0.0122   -0.0163
          16   -0.0003    0.0096   -0.0013   -0.0241   -0.0052    0.0161    0.0203    0.0313
          17   -0.0036    0.0124    0.0380   -0.0256   -0.0217    0.0477   -0.0215   -0.0173
          18   -0.0004    0.0006   -0.0020   -0.0031   -0.0017    0.0050   -0.0017   -0.0006
          19    0.0040   -0.0007   -0.0150   -0.0217   -0.0068   -0.0037    0.0347   -0.0351
          20    0.0081    0.0056    0.0079   -0.0111    0.0173   -0.0036   -0.0065    0.0164
          21    0.0079    0.0009    0.0199    0.0083    0.0148    0.0008   -0.0280    0.0335
          22    0.0033    0.0144   -0.0100    0.0081   -0.0156    0.0035    0.0129    0.0044
          23   -0.0103    0.0035   -0.0230   -0.0223    0.0097   -0.0084    0.0288    0.0734
          24   -0.0031   -0.0021   -0.0004   -0.0110    0.0088   -0.0018   -0.0000    0.0175
          25    0.0107   -0.0040    0.0228   -0.0143    0.0297   -0.0062   -0.0167    0.0380
          26    0.0082    0.0091    0.0106    0.0027    0.0186   -0.0005   -0.0314    0.0273
          27   -0.0065    0.0080   -0.0141    0.0125   -0.0143    0.0047   -0.0022   -0.0148
          28    0.0065    0.0102    0.0050    0.0201   -0.0196    0.0107   -0.0114   -0.0429
          29    0.0005    0.0098   -0.0136    0.0248   -0.0290    0.0058    0.0100   -0.0375
          30   -0.0040   -0.0053   -0.0058   -0.0053    0.0044   -0.0051    0.0090    0.0133
          31    0.1003   -0.1267   -0.0422   -0.0211   -0.0447    0.0522   -0.0430    0.0337
          32   -0.0949    0.1507    0.0309    0.0221    0.0553   -0.0362    0.0365   -0.0265
          33   -0.0525    0.0335    0.0682   -0.0154    0.0050   -0.0017    0.0173   -0.0157
          34    0.0018   -0.0059   -0.0455   -0.0810   -0.0231    0.0633   -0.0214    0.0106
          35   -0.0340   -0.0068   -0.0595   -0.0428   -0.0059    0.0480   -0.0102    0.0343
          36   -0.0583    0.0059    0.0371   -0.0402   -0.0094    0.0242   -0.0064   -0.0107
          37    0.0869    0.0405   -0.0221   -0.0548    0.0250   -0.0080    0.0434   -0.0348
          38   -0.0899    0.0943   -0.0780   -0.0054    0.0136   -0.0018   -0.0495   -0.0003
          39   -0.0558    0.0112   -0.0208    0.0240   -0.0167    0.0034   -0.0257    0.0229
          40    0.0004    0.0237   -0.0185   -0.0332   -0.0121    0.0293   -0.0219   -0.0009
          41    0.0011   -0.0012    0.0034   -0.0110   -0.0310   -0.0638   -0.0328    0.0168
          42   -0.0457   -0.0039    0.0111    0.0756    0.1238    0.2412    0.0918   -0.0296
          43   -0.0397    0.0336    0.0216    0.0245    0.0087   -0.0278    0.0092   -0.0016
          44    0.0335   -0.0092   -0.0512    0.0787    0.1089    0.1924    0.0847   -0.0258
          45    0.0454   -0.0195   -0.0510    0.0728    0.0765    0.1244    0.0496   -0.0070
          46    0.0035    0.0391    0.0412   -0.0417   -0.0269    0.0395    0.0181    0.0307
          47   -0.0183   -0.0881   -0.1058    0.0238    0.0521   -0.0279   -0.0078   -0.0097
          48    0.0014    0.0000   -0.0031   -0.0045    0.0033   -0.0016    0.0031   -0.0053
          49    0.0410    0.0602    0.0019   -0.0374    0.0401   -0.0115   -0.0084   -0.0008
          50   -0.0626   -0.0960   -0.0237    0.0167   -0.0628    0.0096    0.0679   -0.0372
          51   -0.0743   -0.0876   -0.0179    0.0431   -0.0636    0.0142    0.0351   -0.0142
          52   -0.0667   -0.0588   -0.0275   -0.0733    0.0364   -0.0208    0.0461    0.0871
          53   -0.0189   -0.0085   -0.0236    0.0014   -0.0164   -0.0025    0.0277   -0.0039
          54    0.0328    0.0335    0.0072    0.0444   -0.0258    0.0110   -0.0206   -0.0554
          55   -0.0500   -0.0491   -0.0288   -0.0440    0.0359   -0.0191    0.0167    0.0512
          56    0.0705    0.1001    0.0011    0.0617   -0.0721    0.0249    0.0270    0.0025
          57    0.0390    0.0426    0.0130    0.0400   -0.0342    0.0140   -0.0027   -0.0247
          58   -0.0308   -0.0159   -0.0352   -0.0257   -0.0055   -0.0076    0.0389   -0.0085
          59   -0.0775   -0.0118   -0.1053   -0.0153   -0.0545   -0.0020    0.0775   -0.0703
          60   -0.0110    0.0065   -0.0232    0.0132   -0.0206    0.0053    0.0028   -0.0208


   Root No.      41        42        43        44        45        46        47        48

                41 A      42 A      43 A      44 A      45 A      46 A      47 A      48 A   

                1547.9    1805.0    1828.8    1876.7    2849.9    3056.0    3062.7    3069.6
  
           1    0.0957   -0.0000   -0.0035   -0.0030   -0.0010    0.0004   -0.0005    0.0030
           2   -0.0424   -0.0021   -0.0032   -0.0047    0.0005    0.0004   -0.0004    0.0037
           3   -0.0585   -0.0008    0.0024   -0.0007    0.0002   -0.0004    0.0004   -0.0025
           4   -0.0975   -0.0017   -0.0013   -0.0052    0.0003    0.0000    0.0001    0.0297
           5   -0.0557    0.0073    0.0024    0.0024   -0.0003   -0.0001   -0.0001   -0.0333
           6   -0.0556    0.0004   -0.0010   -0.0029   -0.0001    0.0000    0.0001    0.0259
           7   -0.0331    0.0049   -0.0123    0.0123   -0.0304    0.0001   -0.0001   -0.0004
           8    0.0195   -0.0029    0.0155   -0.0129    0.0161   -0.0001   -0.0001    0.0002
           9    0.0188   -0.0012    0.0172   -0.0089   -0.0642   -0.0002   -0.0000   -0.0002
          10   -0.0016    0.0005    0.0014    0.0017   -0.0001   -0.0000   -0.0000    0.0003
          11    0.0450    0.0002   -0.0001    0.0011    0.0003   -0.0001    0.0002    0.0116
          12    0.1136    0.0005   -0.0008    0.0016   -0.0002    0.0001   -0.0001   -0.0052
          13    0.0024   -0.0528   -0.0585   -0.1273   -0.0014   -0.0003    0.0000   -0.0001
          14    0.0008    0.0358    0.0549    0.1476   -0.0000    0.0001   -0.0000    0.0006
          15   -0.0026    0.0010    0.0074    0.0288   -0.0002    0.0001    0.0000    0.0002
          16    0.0181    0.0501    0.0518    0.1045    0.0006    0.0001    0.0001   -0.0022
          17    0.0244   -0.0535   -0.0462   -0.0937   -0.0002   -0.0000    0.0000   -0.0006
          18    0.0058   -0.0049   -0.0038   -0.0088   -0.0003   -0.0000   -0.0000   -0.0001
          19    0.0117    0.0029    0.0162   -0.0035    0.0007    0.0143   -0.0112    0.0005
          20    0.0004    0.0367   -0.1602    0.0532   -0.0009    0.0123   -0.0105    0.0005
          21   -0.0103    0.0163   -0.0893    0.0296   -0.0011   -0.0052    0.0038   -0.0001
          22    0.0004   -0.1368   -0.0159    0.0558    0.0001    0.0048    0.0154    0.0001
          23   -0.0029    0.0676   -0.0003   -0.0739   -0.0001    0.0045    0.0133    0.0000
          24   -0.0013    0.0891    0.0104   -0.0450   -0.0002   -0.0012   -0.0043   -0.0000
          25   -0.0049   -0.0349    0.0287   -0.0040    0.0001   -0.0221    0.0073    0.0004
          26   -0.0072   -0.0541    0.1730   -0.0535    0.0009    0.0105   -0.0026   -0.0002
          27    0.0002   -0.0007    0.0598   -0.0217   -0.0000    0.0220   -0.0069   -0.0004
          28    0.0029    0.1719    0.0095   -0.0456   -0.0003    0.0023    0.0031   -0.0000
          29    0.0031   -0.0228   -0.0289    0.0168   -0.0002   -0.0171   -0.0278    0.0002
          30   -0.0008   -0.1002   -0.0139    0.0297    0.0002   -0.0058   -0.0090    0.0001
          31    0.0081   -0.0018   -0.0056   -0.0028    0.0043   -0.0039    0.0044   -0.0393
          32    0.0834   -0.0002   -0.0033   -0.0059    0.0026   -0.0051    0.0056   -0.0454
          33   -0.0081    0.0001    0.0043    0.0027   -0.0054    0.0038   -0.0042    0.0386
          34    0.0052    0.0070    0.0091    0.0173    0.0013   -0.0006   -0.0013   -0.3491
          35    0.0765    0.0130    0.0121    0.0236   -0.0012    0.0007    0.0015    0.3973
          36   -0.0088   -0.0001    0.0033    0.0060    0.0008   -0.0005   -0.0012   -0.3125
          37    0.0268    0.0063   -0.0020    0.0053    0.3705    0.0007   -0.0002    0.0006
          38   -0.0056    0.0089   -0.0008    0.0232   -0.1978    0.0000   -0.0002   -0.0003
          39   -0.0141    0.0022   -0.0007    0.0009    0.7907    0.0003    0.0002    0.0008
          40    0.0081   -0.0019   -0.0017   -0.0023   -0.0001    0.0000   -0.0000    0.0022
          41    0.0888    0.0010   -0.0004    0.0018    0.0015    0.0005   -0.0012   -0.0912
          42   -0.0742   -0.0013   -0.0001   -0.0003    0.0008    0.0001   -0.0003   -0.0253
          43    0.0005    0.0001   -0.0001   -0.0011   -0.0014   -0.0000    0.0000   -0.0022
          44   -0.1352   -0.0007   -0.0008   -0.0022   -0.0001    0.0004   -0.0008   -0.0545
          45   -0.0138   -0.0003   -0.0011   -0.0006    0.0028   -0.0006    0.0011    0.0811
          46    0.0133    0.0371    0.0435    0.0898    0.0038   -0.0001   -0.0000    0.0270
          47    0.0430    0.0330    0.0291    0.0618    0.0008    0.0000    0.0001    0.0057
          48    0.0029    0.0002    0.0081    0.0127   -0.0006   -0.0000    0.0001    0.0018
          49    0.0065    0.0176   -0.0877    0.0339   -0.0024   -0.1699    0.1354   -0.0055
          50    0.0116    0.0230   -0.0362    0.0111   -0.0003   -0.1533    0.1233   -0.0050
          51    0.0002   -0.0036    0.0541   -0.0218   -0.0014    0.0598   -0.0470    0.0019
          52   -0.0022   -0.0288   -0.0432    0.0088   -0.0000   -0.0221   -0.0320    0.0003
          53    0.0018   -0.1029   -0.0471    0.0393   -0.0003    0.1988    0.3262   -0.0024
          54    0.0020   -0.0078    0.0099    0.0010   -0.0000    0.0640    0.1023   -0.0008
          55   -0.0015   -0.0670   -0.0141   -0.0155    0.0003   -0.0606   -0.1899   -0.0013
          56    0.0005   -0.0919   -0.0191    0.0417    0.0004   -0.0501   -0.1545   -0.0010
          57    0.0016    0.0182   -0.0047    0.0007   -0.0003    0.0179    0.0563    0.0004
          58    0.0060   -0.0162   -0.0893    0.0377   -0.0023    0.2601   -0.0860   -0.0043
          59    0.0139   -0.0283   -0.0160    0.0136    0.0013   -0.1166    0.0352    0.0020
          60    0.0010   -0.0033    0.0664   -0.0234    0.0008   -0.2563    0.0833    0.0043


   Root No.      49        50        51        52        53        54

                49 A      50 A      51 A      52 A      53 A      54 A   

                3076.0    3079.4    3083.5    3091.9    3129.5    3133.5
  
           1   -0.0028   -0.0222   -0.0005    0.0099   -0.0013    0.0017
           2   -0.0029   -0.0241   -0.0006    0.0112   -0.0005    0.0017
           3    0.0025    0.0201    0.0005   -0.0093    0.0005   -0.0009
           4    0.0005    0.0004   -0.0001   -0.0055    0.0012   -0.0023
           5   -0.0004    0.0001    0.0002    0.0065   -0.0004    0.0029
           6    0.0004    0.0004   -0.0001   -0.0051    0.0003   -0.0017
           7   -0.0000    0.0000    0.0001    0.0002    0.0000    0.0010
           8   -0.0002   -0.0004    0.0004   -0.0001    0.0000   -0.0002
           9   -0.0002    0.0002    0.0003   -0.0003    0.0002    0.0001
          10   -0.0000   -0.0003   -0.0000   -0.0001    0.0002    0.0001
          11    0.0020    0.0197    0.0009    0.0352   -0.0185    0.0028
          12   -0.0009   -0.0087   -0.0004   -0.0152   -0.0369    0.0032
          13    0.0001    0.0001   -0.0006   -0.0001    0.0003    0.0043
          14    0.0004    0.0003    0.0007   -0.0003   -0.0002   -0.0041
          15    0.0000    0.0000    0.0003   -0.0001   -0.0000   -0.0005
          16   -0.0001   -0.0004    0.0001    0.0012   -0.0040   -0.0671
          17   -0.0001   -0.0001   -0.0002    0.0002   -0.0008   -0.0154
          18   -0.0000   -0.0002   -0.0000   -0.0001   -0.0001   -0.0035
          19   -0.0197    0.0031    0.0094   -0.0006    0.0000   -0.0000
          20   -0.0212    0.0029    0.0104   -0.0005    0.0000    0.0000
          21    0.0053   -0.0009   -0.0023    0.0002   -0.0000    0.0000
          22   -0.0153    0.0029   -0.0232    0.0001    0.0000   -0.0000
          23   -0.0109    0.0020   -0.0156    0.0001    0.0000    0.0003
          24    0.0050   -0.0010    0.0078   -0.0000   -0.0000    0.0000
          25   -0.0122    0.0010    0.0100   -0.0002   -0.0000    0.0001
          26    0.0088   -0.0008   -0.0058    0.0001    0.0000    0.0000
          27    0.0136   -0.0012   -0.0104    0.0002    0.0000   -0.0000
          28    0.0022   -0.0005    0.0046   -0.0000   -0.0000   -0.0001
          29   -0.0049    0.0018   -0.0218    0.0001    0.0001    0.0000
          30   -0.0024    0.0007   -0.0082    0.0000    0.0000    0.0001
          31    0.0306    0.2578    0.0066   -0.1169    0.0048   -0.0116
          32    0.0358    0.2937    0.0071   -0.1307    0.0060   -0.0133
          33   -0.0286   -0.2395   -0.0060    0.1099   -0.0045    0.0111
          34   -0.0048   -0.0001    0.0017    0.0658   -0.0036    0.0205
          35    0.0054    0.0002   -0.0019   -0.0724    0.0043   -0.0276
          36   -0.0041    0.0017    0.0016    0.0598   -0.0031    0.0199
          37   -0.0002   -0.0018   -0.0001    0.0012   -0.0004   -0.0006
          38   -0.0005    0.0014    0.0004   -0.0010    0.0000    0.0005
          39    0.0005   -0.0031   -0.0007    0.0002   -0.0021   -0.0017
          40   -0.0000   -0.0005    0.0000    0.0013   -0.0021    0.0002
          41   -0.0149   -0.1491   -0.0064   -0.2499    0.4639   -0.0492
          42   -0.0042   -0.0428   -0.0019   -0.0752    0.1075   -0.0120
          43    0.0002    0.0016    0.0000   -0.0003    0.0003    0.0001
          44   -0.0092   -0.0931   -0.0048   -0.1711   -0.2441    0.0178
          45    0.0138    0.1407    0.0072    0.2645    0.3296   -0.0226
          46    0.0022    0.0086    0.0002   -0.0171    0.0439    0.7367
          47    0.0005    0.0027   -0.0002   -0.0048    0.0126    0.2131
          48    0.0001    0.0006   -0.0001   -0.0011    0.0025    0.0428
          49    0.2322   -0.0351   -0.1075    0.0058    0.0000   -0.0005
          50    0.2136   -0.0333   -0.0992    0.0058   -0.0000   -0.0004
          51   -0.0796    0.0120    0.0368   -0.0020    0.0000    0.0001
          52   -0.0078    0.0023   -0.0253    0.0001    0.0001    0.0000
          53    0.0542   -0.0199    0.2391   -0.0011   -0.0005    0.0004
          54    0.0184   -0.0065    0.0761   -0.0003   -0.0002    0.0002
          55    0.1674   -0.0310    0.2397   -0.0011   -0.0005   -0.0006
          56    0.1340   -0.0247    0.1911   -0.0009   -0.0004   -0.0001
          57   -0.0502    0.0093   -0.0722    0.0004    0.0002    0.0003
          58    0.1448   -0.0120   -0.1122    0.0018    0.0003   -0.0005
          59   -0.0671    0.0058    0.0495   -0.0009   -0.0001    0.0002
          60   -0.1438    0.0120    0.1103   -0.0018   -0.0003    0.0005


           MASS-WEIGHTED COORDINATE ANALYSIS (NORMAL COORDINATES)


   Root No.       1         2         3         4         5         6         7         8

                 1 A       2 A       3 A       4 A       5 A       6 A       7 A       8 A   

                 146.9     167.4     317.1     344.1     423.4     439.9     480.2     564.1
  
           1   -0.1177    0.0913    0.1123   -0.0621   -0.1216    0.0187    0.0060   -0.0022
           2   -0.0085   -0.0842   -0.2021   -0.0388    0.1489    0.0047    0.0091   -0.2967
           3   -0.2485    0.0786    0.1109   -0.3057    0.1184   -0.1390   -0.0898    0.1473
           4   -0.1220    0.0946    0.1317   -0.0609   -0.1373    0.0309   -0.0222   -0.0655
           5   -0.0839   -0.0760    0.0175    0.0052   -0.0401   -0.1221   -0.1143   -0.2217
           6    0.1561   -0.2458    0.0393    0.0809    0.3459    0.0053   -0.0519    0.1419
           7   -0.0636    0.1014   -0.1953   -0.1288    0.0640    0.0677    0.1893    0.1587
           8    0.0004   -0.0897   -0.2550   -0.0324    0.1075    0.0432    0.0471   -0.1676
           9   -0.0018    0.3174    0.1408    0.0474    0.0904    0.2230    0.0994   -0.1554
          10    0.1859   -0.1686    0.1789    0.3503    0.0090    0.1990   -0.0488   -0.0025
          11    0.2417    0.1934    0.2857   -0.2405    0.3752   -0.1034   -0.1292    0.0863
          12   -0.1545   -0.1855   -0.0628   -0.0348    0.1336   -0.0583   -0.0688   -0.0115
          13   -0.0343    0.1112   -0.2513   -0.1404    0.1782    0.1289    0.1577   -0.0150
          14   -0.0508   -0.1091   -0.1276   -0.0045    0.0047   -0.1124    0.0741    0.0596
          15    0.0304    0.3095   -0.1370   -0.0332   -0.1849    0.3342   -0.1286   -0.0709
          16   -0.0638    0.1045   -0.1126   -0.1264    0.1266    0.1052    0.0741   -0.1247
          17   -0.1127   -0.0923    0.0529    0.0411   -0.0661   -0.1074   -0.1014   -0.1233
          18    0.3662    0.0121    0.0407   -0.2727   -0.3346   -0.2287    0.1237   -0.1540
          19    0.1581    0.0164   -0.2174    0.1011   -0.0253   -0.2664    0.2153    0.3375
          20   -0.0830   -0.0158    0.1444    0.0110   -0.1608    0.2445   -0.0012    0.1524
          21    0.2610    0.1953   -0.0171    0.2989    0.0540   -0.1106    0.1563   -0.2070
          22   -0.0871    0.0498    0.0160    0.0866    0.0799   -0.1810   -0.2479   -0.2261
          23    0.0385   -0.0735   -0.1316   -0.0665   -0.0705    0.0045    0.1321    0.1052
          24   -0.2976    0.1494   -0.1615    0.2581   -0.0511   -0.1524   -0.2507    0.1735
          25    0.1774   -0.2076    0.0069   -0.0971   -0.1446   -0.0229   -0.2845    0.0962
          26   -0.0391    0.1856    0.1814    0.2136   -0.1142    0.0742    0.1555    0.0686
          27    0.1635   -0.2292   -0.0870   -0.1023   -0.0918    0.2828   -0.1394    0.0296
          28   -0.0438   -0.1689    0.2820    0.0004   -0.0016   -0.0546    0.0365   -0.1735
          29    0.0654    0.1147   -0.0347    0.1357   -0.2552    0.0221   -0.0457    0.3556
          30   -0.2491   -0.3009    0.1739    0.0017   -0.0469    0.0526    0.3463    0.1460
          31   -0.0878    0.0605    0.0722   -0.0508   -0.0942   -0.0244   -0.0296   -0.0309
          32   -0.0371   -0.0520   -0.1226   -0.0356    0.0325   -0.0163    0.0177   -0.0907
          33   -0.1710    0.0233   -0.0091   -0.1504   -0.0411   -0.0936   -0.0389    0.0006
          34   -0.0880    0.0633    0.0839   -0.0503   -0.0952   -0.0188   -0.0287    0.0135
          35   -0.0614   -0.0625    0.0031    0.0649   -0.0139   -0.0187   -0.0571   -0.0597
          36    0.0539   -0.1625   -0.0439    0.1404    0.1522    0.0533   -0.0201    0.0085
          37   -0.0567    0.0363   -0.0969   -0.0939    0.0076    0.1145   -0.0002    0.0656
          38    0.0431    0.0018   -0.1525    0.0274    0.0591    0.0805    0.0358   -0.1340
          39    0.0292    0.0927    0.0375    0.0503    0.0357    0.0347    0.0583   -0.0757
          40    0.0567   -0.0611    0.1023    0.1225   -0.0532    0.0267   -0.0501    0.0195
          41    0.0905    0.0752    0.1164   -0.0897    0.1464   -0.0356   -0.0487    0.0754
          42   -0.1210   -0.1260   -0.1390    0.0618   -0.0910    0.0010    0.0172   -0.1781
          43    0.1367   -0.1099    0.0214    0.2007    0.1002    0.1402    0.0057   -0.0035
          44    0.1367    0.1159    0.1845   -0.1281    0.2235   -0.0458   -0.0687    0.1723
          45    0.0006   -0.0130    0.0492   -0.0482    0.1132   -0.0269   -0.0395    0.0922
          46   -0.0178    0.0333   -0.0524   -0.0370    0.0570    0.0460    0.0331   -0.0207
          47   -0.0506   -0.0294    0.0810    0.0332   -0.0524   -0.0409   -0.0845   -0.0709
          48    0.1786   -0.0350    0.0264   -0.1751   -0.2919   -0.2861    0.1099   -0.1389
          49    0.0954    0.0343   -0.1524    0.0909    0.0211   -0.1963    0.0901    0.1227
          50   -0.0479   -0.0171    0.1255   -0.0188   -0.0821    0.1427   -0.0339    0.0279
          51    0.1550    0.1070   -0.0414    0.2067    0.0028   -0.1884    0.0386   -0.0257
          52   -0.0491   -0.0795    0.1931    0.0390    0.0176   -0.0424    0.1342   -0.0734
          53    0.0384    0.0613   -0.0316    0.0394   -0.0851    0.0353   -0.0619    0.1015
          54   -0.1466   -0.1851    0.1546    0.0132    0.0299   -0.0833    0.2976    0.0394
          55   -0.0588    0.0418    0.0328    0.1071    0.0170   -0.1552   -0.1583   -0.0570
          56    0.0190   -0.0396   -0.0855   -0.0761    0.0119    0.0558    0.1110    0.0303
          57   -0.1756    0.0845   -0.0801    0.1948    0.0509   -0.2423   -0.1692    0.0758
          58    0.1072   -0.1023   -0.0357   -0.0615   -0.0719    0.0217   -0.2567    0.0225
          59   -0.0206    0.1081    0.1198    0.1010    0.0042    0.0222    0.1001   -0.1153
          60    0.1079   -0.1341   -0.0930   -0.0804   -0.0750    0.1103   -0.2422    0.0649


   Root No.       9        10        11        12        13        14        15        16

                 9 A      10 A      11 A      12 A      13 A      14 A      15 A      16 A   

                 567.6     678.6     715.7     763.8     812.9     842.5     868.8     884.9
  
           1   -0.1358   -0.0874   -0.2717   -0.0496   -0.0034   -0.0271    0.1240   -0.1799
           2   -0.1745    0.1006   -0.2916   -0.1245   -0.1432    0.0265    0.0904    0.0569
           3   -0.0384   -0.0134   -0.0567    0.0000    0.1075   -0.0314    0.0375    0.0531
           4   -0.1978    0.0180   -0.2617   -0.0590   -0.0616   -0.0256   -0.1521    0.1118
           5    0.1185    0.2006    0.3676    0.0496   -0.0247    0.0464    0.0211   -0.0746
           6    0.0403    0.0128    0.0062   -0.0199   -0.0412    0.0003   -0.0464   -0.0641
           7    0.0765   -0.0859    0.1321    0.0457   -0.0709   -0.0680   -0.1457   -0.1062
           8   -0.1512    0.0022   -0.1703   -0.0114    0.1157   -0.1428    0.0619    0.1388
           9    0.1554   -0.3010    0.1023    0.1046   -0.1694    0.1303   -0.1059   -0.0367
          10   -0.0460   -0.0676   -0.0320    0.0213    0.1267   -0.0399    0.0906    0.1381
          11   -0.0279    0.1046    0.0000   -0.0349   -0.0494    0.0062   -0.1119    0.1383
          12   -0.0306    0.1047   -0.0174   -0.0411   -0.0189   -0.0049   -0.1514    0.2144
          13   -0.0631   -0.0958    0.1604    0.1085    0.0375    0.1413    0.0830    0.0814
          14    0.1544   -0.3275   -0.0203    0.0317    0.0952   -0.0303   -0.0392   -0.0506
          15    0.4000    0.3769   -0.1683    0.0272    0.0360   -0.1166    0.0363   -0.0760
[...]
 TRAVEL      0.1220         C  1 -- C  3          +7.7% ( 35.9%)      4.7%
 RED. MASS   0.2714         C  1 -- C  4          +7.4% ( 35.1%)      3.9%
 EFF. MASS   3.8080

 VIBRATION   34   34A         ATOM PAIR      ENERGY CONTRIBUTION    RADIAL
 FREQ.      1210.94         C  1 -- H 11         +17.1% ( 51.5%)      0.7%
 T-DIPOLE    0.0639         C  3 -- H 13         +11.6% ( 42.4%)      0.4%
 TRAVEL      0.1183         C  7 -- H 17          +8.2% ( 35.8%)      0.3%
 RED. MASS   0.3879         C  1 -- C  3          +7.4% ( 33.9%)     30.9%
 EFF. MASS   3.9802

 VIBRATION   35   35A         ATOM PAIR      ENERGY CONTRIBUTION    RADIAL
 FREQ.      1284.36         C  1 -- C  3         +16.6% ( 63.9%)     80.8%
 T-DIPOLE    0.1787         C  1 -- C  2          +8.5% ( 45.9%)     43.9%
 TRAVEL      0.0756         C  3 -- H 13          +8.0% ( 44.5%)      1.0%
 RED. MASS   1.2391         C  3 -- C  7          +7.2% ( 42.1%)      7.2%
 EFF. MASS   9.1818

 VIBRATION   36   36A         ATOM PAIR      ENERGY CONTRIBUTION    RADIAL
 FREQ.      1328.34         C  2 -- C  6         +10.4% ( 49.4%)     98.6%
 T-DIPOLE    0.2355         C  3 -- C  7          +9.3% ( 46.7%)     65.8%
 TRAVEL      0.0755         C  1 -- C  2          +8.5% ( 44.8%)     22.2%
 RED. MASS   0.9193         C  1 -- C  3          +7.9% ( 43.0%)     33.8%
 EFF. MASS   8.9172

 VIBRATION   37   37A         ATOM PAIR      ENERGY CONTRIBUTION    RADIAL
 FREQ.      1381.42         C  9 -- C 10         +12.6% ( 48.2%)     99.8%
 T-DIPOLE    0.0701         C  3 -- C  5          +9.0% ( 40.6%)     99.3%
 TRAVEL      0.0829         C  7 -- C  9          +5.8% ( 32.7%)      3.6%
 RED. MASS   0.5654         C  5 -- C  6          +5.4% ( 31.5%)      0.0%
 EFF. MASS   7.0944

 VIBRATION   38   38A         ATOM PAIR      ENERGY CONTRIBUTION    RADIAL
 FREQ.      1397.94         C  2 -- C  6         +22.0% ( 60.4%)     98.1%
 T-DIPOLE    0.1580         C  4 -- H 14         +12.6% ( 45.7%)      0.8%
 TRAVEL      0.0918         C  2 -- H 12         +12.1% ( 44.7%)      2.0%
 RED. MASS   0.9878         C  4 -- H 15         +10.7% ( 42.1%)      2.5%
 EFF. MASS   5.7220         C  1 -- C  2         +10.3% ( 41.2%)      9.2%

 VIBRATION   39   39A         ATOM PAIR      ENERGY CONTRIBUTION    RADIAL
 FREQ.      1417.46         C  3 -- C  7         +15.0% ( 60.1%)     90.7%
 T-DIPOLE    0.2167         C  3 -- C  5         +13.3% ( 56.7%)     20.4%
 TRAVEL      0.0694         C  1 -- C  3         +12.0% ( 53.9%)     80.6%
 RED. MASS   1.5391         C  3 -- H 13          +9.7% ( 48.3%)      0.4%
 EFF. MASS   9.8660

 VIBRATION   40   40A         ATOM PAIR      ENERGY CONTRIBUTION    RADIAL
 FREQ.      1488.98         C  5 -- C  8         +17.7% ( 64.5%)     75.7%
 T-DIPOLE    0.1754         C  3 -- C  5         +16.5% ( 62.3%)     97.0%
 TRAVEL      0.0631         C  5 -- C  6         +10.3% ( 49.1%)     14.9%
 RED. MASS   2.0400         C  3 -- C  7          +9.4% ( 46.9%)     87.6%
 EFF. MASS  11.3804

 VIBRATION   41   41A         ATOM PAIR      ENERGY CONTRIBUTION    RADIAL
 FREQ.      1547.87         C  2 -- C  4         +18.6% ( 71.3%)     96.5%
 T-DIPOLE    0.1641         C  1 -- C  4         +18.2% ( 70.5%)     98.4%
 TRAVEL      0.0615         C  1 -- C  2         +16.3% ( 66.9%)     99.5%
 RED. MASS   2.9990         C  2 -- C  6          +8.1% ( 47.2%)     53.9%
 EFF. MASS  11.5339

 VIBRATION   42   42A         ATOM PAIR      ENERGY CONTRIBUTION    RADIAL
 FREQ.      1805.02         C  8 -- C 10         +37.4% ( 90.7%)     99.6%
 T-DIPOLE    0.1280         C  9 -- C 10         +15.4% ( 58.2%)     70.5%
 TRAVEL      0.0560         C 10 -- H 18         +12.6% ( 52.7%)      4.0%
 RED. MASS   4.0050         C  5 -- C  8         +10.4% ( 47.9%)     21.4%
 EFF. MASS  11.9255

 VIBRATION   43   43A         ATOM PAIR      ENERGY CONTRIBUTION    RADIAL
 FREQ.      1828.85         C  7 -- C  9         +37.6% ( 90.8%)    100.0%
 T-DIPOLE    0.4468         C  9 -- C 10         +12.3% ( 51.9%)     34.0%
 TRAVEL      0.0558         C  3 -- C  7         +12.0% ( 51.4%)     46.3%
 RED. MASS   4.0311         C  9 -- H 20         +11.3% ( 49.7%)      5.5%
 EFF. MASS  11.8627         C  7 -- H 17         +11.1% ( 49.3%)      5.3%

 VIBRATION   44   44A         ATOM PAIR      ENERGY CONTRIBUTION    RADIAL
 FREQ.      1876.73         C  5 -- C  6         +31.8% ( 83.8%)     96.8%
 T-DIPOLE    0.2052         C  5 -- C  8         +20.7% ( 67.6%)     67.4%
 TRAVEL      0.0550         C  3 -- C  5         +14.4% ( 56.4%)      2.6%
 RED. MASS   3.6771         C  8 -- C 10          +6.4% ( 37.7%)     90.0%
 EFF. MASS  11.8938

 VIBRATION   45   45A         ATOM PAIR      ENERGY CONTRIBUTION    RADIAL
 FREQ.      2849.90         C  3 -- H 13         +97.1% (100.0%)    100.0%
 T-DIPOLE    0.1418         C  1 -- C  3          +1.0% ( 10.0%)     10.5%
 TRAVEL      0.1286         C  3 -- C  7          +1.0% ( 10.0%)      6.7%
 RED. MASS   0.9297         C  3 -- C  5          +1.0% ( 10.0%)     10.7%
 EFF. MASS   1.4299

 VIBRATION   46   46A         ATOM PAIR      ENERGY CONTRIBUTION    RADIAL
 FREQ.      3056.04         C  9 -- H 20         +56.5% ( 76.4%)    100.0%
 T-DIPOLE    0.1643         C  7 -- H 17         +21.5% ( 47.1%)    100.0%
 TRAVEL      0.1221         C 10 -- H 18         +17.0% ( 41.9%)    100.0%
 RED. MASS   0.3867         C  8 -- H 19          +2.5% ( 16.1%)     99.9%
 EFF. MASS   1.4793

 VIBRATION   47   47A         ATOM PAIR      ENERGY CONTRIBUTION    RADIAL
 FREQ.      3062.69         C 10 -- H 18         +49.5% ( 71.4%)    100.0%
 T-DIPOLE    0.3525         C  8 -- H 19         +26.5% ( 52.2%)    100.0%
 TRAVEL      0.1226         C  7 -- H 17         +15.0% ( 39.3%)    100.0%
 RED. MASS   0.3346         C  9 -- H 20          +6.5% ( 25.9%)     99.9%
 EFF. MASS   1.4645

 VIBRATION   48   48A         ATOM PAIR      ENERGY CONTRIBUTION    RADIAL
 FREQ.      3069.61         C  2 -- H 12         +90.1% ( 96.9%)    100.0%
 T-DIPOLE    0.2539         C  4 -- H 15          +2.5% ( 16.0%)     97.4%
 TRAVEL      0.1221         C  4 -- H 14          +2.3% ( 15.5%)     96.0%
 RED. MASS   0.8202         C  2 -- C  4          +1.3% ( 11.5%)     19.1%
 EFF. MASS   1.4741

 VIBRATION   49   49A         ATOM PAIR      ENERGY CONTRIBUTION    RADIAL
 FREQ.      3075.99         C  7 -- H 17         +49.2% ( 71.2%)    100.0%
 T-DIPOLE    0.4923         C  8 -- H 19         +22.5% ( 48.2%)    100.0%
 TRAVEL      0.1182         C  9 -- H 20         +21.5% ( 47.1%)     99.8%
 RED. MASS   0.3397         C 10 -- H 18          +1.6% ( 12.7%)     98.8%
 EFF. MASS   1.5696

 VIBRATION   50   50A         ATOM PAIR      ENERGY CONTRIBUTION    RADIAL
 FREQ.      3079.41         C  1 -- H 11         +74.7% ( 88.5%)    100.0%
 T-DIPOLE    0.1441         C  4 -- H 15         +10.8% ( 33.6%)     97.6%
 TRAVEL      0.1211         C  4 -- H 14          +9.2% ( 31.0%)     96.1%
 RED. MASS   0.5894         C  1 -- C  4          +1.3% ( 11.6%)     14.7%
 EFF. MASS   1.4927

 VIBRATION   51   51A         ATOM PAIR      ENERGY CONTRIBUTION    RADIAL
 FREQ.      3083.46         C  8 -- H 19         +44.9% ( 68.0%)     99.9%
 T-DIPOLE    0.3011         C 10 -- H 18         +28.7% ( 54.4%)     99.9%
 TRAVEL      0.1167         C  9 -- H 20         +12.3% ( 35.5%)    100.0%
 RED. MASS   0.3109         C  7 -- H 17         +10.3% ( 32.6%)     99.9%
 EFF. MASS   1.6063

 VIBRATION   52   52A         ATOM PAIR      ENERGY CONTRIBUTION    RADIAL
 FREQ.      3091.87         C  4 -- H 15         +43.4% ( 67.7%)     98.0%
 T-DIPOLE    0.3097         C  4 -- H 14         +30.7% ( 56.9%)     96.2%
 TRAVEL      0.1195         C  1 -- H 11         +17.8% ( 43.3%)    100.0%
 RED. MASS   0.3383         C  2 -- H 12          +5.4% ( 24.0%)    100.0%
 EFF. MASS   1.5284

 VIBRATION   53   53A         ATOM PAIR      ENERGY CONTRIBUTION    RADIAL
 FREQ.      3129.46         C  4 -- H 14         +56.4% ( 74.7%)     97.4%
 T-DIPOLE    0.2140         C  4 -- H 15         +41.3% ( 63.9%)     94.9%
 TRAVEL      0.1286         C  1 -- C  4          +0.8% (  9.1%)     76.5%
 RED. MASS   0.4888         C  2 -- C  4          +0.8% (  9.1%)     75.5%
 EFF. MASS   1.3025

 VIBRATION   54   54A         ATOM PAIR      ENERGY CONTRIBUTION    RADIAL
 FREQ.      3133.47         C  6 -- H 16         +95.7% ( 99.5%)    100.0%
 T-DIPOLE    0.4337         C  5 -- C  6          +1.8% ( 13.5%)     48.8%
 TRAVEL      0.1176         C  2 -- C  6          +1.6% ( 13.0%)     28.0%
 RED. MASS   0.9132         C  4 -- H 14          +0.4% (  6.4%)     98.7%
 EFF. MASS   1.5565

      SYMMETRY NUMBER FOR POINT-GROUP C1  =  1


          SYSTEM IS A GROUND STATE



 InChI=1S/C10H10/c1-2-4-9-7(3-1)5-8-6-10(8)9/h1-5,8-10H,6H2


          MOLECULE IS NOT LINEAR

          THERE ARE 54 GENUINE VIBRATIONS IN THIS SYSTEM
          THIS THERMODYNAMICS CALCULATION IS LIMITED TO
          MOLECULES WHICH HAVE NO INTERNAL ROTATIONS




                    CALCULATED THERMODYNAMIC PROPERTIES
                                          *
   TEMP. (K)   PARTITION FUNCTION   H.O.F.    ENTHALPY  HEAT CAPACITY ENTROPY
                                   KCAL/MOL   CAL/MOLE    CAL/K/MOL  CAL/K/MOL


 298.00  VIB.     0.1231D+02                  2730.2247    24.4618    14.1501
         ROT.     0.4635D+06                   888.2813     2.9808    28.9070
         INT.     0.5704D+07                  3618.5060    27.4426    43.0571
         TRA.     0.1436D+28                  1480.4688     4.9680    40.5022
         TOT.                       73.366    5098.9748    32.4106    83.5593

 200.00  VIB.     0.3237D+01                   926.9547    12.6675     6.9687
         ROT.     0.2548D+06                   596.1620     2.9808    27.7183
         INT.     0.8248D+06                  1523.1166    15.6484    34.6870
         TRA.     0.7896D+27                   993.6033     4.9680    38.5210
         TOT.                       70.783    2516.7199    20.6164    73.2081

 210.00  VIB.     0.3645D+01                  1059.0531    13.7583     7.6130
         ROT.     0.2742D+06                   625.9700     2.9808    27.8637
         INT.     0.9993D+06                  1685.0232    16.7391    35.4768
         TRA.     0.8496D+27                  1043.2834     4.9680    38.7634
         TOT.                       70.995    2728.3066    21.7071    74.2402

 220.00  VIB.     0.4121D+01                  1202.2386    14.8844     8.2789
         ROT.     0.2940D+06                   655.7781     2.9808    28.0024
         INT.     0.1212D+07                  1858.0167    17.8653    36.2813
         TRA.     0.9110D+27                  1092.9636     4.9680    38.9945
         TOT.                       71.218    2950.9803    22.8333    75.2759

 230.00  VIB.     0.4680D+01                  1356.8493    16.0427     8.9660
         ROT.     0.3143D+06                   685.5862     2.9808    28.1349
         INT.     0.1471D+07                  2042.4355    19.0236    37.1009
         TRA.     0.9738D+27                  1142.6437     4.9680    39.2154
         TOT.                       71.452    3185.0792    23.9916    76.3163

 240.00  VIB.     0.5335D+01                  1523.1882    17.2294     9.6738
         ROT.     0.3350D+06                   715.3943     2.9808    28.2618
         INT.     0.1787D+07                  2238.5826    20.2103    37.9355
         TRA.     0.1038D+28                  1192.3239     4.9680    39.4268
         TOT.                       71.698    3430.9065    25.1783    77.3623

 250.00  VIB.     0.6106D+01                  1701.5195    18.4405    10.4016
         ROT.     0.3561D+06                   745.2024     2.9808    28.3834
         INT.     0.2175D+07                  2446.7219    21.4213    38.7850
         TRA.     0.1103D+28                  1242.0041     4.9680    39.6296
         TOT.                       71.955    3688.7260    26.3894    78.4146

 260.00  VIB.     0.7016D+01                  1892.0660    19.6718    11.1488
         ROT.     0.3777D+06                   775.0105     2.9808    28.5003
         INT.     0.2650D+07                  2667.0766    22.6526    39.6491
         TRA.     0.1170D+28                  1291.6842     4.9680    39.8245
         TOT.                       72.225    3958.7608    27.6206    79.4736

 270.00  VIB.     0.8093D+01                  2095.0088    20.9191    11.9145
         ROT.     0.3997D+06                   804.8186     2.9808    28.6128
         INT.     0.3235D+07                  2899.8274    23.8999    40.5274
         TRA.     0.1239D+28                  1341.3644     4.9680    40.0120
         TOT.                       72.508    4241.1918    28.8679    80.5393

 280.00  VIB.     0.9370D+01                  2310.4867    22.1782    12.6980
         ROT.     0.4221D+06                   834.6267     2.9808    28.7212
         INT.     0.3955D+07                  3145.1135    25.1590    41.4193
         TRA.     0.1308D+28                  1391.0445     4.9680    40.1926
         TOT.                       72.803    4536.1580    30.1270    81.6119

 290.00  VIB.     0.1089D+02                  2538.5982    23.4451    13.4984
         ROT.     0.4449D+06                   864.4348     2.9808    28.8258
         INT.     0.4844D+07                  3403.0331    26.4259    42.3242
         TRA.     0.1379D+28                  1440.7247     4.9680    40.3670
         TOT.                       73.110    4843.7578    31.3939    82.6912

 300.00  VIB.     0.1270D+02                  2779.4026    24.7161    14.3146
         ROT.     0.4682D+06                   894.2429     2.9808    28.9269
         INT.     0.5943D+07                  3673.6455    27.6969    43.2415
         TRA.     0.1451D+28                  1490.4049     4.9680    40.5354
         TOT.                       73.431    5164.0504    32.6650    83.7769

 310.00  VIB.     0.1486D+02                  3032.9225    25.9877    15.1458
         ROT.     0.4918D+06                   924.0510     2.9808    29.0246
         INT.     0.7305D+07                  3956.9735    28.9685    44.1704
         TRA.     0.1524D+28                  1540.0850     4.9680    40.6983
         TOT.                       73.764    5497.0585    33.9365    84.8687

 320.00  VIB.     0.1744D+02                  3299.1466    27.2565    15.9909
         ROT.     0.5157D+06                   953.8591     2.9808    29.1193
         INT.     0.8995D+07                  4253.0057    30.2373    45.1102
         TRA.     0.1598D+28                  1589.7652     4.9680    40.8560
         TOT.                       74.109    5842.7709    35.2053    85.9662

 330.00  VIB.     0.2054D+02                  3578.0327    28.5196    16.8490
         ROT.     0.5401D+06                   983.6672     2.9808    29.2110
         INT.     0.1110D+08                  4561.6999    31.5004    46.0600
         TRA.     0.1674D+28                  1639.4454     4.9680    41.0089
         TOT.                       74.468    6201.1453    36.4684    87.0689

 340.00  VIB.     0.2428D+02                  3869.5103    29.7744    17.7190
         ROT.     0.5648D+06                  1013.4753     2.9808    29.3000
         INT.     0.1371D+08                  4882.9856    32.7552    47.0190
         TRA.     0.1750D+28                  1689.1255     4.9680    41.1572
         TOT.                       74.839    6572.1111    37.7232    88.1762

 350.00  VIB.     0.2877D+02                  4173.4840    31.0184    18.6001
         ROT.     0.5899D+06                  1043.2834     2.9808    29.3864
         INT.     0.1697D+08                  5216.7674    33.9992    47.9865
         TRA.     0.1828D+28                  1738.8057     4.9680    41.3012
         TOT.                       75.222    6955.5731    38.9673    89.2877

 360.00  VIB.     0.3420D+02                  4489.8364    32.2498    19.4912
         ROT.     0.6154D+06                  1073.0915     2.9808    29.4704
         INT.     0.2105D+08                  5562.9279    35.2306    48.9616
         TRA.     0.1907D+28                  1788.4859     4.9680    41.4412
         TOT.                       75.618    7351.4138    40.1986    90.4028

 370.00  VIB.     0.4077D+02                  4818.4308    33.4666    20.3915
         ROT.     0.6412D+06                  1102.8996     2.9808    29.5520
         INT.     0.2615D+08                  5921.3304    36.4474    49.9435
         TRA.     0.1987D+28                  1838.1660     4.9680    41.5773
         TOT.                       76.026    7759.4964    41.4154    91.5208

 380.00  VIB.     0.4874D+02                  5159.1141    34.6673    21.2999
         ROT.     0.6674D+06                  1132.7077     2.9808    29.6315
         INT.     0.3253D+08                  6291.8219    37.6481    50.9315
         TRA.     0.2068D+28                  1887.8462     4.9680    41.7098
         TOT.                       76.446    8179.6680    42.6161    92.6412

 390.00  VIB.     0.5842D+02                  5511.7193    35.8507    22.2158
         ROT.     0.6939D+06                  1162.5158     2.9808    29.7090
         INT.     0.4054D+08                  6674.2351    38.8316    51.9247
         TRA.     0.2150D+28                  1937.5263     4.9680    41.8388
         TOT.                       76.878    8611.7615    43.7996    93.7636

 400.00  VIB.     0.7019D+02                  5876.0678    37.0158    23.1382
         ROT.     0.7208D+06                  1192.3239     2.9808    29.7844
         INT.     0.5059D+08                  7068.3917    39.9966    52.9226
         TRA.     0.2233D+28                  1987.2065     4.9680    41.9646
         TOT.                       77.322    9055.5982    44.9646    94.8872

   *: NOTE: HEATS OF FORMATION ARE RELATIVE TO THE
            ELEMENTS IN THEIR STANDARD STATE AT 298K
              (=  Standard Enthalpy of Formation).

            Hvib:  Zero-point energy is not included.
                   frequencies of less than zero cm-1 are not included.
            Hrot = (3/2)RT
            Htra = (3/2)RT + pV = (5/2)RT

            Heat capacity is Cp, not Cv

          For more information, see: HTTP://OpenMOPAC.net/Manual/thermochemistry.html


           FORCE CONSTANT IN CARTESIAN COORDINATES (Millidynes/A)

    ATOM   CHEMICAL       X               Y               Z
   NUMBER   SYMBOL  FORCE CONSTANT  FORCE CONSTANT  FORCE CONSTANT

      1       C        9.283838        8.933685        6.851072
      2       C        9.187854        9.905880        6.447018
      3       C        9.565337        8.358949        8.186186
      4       C        4.416923        9.257327       11.216386
      5       C       11.974114       13.610091        3.209330
      6       C       14.404008       10.351755        2.460833
      7       C        7.335773       13.241355        6.430021
      8       C       11.813164       10.483052        5.280975
      9       C        7.802171       12.925983        6.662662
     10       C       11.108799       10.553841        5.640773
     11       H        2.104451        2.587214        1.828789
     12       H        2.118279        2.597522        1.745577
     13       H        1.280445        0.828534        3.646952
     14       H        0.528919        5.060860        1.052670
     15       H        0.532919        2.224043        3.889743
     16       H        5.010068        1.052410        0.353522
     17       H        2.878325        2.596050        0.802517
     18       H        0.701831        4.708034        0.862628
     19       H        3.228973        2.370139        0.664069
     20       H        2.647675        1.115945        2.500867

 **********************
 *                    *
 * JOB ENDED NORMALLY *
 *                    *
 **********************



 TOTAL JOB TIME:             1.70 SECONDS

 == MOPAC DONE ==
