 *******************************************************************************
 ** Site#: 14399        For non-commercial use only    Version 18.184L 64BITS **
 *******************************************************************************
 ** Cite this program as: MOPAC2016, Version: 18.184L, James J. P. Stewart,   **
 ** Stewart Computational Chemistry, web: HTTP://OpenMOPAC.net. Days left:  18**
 *******************************************************************************
 **                                                                           **
 **                                MOPAC2016                                  **
 **                                                                           **
 *******************************************************************************

                              PM3 CALCULATION RESULTS

 *******************************************************************************
 *  CALCULATION DONE:                                Sat Jun 15 10:25:46 2019  *
 *  PM3        - The PM3 Hamiltonian to be used
 *  PRECISE    - CRITERIA TO BE INCREASED BY 100 TIMES
 *  NOSYM      - POINT-GROUP SYMMETRY SET TO C1
 *  THREADS=1  - MULTI-THREADING NOT USED
 *  T=         - A TIME OF 172800.0 SECONDS REQUESTED
 *  DUMP=N     - RESTART FILE WRITTEN EVERY  7200.000 SECONDS
 *******************************************************************************
pm3  precise nosym THREADS=1
 InChI=1S/C7H12O2/c8-6-2-1-3-7(9)5-4-6/h4-9H,1-3H2

   ATOM   CHEMICAL          X               Y               Z
  NUMBER   SYMBOL      (ANGSTROMS)     (ANGSTROMS)     (ANGSTROMS)
 
     1       O         -2.71320000  *   1.18100000  *  -0.10150000  *
     2       O          2.90660000  *   0.23540000  *   0.51240000  *
     3       C         -0.28290000  *  -1.65930000  *   0.03390000  *
     4       C         -1.37720000  *  -0.75080000  *  -0.54490000  *
     5       C          1.14220000  *  -1.17470000  *  -0.26980000  *
     6       C         -1.45000000  *   0.62080000  *   0.14790000  *
     7       C          1.50750000  *   0.12310000  *   0.47090000  *
     8       C         -0.38210000  *   1.55230000  *  -0.37700000  *
     9       C          0.93390000  *   1.33090000  *  -0.23320000  *
    10       H         -0.40370000  *  -2.66890000  *  -0.41570000  *
    11       H         -0.42250000  *  -1.77630000  *   1.13100000  *
    12       H         -1.23560000  *  -0.62850000  *  -1.64190000  *
    13       H         -2.34950000  *  -1.27100000  *  -0.39880000  *
    14       H          1.28150000  *  -1.05200000  *  -1.36690000  *
    15       H          1.84020000  *  -1.97600000  *   0.05880000  *
    16       H         -1.32320000  *   0.48920000  *   1.24810000  *
    17       H          1.11700000  *   0.07860000  *   1.51460000  *
    18       H         -0.69290000  *   2.45630000  *  -0.89400000  *
    19       H          1.62170000  *   2.06690000  *  -0.64120000  *
    20       H         -2.83970000  *   1.91300000  *   0.55800000  *
    21       H          3.12170000  *   0.90990000  *   1.20920000  *
 


          CARTESIAN COORDINATES 

    NO.       ATOM           X           Y           Z

     1         O         -2.7132      1.1810     -0.1015
     2         O          2.9066      0.2354      0.5124
     3         C         -0.2829     -1.6593      0.0339
     4         C         -1.3772     -0.7508     -0.5449
     5         C          1.1422     -1.1747     -0.2698
     6         C         -1.4500      0.6208      0.1479
     7         C          1.5075      0.1231      0.4709
     8         C         -0.3821      1.5523     -0.3770
     9         C          0.9339      1.3309     -0.2332
    10         H         -0.4037     -2.6689     -0.4157
    11         H         -0.4225     -1.7763      1.1310
    12         H         -1.2356     -0.6285     -1.6419
    13         H         -2.3495     -1.2710     -0.3988
    14         H          1.2815     -1.0520     -1.3669
    15         H          1.8402     -1.9760      0.0588
    16         H         -1.3232      0.4892      1.2481
    17         H          1.1170      0.0786      1.5146
    18         H         -0.6929      2.4563     -0.8940
    19         H          1.6217      2.0669     -0.6412
    20         H         -2.8397      1.9130      0.5580
    21         H          3.1217      0.9099      1.2092

  H: (PM3): J. J. P. STEWART, J. COMP. CHEM. 10, 209 (1989).
  C: (PM3): J. J. P. STEWART, J. COMP. CHEM. 10, 209 (1989).
  O: (PM3): J. J. P. STEWART, J. COMP. CHEM. 10, 209 (1989).

           Empirical Formula: C7 H12 O2  =    21 atoms



      MOLECULAR POINT GROUP   :   C1  


      RHF CALCULATION, NO. OF DOUBLY OCCUPIED LEVELS = 26


          Geometry optimization using EF

          DIAGONAL MATRIX USED AS START HESSIAN

 CYCLE:     1 TIME:   0.004 TIME LEFT:  2.00D  GRAD.:   111.757 HEAT: -82.80828
 CYCLE:     2 TIME:   0.012 TIME LEFT:  2.00D  GRAD.:    24.180 HEAT: -85.62670
 CYCLE:     3 TIME:   0.004 TIME LEFT:  2.00D  GRAD.:    47.557 HEAT: -85.70013
 CYCLE:     4 TIME:   0.008 TIME LEFT:  2.00D  GRAD.:    20.607 HEAT: -86.14731
 CYCLE:     5 TIME:   0.008 TIME LEFT:  2.00D  GRAD.:    14.971 HEAT: -86.30335
 CYCLE:     6 TIME:   0.004 TIME LEFT:  2.00D  GRAD.:    19.129 HEAT: -86.37373
 CYCLE:     7 TIME:   0.004 TIME LEFT:  2.00D  GRAD.:    23.527 HEAT: -86.39506
 CYCLE:     8 TIME:   0.004 TIME LEFT:  2.00D  GRAD.:    14.660 HEAT: -86.54791
 CYCLE:     9 TIME:   0.008 TIME LEFT:  2.00D  GRAD.:    11.809 HEAT: -86.60111
 CYCLE:    10 TIME:   0.008 TIME LEFT:  2.00D  GRAD.:     7.507 HEAT: -86.64337
 CYCLE:    11 TIME:   0.004 TIME LEFT:  2.00D  GRAD.:    10.300 HEAT: -86.66290
 CYCLE:    12 TIME:   0.004 TIME LEFT:  2.00D  GRAD.:     8.514 HEAT: -86.69825
 CYCLE:    13 TIME:   0.004 TIME LEFT:  2.00D  GRAD.:    13.600 HEAT: -86.70179
 CYCLE:    14 TIME:   0.008 TIME LEFT:  2.00D  GRAD.:    13.817 HEAT: -86.72947
 CYCLE:    15 TIME:   0.004 TIME LEFT:  2.00D  GRAD.:     7.093 HEAT: -86.76926
 CYCLE:    16 TIME:   0.008 TIME LEFT:  2.00D  GRAD.:     6.663 HEAT: -86.78796
 CYCLE:    17 TIME:   0.004 TIME LEFT:  2.00D  GRAD.:     7.883 HEAT: -86.79302
 CYCLE:    18 TIME:   0.004 TIME LEFT:  2.00D  GRAD.:     6.104 HEAT: -86.81214
 CYCLE:    19 TIME:   0.008 TIME LEFT:  2.00D  GRAD.:     7.190 HEAT: -86.82371
 CYCLE:    20 TIME:   0.004 TIME LEFT:  2.00D  GRAD.:     6.312 HEAT: -86.84163
 CYCLE:    21 TIME:   0.004 TIME LEFT:  2.00D  GRAD.:     7.262 HEAT: -86.85833
 CYCLE:    22 TIME:   0.004 TIME LEFT:  2.00D  GRAD.:     8.511 HEAT: -86.87619
 CYCLE:    23 TIME:   0.004 TIME LEFT:  2.00D  GRAD.:     6.813 HEAT: -86.89880
 CYCLE:    24 TIME:   0.004 TIME LEFT:  2.00D  GRAD.:     7.151 HEAT: -86.90985
 CYCLE:    25 TIME:   0.004 TIME LEFT:  2.00D  GRAD.:     3.388 HEAT: -86.92962
 CYCLE:    26 TIME:   0.004 TIME LEFT:  2.00D  GRAD.:     5.100 HEAT: -86.93939
 CYCLE:    27 TIME:   0.004 TIME LEFT:  2.00D  GRAD.:     3.551 HEAT: -86.95362
 CYCLE:    28 TIME:   0.004 TIME LEFT:  2.00D  GRAD.:     2.619 HEAT: -86.96203
 CYCLE:    29 TIME:   0.004 TIME LEFT:  2.00D  GRAD.:     3.088 HEAT: -86.96536
 CYCLE:    30 TIME:   0.008 TIME LEFT:  2.00D  GRAD.:     1.935 HEAT: -86.96899
 CYCLE:    31 TIME:   0.004 TIME LEFT:  2.00D  GRAD.:     1.082 HEAT: -86.97168
 CYCLE:    32 TIME:   0.004 TIME LEFT:  2.00D  GRAD.:     0.978 HEAT: -86.97332
 CYCLE:    33 TIME:   0.004 TIME LEFT:  2.00D  GRAD.:     0.828 HEAT: -86.97455
 CYCLE:    34 TIME:   0.004 TIME LEFT:  2.00D  GRAD.:     0.746 HEAT: -86.97598
 CYCLE:    35 TIME:   0.004 TIME LEFT:  2.00D  GRAD.:     0.779 HEAT: -86.97720
 CYCLE:    36 TIME:   0.004 TIME LEFT:  2.00D  GRAD.:     0.718 HEAT: -86.97802
 CYCLE:    37 TIME:   0.004 TIME LEFT:  2.00D  GRAD.:     0.665 HEAT: -86.97896
 CYCLE:    38 TIME:   0.004 TIME LEFT:  2.00D  GRAD.:     0.564 HEAT: -86.97992
 CYCLE:    39 TIME:   0.004 TIME LEFT:  2.00D  GRAD.:     0.427 HEAT: -86.98034
 CYCLE:    40 TIME:   0.008 TIME LEFT:  2.00D  GRAD.:     0.304 HEAT: -86.98059
 CYCLE:    41 TIME:   0.004 TIME LEFT:  2.00D  GRAD.:     0.231 HEAT: -86.98072
 CYCLE:    42 TIME:   0.004 TIME LEFT:  2.00D  GRAD.:     0.189 HEAT: -86.98082
 CYCLE:    43 TIME:   0.004 TIME LEFT:  2.00D  GRAD.:     0.146 HEAT: -86.98087
 CYCLE:    44 TIME:   0.004 TIME LEFT:  2.00D  GRAD.:     0.124 HEAT: -86.98089
 CYCLE:    45 TIME:   0.004 TIME LEFT:  2.00D  GRAD.:     0.098 HEAT: -86.98092
 CYCLE:    46 TIME:   0.004 TIME LEFT:  2.00D  GRAD.:     0.091 HEAT: -86.98094
 CYCLE:    47 TIME:   0.004 TIME LEFT:  2.00D  GRAD.:     0.094 HEAT: -86.98096
 CYCLE:    48 TIME:   0.004 TIME LEFT:  2.00D  GRAD.:     0.100 HEAT: -86.98098
 CYCLE:    49 TIME:   0.004 TIME LEFT:  2.00D  GRAD.:     0.103 HEAT: -86.98100
 CYCLE:    50 TIME:   0.004 TIME LEFT:  2.00D  GRAD.:     0.098 HEAT: -86.98103
 CYCLE:    51 TIME:   0.004 TIME LEFT:  2.00D  GRAD.:     0.088 HEAT: -86.98105
 CYCLE:    52 TIME:   0.008 TIME LEFT:  2.00D  GRAD.:     0.085 HEAT: -86.98107
 CYCLE:    53 TIME:   0.004 TIME LEFT:  2.00D  GRAD.:     0.085 HEAT: -86.98109
 CYCLE:    54 TIME:   0.004 TIME LEFT:  2.00D  GRAD.:     0.070 HEAT: -86.98110
 CYCLE:    55 TIME:   0.004 TIME LEFT:  2.00D  GRAD.:     0.052 HEAT: -86.98111
 CYCLE:    56 TIME:   0.004 TIME LEFT:  2.00D  GRAD.:     0.035 HEAT: -86.98112

     GRADIENT =  0.03524  IS LESS THAN CUTOFF =  0.05000



 -------------------------------------------------------------------------------
 pm3  precise nosym THREADS=1
 InChI=1S/C7H12O2/c8-6-2-1-3-7(9)5-4-6/h4-9H,1-3H2



     GEOMETRY OPTIMISED USING EIGENVECTOR FOLLOWING (EF).     
     SCF FIELD WAS ACHIEVED                                   


                              PM3 CALCULATION
                                                       MOPAC2016 (Version: 18.184L)
                                                       Sat Jun 15 10:25:47 2019
                                                       No. of days remaining =  18




          FINAL HEAT OF FORMATION =        -86.98112 KCAL/MOL =    -363.92899 KJ/MOL


          TOTAL ENERGY            =      -1602.09678 EV
          ELECTRONIC ENERGY       =      -7866.09354 EV  POINT GROUP:     C1  
          CORE-CORE REPULSION     =       6263.99675 EV
          COSMO AREA              =        162.38 SQUARE ANGSTROMS
          COSMO VOLUME            =        165.23 CUBIC ANGSTROMS

          GRADIENT NORM           =          0.03524 = 0.00769 PER ATOM
          IONIZATION POTENTIAL    =         10.149521 EV
          HOMO LUMO ENERGIES (EV) =        -10.150  0.694
          NO. OF FILLED LEVELS    =         26
          MOLECULAR WEIGHT        =        128.1706

          MOLECULAR DIMENSIONS (Angstroms)

            Atom       Atom       Distance
            H    21    H    13     6.09269
            H    20    H    15     5.49330
            H    19    H    11     2.94568


          SCF CALCULATIONS        =         65
 
          WALL-CLOCK TIME         =          0.277 SECONDS
          COMPUTATION TIME        =          0.254 SECONDS




   ATOM   CHEMICAL          X               Y               Z
  NUMBER   SYMBOL      (ANGSTROMS)     (ANGSTROMS)     (ANGSTROMS)
 
     1       O         -2.74228653  *   1.12575316  *  -0.07504797  *
     2       O          2.91010008  *   0.17480573  *   0.54212791  *
     3       C         -0.27882973  *  -1.63504190  *   0.03393805  *
     4       C         -1.36521187  *  -0.74291132  *  -0.54542678  *
     5       C          1.13373551  *  -1.16330839  *  -0.27254347  *
     6       C         -1.43862906  *   0.62128517  *   0.16095991  *
     7       C          1.49454885  *   0.12782455  *   0.48122653  *
     8       C         -0.37935126  *   1.55652692  *  -0.35356646  *
     9       C          0.92779895  *   1.33664015  *  -0.21087668  *
    10       H         -0.40574177  *  -2.65655134  *  -0.37750841  *
    11       H         -0.41616007  *  -1.73943997  *   1.12997049  *
    12       H         -1.20465261  *  -0.59774631  *  -1.63206466  *
    13       H         -2.34190847  *  -1.26096763  *  -0.45425123  *
    14       H          1.26059505  *  -1.01256514  *  -1.36287546  *
    15       H          1.84822902  *  -1.96581502  *   0.00330800  *
    16       H         -1.30703096  *   0.48730200  *   1.26580897  *
    17       H          1.09780926  *   0.08284833  *   1.52837694  *
    18       H         -0.72657909  *   2.45163219  *  -0.88600914  *
    19       H          1.64946038  *   2.05188368  *  -0.62668830  *
    20       H         -2.78359485  *   1.97826834  *   0.33674703  *
    21       H          3.13732879  *   0.98119765  *   0.98502222  *

                             CARTESIAN COORDINATES

   1    O       -2.742286528     1.125753164    -0.075047972
   2    O        2.910100076     0.174805729     0.542127908
   3    C       -0.278829731    -1.635041901     0.033938049
   4    C       -1.365211872    -0.742911319    -0.545426776
   5    C        1.133735512    -1.163308388    -0.272543470
   6    C       -1.438629060     0.621285169     0.160959912
   7    C        1.494548853     0.127824550     0.481226530
   8    C       -0.379351264     1.556526918    -0.353566456
   9    C        0.927798948     1.336640146    -0.210876680
  10    H       -0.405741773    -2.656551344    -0.377508408
  11    H       -0.416160070    -1.739439971     1.129970495
  12    H       -1.204652614    -0.597746311    -1.632064664
  13    H       -2.341908466    -1.260967628    -0.454251234
  14    H        1.260595054    -1.012565142    -1.362875459
  15    H        1.848229021    -1.965815019     0.003307999
  16    H       -1.307030958     0.487301998     1.265808972
  17    H        1.097809263     0.082848326     1.528376936
  18    H       -0.726579090     2.451632190    -0.886009141
  19    H        1.649460381     2.051883685    -0.626688301
  20    H       -2.783594850     1.978268335     0.336747031
  21    H        3.137328795     0.981197655     0.985022218


           Empirical Formula: C7 H12 O2  =    21 atoms



      MOLECULAR POINT GROUP   :   C1  


                  EIGENVALUES  
 -41.76704 -38.03264 -35.17558 -31.83764 -29.22891 -23.60078 -23.13696 -20.64061
 -18.90709 -18.13673 -17.29186 -17.17440 -16.15133 -15.41775 -15.15839 -14.66207
 -14.37181 -13.31991 -13.27137 -12.63057 -12.43051 -12.06964 -11.91191 -11.54126
 -10.95136 -10.14952   0.69351   2.93290   2.98632   3.28323   3.31953   3.51136
   3.55053   3.69579   3.76792   4.07491   4.08045   4.19664   4.25427   4.37691
   4.56103   4.80579   4.91353   4.96773   5.08075   5.53373   5.61443   5.81873


              NET ATOMIC CHARGES AND DIPOLE CONTRIBUTIONS

  ATOM NO.   TYPE          CHARGE      No. of ELECS.   s-Pop       p-Pop       
    1          O          -0.309124        6.3091     1.81100     4.49812
    2          O          -0.309084        6.3091     1.81101     4.49808
    3          C          -0.093407        4.0934     1.16069     2.93272
    4          C          -0.108699        4.1087     1.16419     2.94451
    5          C          -0.108690        4.1087     1.16418     2.94451
    6          C           0.116333        3.8837     1.15934     2.72433
    7          C           0.116315        3.8837     1.15933     2.72435
    8          C          -0.176542        4.1765     1.20864     2.96790
    9          C          -0.176478        4.1765     1.20863     2.96784
   10          H           0.051461        0.9485     0.94854
   11          H           0.051749        0.9483     0.94825
   12          H           0.064486        0.9355     0.93551
   13          H           0.067307        0.9327     0.93269
   14          H           0.064493        0.9355     0.93551
   15          H           0.067300        0.9327     0.93270
   16          H           0.047103        0.9529     0.95290
   17          H           0.047086        0.9529     0.95291
   18          H           0.107659        0.8923     0.89234
   19          H           0.107688        0.8923     0.89231
   20          H           0.186528        0.8135     0.81347
   21          H           0.186513        0.8135     0.81349
 DIPOLE           X         Y         Z       TOTAL
 POINT-CHG.    -0.036     0.242     0.704     0.745
 HYBRID         0.142     1.145     0.465     1.244
 SUM            0.106     1.387     1.168     1.817


          ATOMIC ORBITAL ELECTRON POPULATIONS

     Atom    s        px        py        pz   
    1  O   1.81100   1.30269   1.38423   1.81121
    2  O   1.81101   1.19676   1.47236   1.82895
    3  C   1.16069   0.94253   0.98459   1.00560
    4  C   1.16419   0.99416   0.94698   1.00337
    5  C   1.16418   0.96573   0.96808   1.01070
    6  C   1.15934   0.83279   0.92490   0.96664
    7  C   1.15933   0.83431   0.92736   0.96268
    8  C   1.20864   0.96032   1.00083   1.00675
    9  C   1.20863   0.96909   0.99237   1.00638
   10  H   0.94854
   11  H   0.94825
   12  H   0.93551
   13  H   0.93269
   14  H   0.93551
   15  H   0.93270
   16  H   0.95290
   17  H   0.95291
   18  H   0.89234
   19  H   0.89231
   20  H   0.81347
   21  H   0.81349
 *******************************************************************************
 ** Site#: 14399        For non-commercial use only    Version 18.184L 64BITS **
 *******************************************************************************
 ** Cite this program as: MOPAC2016, Version: 18.184L, James J. P. Stewart,   **
 ** Stewart Computational Chemistry, web: HTTP://OpenMOPAC.net. Days left:  18**
 *******************************************************************************
 **                                                                           **
 **                                MOPAC2016                                  **
 **                                                                           **
 *******************************************************************************

                              PM3 CALCULATION RESULTS

 *******************************************************************************
 *  CALCULATION DONE:                                Sat Jun 15 10:25:47 2019  *
 *  PM3        - The PM3 Hamiltonian to be used
 *  OLDGEO     - PREVIOUS GEOMETRY TO BE USED
 *  PRECISE    - CRITERIA TO BE INCREASED BY 100 TIMES
 *  NOSYM      - POINT-GROUP SYMMETRY SET TO C1
 *  THREADS=1  - MULTI-THREADING NOT USED
 *  T=         - A TIME OF 172800.0 SECONDS REQUESTED
 *  DUMP=N     - RESTART FILE WRITTEN EVERY  7200.000 SECONDS
 *  THERMO     - THERMODYNAMIC QUANTITIES TO BE CALCULATED
 *******************************************************************************
oldgeo thermo nosym precise THREADS=1  pm3
 InChI=1S/C7H12O2/c8-6-2-1-3-7(9)5-4-6/h4-9H,1-3H2

   ATOM   CHEMICAL          X               Y               Z
  NUMBER   SYMBOL      (ANGSTROMS)     (ANGSTROMS)     (ANGSTROMS)
 
     1       O         -2.74228653  *   1.12575316  *  -0.07504797  *
     2       O          2.91010008  *   0.17480573  *   0.54212791  *
     3       C         -0.27882973  *  -1.63504190  *   0.03393805  *
     4       C         -1.36521187  *  -0.74291132  *  -0.54542678  *
     5       C          1.13373551  *  -1.16330839  *  -0.27254347  *
     6       C         -1.43862906  *   0.62128517  *   0.16095991  *
     7       C          1.49454885  *   0.12782455  *   0.48122653  *
     8       C         -0.37935126  *   1.55652692  *  -0.35356646  *
     9       C          0.92779895  *   1.33664015  *  -0.21087668  *
    10       H         -0.40574177  *  -2.65655134  *  -0.37750841  *
    11       H         -0.41616007  *  -1.73943997  *   1.12997049  *
    12       H         -1.20465261  *  -0.59774631  *  -1.63206466  *
    13       H         -2.34190847  *  -1.26096763  *  -0.45425123  *
    14       H          1.26059505  *  -1.01256514  *  -1.36287546  *
    15       H          1.84822902  *  -1.96581502  *   0.00330800  *
    16       H         -1.30703096  *   0.48730200  *   1.26580897  *
    17       H          1.09780926  *   0.08284833  *   1.52837694  *
    18       H         -0.72657909  *   2.45163219  *  -0.88600914  *
    19       H          1.64946038  *   2.05188368  *  -0.62668830  *
    20       H         -2.78359485  *   1.97826834  *   0.33674703  *
    21       H          3.13732879  *   0.98119765  *   0.98502222  *
 


          CARTESIAN COORDINATES 

    NO.       ATOM           X           Y           Z

     1         O         -2.7423      1.1258     -0.0750
     2         O          2.9101      0.1748      0.5421
     3         C         -0.2788     -1.6350      0.0339
     4         C         -1.3652     -0.7429     -0.5454
     5         C          1.1337     -1.1633     -0.2725
     6         C         -1.4386      0.6213      0.1610
     7         C          1.4945      0.1278      0.4812
     8         C         -0.3794      1.5565     -0.3536
     9         C          0.9278      1.3366     -0.2109
    10         H         -0.4057     -2.6566     -0.3775
    11         H         -0.4162     -1.7394      1.1300
    12         H         -1.2047     -0.5977     -1.6321
    13         H         -2.3419     -1.2610     -0.4543
    14         H          1.2606     -1.0126     -1.3629
    15         H          1.8482     -1.9658      0.0033
    16         H         -1.3070      0.4873      1.2658
    17         H          1.0978      0.0828      1.5284
    18         H         -0.7266      2.4516     -0.8860
    19         H          1.6495      2.0519     -0.6267
    20         H         -2.7836      1.9783      0.3367
    21         H          3.1373      0.9812      0.9850

  H: (PM3): J. J. P. STEWART, J. COMP. CHEM. 10, 209 (1989).
  C: (PM3): J. J. P. STEWART, J. COMP. CHEM. 10, 209 (1989).
  O: (PM3): J. J. P. STEWART, J. COMP. CHEM. 10, 209 (1989).

           Empirical Formula: C7 H12 O2  =    21 atoms



      MOLECULAR POINT GROUP   :   C1  


      RHF CALCULATION, NO. OF DOUBLY OCCUPIED LEVELS = 26



          HEAT OF FORMATION =     -86.981117 KCALS/MOLE


          CARTESIAN COORDINATE DERIVATIVES

   NUMBER  ATOM         X            Y            Z

     1       O      0.003717    -0.000827     0.000840
     2       O      0.006129     0.005506    -0.000799
     3       C      0.000048     0.003369     0.000508
     4       C     -0.000468     0.004695    -0.001046
     5       C     -0.005717    -0.003912     0.001336
     6       C      0.002081     0.003689    -0.002805
     7       C      0.006879    -0.001934     0.003311
     8       C      0.005685     0.003037    -0.002144
     9       C      0.004983    -0.002702     0.000281
    10       H     -0.000841     0.003699     0.001298
    11       H     -0.008219     0.007453     0.001254
    12       H      0.001801    -0.007312    -0.001793
    13       H      0.002457     0.005068    -0.000517
    14       H     -0.007616     0.001045     0.000328
    15       H     -0.001173    -0.009595    -0.001469
    16       H      0.005614    -0.002348    -0.000824
    17       H     -0.000309    -0.014298     0.001919
    18       H      0.002426     0.002398    -0.003677
    19       H     -0.008523     0.000780     0.003587
    20       H      0.000317    -0.001783     0.005179
    21       H     -0.009271     0.003973    -0.004767
 


          GRADIENT NORM =   0.03513

          MOLECULAR WEIGHT =  128.17



          ROTATIONAL CONSTANTS IN CM(-1)

          A =    0.09600046   B =    0.03938744   C =    0.03011768



           PRINCIPAL MOMENTS OF INERTIA IN UNITS OF 10**(-40)*GRAM-CM**2

          A =      291.5900   B =      710.7031   C =      929.4464


          ORIENTATION OF MOLECULE IN FORCE CALCULATION

    NO.       ATOM         X         Y         Z

     1          O      -2.8825   -0.5096   -0.2002
     2          O       2.8825   -0.5096   -0.2002
     3          C      -0.0000    1.8129   -0.2002
     4          C      -1.2744    1.1545    0.3041
     5          C       1.2743    1.1545    0.3040
     6          C      -1.4958   -0.2371   -0.3123
     7          C       1.4958   -0.2371   -0.3123
     8          C      -0.6665   -1.2785    0.3872
     9          C       0.6666   -1.2785    0.3872
    10          H      -0.0000    2.8733    0.1232
    11          H      -0.0001    1.8429   -1.3094
    12          H      -1.2572    1.0800    1.4094
    13          H      -2.1368    1.8090    0.0620
    14          H       1.2571    1.0801    1.4094
    15          H       2.1368    1.8089    0.0620
    16          H      -1.2264   -0.2207   -1.4000
    17          H       1.2263   -0.2209   -1.4000
    18          H      -1.2116   -2.0593    0.9335
    19          H       1.2117   -2.0593    0.9336
    20          H      -3.0195   -1.3774   -0.5555
    21          H       3.0197   -1.3766   -0.5573


    FIRST DERIVATIVES WILL BE USED IN THE CALCULATION OF SECOND DERIVATIVES

    FOR POINT-GROUP C1   THERE ARE   1 UNIQUE SYMMETRY FUNCTIONS.

 STEP:   1 TIME =     0.02 SECS, INTEGRAL =      0.02 TIME LEFT: 172799.98
 STEP:   2 TIME =     0.02 SECS, INTEGRAL =      0.04 TIME LEFT: 172799.96
 STEP:   3 TIME =     0.02 SECS, INTEGRAL =      0.06 TIME LEFT: 172799.94
 STEP:   4 TIME =     0.02 SECS, INTEGRAL =      0.08 TIME LEFT: 172799.92
 STEP:   5 TIME =     0.02 SECS, INTEGRAL =      0.10 TIME LEFT: 172799.90
 STEP:   6 TIME =     0.02 SECS, INTEGRAL =      0.11 TIME LEFT: 172799.89
 STEP:   7 TIME =     0.02 SECS, INTEGRAL =      0.13 TIME LEFT: 172799.87
 STEP:   8 TIME =     0.02 SECS, INTEGRAL =      0.15 TIME LEFT: 172799.85
 STEP:   9 TIME =     0.02 SECS, INTEGRAL =      0.17 TIME LEFT: 172799.83
 STEP:  10 TIME =     0.02 SECS, INTEGRAL =      0.19 TIME LEFT: 172799.81
 STEP:  11 TIME =     0.02 SECS, INTEGRAL =      0.20 TIME LEFT: 172799.80
 STEP:  12 TIME =     0.02 SECS, INTEGRAL =      0.22 TIME LEFT: 172799.78
 STEP:  13 TIME =     0.02 SECS, INTEGRAL =      0.24 TIME LEFT: 172799.76
 STEP:  14 TIME =     0.02 SECS, INTEGRAL =      0.26 TIME LEFT: 172799.74
 STEP:  15 TIME =     0.02 SECS, INTEGRAL =      0.28 TIME LEFT: 172799.72
 STEP:  16 TIME =     0.02 SECS, INTEGRAL =      0.30 TIME LEFT: 172799.70
 STEP:  17 TIME =     0.02 SECS, INTEGRAL =      0.31 TIME LEFT: 172799.69
 STEP:  18 TIME =     0.02 SECS, INTEGRAL =      0.33 TIME LEFT: 172799.67
 STEP:  19 TIME =     0.02 SECS, INTEGRAL =      0.35 TIME LEFT: 172799.65
 STEP:  20 TIME =     0.02 SECS, INTEGRAL =      0.37 TIME LEFT: 172799.63
 STEP:  21 TIME =     0.02 SECS, INTEGRAL =      0.38 TIME LEFT: 172799.62
 STEP:  22 TIME =     0.02 SECS, INTEGRAL =      0.40 TIME LEFT: 172799.60
 STEP:  23 TIME =     0.02 SECS, INTEGRAL =      0.42 TIME LEFT: 172799.58
 STEP:  24 TIME =     0.02 SECS, INTEGRAL =      0.44 TIME LEFT: 172799.56
 STEP:  25 TIME =     0.02 SECS, INTEGRAL =      0.45 TIME LEFT: 172799.55
 STEP:  26 TIME =     0.02 SECS, INTEGRAL =      0.47 TIME LEFT: 172799.53
 STEP:  27 TIME =     0.02 SECS, INTEGRAL =      0.49 TIME LEFT: 172799.51
 STEP:  28 TIME =     0.02 SECS, INTEGRAL =      0.50 TIME LEFT: 172799.50
 STEP:  29 TIME =     0.02 SECS, INTEGRAL =      0.52 TIME LEFT: 172799.48
 STEP:  30 TIME =     0.02 SECS, INTEGRAL =      0.54 TIME LEFT: 172799.46
 STEP:  31 TIME =     0.02 SECS, INTEGRAL =      0.56 TIME LEFT: 172799.44
 STEP:  32 TIME =     0.02 SECS, INTEGRAL =      0.58 TIME LEFT: 172799.42
 STEP:  33 TIME =     0.02 SECS, INTEGRAL =      0.60 TIME LEFT: 172799.40
 STEP:  34 TIME =     0.02 SECS, INTEGRAL =      0.61 TIME LEFT: 172799.39
 STEP:  35 TIME =     0.02 SECS, INTEGRAL =      0.63 TIME LEFT: 172799.37
 STEP:  36 TIME =     0.02 SECS, INTEGRAL =      0.65 TIME LEFT: 172799.35
 STEP:  37 TIME =     0.02 SECS, INTEGRAL =      0.67 TIME LEFT: 172799.33
 STEP:  38 TIME =     0.02 SECS, INTEGRAL =      0.69 TIME LEFT: 172799.31
 STEP:  39 TIME =     0.02 SECS, INTEGRAL =      0.71 TIME LEFT: 172799.29
 STEP:  40 TIME =     0.02 SECS, INTEGRAL =      0.73 TIME LEFT: 172799.27
 STEP:  41 TIME =     0.02 SECS, INTEGRAL =      0.75 TIME LEFT: 172799.25
 STEP:  42 TIME =     0.02 SECS, INTEGRAL =      0.77 TIME LEFT: 172799.23
 STEP:  43 TIME =     0.02 SECS, INTEGRAL =      0.78 TIME LEFT: 172799.22
 STEP:  44 TIME =     0.02 SECS, INTEGRAL =      0.80 TIME LEFT: 172799.20
 STEP:  45 TIME =     0.02 SECS, INTEGRAL =      0.82 TIME LEFT: 172799.18
 STEP:  46 TIME =     0.02 SECS, INTEGRAL =      0.84 TIME LEFT: 172799.16
 STEP:  47 TIME =     0.02 SECS, INTEGRAL =      0.85 TIME LEFT: 172799.15
 STEP:  48 TIME =     0.02 SECS, INTEGRAL =      0.87 TIME LEFT: 172799.13
 STEP:  49 TIME =     0.02 SECS, INTEGRAL =      0.89 TIME LEFT: 172799.11
 STEP:  50 TIME =     0.02 SECS, INTEGRAL =      0.91 TIME LEFT: 172799.09
 STEP:  51 TIME =     0.02 SECS, INTEGRAL =      0.93 TIME LEFT: 172799.07
 STEP:  52 TIME =     0.02 SECS, INTEGRAL =      0.95 TIME LEFT: 172799.05
 STEP:  53 TIME =     0.02 SECS, INTEGRAL =      0.96 TIME LEFT: 172799.04
 STEP:  54 TIME =     0.02 SECS, INTEGRAL =      0.98 TIME LEFT: 172799.02
 STEP:  55 TIME =     0.02 SECS, INTEGRAL =      1.00 TIME LEFT: 172799.00
 STEP:  56 TIME =     0.02 SECS, INTEGRAL =      1.02 TIME LEFT: 172798.98
 STEP:  57 TIME =     0.02 SECS, INTEGRAL =      1.04 TIME LEFT: 172798.96
 STEP:  58 TIME =     0.02 SECS, INTEGRAL =      1.06 TIME LEFT: 172798.94
 STEP:  59 TIME =     0.02 SECS, INTEGRAL =      1.08 TIME LEFT: 172798.92
 STEP:  60 TIME =     0.02 SECS, INTEGRAL =      1.09 TIME LEFT: 172798.91
 STEP:  61 TIME =     0.02 SECS, INTEGRAL =      1.11 TIME LEFT: 172798.89
 STEP:  62 TIME =     0.02 SECS, INTEGRAL =      1.13 TIME LEFT: 172798.87
 STEP:  63 TIME =     0.02 SECS, INTEGRAL =      1.15 TIME LEFT: 172798.85

(To convert to Hartree/Bohr^2, multiply by (10^(-21) x N x a0^2)/(4.184 x 627.51) =  0.0642)


           FORCE MATRIX IN MILLIDYNES/ANGSTROM


                  O  1       O  2       C  3       C  4       C  5       C  6
 ------------------------------------------------------------------------------
     O    1  11.946240
     O    2   0.012687  11.945661
     C    3   0.062693   0.062783  14.272143
     C    4   0.849982   0.003993   4.164410  14.177867
     C    5   0.004058   0.849829   4.164424   0.603100  14.178540
     C    6   5.039669   0.018341   0.603744   3.631056   0.033796  14.592660
     C    7   0.018311   5.039655   0.603693   0.033827   3.631489   0.121289
     C    8   0.924612   0.079143   0.028063   0.622144   0.044818   4.360332
     C    9   0.079048   0.924557   0.028176   0.044671   0.622030   0.746456
     H   10   0.010521   0.010525   4.457195   0.426570   0.426582   0.049892
     H   11   0.003682   0.003713   4.405595   0.443673   0.443685   0.033788
     H   12   0.027320   0.001596   0.446873   4.475290   0.022321   0.456403
     H   13   0.098531   0.001327   0.429808   4.449147   0.049283   0.470812
     H   14   0.001624   0.027289   0.446846   0.022304   4.475256   0.005506
     H   15   0.001297   0.098586   0.429719   0.049307   4.449397   0.004841
     H   16   0.413624   0.002789   0.043120   0.431010   0.005962   4.024763
     H   17   0.002820   0.413615   0.043107   0.005923   0.430984   0.028363
     H   18   0.069130   0.010839   0.001728   0.021706   0.015090   0.455456
     H   19   0.010820   0.069011   0.001670   0.015071   0.021713   0.123615
     H   20   8.334438   0.003970   0.016206   0.107572   0.002355   0.791801
     H   21   0.003937   8.334716   0.016191   0.002291   0.107573   0.005290


                  C  7       C  8       C  9       H 10       H 11       H 12
 ------------------------------------------------------------------------------
     C    7  14.593390
     C    8   0.746793  18.085116
     C    9   4.360709  10.724202  18.084783
     H   10   0.049829   0.002442   0.002432   5.054124
     H   11   0.033787   0.002078   0.002061   0.573203   5.034819
     H   12   0.005477   0.034205   0.005135   0.026048   0.045298   5.096136
     H   13   0.004861   0.042835   0.002062   0.039907   0.026013   0.565850
     H   14   0.456418   0.005026   0.034189   0.026048   0.045305   0.022910
     H   15   0.470758   0.002130   0.042841   0.039854   0.025987   0.002519
     H   16   0.028300   0.412698   0.029231   0.002037   0.029954   0.041310
     H   17   4.024937   0.029281   0.412688   0.002034   0.029939   0.000893
     H   18   0.123591   4.776560   0.442004   0.000350   0.000391   0.002965
     H   19   0.455507   0.441999   4.776720   0.000340   0.000386   0.001003
     H   20   0.005250   0.084093   0.010707   0.002691   0.000882   0.001668
     H   21   0.791993   0.010615   0.083963   0.002700   0.000868   0.000498


                  H 13       H 14       H 15       H 16       H 17       H 18
 ------------------------------------------------------------------------------
     H   13   5.064314
     H   14   0.002504   5.096065
     H   15   0.007882   0.565853   5.064491
     H   16   0.012071   0.000894   0.000618   4.443745
     H   17   0.000621   0.041309   0.012074   0.022027   4.443734
     H   18   0.003798   0.001025   0.002335   0.026403   0.011280   5.154785
     H   19   0.002311   0.002968   0.003801   0.011298   0.026408   0.077484
     H   20   0.004644   0.000500   0.000645   0.042787   0.001440   0.038816
     H   21   0.000633   0.001670   0.004606   0.001450   0.042606   0.002420


                  H 19       H 20       H 21
 ------------------------------------------
     H   19   5.154970
     H   20   0.002412   8.578892
     H   21   0.038769   0.002072   8.579193


          HEAT OF FORMATION =     -86.981117 KCALS/MOLE

          ZERO POINT ENERGY     113.571 KCAL/MOL


           NORMAL COORDINATE ANALYSIS (Total motion = 1 Angstrom)


   Root No.       1         2         3         4         5         6         7         8

                 1 A       2 A       3 A       4 A       5 A       6 A       7 A       8 A   

                 104.5     162.3     238.1     247.8     271.7     280.5     332.5     374.6
  
           1   -0.0195   -0.0014   -0.0061   -0.0121   -0.0107   -0.0099    0.0266   -0.0279
           2    0.0107    0.0069    0.0179    0.0329    0.0097   -0.0276    0.0169    0.0379
           3    0.0647   -0.0274   -0.0310   -0.0263    0.0182    0.0078    0.0156   -0.0005
           4    0.0195   -0.0014   -0.0058    0.0123   -0.0107    0.0098   -0.0266    0.0279
           5    0.0107   -0.0069   -0.0164    0.0335   -0.0097   -0.0277    0.0170    0.0379
           6    0.0646    0.0274    0.0300   -0.0273   -0.0182    0.0080    0.0155   -0.0005
           7    0.0000   -0.0192   -0.0040    0.0001    0.0126   -0.0000    0.0000    0.0000
           8   -0.0121   -0.0000   -0.0002   -0.0119   -0.0000    0.0109    0.0398   -0.0224
           9   -0.0297   -0.0000   -0.0002   -0.0037    0.0000    0.0374    0.0164    0.0235
          10    0.0034    0.0124   -0.0011    0.0053    0.0229   -0.0199    0.0070   -0.0096
          11    0.0006   -0.0200   -0.0025   -0.0092   -0.0301    0.0044    0.0034   -0.0227
          12   -0.0068    0.0537    0.0030    0.0086   -0.0139   -0.0158   -0.0257   -0.0139
          13   -0.0034    0.0124   -0.0015   -0.0053    0.0229    0.0199   -0.0070    0.0096
          14    0.0006    0.0200    0.0021   -0.0094    0.0301    0.0044    0.0035   -0.0227
          15   -0.0067   -0.0537   -0.0026    0.0087    0.0139   -0.0159   -0.0257   -0.0139
          16   -0.0226    0.0006    0.0015   -0.0023   -0.0067   -0.0148    0.0293   -0.0151
          17    0.0040    0.0031   -0.0053   -0.0058   -0.0208    0.0027   -0.0118   -0.0196
          18   -0.0033    0.0053    0.0081    0.0030   -0.0304   -0.0131   -0.0007   -0.0101
          19    0.0226    0.0006    0.0014    0.0023   -0.0067    0.0148   -0.0293    0.0151
          20    0.0040   -0.0031    0.0051   -0.0060    0.0208    0.0028   -0.0118   -0.0196
          21   -0.0033   -0.0053   -0.0079    0.0032    0.0304   -0.0131   -0.0007   -0.0101
          22    0.0002   -0.0050    0.0056   -0.0009   -0.0063    0.0008    0.0008   -0.0024
          23   -0.0108   -0.0064    0.0006   -0.0088   -0.0260    0.0221   -0.0352    0.0021
          24   -0.0534   -0.0043    0.0120   -0.0010   -0.0387   -0.0066   -0.0008    0.0150
          25   -0.0002   -0.0050    0.0056    0.0007   -0.0063   -0.0007   -0.0008    0.0024
          26   -0.0108    0.0064   -0.0012   -0.0088    0.0260    0.0221   -0.0352    0.0021
          27   -0.0534    0.0043   -0.0120   -0.0007    0.0387   -0.0066   -0.0008    0.0150
          28    0.0000   -0.0191   -0.0050    0.0001   -0.0186   -0.0000    0.0000    0.0000
          29   -0.0025   -0.0000   -0.0001   -0.0072   -0.0000   -0.0083    0.0159   -0.0362
          30   -0.0611   -0.0000   -0.0008   -0.0198   -0.0000    0.1033    0.0976    0.0708
          31    0.0000   -0.0667   -0.0074    0.0001    0.0244   -0.0000    0.0000    0.0000
          32   -0.0446   -0.0000   -0.0008   -0.0285   -0.0000    0.0766    0.1201    0.0234
          33   -0.0306   -0.0000   -0.0003   -0.0042    0.0000    0.0395    0.0195    0.0249
          34    0.0220    0.0786    0.0003    0.0173    0.0361   -0.0651   -0.0268   -0.0426
          35    0.0004   -0.0643    0.0010   -0.0152   -0.0567    0.0083    0.0204   -0.0239
          36   -0.0070    0.0498    0.0032    0.0082   -0.0153   -0.0151   -0.0240   -0.0132
          37    0.0049   -0.0068   -0.0028    0.0038    0.0202   -0.0065    0.0012    0.0041
          38    0.0084   -0.0170   -0.0048   -0.0057   -0.0231    0.0083   -0.0164   -0.0119
          39    0.0086    0.1320    0.0022    0.0228    0.0134   -0.0548   -0.0638   -0.0379
          40   -0.0221    0.0785   -0.0009   -0.0174    0.0361    0.0651    0.0268    0.0426
          41    0.0004    0.0643   -0.0015   -0.0153    0.0567    0.0083    0.0205   -0.0239
          42   -0.0070   -0.0497   -0.0028    0.0083    0.0153   -0.0151   -0.0240   -0.0132
          43   -0.0049   -0.0068   -0.0030   -0.0037    0.0202    0.0064   -0.0012   -0.0041
          44    0.0084    0.0170    0.0045   -0.0059    0.0231    0.0083   -0.0164   -0.0119
          45    0.0086   -0.1319   -0.0010    0.0229   -0.0134   -0.0549   -0.0638   -0.0379
          46   -0.0695    0.0144    0.0025   -0.0043   -0.0361   -0.0274    0.0326   -0.0133
          47    0.0093    0.0304   -0.0137   -0.0104   -0.0203    0.0040   -0.0274   -0.0419
          48   -0.0147    0.0090    0.0081    0.0024   -0.0366   -0.0155   -0.0003   -0.0091
          49    0.0695    0.0144    0.0024    0.0042   -0.0360    0.0274   -0.0327    0.0132
          50    0.0093   -0.0304    0.0132   -0.0108    0.0203    0.0040   -0.0274   -0.0420
          51   -0.0147   -0.0090   -0.0079    0.0026    0.0366   -0.0156   -0.0003   -0.0091
          52    0.0107   -0.0058    0.0193    0.0055   -0.0055    0.0104   -0.0107   -0.0032
          53   -0.0404   -0.0109    0.0019   -0.0157   -0.0566    0.0295   -0.0440    0.0250
          54   -0.0840   -0.0120    0.0276   -0.0041   -0.0814    0.0149   -0.0254    0.0458
          55   -0.0107   -0.0058    0.0192   -0.0062   -0.0055   -0.0103    0.0107    0.0032
          56   -0.0404    0.0108   -0.0030   -0.0157    0.0566    0.0295   -0.0440    0.0250
          57   -0.0840    0.0120   -0.0281   -0.0032    0.0815    0.0147   -0.0253    0.0458
          58   -0.0462    0.0034    0.0373    0.0093   -0.0420    0.0146    0.0005   -0.0796
          59    0.0211    0.0133   -0.1438   -0.1021    0.0008   -0.0595    0.0132    0.0707
          60    0.0496   -0.0449    0.3459    0.2941    0.0525    0.0757    0.0350   -0.0589
          61    0.0462    0.0034    0.0372   -0.0106   -0.0421   -0.0145   -0.0005    0.0797
          62    0.0210   -0.0133    0.1410   -0.1075   -0.0008   -0.0591    0.0130    0.0709
          63    0.0499    0.0450   -0.3344    0.3051   -0.0522    0.0743    0.0354   -0.0590


   Root No.       9        10        11        12        13        14        15        16

                 9 A      10 A      11 A      12 A      13 A      14 A      15 A      16 A   

                 430.0     440.6     448.9     562.3     563.2     686.6     770.2     862.6
  
           1   -0.0234   -0.0051   -0.0150   -0.0350    0.0099   -0.0522   -0.0091    0.0051
           2   -0.0338    0.0352   -0.0002   -0.0115    0.0022    0.0020   -0.0013    0.0023
           3   -0.0114   -0.0060   -0.0152   -0.0103    0.0122   -0.0135   -0.0016   -0.0020
           4   -0.0234   -0.0051    0.0150    0.0349    0.0103   -0.0522    0.0091   -0.0051
           5    0.0338   -0.0351   -0.0002   -0.0115   -0.0023   -0.0020   -0.0013    0.0023
           6    0.0114    0.0060   -0.0152   -0.0101   -0.0124    0.0135   -0.0016   -0.0020
           7    0.0492   -0.0142    0.0000    0.0001   -0.0154    0.0121    0.0000   -0.0000
           8   -0.0000   -0.0000   -0.0105    0.0588    0.0003   -0.0000    0.0252   -0.0392
           9   -0.0000    0.0000    0.0036   -0.0185   -0.0001   -0.0000    0.0046   -0.0249
          10    0.0423   -0.0027   -0.0222    0.0220   -0.0018    0.0033   -0.0012    0.0150
          11   -0.0108   -0.0253    0.0211    0.0028   -0.0181    0.0029    0.0153   -0.0122
          12   -0.0090   -0.0124   -0.0019   -0.0080   -0.0093   -0.0036    0.0111   -0.0012
          13    0.0422   -0.0027    0.0222   -0.0220   -0.0020    0.0033    0.0012   -0.0150
          14    0.0107    0.0252    0.0211    0.0026    0.0182   -0.0029    0.0153   -0.0123
          15    0.0090    0.0124   -0.0019   -0.0081    0.0092    0.0036    0.0111   -0.0012
          16   -0.0202    0.0079   -0.0095   -0.0211    0.0039   -0.0257   -0.0015    0.0000
          17   -0.0133   -0.0350    0.0026   -0.0084    0.0052    0.0027   -0.0068    0.0114
          18    0.0117    0.0154    0.0352    0.0177   -0.0418    0.0021   -0.0001    0.0242
          19   -0.0202    0.0080    0.0095    0.0210    0.0041   -0.0257    0.0015   -0.0000
          20    0.0133    0.0350    0.0026   -0.0083   -0.0053   -0.0027   -0.0067    0.0114
          21   -0.0118   -0.0155    0.0352    0.0172    0.0420   -0.0021   -0.0001    0.0242
          22   -0.0273    0.0121   -0.0014   -0.0024   -0.0035    0.0838   -0.0018    0.0014
          23    0.0002   -0.0154   -0.0190   -0.0095    0.0383    0.0399   -0.0358    0.0039
          24    0.0325    0.0340   -0.0022    0.0079    0.0169   -0.0198   -0.0230   -0.0155
          25   -0.0273    0.0121    0.0014    0.0024   -0.0034    0.0838    0.0018   -0.0014
          26   -0.0002    0.0154   -0.0189   -0.0090   -0.0385   -0.0399   -0.0357    0.0039
          27   -0.0325   -0.0340   -0.0023    0.0081   -0.0168    0.0198   -0.0230   -0.0155
          28    0.0340   -0.0459    0.0000    0.0002   -0.0378    0.0157    0.0000    0.0000
          29    0.0000   -0.0000   -0.0007    0.0334    0.0002   -0.0000    0.0474   -0.0866
          30   -0.0000    0.0001   -0.0284    0.0699    0.0004    0.0000   -0.0700    0.1408
          31    0.0646   -0.0048    0.0000    0.0001   -0.0100    0.0213   -0.0000    0.0000
          32   -0.0000    0.0000   -0.0412    0.1459    0.0008    0.0000   -0.0445    0.1247
          33   -0.0000    0.0000    0.0016   -0.0125   -0.0001   -0.0000    0.0013   -0.0177
          34    0.0579   -0.0184   -0.0729    0.0949    0.0318    0.0233   -0.0228    0.0195
          35   -0.0107   -0.0078    0.0785   -0.0151   -0.0778   -0.0109    0.0417    0.0527
          36   -0.0088   -0.0107    0.0007   -0.0085   -0.0121   -0.0044    0.0114    0.0035
          37    0.0532   -0.0090   -0.0040   -0.0038   -0.0153    0.0122   -0.0028    0.0287
          38    0.0059   -0.0398    0.0180   -0.0077   -0.0127    0.0223    0.0012   -0.0062
          39    0.0025   -0.0344   -0.0795    0.0623    0.0555    0.0216   -0.0229   -0.0391
          40    0.0579   -0.0185    0.0729   -0.0953    0.0308    0.0233    0.0227   -0.0195
          41    0.0107    0.0077    0.0785   -0.0161    0.0777    0.0109    0.0417    0.0527
          42    0.0089    0.0107    0.0007   -0.0087    0.0120    0.0044    0.0113    0.0035
          43    0.0532   -0.0090    0.0040    0.0040   -0.0152    0.0122    0.0028   -0.0288
          44   -0.0059    0.0397    0.0180   -0.0079    0.0126   -0.0223    0.0012   -0.0062
          45   -0.0024    0.0345   -0.0795    0.0629   -0.0548   -0.0216   -0.0228   -0.0391
          46   -0.0125    0.0310    0.0071   -0.0196   -0.0074   -0.0766   -0.0178   -0.0039
          47   -0.0320   -0.0723    0.0030   -0.0173   -0.0146    0.0089    0.0319    0.0547
          48    0.0136    0.0203    0.0375    0.0186   -0.0433   -0.0088   -0.0022    0.0225
          49   -0.0125    0.0310   -0.0070    0.0197   -0.0072   -0.0766    0.0178    0.0039
          50    0.0321    0.0723    0.0031   -0.0175    0.0145   -0.0090    0.0319    0.0548
          51   -0.0136   -0.0203    0.0375    0.0180    0.0436    0.0088   -0.0022    0.0225
          52   -0.0152    0.0364    0.0019    0.0039   -0.0291    0.0909   -0.0090    0.0100
          53    0.0203   -0.0104   -0.0703   -0.0305    0.1037    0.0442    0.1189    0.0422
          54    0.0728    0.0621   -0.0721   -0.0157    0.0862   -0.0094    0.1917    0.0477
          55   -0.0152    0.0364   -0.0019   -0.0036   -0.0291    0.0909    0.0090   -0.0100
          56   -0.0202    0.0105   -0.0702   -0.0293   -0.1041   -0.0442    0.1189    0.0422
          57   -0.0726   -0.0620   -0.0722   -0.0147   -0.0864    0.0094    0.1917    0.0477
          58    0.0087   -0.0559    0.0018   -0.0163   -0.0081   -0.0423   -0.0104    0.0335
          59   -0.0343    0.0608    0.0008   -0.0099    0.0030    0.0102   -0.0009   -0.0014
          60   -0.0234   -0.0471   -0.0242   -0.0215    0.0175   -0.0358   -0.0018   -0.0053
          61    0.0087   -0.0558   -0.0019    0.0164   -0.0080   -0.0422    0.0104   -0.0336
          62    0.0343   -0.0608    0.0007   -0.0098   -0.0032   -0.0102   -0.0009   -0.0014
          63    0.0235    0.0470   -0.0240   -0.0214   -0.0177    0.0358   -0.0018   -0.0053


   Root No.      17        18        19        20        21        22        23        24

                17 A      18 A      19 A      20 A      21 A      22 A      23 A      24 A   

                 869.2     911.3     960.9     990.3    1014.4    1049.7    1071.7    1091.1
  
           1    0.0037    0.0080   -0.0001   -0.0013   -0.0080   -0.0092   -0.0130   -0.0149
           2    0.0004    0.0033   -0.0013   -0.0024   -0.0038   -0.0010   -0.0050   -0.0015
           3   -0.0006    0.0016   -0.0003    0.0012    0.0010    0.0030    0.0031    0.0066
           4    0.0037   -0.0080   -0.0001   -0.0013    0.0080    0.0093   -0.0130   -0.0149
           5   -0.0004    0.0033    0.0013    0.0024   -0.0038   -0.0010    0.0050    0.0017
           6    0.0006    0.0016    0.0003   -0.0012    0.0010    0.0030   -0.0031   -0.0066
           7   -0.0023    0.0000    0.0127    0.0070   -0.0000   -0.0000   -0.0016    0.0155
           8    0.0000   -0.0233   -0.0000   -0.0000   -0.0241    0.0103    0.0000    0.0002
           9    0.0000   -0.0189    0.0000    0.0000    0.0125   -0.0238   -0.0000    0.0002
          10   -0.0162   -0.0530   -0.0079    0.0002    0.0242   -0.0107    0.0021   -0.0108
          11    0.0263    0.0214    0.0225    0.0030    0.0162   -0.0121    0.0062   -0.0084
          12   -0.0270   -0.0111    0.0165    0.0111   -0.0062    0.0160    0.0053    0.0004
          13   -0.0162    0.0530   -0.0080    0.0002   -0.0242    0.0107    0.0021   -0.0107
          14   -0.0263    0.0214   -0.0225   -0.0029    0.0162   -0.0121   -0.0062    0.0077
          15    0.0270   -0.0111   -0.0165   -0.0111   -0.0062    0.0160   -0.0053   -0.0012
          16   -0.0030   -0.0047   -0.0020   -0.0004   -0.0052    0.0071    0.0131    0.0048
          17   -0.0010    0.0067   -0.0176   -0.0047    0.0209    0.0035   -0.0105    0.0122
          18    0.0035   -0.0024   -0.0229   -0.0134   -0.0219   -0.0199   -0.0015   -0.0028
          19   -0.0030    0.0046   -0.0020   -0.0004    0.0052   -0.0071    0.0131    0.0048
          20    0.0009    0.0067    0.0176    0.0047    0.0208    0.0035    0.0105   -0.0116
          21   -0.0035   -0.0024    0.0229    0.0133   -0.0219   -0.0199    0.0015    0.0035
          22    0.0021   -0.0022    0.0032    0.0002   -0.0061   -0.0029   -0.0014    0.0027
          23   -0.0100   -0.0220   -0.0266    0.0198   -0.0276   -0.0062    0.0106   -0.0087
          24    0.0101    0.0045   -0.0072    0.0251    0.0240    0.0178   -0.0152    0.0012
          25    0.0021    0.0022    0.0032    0.0003    0.0061    0.0029   -0.0014    0.0027
          26    0.0100   -0.0220    0.0266   -0.0198   -0.0276   -0.0062   -0.0106    0.0085
          27   -0.0101    0.0045    0.0072   -0.0250    0.0240    0.0178    0.0152   -0.0012
          28    0.0251   -0.0000    0.1492    0.0822   -0.0001    0.0000    0.0391   -0.0162
          29    0.0000   -0.0542   -0.0000   -0.0000   -0.0269    0.0042    0.0000    0.0005
          30   -0.0000    0.0822    0.0000    0.0000    0.0284   -0.0050   -0.0000   -0.0008
          31    0.0604   -0.0000   -0.0672   -0.0776    0.0001   -0.0001   -0.0114    0.1116
          32   -0.0000    0.0754   -0.0000   -0.0000   -0.0165    0.0528    0.0000   -0.0009
          33   -0.0000   -0.0124    0.0000    0.0000    0.0111   -0.0227   -0.0000    0.0001
          34    0.1253    0.0514   -0.0369   -0.0586   -0.0047   -0.0286    0.0490   -0.0661
          35   -0.0439   -0.0558   -0.0076   -0.0397   -0.0262    0.0478    0.0748   -0.0990
          36   -0.0309   -0.0151    0.0137    0.0087   -0.0087    0.0186    0.0088   -0.0042
          37   -0.0509   -0.0782    0.0172    0.0303    0.1000   -0.0486   -0.0379    0.0163
          38    0.0325    0.0402    0.0545    0.0360    0.1140   -0.0755   -0.0501    0.0314
          39    0.1274    0.1343    0.0197   -0.0039   -0.0082   -0.0286   -0.0027    0.0150
          40    0.1253   -0.0514   -0.0369   -0.0585    0.0049    0.0286    0.0491   -0.0656
          41    0.0439   -0.0557    0.0076    0.0397   -0.0263    0.0479   -0.0748    0.0959
          42    0.0309   -0.0151   -0.0137   -0.0087   -0.0087    0.0186   -0.0088    0.0033
          43   -0.0509    0.0783    0.0172    0.0301   -0.1001    0.0487   -0.0377    0.0173
          44   -0.0325    0.0401   -0.0544   -0.0359    0.1142   -0.0756    0.0499   -0.0330
          45   -0.1274    0.1343   -0.0197    0.0039   -0.0082   -0.0286    0.0026   -0.0150
          46    0.0161    0.0166   -0.0116    0.0260   -0.0506   -0.0091    0.1253    0.1552
          47   -0.0469    0.0088   -0.0248   -0.0714    0.0481    0.1408   -0.0641    0.0787
          48    0.0078    0.0034   -0.0237   -0.0074   -0.0310   -0.0224    0.0232    0.0313
          49    0.0161   -0.0166   -0.0115    0.0261    0.0506    0.0087    0.1258    0.1572
          50    0.0469    0.0088    0.0248    0.0715    0.0480    0.1410    0.0644   -0.0764
          51   -0.0079    0.0034    0.0236    0.0073   -0.0310   -0.0223   -0.0234   -0.0311
          52    0.0242   -0.0178    0.0345   -0.0001   -0.0634   -0.0483   -0.0542    0.0250
          53   -0.0506    0.0059    0.0365   -0.0783   -0.0146   -0.0113    0.0473   -0.0092
          54   -0.0269    0.0303    0.1128   -0.1158   -0.0115   -0.0333   -0.0134    0.0207
          55    0.0243    0.0178    0.0346   -0.0001    0.0634    0.0483   -0.0541    0.0255
          56    0.0506    0.0060   -0.0366    0.0783   -0.0147   -0.0112   -0.0474    0.0096
          57    0.0269    0.0304   -0.1128    0.1158   -0.0116   -0.0334    0.0133   -0.0204
          58    0.0016   -0.0016   -0.0379   -0.0210    0.0267   -0.0249   -0.0455    0.0038
          59    0.0011    0.0033    0.0038   -0.0003   -0.0085    0.0002   -0.0022   -0.0039
          60   -0.0015    0.0057    0.0029    0.0045   -0.0024    0.0082    0.0117    0.0065
          61    0.0017    0.0017   -0.0380   -0.0211   -0.0265    0.0251   -0.0455    0.0013
          62   -0.0011    0.0033   -0.0039    0.0003   -0.0085    0.0002    0.0022    0.0038
          63    0.0015    0.0057   -0.0030   -0.0045   -0.0024    0.0083   -0.0117   -0.0069


   Root No.      25        26        27        28        29        30        31        32

                25 A      26 A      27 A      28 A      29 A      30 A      31 A      32 A   

                1092.8    1103.5    1112.4    1143.4    1148.2    1157.2    1181.8    1212.8
  
           1    0.0004    0.0033   -0.0294    0.0161   -0.0019    0.0081    0.0059    0.0090
           2   -0.0046    0.0014   -0.0063    0.0010    0.0020    0.0017    0.0005   -0.0024
           3    0.0001   -0.0011    0.0101   -0.0042   -0.0003   -0.0008    0.0002   -0.0025
           4   -0.0009    0.0034    0.0293    0.0161   -0.0019   -0.0081   -0.0059    0.0090
           5   -0.0045   -0.0014   -0.0062   -0.0010   -0.0020    0.0017    0.0005    0.0024
           6   -0.0001    0.0011    0.0100    0.0042    0.0003   -0.0008    0.0002    0.0025
           7    0.0002   -0.0035    0.0000    0.0251    0.0152   -0.0000   -0.0000   -0.0081
           8   -0.0122    0.0000   -0.0058    0.0000    0.0000    0.0210   -0.0000   -0.0000
           9   -0.0140    0.0000   -0.0018    0.0000    0.0000   -0.0445    0.0135    0.0000
          10    0.0028    0.0033    0.0046   -0.0196   -0.0096   -0.0064    0.0003   -0.0016
          11    0.0223   -0.0031   -0.0034   -0.0044   -0.0152   -0.0070    0.0011   -0.0006
          12    0.0272   -0.0111   -0.0043    0.0202   -0.0120    0.0208   -0.0115   -0.0102
          13   -0.0031    0.0032   -0.0047   -0.0196   -0.0096    0.0064   -0.0002   -0.0016
          14    0.0226    0.0030   -0.0034    0.0044    0.0152   -0.0070    0.0011    0.0006
          15    0.0272    0.0109   -0.0044   -0.0202    0.0120    0.0208   -0.0115    0.0102
          16    0.0004   -0.0028    0.0179   -0.0062    0.0084   -0.0096   -0.0085   -0.0034
          17   -0.0219    0.0087    0.0184   -0.0186   -0.0003   -0.0039   -0.0167   -0.0218
          18   -0.0230    0.0245   -0.0041    0.0107    0.0148    0.0035   -0.0009    0.0104
          19   -0.0002   -0.0029   -0.0178   -0.0062    0.0084    0.0096    0.0085   -0.0034
          20   -0.0222   -0.0086    0.0184    0.0186    0.0003   -0.0040   -0.0168    0.0217
          21   -0.0230   -0.0244   -0.0038   -0.0107   -0.0147    0.0035   -0.0008   -0.0104
          22    0.0004   -0.0009   -0.0026   -0.0011   -0.0003    0.0013    0.0028    0.0035
          23    0.0045    0.0006   -0.0012    0.0114    0.0023    0.0006    0.0037    0.0048
          24   -0.0009   -0.0230   -0.0073   -0.0082    0.0009   -0.0006    0.0020    0.0003
          25   -0.0003   -0.0009    0.0026   -0.0011   -0.0003   -0.0013   -0.0028    0.0035
          26    0.0047   -0.0006   -0.0012   -0.0114   -0.0023    0.0006    0.0038   -0.0047
          27   -0.0008    0.0230   -0.0075    0.0082   -0.0009   -0.0006    0.0020   -0.0003
          28   -0.0001   -0.0059    0.0002    0.0074    0.2367   -0.0000   -0.0001   -0.0111
          29   -0.0300    0.0001   -0.0037    0.0000    0.0000    0.0118    0.0123   -0.0000
          30    0.0546   -0.0002   -0.0106   -0.0001   -0.0000   -0.0096   -0.0233   -0.0000
          31    0.0015   -0.0863    0.0005    0.2510   -0.0490   -0.0001   -0.0000   -0.0634
          32    0.0613   -0.0002   -0.0035   -0.0000   -0.0000    0.0946   -0.0219   -0.0000
          33   -0.0099    0.0000   -0.0039   -0.0000    0.0000   -0.0441    0.0110    0.0000
          34    0.0131   -0.0384   -0.0225   -0.0453   -0.0065   -0.1594    0.0384    0.0294
          35    0.1047   -0.0927   -0.0530   -0.0160   -0.0543   -0.1297    0.0056   -0.0019
          36    0.0321   -0.0155   -0.0073    0.0212   -0.0152    0.0138   -0.0126   -0.0117
          37    0.0285    0.0343    0.0155   -0.0104   -0.0664    0.0629    0.0311    0.0647
          38    0.0458    0.0440    0.0093    0.0071   -0.0859    0.0717    0.0470    0.0908
          39    0.0006    0.0069   -0.0053    0.0243    0.0032   -0.0142    0.0079    0.0067
          40   -0.0153   -0.0382    0.0228   -0.0452   -0.0066    0.1594   -0.0384    0.0294
          41    0.1081    0.0920   -0.0538    0.0158    0.0542   -0.1297    0.0055    0.0019
          42    0.0323    0.0153   -0.0074   -0.0213    0.0152    0.0139   -0.0126    0.0117
          43   -0.0279    0.0342   -0.0160   -0.0105   -0.0664   -0.0629   -0.0311    0.0646
          44    0.0447   -0.0440    0.0099   -0.0070    0.0859    0.0717    0.0470   -0.0907
          45    0.0001   -0.0069   -0.0053   -0.0243   -0.0031   -0.0142    0.0079   -0.0067
          46    0.0478    0.0127    0.2702   -0.0556   -0.0355   -0.0047    0.0539    0.0165
          47   -0.0734   -0.1149   -0.0021   -0.0549    0.0725   -0.0060    0.1370    0.0986
          48   -0.0120    0.0272    0.0502    0.0014    0.0052    0.0060    0.0132    0.0163
          49   -0.0430    0.0115   -0.2694   -0.0558   -0.0355    0.0047   -0.0536    0.0164
          50   -0.0751    0.1153   -0.0032    0.0553   -0.0723   -0.0061    0.1369   -0.0985
          51   -0.0131   -0.0269    0.0503   -0.0013   -0.0052    0.0060    0.0132   -0.0163
          52    0.0154   -0.0352   -0.0392   -0.0564   -0.0406    0.0500    0.1224   -0.0682
          53   -0.0119    0.0508    0.0294    0.0364    0.0169   -0.0206   -0.0573    0.0332
          54   -0.0102    0.0163   -0.0014   -0.0243   -0.0164    0.0170    0.0316   -0.0272
          55   -0.0150   -0.0350    0.0395   -0.0565   -0.0407   -0.0500   -0.1223   -0.0682
          56   -0.0120   -0.0507    0.0298   -0.0365   -0.0169   -0.0206   -0.0572   -0.0332
          57   -0.0109   -0.0163   -0.0013    0.0244    0.0164    0.0170    0.0315    0.0272
          58   -0.0754    0.0467    0.0017   -0.0462    0.0124   -0.0007   -0.0413   -0.0817
          59    0.0039   -0.0039   -0.0104    0.0067    0.0003    0.0029    0.0065    0.0061
          60    0.0117   -0.0077    0.0102    0.0069   -0.0019   -0.0007    0.0062    0.0153
          61    0.0757    0.0465   -0.0020   -0.0460    0.0125    0.0007    0.0414   -0.0816
          62    0.0040    0.0039   -0.0103   -0.0067   -0.0003    0.0029    0.0065   -0.0061
          63    0.0115    0.0077    0.0101   -0.0069    0.0019   -0.0007    0.0063   -0.0154


   Root No.      33        34        35        36        37        38        39        40

                33 A      34 A      35 A      36 A      37 A      38 A      39 A      40 A   

                1236.2    1238.1    1288.6    1297.8    1356.5    1363.1    1394.6    1399.4
  
           1   -0.0105   -0.0212    0.0106   -0.0165    0.0016    0.0192    0.0075    0.0005
           2    0.0041   -0.0049   -0.0027   -0.0066    0.0061   -0.0021    0.0042    0.0033
           3    0.0041   -0.0001   -0.0030   -0.0023    0.0029   -0.0027    0.0010    0.0015
           4    0.0106   -0.0212    0.0107    0.0164    0.0015   -0.0192    0.0075   -0.0005
           5    0.0040    0.0049    0.0027   -0.0066   -0.0062   -0.0021   -0.0042    0.0033
           6    0.0041    0.0001    0.0030   -0.0023   -0.0029   -0.0027   -0.0010    0.0015
           7   -0.0000    0.0041    0.0327   -0.0001    0.0464   -0.0001    0.0050    0.0000
           8   -0.0050   -0.0000   -0.0000   -0.0172   -0.0000   -0.0028   -0.0000    0.0070
           9   -0.0033   -0.0000   -0.0000   -0.0024   -0.0000   -0.0032   -0.0000   -0.0048
          10    0.0030    0.0077    0.0059    0.0147   -0.0145    0.0190   -0.0040    0.0164
          11    0.0016    0.0235    0.0160    0.0292   -0.0145    0.0202    0.0170   -0.0004
          12    0.0063    0.0016   -0.0023   -0.0025   -0.0030    0.0033    0.0141   -0.0112
          13   -0.0030    0.0076    0.0059   -0.0147   -0.0146   -0.0189   -0.0040   -0.0165
          14    0.0018   -0.0235   -0.0159    0.0293    0.0146    0.0200   -0.0169   -0.0003
          15    0.0063   -0.0016    0.0023   -0.0025    0.0030    0.0033   -0.0141   -0.0111
          16   -0.0008    0.0378   -0.0101    0.0424   -0.0159   -0.0401   -0.0295   -0.0075
          17    0.0210    0.0013   -0.0070   -0.0068   -0.0035    0.0084   -0.0040   -0.0137
          18   -0.0185   -0.0023    0.0063    0.0078   -0.0077   -0.0029   -0.0087   -0.0005
          19    0.0006    0.0377   -0.0102   -0.0423   -0.0157    0.0402   -0.0295    0.0076
          20    0.0210   -0.0011    0.0070   -0.0068    0.0036    0.0084    0.0039   -0.0138
          21   -0.0186    0.0022   -0.0064    0.0078    0.0077   -0.0029    0.0087   -0.0006
          22    0.0001    0.0094   -0.0077    0.0062    0.0112   -0.0068    0.0148   -0.0003
          23   -0.0108   -0.0191    0.0117    0.0066   -0.0091   -0.0066   -0.0111    0.0025
          24    0.0069    0.0146   -0.0081   -0.0034    0.0069    0.0036    0.0085   -0.0010
          25   -0.0001    0.0094   -0.0077   -0.0062    0.0113    0.0067    0.0148    0.0003
          26   -0.0109    0.0191   -0.0117    0.0066    0.0091   -0.0067    0.0111    0.0025
          27    0.0069   -0.0146    0.0080   -0.0034   -0.0069    0.0037   -0.0086   -0.0010
          28    0.0004   -0.1134   -0.1057    0.0003   -0.0622    0.0002   -0.0239    0.0001
          29   -0.0124   -0.0000   -0.0001   -0.0387   -0.0001   -0.0321   -0.0000   -0.0258
          30    0.0169    0.0001    0.0001    0.0563    0.0002    0.0738    0.0001    0.0794
          31    0.0001   -0.0085   -0.0905    0.0002   -0.0856    0.0003   -0.0039   -0.0000
          32    0.0009   -0.0000   -0.0000   -0.0313   -0.0002   -0.0691   -0.0001   -0.0902
          33   -0.0020   -0.0000    0.0000   -0.0010    0.0000   -0.0005    0.0000   -0.0014
          34   -0.0083   -0.0486   -0.0435   -0.0409   -0.0275   -0.0066    0.0828   -0.1166
          35    0.0223   -0.0522   -0.0430   -0.0812    0.0829   -0.0662   -0.0853    0.0678
          36    0.0082   -0.0014   -0.0047   -0.0086    0.0080   -0.0049   -0.0037    0.0045
          37   -0.0386   -0.0299   -0.0669   -0.0415   -0.0210   -0.0528   -0.0064   -0.0309
          38   -0.0560   -0.0164   -0.0686   -0.0403    0.0145   -0.0981   -0.0524    0.0042
          39   -0.0084    0.0220    0.0199    0.0107    0.0753   -0.0534   -0.1258    0.1248
          40    0.0086   -0.0485   -0.0434    0.0411   -0.0274    0.0067    0.0833    0.1164
          41    0.0220    0.0523    0.0428   -0.0813   -0.0833   -0.0656    0.0855    0.0675
          42    0.0082    0.0014    0.0047   -0.0086   -0.0080   -0.0049    0.0038    0.0045
          43    0.0388   -0.0297   -0.0668    0.0418   -0.0207    0.0529   -0.0063    0.0309
          44   -0.0561    0.0160    0.0685   -0.0406   -0.0150   -0.0980    0.0524    0.0041
          45   -0.0083   -0.0221   -0.0198    0.0108   -0.0755   -0.0529    0.1263    0.1245
          46    0.0029   -0.0703    0.0113   -0.0615    0.0226    0.0451    0.0314    0.0173
          47   -0.0549    0.0044    0.0221    0.0248    0.0017    0.0011    0.0045    0.0241
          48   -0.0197   -0.0253    0.0123   -0.0144    0.0001    0.0176    0.0056    0.0044
          49   -0.0027   -0.0702    0.0114    0.0614    0.0225   -0.0452    0.0313   -0.0175
          50   -0.0548   -0.0048   -0.0220    0.0249   -0.0017    0.0010   -0.0043    0.0242
          51   -0.0198    0.0252   -0.0124   -0.0143    0.0000    0.0176   -0.0056    0.0044
          52    0.1392   -0.1134    0.0560    0.0444   -0.0589   -0.0149   -0.0637   -0.0178
          53   -0.0752    0.0329   -0.0158   -0.0102    0.0210   -0.0024    0.0232    0.0081
          54    0.0512   -0.0285    0.0140    0.0072   -0.0175    0.0043   -0.0180   -0.0096
          55   -0.1389   -0.1141    0.0557   -0.0444   -0.0588    0.0154   -0.0635    0.0179
          56   -0.0752   -0.0333    0.0156   -0.0102   -0.0210   -0.0022   -0.0231    0.0081
          57    0.0511    0.0287   -0.0139    0.0071    0.0175    0.0042    0.0180   -0.0097
          58    0.1052   -0.0175   -0.0794   -0.0729    0.0853   -0.0687    0.0432    0.0509
          59   -0.0065   -0.0047    0.0073    0.0020   -0.0044    0.0061   -0.0016   -0.0030
          60   -0.0198    0.0003    0.0117    0.0050   -0.0100    0.0138   -0.0032   -0.0068
          61   -0.1050   -0.0180   -0.0794    0.0731    0.0858    0.0684    0.0429   -0.0514
          62   -0.0064    0.0047   -0.0073    0.0020    0.0044    0.0061    0.0015   -0.0030
          63   -0.0198   -0.0004   -0.0118    0.0051    0.0101    0.0138    0.0032   -0.0069


   Root No.      41        42        43        44        45        46        47        48

                41 A      42 A      43 A      44 A      45 A      46 A      47 A      48 A   

                1407.7    1411.2    1416.0    1423.3    1883.5    2798.2    2804.3    2943.9
  
           1   -0.0012    0.0057    0.0024    0.0130   -0.0028   -0.0003    0.0003   -0.0000
           2   -0.0068   -0.0094    0.0026   -0.0066    0.0022    0.0003   -0.0003   -0.0000
           3   -0.0026   -0.0046    0.0006   -0.0042   -0.0020    0.0003   -0.0003    0.0000
           4   -0.0011   -0.0058   -0.0024    0.0129    0.0028    0.0003    0.0003    0.0000
           5    0.0069   -0.0094    0.0026    0.0065    0.0022    0.0003    0.0003   -0.0000
           6    0.0026   -0.0046    0.0006    0.0042   -0.0020    0.0003    0.0003    0.0000
           7    0.0396    0.0002   -0.0000   -0.0224    0.0000   -0.0000    0.0002   -0.0000
           8    0.0000   -0.0014   -0.0386    0.0001   -0.0002   -0.0002   -0.0000   -0.0242
           9   -0.0000    0.0058    0.0238   -0.0000    0.0004   -0.0006   -0.0000   -0.0370
          10   -0.0311    0.0048    0.0188    0.0192    0.0032    0.0002   -0.0002    0.0037
          11   -0.0208   -0.0196    0.0180   -0.0076    0.0015   -0.0006    0.0006   -0.0031
          12    0.0058   -0.0106   -0.0057   -0.0083    0.0008    0.0005   -0.0006    0.0069
          13   -0.0310   -0.0051   -0.0188    0.0192   -0.0032   -0.0002   -0.0002   -0.0037
          14    0.0209   -0.0196    0.0180    0.0074    0.0015   -0.0006   -0.0006   -0.0031
          15   -0.0057   -0.0107   -0.0056    0.0082    0.0008    0.0005    0.0006    0.0069
          16    0.0171    0.0026   -0.0112   -0.0274   -0.0261    0.0084   -0.0082    0.0002
          17    0.0310    0.0363   -0.0127    0.0359    0.0139    0.0003   -0.0004    0.0002
          18    0.0024    0.0039   -0.0006   -0.0030   -0.0101   -0.0351    0.0353    0.0003
          19    0.0171   -0.0023    0.0112   -0.0274    0.0261   -0.0083   -0.0082   -0.0002
          20   -0.0311    0.0364   -0.0129   -0.0354    0.0139    0.0002    0.0004    0.0002
          21   -0.0024    0.0039   -0.0006    0.0031   -0.0101   -0.0350   -0.0354    0.0003
          22   -0.0008   -0.0016   -0.0012    0.0182    0.2520   -0.0010    0.0004   -0.0000
          23   -0.0079   -0.0074    0.0016   -0.0229   -0.0284    0.0000    0.0002    0.0000
          24    0.0022    0.0024   -0.0006    0.0118    0.0188   -0.0002   -0.0001    0.0000
          25   -0.0008    0.0014    0.0012    0.0182   -0.2520    0.0010    0.0004    0.0000
          26    0.0079   -0.0076    0.0017    0.0229   -0.0284    0.0000   -0.0002    0.0000
          27   -0.0022    0.0025   -0.0006   -0.0117    0.0188   -0.0002    0.0001    0.0000
          28   -0.0347   -0.0003    0.0001    0.0490    0.0000    0.0000    0.0002    0.0000
          29   -0.0001    0.0178    0.0523   -0.0000    0.0002   -0.0019   -0.0000    0.3004
          30    0.0002   -0.0484   -0.2122    0.0001   -0.0006   -0.0006   -0.0000    0.0850
          31   -0.0603   -0.0003    0.0000    0.0288    0.0000   -0.0000    0.0014    0.0000
          32   -0.0002    0.0350    0.2374   -0.0002   -0.0002   -0.0022    0.0000   -0.0135
          33   -0.0000    0.0035    0.0129   -0.0000    0.0004    0.0065    0.0000    0.3606
          34    0.0930   -0.0501   -0.0500   -0.0591   -0.0005    0.0004   -0.0005   -0.0031
          35   -0.0025    0.0586   -0.0077    0.0343    0.0035    0.0032   -0.0033    0.0028
          36   -0.0003    0.0015   -0.0033    0.0008    0.0003   -0.0096    0.0100   -0.0741
          37    0.0291   -0.0041   -0.0458   -0.0207   -0.0056   -0.0025    0.0028   -0.0418
          38    0.0238    0.0071   -0.0450   -0.0322   -0.0113    0.0020   -0.0021    0.0310
          39   -0.0629    0.0653    0.0408    0.0404   -0.0056   -0.0013    0.0014   -0.0106
          40    0.0924    0.0511    0.0498   -0.0590    0.0005   -0.0004   -0.0005    0.0031
          41    0.0020    0.0590   -0.0079   -0.0339    0.0035    0.0031    0.0033    0.0028
          42    0.0003    0.0015   -0.0033   -0.0008    0.0003   -0.0096   -0.0101   -0.0740
          43    0.0290    0.0044    0.0458   -0.0208    0.0056    0.0025    0.0028    0.0418
          44   -0.0239    0.0068   -0.0450    0.0323   -0.0113    0.0020    0.0022    0.0309
          45    0.0621    0.0661    0.0406   -0.0402   -0.0056   -0.0012   -0.0014   -0.0106
          46   -0.0277   -0.0125    0.0102    0.0211    0.0260   -0.0921    0.0944    0.0016
          47   -0.0425   -0.0364    0.0115   -0.0287   -0.0006   -0.0019    0.0018    0.0007
          48   -0.0077    0.0013    0.0050    0.0091    0.0074    0.4243   -0.4258   -0.0041
          49   -0.0278    0.0123   -0.0102    0.0211   -0.0260    0.0918    0.0947   -0.0016
          50    0.0426   -0.0365    0.0117    0.0283   -0.0007   -0.0019   -0.0017    0.0007
          51    0.0077    0.0014    0.0049   -0.0091    0.0075    0.4230    0.4272   -0.0041
          52    0.0153    0.0335   -0.0171   -0.0549    0.0128    0.0041   -0.0039    0.0003
          53   -0.0110   -0.0169    0.0068    0.0152    0.1250    0.0016   -0.0025    0.0004
          54    0.0123    0.0226   -0.0078   -0.0056   -0.0843   -0.0037    0.0028   -0.0003
          55    0.0154   -0.0329    0.0169   -0.0553   -0.0128   -0.0041   -0.0039   -0.0003
          56    0.0110   -0.0167    0.0068   -0.0154    0.1250    0.0016    0.0025    0.0004
          57   -0.0124    0.0225   -0.0078    0.0059   -0.0844   -0.0037   -0.0029   -0.0003
          58   -0.1028   -0.1462    0.0364   -0.1170   -0.0096    0.0038   -0.0038   -0.0000
          59    0.0057    0.0087   -0.0020    0.0069    0.0037   -0.0017    0.0016   -0.0001
          60    0.0147    0.0212   -0.0048    0.0207   -0.0007   -0.0008    0.0008   -0.0000
          61   -0.1033    0.1467   -0.0371   -0.1151    0.0095   -0.0038   -0.0038    0.0000
          62   -0.0057    0.0086   -0.0020   -0.0067    0.0037   -0.0017   -0.0016   -0.0001
          63   -0.0149    0.0214   -0.0050   -0.0205   -0.0007   -0.0008   -0.0008   -0.0000


   Root No.      49        50        51        52        53        54        55        56

                49 A      50 A      51 A      52 A      53 A      54 A      55 A      56 A   

                2956.5    2957.5    3026.3    3028.9    3036.4    3036.4    3048.9    3902.0
  
           1    0.0001    0.0000   -0.0000    0.0003   -0.0001   -0.0000    0.0003   -0.0052
           2    0.0002    0.0001   -0.0001   -0.0002   -0.0002   -0.0000   -0.0002   -0.0323
           3    0.0000    0.0000   -0.0000    0.0001   -0.0001   -0.0000    0.0001   -0.0133
           4    0.0001   -0.0000    0.0000    0.0003   -0.0000    0.0001   -0.0003   -0.0033
           5   -0.0002    0.0002   -0.0001    0.0002    0.0000   -0.0002   -0.0002    0.0205
           6   -0.0000    0.0000   -0.0000   -0.0001    0.0000   -0.0001    0.0001    0.0085
           7   -0.0001    0.0000   -0.0000    0.0000    0.0005   -0.0003   -0.0000   -0.0000
           8   -0.0001   -0.0069    0.0249   -0.0000   -0.0052   -0.0077    0.0003    0.0000
           9   -0.0001   -0.0070   -0.0161    0.0000    0.0016    0.0023   -0.0001   -0.0000
          10   -0.0160   -0.0137    0.0033   -0.0000    0.0177    0.0035   -0.0005    0.0001
          11    0.0132    0.0110   -0.0016    0.0001   -0.0119   -0.0025    0.0004    0.0001
          12   -0.0220   -0.0183   -0.0066   -0.0002   -0.0213   -0.0031    0.0002    0.0001
          13   -0.0156    0.0140   -0.0033   -0.0000    0.0037   -0.0172    0.0005    0.0001
          14   -0.0129    0.0112   -0.0016   -0.0002    0.0024   -0.0116    0.0004   -0.0001
          15    0.0216   -0.0187   -0.0066    0.0002    0.0055   -0.0203    0.0002   -0.0000
          16    0.0001    0.0001   -0.0001    0.0001    0.0000    0.0001   -0.0005   -0.0008
          17    0.0001    0.0001   -0.0002   -0.0003   -0.0006   -0.0001   -0.0001   -0.0008
          18   -0.0006   -0.0005    0.0000    0.0005   -0.0007   -0.0001    0.0004   -0.0003
          19    0.0001   -0.0001    0.0001    0.0001   -0.0000   -0.0001    0.0005   -0.0005
          20   -0.0001    0.0001   -0.0002    0.0003    0.0002   -0.0006   -0.0001    0.0005
          21    0.0006   -0.0005    0.0000   -0.0005    0.0001   -0.0006    0.0004    0.0002
          22    0.0001    0.0001    0.0000   -0.0187   -0.0001   -0.0003   -0.0243   -0.0001
          23   -0.0002   -0.0002    0.0000   -0.0270   -0.0001   -0.0004   -0.0260    0.0001
          24   -0.0001   -0.0001   -0.0000    0.0187    0.0000    0.0003    0.0180   -0.0001
          25    0.0001   -0.0001   -0.0000   -0.0186    0.0003    0.0003    0.0243   -0.0001
          26    0.0002   -0.0002    0.0000    0.0269   -0.0003   -0.0002   -0.0260   -0.0001
          27    0.0001   -0.0001   -0.0000   -0.0187    0.0002    0.0001    0.0181    0.0001
          28   -0.0018    0.0000   -0.0000   -0.0000    0.0030   -0.0019    0.0000   -0.0000
          29    0.0011    0.0871   -0.3133    0.0002    0.0688    0.1016   -0.0040    0.0000
          30    0.0003    0.0263   -0.1195    0.0001    0.0237    0.0350   -0.0014    0.0000
          31   -0.0039    0.0000    0.0000   -0.0000   -0.0007    0.0004   -0.0000   -0.0000
          32   -0.0001   -0.0048    0.0127   -0.0000   -0.0034   -0.0050    0.0002   -0.0000
          33    0.0007    0.0559    0.3157   -0.0002   -0.0458   -0.0677    0.0025    0.0000
          34   -0.0001   -0.0015    0.0043    0.0001    0.0228    0.0034   -0.0004    0.0001
          35   -0.0111   -0.0096   -0.0088   -0.0003   -0.0359   -0.0060    0.0005    0.0001
          36    0.2124    0.1760    0.0956    0.0033    0.3516    0.0552   -0.0043    0.0002
          37    0.1931    0.1602   -0.0378   -0.0004   -0.2382   -0.0468    0.0054   -0.0002
          38   -0.1483   -0.1239    0.0327    0.0004    0.1841    0.0354   -0.0039    0.0006
          39    0.0519    0.0434   -0.0179   -0.0002   -0.0893   -0.0166    0.0019   -0.0001
          40   -0.0000    0.0015   -0.0043    0.0001    0.0057   -0.0218    0.0004    0.0001
          41    0.0109   -0.0098   -0.0088    0.0003    0.0085   -0.0346    0.0005   -0.0001
          42   -0.2082    0.1801    0.0954   -0.0031   -0.0865    0.3368   -0.0043   -0.0001
          43    0.1891   -0.1637    0.0378   -0.0002   -0.0498    0.2321   -0.0054   -0.0001
          44    0.1452   -0.1266    0.0327   -0.0003   -0.0391    0.1790   -0.0039   -0.0004
          45   -0.0508    0.0443   -0.0179    0.0002    0.0196   -0.0867    0.0019    0.0000
          46   -0.0017   -0.0011    0.0007    0.0001   -0.0005   -0.0002   -0.0005   -0.0010
          47    0.0014    0.0014    0.0010    0.0005    0.0012    0.0001    0.0007   -0.0005
          48    0.0070    0.0052   -0.0011   -0.0052    0.0055    0.0012   -0.0053    0.0017
          49   -0.0016    0.0011   -0.0007    0.0001   -0.0001    0.0006    0.0005   -0.0006
          50   -0.0014    0.0014    0.0010   -0.0005   -0.0004    0.0012    0.0007    0.0003
          51   -0.0068    0.0053   -0.0011    0.0052   -0.0010    0.0054   -0.0053   -0.0011
          52   -0.0005   -0.0005   -0.0003    0.2166    0.0010    0.0031    0.2138   -0.0009
          53   -0.0011   -0.0011   -0.0005    0.3243    0.0014    0.0045    0.3113    0.0002
          54    0.0007    0.0007    0.0003   -0.2270   -0.0010   -0.0032   -0.2177   -0.0005
          55   -0.0005    0.0006    0.0004    0.2159   -0.0026   -0.0022   -0.2144   -0.0006
          56    0.0011   -0.0011   -0.0006   -0.3234    0.0038    0.0032    0.3122   -0.0001
          57   -0.0007    0.0008    0.0004    0.2264   -0.0027   -0.0023   -0.2184    0.0003
          58    0.0002    0.0002   -0.0001    0.0010   -0.0003   -0.0000    0.0013    0.0950
          59    0.0003    0.0003   -0.0001   -0.0005   -0.0006   -0.0001   -0.0006    0.5209
          60    0.0001    0.0001   -0.0000    0.0008   -0.0002   -0.0000    0.0007    0.2128
          61    0.0002   -0.0002    0.0001    0.0010   -0.0001    0.0003   -0.0013    0.0604
          62   -0.0003    0.0003   -0.0001    0.0005    0.0001   -0.0005   -0.0006   -0.3307
          63   -0.0001    0.0000   -0.0000   -0.0008    0.0001   -0.0002    0.0007   -0.1359


   Root No.      57

                57 A   

                3902.2
  
           1   -0.0033
           2   -0.0205
           3   -0.0084
           4    0.0052
           5   -0.0323
           6   -0.0133
           7    0.0000
           8    0.0000
           9   -0.0000
          10    0.0001
          11    0.0001
          12    0.0001
          13   -0.0001
          14    0.0001
          15    0.0001
          16   -0.0005
          17   -0.0005
          18   -0.0002
          19    0.0008
          20   -0.0008
          21   -0.0003
          22   -0.0001
          23    0.0000
          24   -0.0001
          25    0.0002
          26    0.0000
          27   -0.0001
          28    0.0000
          29    0.0000
          30    0.0000
          31    0.0000
          32   -0.0000
          33    0.0000
          34    0.0001
          35    0.0001
          36    0.0001
          37   -0.0001
          38    0.0004
          39   -0.0000
          40   -0.0001
          41    0.0001
          42    0.0002
          43    0.0002
          44    0.0007
          45   -0.0001
          46   -0.0006
          47   -0.0003
          48    0.0011
          49    0.0010
          50   -0.0005
          51    0.0017
          52   -0.0006
          53    0.0002
          54   -0.0004
          55    0.0009
          56    0.0002
          57   -0.0005
          58    0.0604
          59    0.3309
          60    0.1352
          61   -0.0951
          62    0.5203
          63    0.2138


           MASS-WEIGHTED COORDINATE ANALYSIS (NORMAL COORDINATES)


   Root No.       1         2         3         4         5         6         7         8

                 1 A       2 A       3 A       4 A       5 A       6 A       7 A       8 A   

                 104.5     162.3     238.1     247.8     271.7     280.5     332.5     374.6
  
           1   -0.1442   -0.0129   -0.0425   -0.0916   -0.0974   -0.1043    0.2493   -0.2626
           2    0.0787    0.0636    0.1255    0.2482    0.0887   -0.2918    0.1588    0.3559
           3    0.4771   -0.2518   -0.2168   -0.1986    0.1657    0.0827    0.1459   -0.0046
           4    0.1442   -0.0128   -0.0402    0.0933   -0.0972    0.1040   -0.2494    0.2626
           5    0.0787   -0.0633   -0.1149    0.2530   -0.0886   -0.2925    0.1590    0.3562
           6    0.4767    0.2517    0.2095   -0.2060   -0.1661    0.0841    0.1456   -0.0047
           7    0.0000   -0.1528   -0.0244    0.0004    0.0996   -0.0001    0.0001    0.0001
           8   -0.0771   -0.0001   -0.0015   -0.0781   -0.0001    0.1001    0.3231   -0.1827
           9   -0.1899   -0.0001   -0.0015   -0.0245    0.0000    0.3427    0.1333    0.1914
          10    0.0220    0.0988   -0.0068    0.0346    0.1809   -0.1826    0.0571   -0.0784
          11    0.0041   -0.1596   -0.0150   -0.0603   -0.2372    0.0403    0.0280   -0.1851
          12   -0.0432    0.4276    0.0182    0.0561   -0.1095   -0.1450   -0.2089   -0.1129
          13   -0.0220    0.0987   -0.0092   -0.0346    0.1809    0.1825   -0.0569    0.0784
          14    0.0041    0.1595    0.0128   -0.0613    0.2371    0.0405    0.0281   -0.1853
          15   -0.0431   -0.4275   -0.0157    0.0568    0.1097   -0.1453   -0.2089   -0.1130
[...]
 TRAVEL      0.0811         C  5 -- C  7          +8.2% ( 41.9%)     27.7%
 RED. MASS   0.8922         C  4 -- C  6          +8.2% ( 41.9%)     27.6%
 EFF. MASS   7.8958

 VIBRATION   37   37A         ATOM PAIR      ENERGY CONTRIBUTION    RADIAL
 FREQ.      1356.49         C  3 -- H 11         +13.0% ( 47.0%)      0.0%
 T-DIPOLE    0.0461         C  3 -- C  5         +12.2% ( 45.5%)     80.8%
 TRAVEL      0.0951         C  3 -- C  4         +12.2% ( 45.4%)     80.8%
 RED. MASS   0.7232         C  3 -- H 10         +11.1% ( 43.5%)      0.0%
 EFF. MASS   5.4988

 VIBRATION   38   38A         ATOM PAIR      ENERGY CONTRIBUTION    RADIAL
 FREQ.      1363.13         O  2 -- C  7          +9.0% ( 40.2%)     86.7%
 T-DIPOLE    0.0769         O  1 -- C  6          +8.9% ( 40.1%)     86.7%
 TRAVEL      0.0861         C  4 -- C  6          +8.2% ( 38.5%)     12.8%
 RED. MASS   0.7052         C  5 -- C  7          +8.2% ( 38.5%)     12.6%
 EFF. MASS   6.6683

 VIBRATION   39   39A         ATOM PAIR      ENERGY CONTRIBUTION    RADIAL
 FREQ.      1394.56         C  5 -- H 15          +9.3% ( 36.7%)      2.6%
 T-DIPOLE    0.2561         C  4 -- H 13          +9.3% ( 36.7%)      2.5%
 TRAVEL      0.1013         C  7 -- C  9          +7.6% ( 33.2%)     60.6%
 RED. MASS   0.3469         C  6 -- C  8          +7.6% ( 33.2%)     60.3%
 EFF. MASS   4.7091

 VIBRATION   40   40A         ATOM PAIR      ENERGY CONTRIBUTION    RADIAL
 FREQ.      1399.40         C  4 -- H 12         +14.9% ( 38.0%)      3.5%
 T-DIPOLE    0.0794         C  5 -- H 14         +14.9% ( 37.9%)      3.5%
 TRAVEL      0.1440         C  4 -- H 13         +13.6% ( 36.2%)      3.7%
 RED. MASS   0.1754         C  5 -- H 15         +13.5% ( 36.1%)      3.7%
 EFF. MASS   2.3245

 VIBRATION   41   41A         ATOM PAIR      ENERGY CONTRIBUTION    RADIAL
 FREQ.      1407.69         C  3 -- C  4         +10.1% ( 44.2%)     90.2%
 T-DIPOLE    0.0744         C  3 -- C  5         +10.1% ( 44.2%)     90.1%
 TRAVEL      0.0824         C  5 -- C  7          +8.1% ( 39.6%)     55.2%
 RED. MASS   0.7930         C  4 -- C  6          +8.1% ( 39.5%)     54.9%
 EFF. MASS   7.0629

 VIBRATION   42   42A         ATOM PAIR      ENERGY CONTRIBUTION    RADIAL
 FREQ.      1411.21         O  2 -- H 21         +11.1% ( 40.4%)      3.3%
 T-DIPOLE    0.2510         O  1 -- H 20         +11.1% ( 40.3%)      3.3%
 TRAVEL      0.0975         C  5 -- C  7          +9.1% ( 36.5%)     93.8%
 RED. MASS   0.5241         C  4 -- C  6          +9.0% ( 36.4%)     94.1%
 EFF. MASS   5.0218

 VIBRATION   43   43A         ATOM PAIR      ENERGY CONTRIBUTION    RADIAL
 FREQ.      1416.04         C  3 -- H 11         +25.7% ( 57.1%)      4.4%
 T-DIPOLE    0.0232         C  3 -- H 10         +21.4% ( 52.1%)      7.0%
 TRAVEL      0.1118         C  3 -- C  5         +10.7% ( 36.9%)     56.5%
 RED. MASS   0.4910         C  3 -- C  4         +10.7% ( 36.9%)     56.6%
 EFF. MASS   3.8065

 VIBRATION   44   44A         ATOM PAIR      ENERGY CONTRIBUTION    RADIAL
 FREQ.      1423.33         C  6 -- C  8         +10.9% ( 45.9%)     91.9%
 T-DIPOLE    1.0624         C  7 -- C  9         +10.8% ( 45.7%)     92.0%
 TRAVEL      0.0783         C  4 -- C  6          +6.9% ( 36.6%)     29.5%
 RED. MASS   0.8376         C  5 -- C  7          +6.8% ( 36.3%)     28.8%
 EFF. MASS   7.7276

 VIBRATION   45   45A         ATOM PAIR      ENERGY CONTRIBUTION    RADIAL
 FREQ.      1883.46         C  8 -- C  9         +44.7% ( 98.7%)    100.0%
 T-DIPOLE    0.0961         C  6 -- C  8         +14.0% ( 55.3%)     48.1%
 TRAVEL      0.0549         C  7 -- C  9         +14.0% ( 55.2%)     48.1%
 RED. MASS   5.4830         C  8 -- H 18         +13.3% ( 53.8%)      4.6%
 EFF. MASS  11.8663         C  9 -- H 19         +13.3% ( 53.8%)      4.6%

 VIBRATION   46   46A         ATOM PAIR      ENERGY CONTRIBUTION    RADIAL
 FREQ.      2798.21         C  6 -- H 16         +48.5% ( 70.9%)     99.9%
 T-DIPOLE    0.1236         C  7 -- H 17         +48.2% ( 70.6%)     99.9%
 TRAVEL      0.1289         O  1 -- C  6          +0.5% (  7.5%)      9.6%
 RED. MASS   0.4640         C  4 -- C  6          +0.5% (  7.5%)     11.4%
 EFF. MASS   1.4509

 VIBRATION   47   47A         ATOM PAIR      ENERGY CONTRIBUTION    RADIAL
 FREQ.      2804.25         C  7 -- H 17         +48.5% ( 70.7%)     99.9%
 T-DIPOLE    0.0310         C  6 -- H 16         +48.2% ( 70.5%)     99.9%
 TRAVEL      0.1287         O  2 -- C  7          +0.5% (  7.5%)      9.2%
 RED. MASS   0.4641         C  5 -- C  7          +0.5% (  7.5%)     11.2%
 EFF. MASS   1.4527

 VIBRATION   48   48A         ATOM PAIR      ENERGY CONTRIBUTION    RADIAL
 FREQ.      2943.95         C  3 -- H 11         +51.5% ( 74.6%)     97.2%
 T-DIPOLE    0.0423         C  3 -- H 10         +39.4% ( 65.3%)     95.7%
 TRAVEL      0.1217         C  4 -- H 12          +2.2% ( 15.4%)     97.5%
 RED. MASS   0.4588         C  5 -- H 14          +2.2% ( 15.3%)     97.5%
 EFF. MASS   1.5472

 VIBRATION   49   49A         ATOM PAIR      ENERGY CONTRIBUTION    RADIAL
 FREQ.      2956.53         C  4 -- H 13         +28.5% ( 55.4%)     97.3%
 T-DIPOLE    0.0952         C  5 -- H 15         +27.3% ( 54.3%)     97.3%
 TRAVEL      0.1219         C  4 -- H 12         +21.3% ( 48.0%)     95.6%
 RED. MASS   0.2634         C  5 -- H 14         +20.5% ( 47.0%)     95.6%
 EFF. MASS   1.5353

 VIBRATION   50   50A         ATOM PAIR      ENERGY CONTRIBUTION    RADIAL
 FREQ.      2957.50         C  5 -- H 15         +26.6% ( 53.5%)     97.3%
 T-DIPOLE    0.1140         C  4 -- H 13         +25.5% ( 52.4%)     97.3%
 TRAVEL      0.1213         C  5 -- H 14         +19.8% ( 46.2%)     95.6%
 RED. MASS   0.2320         C  4 -- H 12         +18.9% ( 45.1%)     95.6%
 EFF. MASS   1.5493

 VIBRATION   51   51A         ATOM PAIR      ENERGY CONTRIBUTION    RADIAL
 FREQ.      3026.27         C  3 -- H 10         +47.2% ( 67.6%)     98.1%
 T-DIPOLE    0.0377         C  3 -- H 11         +41.4% ( 63.4%)     97.2%
 TRAVEL      0.1322         C  4 -- H 12          +4.0% ( 19.6%)     99.3%
 RED. MASS   0.3946         C  5 -- H 14          +4.0% ( 19.6%)     99.3%
 EFF. MASS   1.2747

 VIBRATION   52   52A         ATOM PAIR      ENERGY CONTRIBUTION    RADIAL
 FREQ.      3028.86         C  8 -- H 18         +49.0% ( 71.0%)    100.0%
 T-DIPOLE    0.3110         C  9 -- H 19         +48.7% ( 70.8%)    100.0%
 TRAVEL      0.1237         C  8 -- C  9          +1.1% ( 10.5%)      0.0%
 RED. MASS   0.4647         C  6 -- C  8          +0.6% (  8.0%)     19.9%
 EFF. MASS   1.4547

 VIBRATION   53   53A         ATOM PAIR      ENERGY CONTRIBUTION    RADIAL
 FREQ.      3036.41         C  4 -- H 12         +51.2% ( 70.5%)     98.3%
 T-DIPOLE    0.1170         C  4 -- H 13         +39.7% ( 62.0%)     96.9%
 TRAVEL      0.1322         C  5 -- H 14          +3.1% ( 17.4%)     98.9%
 RED. MASS   0.4171         C  3 -- H 10          +2.2% ( 14.5%)     99.2%
 EFF. MASS   1.2703

 VIBRATION   54   54A         ATOM PAIR      ENERGY CONTRIBUTION    RADIAL
 FREQ.      3036.43         C  5 -- H 14         +49.4% ( 69.2%)     98.2%
 T-DIPOLE    0.1206         C  5 -- H 15         +39.6% ( 61.9%)     97.0%
 TRAVEL      0.1321         C  3 -- H 10          +5.0% ( 21.9%)     99.2%
 RED. MASS   0.3996         C  3 -- H 11          +1.9% ( 13.6%)     93.9%
 EFF. MASS   1.2717

 VIBRATION   55   55A         ATOM PAIR      ENERGY CONTRIBUTION    RADIAL
 FREQ.      3048.89         C  9 -- H 19         +48.4% ( 70.5%)     99.9%
 T-DIPOLE    0.3634         C  8 -- H 18         +48.1% ( 70.3%)     99.9%
 TRAVEL      0.1184         C  8 -- C  9          +2.0% ( 14.2%)    100.0%
 RED. MASS   0.4655         C  7 -- C  9          +0.8% (  8.9%)     11.0%
 EFF. MASS   1.5785

 VIBRATION   56   56A         ATOM PAIR      ENERGY CONTRIBUTION    RADIAL
 FREQ.      3902.02         O  1 -- H 20         +71.0% ( 84.4%)    100.0%
 T-DIPOLE    0.1039         O  2 -- H 21         +28.6% ( 53.6%)    100.0%
 TRAVEL      0.1115         O  1 -- C  6          +0.3% (  5.3%)      7.5%
 RED. MASS   0.5596         O  2 -- C  7          +0.1% (  3.4%)      7.5%
 EFF. MASS   1.3892

 VIBRATION   57   57A         ATOM PAIR      ENERGY CONTRIBUTION    RADIAL
 FREQ.      3902.19         O  2 -- H 21         +71.0% ( 84.4%)    100.0%
 T-DIPOLE    0.2686         O  1 -- H 20         +28.6% ( 53.6%)    100.0%
 TRAVEL      0.1115         O  2 -- C  7          +0.3% (  5.3%)      7.5%
 RED. MASS   0.5596         O  1 -- C  6          +0.1% (  3.4%)      7.5%
 EFF. MASS   1.3892

      SYMMETRY NUMBER FOR POINT-GROUP C1  =  1


          SYSTEM IS A GROUND STATE



 InChI=1S/C7H12O2/c8-6-2-1-3-7(9)5-4-6/h4-9H,1-3H2


          MOLECULE IS NOT LINEAR

          THERE ARE 57 GENUINE VIBRATIONS IN THIS SYSTEM
          THIS THERMODYNAMICS CALCULATION IS LIMITED TO
          MOLECULES WHICH HAVE NO INTERNAL ROTATIONS




                    CALCULATED THERMODYNAMIC PROPERTIES
                                          *
   TEMP. (K)   PARTITION FUNCTION   H.O.F.    ENTHALPY  HEAT CAPACITY ENTROPY
                                   KCAL/MOL   CAL/MOLE    CAL/K/MOL  CAL/K/MOL


 298.00  VIB.     0.5515D+02                  3762.8473    29.0508    20.5956
         ROT.     0.4951D+06                   888.2813     2.9808    29.0380
         INT.     0.2730D+08                  4651.1286    32.0317    49.6337
         TRA.     0.1403D+28                  1480.4688     4.9680    40.4556
         TOT.                      -86.981    6131.5975    36.9997    90.0893

 200.00  VIB.     0.7712D+01                  1475.0024    17.8372    11.4343
         ROT.     0.2722D+06                   596.1620     2.9808    27.8494
         INT.     0.2099D+07                  2071.1644    20.8180    39.2837
         TRA.     0.7713D+27                   993.6033     4.9680    38.4745
         TOT.                      -90.048    3064.7676    25.7860    77.7581

 210.00  VIB.     0.9301D+01                  1658.7919    18.9228    12.3308
         ROT.     0.2929D+06                   625.9700     2.9808    27.9948
         INT.     0.2724D+07                  2284.7619    21.9036    40.3256
         TRA.     0.8299D+27                  1043.2834     4.9680    38.7168
         TOT.                      -89.785    3328.0453    26.8716    79.0425

 220.00  VIB.     0.1126D+02                  1853.5033    20.0219    13.2364
         ROT.     0.3140D+06                   655.7781     2.9808    28.1335
         INT.     0.3536D+07                  2509.2814    23.0027    41.3699
         TRA.     0.8899D+27                  1092.9636     4.9680    38.9480
         TOT.                      -89.510    3602.2450    27.9707    80.3178

 230.00  VIB.     0.1367D+02                  2059.2790    21.1358    14.1509
         ROT.     0.3357D+06                   685.5862     2.9808    28.2660
         INT.     0.4590D+07                  2744.8652    24.1166    42.4169
         TRA.     0.9512D+27                  1142.6437     4.9680    39.1688
         TOT.                      -89.225    3887.5089    29.0846    81.5857

 240.00  VIB.     0.1666D+02                  2276.2692    22.2648    15.0743
         ROT.     0.3578D+06                   715.3943     2.9808    28.3928
         INT.     0.5961D+07                  2991.6636    25.2456    43.4671
         TRA.     0.1014D+28                  1192.3239     4.9680    39.3802
         TOT.                      -88.929    4183.9875    30.2136    82.8473

 250.00  VIB.     0.2035D+02                  2504.6233    23.4084    16.0063
         ROT.     0.3804D+06                   745.2024     2.9808    28.5145
         INT.     0.7742D+07                  3249.8257    26.3892    44.5208
         TRA.     0.1078D+28                  1242.0041     4.9680    39.5830
         TOT.                      -88.621    4491.8298    31.3572    84.1038

 260.00  VIB.     0.2493D+02                  2744.4820    24.5655    16.9469
         ROT.     0.4035D+06                   775.0105     2.9808    28.6314
         INT.     0.1006D+08                  3519.4925    27.5463    45.5783
         TRA.     0.1143D+28                  1291.6842     4.9680    39.7779
         TOT.                      -88.302    4811.1767    32.5143    85.3562

 270.00  VIB.     0.3062D+02                  2995.9716    25.7343    17.8959
         ROT.     0.4270D+06                   804.8186     2.9808    28.7439
         INT.     0.1308D+08                  3800.7903    28.7151    46.6398
         TRA.     0.1210D+28                  1341.3644     4.9680    39.9654
         TOT.                      -87.971    5142.1547    33.6831    86.6052

 280.00  VIB.     0.3770D+02                  3259.1997    26.9128    18.8531
         ROT.     0.4509D+06                   834.6267     2.9808    28.8523
         INT.     0.1700D+08                  4093.8264    29.8936    47.7054
         TRA.     0.1278D+28                  1391.0445     4.9680    40.1461
         TOT.                      -87.628    5484.8710    34.8616    87.8514

 290.00  VIB.     0.4653D+02                  3534.2513    28.0986    19.8181
         ROT.     0.4753D+06                   864.4348     2.9808    28.9569
         INT.     0.2211D+08                  4398.6861    31.0794    48.7750
         TRA.     0.1347D+28                  1440.7247     4.9680    40.3204
         TOT.                      -87.273    5839.4108    36.0474    89.0954

 300.00  VIB.     0.5755D+02                  3821.1874    29.2892    20.7908
         ROT.     0.5001D+06                   894.2429     2.9808    29.0580
         INT.     0.2878D+08                  4715.4303    32.2701    49.8487
         TRA.     0.1417D+28                  1490.4049     4.9680    40.4888
         TOT.                      -86.907    6205.8352    37.2381    90.3376

 310.00  VIB.     0.7133D+02                  4120.0438    30.4822    21.7706
         ROT.     0.5253D+06                   924.0510     2.9808    29.1557
         INT.     0.3747D+08                  5044.0948    33.4630    50.9263
         TRA.     0.1488D+28                  1540.0850     4.9680    40.6517
         TOT.                      -86.529    6584.1799    38.4310    91.5780

 320.00  VIB.     0.8860D+02                  4430.8310    31.6750    22.7572
         ROT.     0.5509D+06                   953.8591     2.9808    29.2504
         INT.     0.4881D+08                  5384.6901    34.6558    52.0076
         TRA.     0.1561D+28                  1589.7652     4.9680    40.8094
         TOT.                      -86.138    6974.4553    39.6238    92.8170

 330.00  VIB.     0.1103D+03                  4753.5347    32.8651    23.7501
         ROT.     0.5769D+06                   983.6672     2.9808    29.3421
         INT.     0.6361D+08                  5737.2019    35.8459    53.0922
         TRA.     0.1635D+28                  1639.4454     4.9680    40.9623
         TOT.                      -85.736    7376.6473    40.8139    94.0545

 340.00  VIB.     0.1375D+03                  5088.1169    34.0503    24.7489
         ROT.     0.6034D+06                  1013.4753     2.9808    29.4311
         INT.     0.8294D+08                  6101.5923    37.0311    54.1799
         TRA.     0.1710D+28                  1689.1255     4.9680    41.1106
         TOT.                      -85.322    7790.7178    41.9991    95.2906

 350.00  VIB.     0.1717D+03                  5434.5175    35.2284    25.7529
         ROT.     0.6302D+06                  1043.2834     2.9808    29.5175
         INT.     0.1082D+09                  6477.8009    38.2093    55.2704
         TRA.     0.1786D+28                  1738.8057     4.9680    41.2546
         TOT.                      -84.896    8216.6066    43.1773    96.5250

 360.00  VIB.     0.2148D+03                  5792.6556    36.3975    26.7617
         ROT.     0.6574D+06                  1073.0915     2.9808    29.6014
         INT.     0.1412D+09                  6865.7471    39.3783    56.3632
         TRA.     0.1863D+28                  1788.4859     4.9680    41.3946
         TOT.                      -84.458    8654.2330    44.3464    97.7578

 370.00  VIB.     0.2692D+03                  6162.4321    37.5558    27.7748
         ROT.     0.6850D+06                  1102.8996     2.9808    29.6831
         INT.     0.1844D+09                  7265.3317    40.5366    57.4579
         TRA.     0.1941D+28                  1838.1660     4.9680    41.5307
         TOT.                      -84.009    9103.4977    45.5046    98.9887

 380.00  VIB.     0.3379D+03                  6543.7309    38.7018    28.7916
         ROT.     0.7129D+06                  1132.7077     2.9808    29.7626
         INT.     0.2409D+09                  7676.4386    41.6826    58.5542
         TRA.     0.2020D+28                  1887.8462     4.9680    41.6632
         TOT.                      -83.548    9564.2848    46.6506   100.2174

 390.00  VIB.     0.4248D+03                  6936.4214    39.8340    29.8116
         ROT.     0.7412D+06                  1162.5158     2.9808    29.8400
         INT.     0.3149D+09                  8098.9372    42.8148    59.6516
         TRA.     0.2100D+28                  1937.5263     4.9680    41.7923
         TOT.                      -83.076   10036.4635    47.7828   101.4439

 400.00  VIB.     0.5348D+03                  7340.3604    40.9513    30.8342
         ROT.     0.7699D+06                  1192.3239     2.9808    29.9155
         INT.     0.4117D+09                  8532.6843    43.9321    60.7497
         TRA.     0.2182D+28                  1987.2065     4.9680    41.9180
         TOT.                      -82.593   10519.8908    48.9001   102.6677

   *: NOTE: HEATS OF FORMATION ARE RELATIVE TO THE
            ELEMENTS IN THEIR STANDARD STATE AT 298K
              (=  Standard Enthalpy of Formation).

            Hvib:  Zero-point energy is not included.
                   frequencies of less than zero cm-1 are not included.
            Hrot = (3/2)RT
            Htra = (3/2)RT + pV = (5/2)RT

            Heat capacity is Cp, not Cv

          For more information, see: HTTP://OpenMOPAC.net/Manual/thermochemistry.html


           FORCE CONSTANT IN CARTESIAN COORDINATES (Millidynes/A)

    ATOM   CHEMICAL       X               Y               Z
   NUMBER   SYMBOL  FORCE CONSTANT  FORCE CONSTANT  FORCE CONSTANT

      1       O        6.596310        8.479534        1.891423
      2       O        6.596045        8.466002        1.905343
      3       C        8.089143        8.412871        8.213643
      4       C        8.484497        7.888723        8.165159
      5       C        8.485553        7.889069        8.164912
      6       C        9.097756        8.149626        7.975755
      7       C        9.098177        8.149367        7.976924
      8       C       15.463209        7.055566        4.479183
      9       C       15.462463        7.055518        4.479432
     10       H        0.747245        4.527716        1.109405
     11       H        0.745512        0.722041        4.926610
     12       H        0.717266        0.759277        4.961276
     13       H        3.242805        2.260604        0.925188
     14       H        0.717244        0.759226        4.961244
     15       H        3.243149        2.260412        0.925201
     16       H        0.869589        0.693845        4.163939
     17       H        0.869517        0.693730        4.163911
     18       H        1.831643        2.846724        1.569937
     19       H        1.831494        2.846654        1.570352
     20       H        1.139002        7.116152        1.240008
     21       H        1.139098        7.103725        1.252460

 **********************
 *                    *
 * JOB ENDED NORMALLY *
 *                    *
 **********************



 TOTAL JOB TIME:             1.74 SECONDS

 == MOPAC DONE ==
