 *******************************************************************************
 ** Site#: 14399        For non-commercial use only    Version 18.184L 64BITS **
 *******************************************************************************
 ** Cite this program as: MOPAC2016, Version: 18.184L, James J. P. Stewart,   **
 ** Stewart Computational Chemistry, web: HTTP://OpenMOPAC.net. Days left:  18**
 *******************************************************************************
 **                                                                           **
 **                                MOPAC2016                                  **
 **                                                                           **
 *******************************************************************************

                              PM3 CALCULATION RESULTS

 *******************************************************************************
 *  CALCULATION DONE:                                Sat Jun 15 10:16:54 2019  *
 *  PM3        - The PM3 Hamiltonian to be used
 *  PRECISE    - CRITERIA TO BE INCREASED BY 100 TIMES
 *  NOSYM      - POINT-GROUP SYMMETRY SET TO C1
 *  THREADS=1  - MULTI-THREADING NOT USED
 *  T=         - A TIME OF 172800.0 SECONDS REQUESTED
 *  DUMP=N     - RESTART FILE WRITTEN EVERY  7200.000 SECONDS
 *******************************************************************************
pm3  precise nosym THREADS=1
 InChI=1S/C10H12/c1-2-3-4-7-10-8-5-6-9-10/h2-6,8H,1,7,9H2

   ATOM   CHEMICAL          X               Y               Z
  NUMBER   SYMBOL      (ANGSTROMS)     (ANGSTROMS)     (ANGSTROMS)
 
     1       C         -1.93950000  *   0.92950000  *   0.27180000  *
     2       C         -0.25390000  *   0.18310000  *  -1.63830000  *
     3       C         -1.30000000  *  -0.10340000  *  -0.60050000  *
     4       C         -2.87410000  *   0.08700000  *   1.07540000  *
     5       C          0.99580000  *   0.71590000  *  -1.00250000  *
     6       C         -1.78860000  *  -1.30650000  *  -0.33550000  *
     7       C         -2.77710000  *  -1.18380000  *   0.71950000  *
     8       C          1.76460000  *  -0.05220000  *  -0.22620000  *
     9       C          2.98710000  *   0.48130000  *   0.39480000  *
    10       C          3.75180000  *  -0.27950000  *   1.17230000  *
    11       H         -2.49870000  *   1.67280000  *  -0.33470000  *
    12       H         -1.18930000  *   1.42080000  *   0.92680000  *
    13       H         -0.01110000  *  -0.73160000  *  -2.22270000  *
    14       H         -0.65620000  *   0.93930000  *  -2.34510000  *
    15       H         -3.54080000  *   0.45520000  *   1.84390000  *
    16       H          1.27100000  *   1.74750000  *  -1.19010000  *
    17       H          3.27600000  *   1.51140000  *   0.22150000  *
    18       H         -1.49610000  *  -2.22650000  *  -0.82480000  *
    19       H          1.48300000  *  -1.08440000  *  -0.04760000  *
    20       H         -3.34790000  *  -1.99510000  *   1.15110000  *
    21       H          4.64680000  *   0.13250000  *   1.62000000  *
    22       H          3.49730000  *  -1.31350000  *   1.37070000  *
 


          CARTESIAN COORDINATES 

    NO.       ATOM           X           Y           Z

     1         C         -1.9395      0.9295      0.2718
     2         C         -0.2539      0.1831     -1.6383
     3         C         -1.3000     -0.1034     -0.6005
     4         C         -2.8741      0.0870      1.0754
     5         C          0.9958      0.7159     -1.0025
     6         C         -1.7886     -1.3065     -0.3355
     7         C         -2.7771     -1.1838      0.7195
     8         C          1.7646     -0.0522     -0.2262
     9         C          2.9871      0.4813      0.3948
    10         C          3.7518     -0.2795      1.1723
    11         H         -2.4987      1.6728     -0.3347
    12         H         -1.1893      1.4208      0.9268
    13         H         -0.0111     -0.7316     -2.2227
    14         H         -0.6562      0.9393     -2.3451
    15         H         -3.5408      0.4552      1.8439
    16         H          1.2710      1.7475     -1.1901
    17         H          3.2760      1.5114      0.2215
    18         H         -1.4961     -2.2265     -0.8248
    19         H          1.4830     -1.0844     -0.0476
    20         H         -3.3479     -1.9951      1.1511
    21         H          4.6468      0.1325      1.6200
    22         H          3.4973     -1.3135      1.3707

  H: (PM3): J. J. P. STEWART, J. COMP. CHEM. 10, 209 (1989).
  C: (PM3): J. J. P. STEWART, J. COMP. CHEM. 10, 209 (1989).

           Empirical Formula: C10 H12  =    22 atoms



      MOLECULAR POINT GROUP   :   C1  


      RHF CALCULATION, NO. OF DOUBLY OCCUPIED LEVELS = 26


          Geometry optimization using EF

          DIAGONAL MATRIX USED AS START HESSIAN

 CYCLE:     1 TIME:   0.008 TIME LEFT:  2.00D  GRAD.:   118.413 HEAT:  61.72883
 CYCLE:     2 TIME:   0.016 TIME LEFT:  2.00D  GRAD.:    62.906 HEAT:  59.82211
 CYCLE:     3 TIME:   0.004 TIME LEFT:  2.00D  GRAD.:    44.211 HEAT:  58.92947
 CYCLE:     4 TIME:   0.008 TIME LEFT:  2.00D  GRAD.:    33.420 HEAT:  58.43730
 CYCLE:     5 TIME:   0.008 TIME LEFT:  2.00D  GRAD.:    33.686 HEAT:  58.23508
 CYCLE:     6 TIME:   0.004 TIME LEFT:  2.00D  GRAD.:    20.301 HEAT:  57.95549
 CYCLE:     7 TIME:   0.008 TIME LEFT:  2.00D  GRAD.:    19.086 HEAT:  57.84071
 CYCLE:     8 TIME:   0.008 TIME LEFT:  2.00D  GRAD.:    26.619 HEAT:  57.78781
 CYCLE:     9 TIME:   0.008 TIME LEFT:  2.00D  GRAD.:    14.914 HEAT:  57.68251
 CYCLE:    10 TIME:   0.008 TIME LEFT:  2.00D  GRAD.:     9.107 HEAT:  57.64197
 CYCLE:    11 TIME:   0.004 TIME LEFT:  2.00D  GRAD.:     4.919 HEAT:  57.60678
 CYCLE:    12 TIME:   0.008 TIME LEFT:  2.00D  GRAD.:    11.444 HEAT:  57.60327
 CYCLE:    13 TIME:   0.008 TIME LEFT:  2.00D  GRAD.:     6.754 HEAT:  57.57946
 CYCLE:    14 TIME:   0.008 TIME LEFT:  2.00D  GRAD.:     6.164 HEAT:  57.57145
 CYCLE:    15 TIME:   0.004 TIME LEFT:  2.00D  GRAD.:     3.649 HEAT:  57.55931
 CYCLE:    16 TIME:   0.004 TIME LEFT:  2.00D  GRAD.:     7.314 HEAT:  57.55894
 CYCLE:    17 TIME:   0.004 TIME LEFT:  2.00D  GRAD.:     3.789 HEAT:  57.54303
 CYCLE:    18 TIME:   0.012 TIME LEFT:  2.00D  GRAD.:     5.846 HEAT:  57.54229
 CYCLE:    19 TIME:   0.004 TIME LEFT:  2.00D  GRAD.:     3.178 HEAT:  57.53130
 CYCLE:    20 TIME:   0.012 TIME LEFT:  2.00D  GRAD.:     2.857 HEAT:  57.52895
 CYCLE:    21 TIME:   0.004 TIME LEFT:  2.00D  GRAD.:     2.851 HEAT:  57.51958
 CYCLE:    22 TIME:   0.008 TIME LEFT:  2.00D  GRAD.:     4.365 HEAT:  57.51436
 CYCLE:    23 TIME:   0.008 TIME LEFT:  2.00D  GRAD.:     2.263 HEAT:  57.50821
 CYCLE:    24 TIME:   0.004 TIME LEFT:  2.00D  GRAD.:     3.279 HEAT:  57.50863
 CYCLE:    25 TIME:   0.004 TIME LEFT:  2.00D  GRAD.:     1.606 HEAT:  57.50583
 CYCLE:    26 TIME:   0.004 TIME LEFT:  2.00D  GRAD.:     2.293 HEAT:  57.50632
 CYCLE:    27 TIME:   0.004 TIME LEFT:  2.00D  GRAD.:     0.999 HEAT:  57.50436
 CYCLE:    28 TIME:   0.004 TIME LEFT:  2.00D  GRAD.:     1.737 HEAT:  57.50454
 CYCLE:    29 TIME:   0.008 TIME LEFT:  2.00D  GRAD.:     0.558 HEAT:  57.50331
 CYCLE:    30 TIME:   0.004 TIME LEFT:  2.00D  GRAD.:     0.807 HEAT:  57.50286
 CYCLE:    31 TIME:   0.004 TIME LEFT:  2.00D  GRAD.:     0.838 HEAT:  57.50215
 CYCLE:    32 TIME:   0.004 TIME LEFT:  2.00D  GRAD.:     0.701 HEAT:  57.50150
 CYCLE:    33 TIME:   0.004 TIME LEFT:  2.00D  GRAD.:     0.702 HEAT:  57.50078
 CYCLE:    34 TIME:   0.008 TIME LEFT:  2.00D  GRAD.:     1.187 HEAT:  57.49998
 CYCLE:    35 TIME:   0.004 TIME LEFT:  2.00D  GRAD.:     1.043 HEAT:  57.49876
 CYCLE:    36 TIME:   0.004 TIME LEFT:  2.00D  GRAD.:     0.967 HEAT:  57.49730
 CYCLE:    37 TIME:   0.004 TIME LEFT:  2.00D  GRAD.:     1.275 HEAT:  57.49571
 CYCLE:    38 TIME:   0.004 TIME LEFT:  2.00D  GRAD.:     1.352 HEAT:  57.49356
 CYCLE:    39 TIME:   0.008 TIME LEFT:  2.00D  GRAD.:     1.552 HEAT:  57.48808
 CYCLE:    40 TIME:   0.004 TIME LEFT:  2.00D  GRAD.:     1.788 HEAT:  57.48408
 CYCLE:    41 TIME:   0.004 TIME LEFT:  2.00D  GRAD.:     1.848 HEAT:  57.47867
 CYCLE:    42 TIME:   0.004 TIME LEFT:  2.00D  GRAD.:     1.936 HEAT:  57.47181
 CYCLE:    43 TIME:   0.008 TIME LEFT:  2.00D  GRAD.:     2.434 HEAT:  57.46281
 CYCLE:    44 TIME:   0.004 TIME LEFT:  2.00D  GRAD.:     2.313 HEAT:  57.45570
 CYCLE:    45 TIME:   0.004 TIME LEFT:  2.00D  GRAD.:     2.057 HEAT:  57.44808
 CYCLE:    46 TIME:   0.004 TIME LEFT:  2.00D  GRAD.:     2.437 HEAT:  57.43846
 CYCLE:    47 TIME:   0.008 TIME LEFT:  2.00D  GRAD.:     2.398 HEAT:  57.42873
 CYCLE:    48 TIME:   0.004 TIME LEFT:  2.00D  GRAD.:     3.524 HEAT:  57.41543
 CYCLE:    49 TIME:   0.004 TIME LEFT:  2.00D  GRAD.:     2.985 HEAT:  57.40809
 CYCLE:    50 TIME:   0.004 TIME LEFT:  2.00D  GRAD.:     3.486 HEAT:  57.39680
 CYCLE:    51 TIME:   0.004 TIME LEFT:  2.00D  GRAD.:     1.347 HEAT:  57.38934
 CYCLE:    52 TIME:   0.008 TIME LEFT:  2.00D  GRAD.:     1.450 HEAT:  57.38380
 CYCLE:    53 TIME:   0.004 TIME LEFT:  2.00D  GRAD.:     1.991 HEAT:  57.37230
 CYCLE:    54 TIME:   0.004 TIME LEFT:  2.00D  GRAD.:     2.867 HEAT:  57.36306
 CYCLE:    55 TIME:   0.004 TIME LEFT:  2.00D  GRAD.:     2.260 HEAT:  57.34976
 CYCLE:    56 TIME:   0.008 TIME LEFT:  2.00D  GRAD.:     4.838 HEAT:  57.34135
 CYCLE:    57 TIME:   0.004 TIME LEFT:  2.00D  GRAD.:     3.079 HEAT:  57.32402
 CYCLE:    58 TIME:   0.004 TIME LEFT:  2.00D  GRAD.:     2.582 HEAT:  57.30896
 CYCLE:    59 TIME:   0.004 TIME LEFT:  2.00D  GRAD.:     5.314 HEAT:  57.28670
 CYCLE:    60 TIME:   0.004 TIME LEFT:  2.00D  GRAD.:     5.265 HEAT:  57.27770
 CYCLE:    61 TIME:   0.008 TIME LEFT:  2.00D  GRAD.:     2.468 HEAT:  57.26048
 CYCLE:    62 TIME:   0.004 TIME LEFT:  2.00D  GRAD.:     3.789 HEAT:  57.24085
 CYCLE:    63 TIME:   0.004 TIME LEFT:  2.00D  GRAD.:     5.067 HEAT:  57.22105
 CYCLE:    64 TIME:   0.004 TIME LEFT:  2.00D  GRAD.:     3.571 HEAT:  57.18831
 CYCLE:    65 TIME:   0.008 TIME LEFT:  2.00D  GRAD.:     6.549 HEAT:  57.18556
 CYCLE:    66 TIME:   0.004 TIME LEFT:  2.00D  GRAD.:     1.949 HEAT:  57.16028
 CYCLE:    67 TIME:   0.004 TIME LEFT:  2.00D  GRAD.:     1.759 HEAT:  57.15274
 CYCLE:    68 TIME:   0.004 TIME LEFT:  2.00D  GRAD.:     2.485 HEAT:  57.14312
 CYCLE:    69 TIME:   0.004 TIME LEFT:  2.00D  GRAD.:     2.244 HEAT:  57.13585
 CYCLE:    70 TIME:   0.008 TIME LEFT:  2.00D  GRAD.:     2.552 HEAT:  57.11908
 CYCLE:    71 TIME:   0.004 TIME LEFT:  2.00D  GRAD.:     3.940 HEAT:  57.08802
 CYCLE:    72 TIME:   0.004 TIME LEFT:  2.00D  GRAD.:     4.743 HEAT:  57.06132
 CYCLE:    73 TIME:   0.004 TIME LEFT:  2.00D  GRAD.:     4.670 HEAT:  57.04584
 CYCLE:    74 TIME:   0.008 TIME LEFT:  2.00D  GRAD.:     3.011 HEAT:  57.02355
 CYCLE:    75 TIME:   0.004 TIME LEFT:  2.00D  GRAD.:     2.734 HEAT:  57.01089
 CYCLE:    76 TIME:   0.004 TIME LEFT:  2.00D  GRAD.:     2.249 HEAT:  56.99802
 CYCLE:    77 TIME:   0.004 TIME LEFT:  2.00D  GRAD.:     2.178 HEAT:  56.99050
 CYCLE:    78 TIME:   0.008 TIME LEFT:  2.00D  GRAD.:     2.610 HEAT:  56.97934
 CYCLE:    79 TIME:   0.004 TIME LEFT:  2.00D  GRAD.:     2.592 HEAT:  56.96562
 CYCLE:    80 TIME:   0.004 TIME LEFT:  2.00D  GRAD.:     2.756 HEAT:  56.95133
 CYCLE:    81 TIME:   0.004 TIME LEFT:  2.00D  GRAD.:     3.187 HEAT:  56.93977
 CYCLE:    82 TIME:   0.008 TIME LEFT:  2.00D  GRAD.:     3.079 HEAT:  56.92807
 CYCLE:    83 TIME:   0.004 TIME LEFT:  2.00D  GRAD.:     3.356 HEAT:  56.91331
 CYCLE:    84 TIME:   0.004 TIME LEFT:  2.00D  GRAD.:     3.021 HEAT:  56.89187
 CYCLE:    85 TIME:   0.004 TIME LEFT:  2.00D  GRAD.:     3.407 HEAT:  56.87302
 CYCLE:    86 TIME:   0.004 TIME LEFT:  2.00D  GRAD.:     4.849 HEAT:  56.84163
 CYCLE:    87 TIME:   0.004 TIME LEFT:  2.00D  GRAD.:     4.297 HEAT:  56.80954
 CYCLE:    88 TIME:   0.012 TIME LEFT:  2.00D  GRAD.:     5.489 HEAT:  56.77730
 CYCLE:    89 TIME:   0.004 TIME LEFT:  2.00D  GRAD.:     6.875 HEAT:  56.73690
 CYCLE:    90 TIME:   0.004 TIME LEFT:  2.00D  GRAD.:     4.428 HEAT:  56.71306
 CYCLE:    91 TIME:   0.004 TIME LEFT:  2.00D  GRAD.:     4.882 HEAT:  56.68570
 CYCLE:    92 TIME:   0.008 TIME LEFT:  2.00D  GRAD.:     6.059 HEAT:  56.67197
 CYCLE:    93 TIME:   0.004 TIME LEFT:  2.00D  GRAD.:     4.015 HEAT:  56.64663
 CYCLE:    94 TIME:   0.004 TIME LEFT:  2.00D  GRAD.:     5.410 HEAT:  56.61782
 CYCLE:    95 TIME:   0.004 TIME LEFT:  2.00D  GRAD.:     5.910 HEAT:  56.57220
 CYCLE:    96 TIME:   0.004 TIME LEFT:  2.00D  GRAD.:     5.043 HEAT:  56.54077
 CYCLE:    97 TIME:   0.008 TIME LEFT:  2.00D  GRAD.:     4.110 HEAT:  56.52847
 CYCLE:    98 TIME:   0.004 TIME LEFT:  2.00D  GRAD.:     4.342 HEAT:  56.51779
 CYCLE:    99 TIME:   0.004 TIME LEFT:  2.00D  GRAD.:     2.427 HEAT:  56.51115
 CYCLE:   100 TIME:   0.004 TIME LEFT:  2.00D  GRAD.:     1.619 HEAT:  56.50725
 CYCLE:   101 TIME:   0.008 TIME LEFT:  2.00D  GRAD.:     1.717 HEAT:  56.50139
 CYCLE:   102 TIME:   0.004 TIME LEFT:  2.00D  GRAD.:     2.088 HEAT:  56.49803
 CYCLE:   103 TIME:   0.004 TIME LEFT:  2.00D  GRAD.:     2.687 HEAT:  56.49248
 CYCLE:   104 TIME:   0.004 TIME LEFT:  2.00D  GRAD.:     2.339 HEAT:  56.48749
 CYCLE:   105 TIME:   0.008 TIME LEFT:  2.00D  GRAD.:     2.423 HEAT:  56.47758
 CYCLE:   106 TIME:   0.004 TIME LEFT:  2.00D  GRAD.:     2.451 HEAT:  56.47127
 CYCLE:   107 TIME:   0.004 TIME LEFT:  2.00D  GRAD.:     2.753 HEAT:  56.46240
 CYCLE:   108 TIME:   0.004 TIME LEFT:  2.00D  GRAD.:     2.324 HEAT:  56.45693
 CYCLE:   109 TIME:   0.008 TIME LEFT:  2.00D  GRAD.:     3.974 HEAT:  56.44508
 CYCLE:   110 TIME:   0.004 TIME LEFT:  2.00D  GRAD.:     4.921 HEAT:  56.43834
 CYCLE:   111 TIME:   0.004 TIME LEFT:  2.00D  GRAD.:     2.661 HEAT:  56.42463
 CYCLE:   112 TIME:   0.004 TIME LEFT:  2.00D  GRAD.:     3.182 HEAT:  56.40451
 CYCLE:   113 TIME:   0.004 TIME LEFT:  2.00D  GRAD.:     2.370 HEAT:  56.39521
 CYCLE:   114 TIME:   0.008 TIME LEFT:  2.00D  GRAD.:     3.406 HEAT:  56.38734
 CYCLE:   115 TIME:   0.004 TIME LEFT:  2.00D  GRAD.:     2.434 HEAT:  56.37974
 CYCLE:   116 TIME:   0.004 TIME LEFT:  2.00D  GRAD.:     2.083 HEAT:  56.37052
 CYCLE:   117 TIME:   0.004 TIME LEFT:  2.00D  GRAD.:     1.986 HEAT:  56.36290
 CYCLE:   118 TIME:   0.008 TIME LEFT:  2.00D  GRAD.:     2.800 HEAT:  56.35895
 CYCLE:   119 TIME:   0.004 TIME LEFT:  2.00D  GRAD.:     1.945 HEAT:  56.35406
 CYCLE:   120 TIME:   0.004 TIME LEFT:  2.00D  GRAD.:     1.826 HEAT:  56.34989
 CYCLE:   121 TIME:   0.004 TIME LEFT:  2.00D  GRAD.:     3.302 HEAT:  56.34425
 CYCLE:   122 TIME:   0.004 TIME LEFT:  2.00D  GRAD.:     2.213 HEAT:  56.33853
 CYCLE:   123 TIME:   0.008 TIME LEFT:  2.00D  GRAD.:     1.672 HEAT:  56.33424
 CYCLE:   124 TIME:   0.004 TIME LEFT:  2.00D  GRAD.:     2.693 HEAT:  56.33107
 CYCLE:   125 TIME:   0.004 TIME LEFT:  2.00D  GRAD.:     1.522 HEAT:  56.32675
 CYCLE:   126 TIME:   0.004 TIME LEFT:  2.00D  GRAD.:     1.207 HEAT:  56.32406
 CYCLE:   127 TIME:   0.008 TIME LEFT:  2.00D  GRAD.:     1.499 HEAT:  56.31957
 CYCLE:   128 TIME:   0.004 TIME LEFT:  2.00D  GRAD.:     2.037 HEAT:  56.31598
 CYCLE:   129 TIME:   0.004 TIME LEFT:  2.00D  GRAD.:     1.332 HEAT:  56.31374
 CYCLE:   130 TIME:   0.004 TIME LEFT:  2.00D  GRAD.:     0.751 HEAT:  56.31211
 CYCLE:   131 TIME:   0.008 TIME LEFT:  2.00D  GRAD.:     0.642 HEAT:  56.31144
 CYCLE:   132 TIME:   0.004 TIME LEFT:  2.00D  GRAD.:     0.649 HEAT:  56.31076
 CYCLE:   133 TIME:   0.004 TIME LEFT:  2.00D  GRAD.:     0.819 HEAT:  56.31024
 CYCLE:   134 TIME:   0.004 TIME LEFT:  2.00D  GRAD.:     0.723 HEAT:  56.30993
 CYCLE:   135 TIME:   0.004 TIME LEFT:  2.00D  GRAD.:     0.402 HEAT:  56.30964
 CYCLE:   136 TIME:   0.008 TIME LEFT:  2.00D  GRAD.:     0.349 HEAT:  56.30942
 CYCLE:   137 TIME:   0.004 TIME LEFT:  2.00D  GRAD.:     0.343 HEAT:  56.30929
 CYCLE:   138 TIME:   0.004 TIME LEFT:  2.00D  GRAD.:     0.389 HEAT:  56.30916
 CYCLE:   139 TIME:   0.004 TIME LEFT:  2.00D  GRAD.:     0.397 HEAT:  56.30903
 CYCLE:   140 TIME:   0.008 TIME LEFT:  2.00D  GRAD.:     0.497 HEAT:  56.30879
 CYCLE:   141 TIME:   0.004 TIME LEFT:  2.00D  GRAD.:     0.411 HEAT:  56.30869
 CYCLE:   142 TIME:   0.004 TIME LEFT:  2.00D  GRAD.:     0.783 HEAT:  56.30857
 CYCLE:   143 TIME:   0.004 TIME LEFT:  2.00D  GRAD.:     0.411 HEAT:  56.30842
 CYCLE:   144 TIME:   0.008 TIME LEFT:  2.00D  GRAD.:     0.398 HEAT:  56.30829
 CYCLE:   145 TIME:   0.004 TIME LEFT:  2.00D  GRAD.:     0.320 HEAT:  56.30813
 CYCLE:   146 TIME:   0.004 TIME LEFT:  2.00D  GRAD.:     0.323 HEAT:  56.30793
 CYCLE:   147 TIME:   0.004 TIME LEFT:  2.00D  GRAD.:     0.247 HEAT:  56.30783
 CYCLE:   148 TIME:   0.004 TIME LEFT:  2.00D  GRAD.:     0.235 HEAT:  56.30772
 CYCLE:   149 TIME:   0.008 TIME LEFT:  2.00D  GRAD.:     0.267 HEAT:  56.30763
 CYCLE:   150 TIME:   0.004 TIME LEFT:  2.00D  GRAD.:     0.322 HEAT:  56.30746
 CYCLE:   151 TIME:   0.004 TIME LEFT:  2.00D  GRAD.:     0.344 HEAT:  56.30729
 CYCLE:   152 TIME:   0.004 TIME LEFT:  2.00D  GRAD.:     0.403 HEAT:  56.30704
 CYCLE:   153 TIME:   0.008 TIME LEFT:  2.00D  GRAD.:     0.411 HEAT:  56.30677
 CYCLE:   154 TIME:   0.004 TIME LEFT:  2.00D  GRAD.:     0.445 HEAT:  56.30659
 CYCLE:   155 TIME:   0.004 TIME LEFT:  2.00D  GRAD.:     0.397 HEAT:  56.30646
 CYCLE:   156 TIME:   0.004 TIME LEFT:  2.00D  GRAD.:     0.465 HEAT:  56.30632
 CYCLE:   157 TIME:   0.004 TIME LEFT:  2.00D  GRAD.:     0.421 HEAT:  56.30616
 CYCLE:   158 TIME:   0.008 TIME LEFT:  2.00D  GRAD.:     0.328 HEAT:  56.30573
 CYCLE:   159 TIME:   0.004 TIME LEFT:  2.00D  GRAD.:     0.227 HEAT:  56.30554
 CYCLE:   160 TIME:   0.004 TIME LEFT:  2.00D  GRAD.:     0.160 HEAT:  56.30537
 CYCLE:   161 TIME:   0.004 TIME LEFT:  2.00D  GRAD.:     0.062 HEAT:  56.30534
 CYCLE:   162 TIME:   0.004 TIME LEFT:  2.00D  GRAD.:     0.071 HEAT:  56.30533
 CYCLE:   163 TIME:   0.008 TIME LEFT:  2.00D  GRAD.:     0.049 HEAT:  56.30532

     GRADIENT =  0.04931  IS LESS THAN CUTOFF =  0.05000



 -------------------------------------------------------------------------------
 pm3  precise nosym THREADS=1
 InChI=1S/C10H12/c1-2-3-4-7-10-8-5-6-9-10/h2-6,8H,1,7,9H2



     GEOMETRY OPTIMISED USING EIGENVECTOR FOLLOWING (EF).     
     SCF FIELD WAS ACHIEVED                                   


                              PM3 CALCULATION
                                                       MOPAC2016 (Version: 18.184L)
                                                       Sat Jun 15 10:16:55 2019
                                                       No. of days remaining =  18




          FINAL HEAT OF FORMATION =         56.30532 KCAL/MOL =     235.58145 KJ/MOL


          TOTAL ENERGY            =      -1367.95467 EV
          ELECTRONIC ENERGY       =      -6995.00664 EV  POINT GROUP:     C1  
          CORE-CORE REPULSION     =       5627.05197 EV
          COSMO AREA              =        197.14 SQUARE ANGSTROMS
          COSMO VOLUME            =        192.52 CUBIC ANGSTROMS

          GRADIENT NORM           =          0.04931 = 0.01051 PER ATOM
          IONIZATION POTENTIAL    =          9.092572 EV
          HOMO LUMO ENERGIES (EV) =         -9.093  0.158
          NO. OF FILLED LEVELS    =         26
          MOLECULAR WEIGHT        =        132.2048

          MOLECULAR DIMENSIONS (Angstroms)

            Atom       Atom       Distance
            H    21    H    15     9.53650
            H    18    H    17     4.12962
            H    20    H    14     3.81582


          SCF CALCULATIONS        =        178
 
          WALL-CLOCK TIME         =          0.844 SECONDS
          COMPUTATION TIME        =          0.782 SECONDS




   ATOM   CHEMICAL          X               Y               Z
  NUMBER   SYMBOL      (ANGSTROMS)     (ANGSTROMS)     (ANGSTROMS)
 
     1       C         -2.25776411  *   0.98081847  *  -0.01251837  *
     2       C         -0.13253680  *  -0.01721259  *  -1.18869540  *
     3       C         -1.40824299  *  -0.18210354  *  -0.45597247  *
     4       C         -3.41747385  *   0.30564929  *   0.66182288  *
     5       C          0.95708897  *   0.44931120  *  -0.28633103  *
     6       C         -2.00417349  *  -1.34237949  *  -0.08531325  *
     7       C         -3.25399752  *  -1.03590676  *   0.61044886  *
     8       C          2.19125397  *  -0.06473021  *  -0.32194050  *
     9       C          3.25127208  *   0.41477181  *   0.55189452  *
    10       C          4.48466241  *  -0.08568112  *   0.51306147  *
    11       H         -2.58450888  *   1.59899086  *  -0.86833580  *
    12       H         -1.71074461  *   1.64594804  *   0.68124956  *
    13       H          0.13896948  *  -0.96768252  *  -1.69096247  *
    14       H         -0.26711152  *   0.73092390  *  -1.99696113  *
    15       H         -4.23882096  *   0.86149743  *   1.10793725  *
    16       H          0.69337090  *   1.25045597  *   0.41655003  *
    17       H          2.99074846  *   1.21546072  *   1.25562448  *
    18       H         -1.64284892  *  -2.35422873  *  -0.25983821  *
    19       H          2.44868308  *  -0.87317666  *  -1.01916936  *
    20       H         -3.91847205  *  -1.79981059  *   1.00912853  *
    21       H          5.27898588  *   0.26722794  *   1.16333142  *
    22       H          4.78431277  *  -0.87852758  *  -0.16689370  *

                             CARTESIAN COORDINATES

   1    C       -2.257764111     0.980818474    -0.012518374
   2    C       -0.132536798    -0.017212587    -1.188695405
   3    C       -1.408242990    -0.182103540    -0.455972474
   4    C       -3.417473849     0.305649288     0.661822877
   5    C        0.957088970     0.449311202    -0.286331030
   6    C       -2.004173492    -1.342379489    -0.085313245
   7    C       -3.253997520    -1.035906763     0.610448863
   8    C        2.191253972    -0.064730212    -0.321940503
   9    C        3.251272080     0.414771806     0.551894519
  10    C        4.484662408    -0.085681116     0.513061470
  11    H       -2.584508883     1.598990857    -0.868335798
  12    H       -1.710744609     1.645948043     0.681249556
  13    H        0.138969478    -0.967682521    -1.690962471
  14    H       -0.267111519     0.730923900    -1.996961134
  15    H       -4.238820962     0.861497434     1.107937254
  16    H        0.693370895     1.250455971     0.416550027
  17    H        2.990748462     1.215460719     1.255624482
  18    H       -1.642848920    -2.354228732    -0.259838211
  19    H        2.448683076    -0.873176658    -1.019169356
  20    H       -3.918472051    -1.799810588     1.009128534
  21    H        5.278985877     0.267227938     1.163331420
  22    H        4.784312774    -0.878527584    -0.166893696


           Empirical Formula: C10 H12  =    22 atoms



      MOLECULAR POINT GROUP   :   C1  


                  EIGENVALUES  
 -40.40768 -36.47154 -32.35363 -27.69688 -27.43738 -24.13799 -20.44445 -19.87052
 -19.05030 -18.46016 -17.30974 -16.39803 -15.87590 -14.92369 -14.28944 -14.03783
 -13.83196 -13.64768 -13.21431 -12.81270 -12.31452 -12.15246 -11.69294 -10.87958
  -9.23720  -9.09257   0.15770   0.30908   1.94815   2.12136   3.10087   3.30256
   3.38440   3.60902   3.65751   3.80394   3.84320   3.91439   4.07285   4.13647
   4.23500   4.25345   4.35836   4.45697   4.84901   5.07460   5.34679   5.74329
   5.81587   5.96919   6.03968   6.19300


              NET ATOMIC CHARGES AND DIPOLE CONTRIBUTIONS

  ATOM NO.   TYPE          CHARGE      No. of ELECS.   s-Pop       p-Pop       
    1          C          -0.041610        4.0416     1.14439     2.89722
    2          C          -0.002711        4.0027     1.12760     2.87511
    3          C          -0.143534        4.1435     1.21062     2.93291
    4          C          -0.164623        4.1646     1.20710     2.95752
    5          C          -0.128792        4.1288     1.19769     2.93110
    6          C          -0.115634        4.1156     1.19058     2.92506
    7          C          -0.116576        4.1166     1.19137     2.92521
    8          C          -0.122308        4.1223     1.18306     2.93925
    9          C          -0.103732        4.1037     1.18070     2.92303
   10          C          -0.152386        4.1524     1.18368     2.96870
   11          H           0.081629        0.9184     0.91837
   12          H           0.082256        0.9177     0.91774
   13          H           0.058860        0.9411     0.94114
   14          H           0.060226        0.9398     0.93977
   15          H           0.115565        0.8844     0.88443
   16          H           0.102729        0.8973     0.89727
   17          H           0.097213        0.9028     0.90279
   18          H           0.116651        0.8833     0.88335
   19          H           0.103182        0.8968     0.89682
   20          H           0.113764        0.8862     0.88624
   21          H           0.078836        0.9212     0.92116
   22          H           0.080994        0.9190     0.91901
 DIPOLE           X         Y         Z       TOTAL
 POINT-CHG.    -0.050     0.532    -0.214     0.575
 HYBRID         0.001     0.028     0.033     0.044
 SUM           -0.049     0.560    -0.180     0.590


          ATOMIC ORBITAL ELECTRON POPULATIONS

     Atom    s        px        py        pz   
    1  C   1.14439   0.94488   0.96228   0.99006
    2  C   1.12760   0.91273   1.00805   0.95432
    3  C   1.21062   0.96524   0.96260   1.00506
    4  C   1.20710   0.98414   0.96346   1.00992
    5  C   1.19769   0.94848   0.99282   0.98980
    6  C   1.19058   0.95975   0.96764   0.99767
    7  C   1.19137   0.96857   0.95886   0.99778
    8  C   1.18306   0.94551   1.00036   0.99338
    9  C   1.18070   0.94810   0.99212   0.98281
   10  C   1.18368   0.96271   0.99947   1.00652
   11  H   0.91837
   12  H   0.91774
   13  H   0.94114
   14  H   0.93977
   15  H   0.88443
   16  H   0.89727
   17  H   0.90279
   18  H   0.88335
   19  H   0.89682
   20  H   0.88624
   21  H   0.92116
   22  H   0.91901
 *******************************************************************************
 ** Site#: 14399        For non-commercial use only    Version 18.184L 64BITS **
 *******************************************************************************
 ** Cite this program as: MOPAC2016, Version: 18.184L, James J. P. Stewart,   **
 ** Stewart Computational Chemistry, web: HTTP://OpenMOPAC.net. Days left:  18**
 *******************************************************************************
 **                                                                           **
 **                                MOPAC2016                                  **
 **                                                                           **
 *******************************************************************************

                              PM3 CALCULATION RESULTS

 *******************************************************************************
 *  CALCULATION DONE:                                Sat Jun 15 10:16:55 2019  *
 *  PM3        - The PM3 Hamiltonian to be used
 *  OLDGEO     - PREVIOUS GEOMETRY TO BE USED
 *  PRECISE    - CRITERIA TO BE INCREASED BY 100 TIMES
 *  NOSYM      - POINT-GROUP SYMMETRY SET TO C1
 *  THREADS=1  - MULTI-THREADING NOT USED
 *  T=         - A TIME OF 172800.0 SECONDS REQUESTED
 *  DUMP=N     - RESTART FILE WRITTEN EVERY  7200.000 SECONDS
 *  THERMO     - THERMODYNAMIC QUANTITIES TO BE CALCULATED
 *******************************************************************************
oldgeo thermo nosym precise THREADS=1  pm3
 InChI=1S/C10H12/c1-2-3-4-7-10-8-5-6-9-10/h2-6,8H,1,7,9H2

   ATOM   CHEMICAL          X               Y               Z
  NUMBER   SYMBOL      (ANGSTROMS)     (ANGSTROMS)     (ANGSTROMS)
 
     1       C         -2.25776411  *   0.98081847  *  -0.01251837  *
     2       C         -0.13253680  *  -0.01721259  *  -1.18869540  *
     3       C         -1.40824299  *  -0.18210354  *  -0.45597247  *
     4       C         -3.41747385  *   0.30564929  *   0.66182288  *
     5       C          0.95708897  *   0.44931120  *  -0.28633103  *
     6       C         -2.00417349  *  -1.34237949  *  -0.08531325  *
     7       C         -3.25399752  *  -1.03590676  *   0.61044886  *
     8       C          2.19125397  *  -0.06473021  *  -0.32194050  *
     9       C          3.25127208  *   0.41477181  *   0.55189452  *
    10       C          4.48466241  *  -0.08568112  *   0.51306147  *
    11       H         -2.58450888  *   1.59899086  *  -0.86833580  *
    12       H         -1.71074461  *   1.64594804  *   0.68124956  *
    13       H          0.13896948  *  -0.96768252  *  -1.69096247  *
    14       H         -0.26711152  *   0.73092390  *  -1.99696113  *
    15       H         -4.23882096  *   0.86149743  *   1.10793725  *
    16       H          0.69337090  *   1.25045597  *   0.41655003  *
    17       H          2.99074846  *   1.21546072  *   1.25562448  *
    18       H         -1.64284892  *  -2.35422873  *  -0.25983821  *
    19       H          2.44868308  *  -0.87317666  *  -1.01916936  *
    20       H         -3.91847205  *  -1.79981059  *   1.00912853  *
    21       H          5.27898588  *   0.26722794  *   1.16333142  *
    22       H          4.78431277  *  -0.87852758  *  -0.16689370  *
 


          CARTESIAN COORDINATES 

    NO.       ATOM           X           Y           Z

     1         C         -2.2578      0.9808     -0.0125
     2         C         -0.1325     -0.0172     -1.1887
     3         C         -1.4082     -0.1821     -0.4560
     4         C         -3.4175      0.3056      0.6618
     5         C          0.9571      0.4493     -0.2863
     6         C         -2.0042     -1.3424     -0.0853
     7         C         -3.2540     -1.0359      0.6104
     8         C          2.1913     -0.0647     -0.3219
     9         C          3.2513      0.4148      0.5519
    10         C          4.4847     -0.0857      0.5131
    11         H         -2.5845      1.5990     -0.8683
    12         H         -1.7107      1.6459      0.6812
    13         H          0.1390     -0.9677     -1.6910
    14         H         -0.2671      0.7309     -1.9970
    15         H         -4.2388      0.8615      1.1079
    16         H          0.6934      1.2505      0.4166
    17         H          2.9907      1.2155      1.2556
    18         H         -1.6428     -2.3542     -0.2598
    19         H          2.4487     -0.8732     -1.0192
    20         H         -3.9185     -1.7998      1.0091
    21         H          5.2790      0.2672      1.1633
    22         H          4.7843     -0.8785     -0.1669

  H: (PM3): J. J. P. STEWART, J. COMP. CHEM. 10, 209 (1989).
  C: (PM3): J. J. P. STEWART, J. COMP. CHEM. 10, 209 (1989).

           Empirical Formula: C10 H12  =    22 atoms



      MOLECULAR POINT GROUP   :   C1  


      RHF CALCULATION, NO. OF DOUBLY OCCUPIED LEVELS = 26



          HEAT OF FORMATION =      56.305319 KCALS/MOLE


          CARTESIAN COORDINATE DERIVATIVES

   NUMBER  ATOM         X            Y            Z

     1       C     -0.000835     0.006302    -0.006507
     2       C      0.001495    -0.001882     0.002101
     3       C     -0.005858    -0.006329    -0.000342
     4       C      0.008462     0.001988     0.000308
     5       C     -0.006488     0.003563     0.004328
     6       C     -0.007119     0.000614    -0.005910
     7       C      0.006466    -0.011550     0.000288
     8       C      0.005691     0.000229    -0.008989
     9       C     -0.009443    -0.011353     0.003471
    10       C      0.008060     0.012248     0.000437
    11       H     -0.007452    -0.001008     0.009806
    12       H     -0.009770    -0.002600     0.006705
    13       H     -0.000700    -0.004924     0.001251
    14       H     -0.003007    -0.001706     0.000517
    15       H      0.003546     0.000331     0.003078
    16       H     -0.006507    -0.002322     0.002879
    17       H      0.002838     0.010957     0.003528
    18       H      0.010517    -0.000626    -0.006408
    19       H      0.009314     0.011821    -0.001996
    20       H      0.004271    -0.001329    -0.008044
    21       H      0.005588     0.008788    -0.001786
    22       H     -0.009067    -0.011212     0.001287
 


          GRADIENT NORM =   0.04982


          TIME FOR SCF CALCULATION =    0.00

          TIME FOR DERIVATIVES     =    0.00

          MOLECULAR WEIGHT =  132.20



          ROTATIONAL CONSTANTS IN CM(-1)

          A =    0.13692800   B =    0.01678149   C =    0.01649694



           PRINCIPAL MOMENTS OF INERTIA IN UNITS OF 10**(-40)*GRAM-CM**2

          A =      204.4343   B =     1668.0747   C =     1696.8460


          ORIENTATION OF MOLECULE IN FORCE CALCULATION

    NO.       ATOM         X         Y         Z

     1          C      -2.1093   -0.2786    1.0294
     2          C       0.5167   -0.2786    1.0294
     3          C      -0.7812    0.4334    1.0294
     4          C      -3.0933    0.8560    1.0382
     5          C       0.8170   -0.8628   -0.3076
     6          C      -0.9886    1.7734    1.0377
     7          C      -2.4281    2.0335    1.0427
     8          C       2.0272   -0.7857   -0.8718
     9          C       2.3114   -1.3787   -2.1698
    10          C       3.5172   -1.3146   -2.7313
    11          H      -2.2254   -0.9287    1.9156
    12          H      -2.2302   -0.9191    0.1360
    13          H       1.3226    0.4074    1.3601
    14          H       0.4855   -1.0995    1.7753
    15          H      -4.1691    0.6969    1.0404
    16          H      -0.0157   -1.3705   -0.8118
    17          H       1.4811   -1.8868   -2.6763
    18          H      -0.2334    2.5574    1.0411
    19          H       2.8550   -0.2681   -0.3692
    20          H      -2.8541    3.0348    1.0484
    21          H       3.7346   -1.7539   -3.6998
    22          H       4.3655   -0.8210   -2.2650


    FIRST DERIVATIVES WILL BE USED IN THE CALCULATION OF SECOND DERIVATIVES

          ESTIMATED TIME TO COMPLETE CALCULATION =        2.06 SECONDS

    FOR POINT-GROUP C1   THERE ARE   1 UNIQUE SYMMETRY FUNCTIONS.

 STEP:   1 TIME =     0.02 SECS, INTEGRAL =      0.02 TIME LEFT: 172799.97
 STEP:   2 TIME =     0.02 SECS, INTEGRAL =      0.04 TIME LEFT: 172799.95
 STEP:   3 TIME =     0.02 SECS, INTEGRAL =      0.06 TIME LEFT: 172799.93
 STEP:   4 TIME =     0.02 SECS, INTEGRAL =      0.08 TIME LEFT: 172799.91
 STEP:   5 TIME =     0.02 SECS, INTEGRAL =      0.11 TIME LEFT: 172799.89
 STEP:   6 TIME =     0.02 SECS, INTEGRAL =      0.12 TIME LEFT: 172799.87
 STEP:   7 TIME =     0.02 SECS, INTEGRAL =      0.14 TIME LEFT: 172799.85
 STEP:   8 TIME =     0.02 SECS, INTEGRAL =      0.17 TIME LEFT: 172799.82
 STEP:   9 TIME =     0.02 SECS, INTEGRAL =      0.19 TIME LEFT: 172799.80
 STEP:  10 TIME =     0.02 SECS, INTEGRAL =      0.21 TIME LEFT: 172799.79
 STEP:  11 TIME =     0.02 SECS, INTEGRAL =      0.23 TIME LEFT: 172799.77
 STEP:  12 TIME =     0.02 SECS, INTEGRAL =      0.25 TIME LEFT: 172799.74
 STEP:  13 TIME =     0.02 SECS, INTEGRAL =      0.27 TIME LEFT: 172799.72
 STEP:  14 TIME =     0.02 SECS, INTEGRAL =      0.29 TIME LEFT: 172799.70
 STEP:  15 TIME =     0.02 SECS, INTEGRAL =      0.31 TIME LEFT: 172799.68
 STEP:  16 TIME =     0.02 SECS, INTEGRAL =      0.34 TIME LEFT: 172799.66
 STEP:  17 TIME =     0.02 SECS, INTEGRAL =      0.36 TIME LEFT: 172799.64
 STEP:  18 TIME =     0.02 SECS, INTEGRAL =      0.38 TIME LEFT: 172799.61
 STEP:  19 TIME =     0.02 SECS, INTEGRAL =      0.40 TIME LEFT: 172799.59
 STEP:  20 TIME =     0.02 SECS, INTEGRAL =      0.42 TIME LEFT: 172799.57
 STEP:  21 TIME =     0.02 SECS, INTEGRAL =      0.44 TIME LEFT: 172799.55
 STEP:  22 TIME =     0.02 SECS, INTEGRAL =      0.46 TIME LEFT: 172799.53
 STEP:  23 TIME =     0.02 SECS, INTEGRAL =      0.48 TIME LEFT: 172799.51
 STEP:  24 TIME =     0.02 SECS, INTEGRAL =      0.50 TIME LEFT: 172799.49
 STEP:  25 TIME =     0.02 SECS, INTEGRAL =      0.52 TIME LEFT: 172799.47
 STEP:  26 TIME =     0.02 SECS, INTEGRAL =      0.54 TIME LEFT: 172799.45
 STEP:  27 TIME =     0.02 SECS, INTEGRAL =      0.56 TIME LEFT: 172799.43
 STEP:  28 TIME =     0.02 SECS, INTEGRAL =      0.59 TIME LEFT: 172799.41
 STEP:  29 TIME =     0.02 SECS, INTEGRAL =      0.61 TIME LEFT: 172799.39
 STEP:  30 TIME =     0.02 SECS, INTEGRAL =      0.62 TIME LEFT: 172799.37
 STEP:  31 TIME =     0.02 SECS, INTEGRAL =      0.64 TIME LEFT: 172799.35
 STEP:  32 TIME =     0.02 SECS, INTEGRAL =      0.66 TIME LEFT: 172799.33
 STEP:  33 TIME =     0.02 SECS, INTEGRAL =      0.69 TIME LEFT: 172799.30
 STEP:  34 TIME =     0.02 SECS, INTEGRAL =      0.71 TIME LEFT: 172799.29
 STEP:  35 TIME =     0.02 SECS, INTEGRAL =      0.73 TIME LEFT: 172799.26
 STEP:  36 TIME =     0.02 SECS, INTEGRAL =      0.75 TIME LEFT: 172799.24
 STEP:  37 TIME =     0.02 SECS, INTEGRAL =      0.77 TIME LEFT: 172799.22
 STEP:  38 TIME =     0.02 SECS, INTEGRAL =      0.79 TIME LEFT: 172799.20
 STEP:  39 TIME =     0.02 SECS, INTEGRAL =      0.81 TIME LEFT: 172799.18
 STEP:  40 TIME =     0.02 SECS, INTEGRAL =      0.84 TIME LEFT: 172799.16
 STEP:  41 TIME =     0.02 SECS, INTEGRAL =      0.86 TIME LEFT: 172799.14
 STEP:  42 TIME =     0.02 SECS, INTEGRAL =      0.88 TIME LEFT: 172799.12
 STEP:  43 TIME =     0.02 SECS, INTEGRAL =      0.89 TIME LEFT: 172799.10
 STEP:  44 TIME =     0.02 SECS, INTEGRAL =      0.92 TIME LEFT: 172799.07
 STEP:  45 TIME =     0.02 SECS, INTEGRAL =      0.94 TIME LEFT: 172799.05
 STEP:  46 TIME =     0.02 SECS, INTEGRAL =      0.96 TIME LEFT: 172799.04
 STEP:  47 TIME =     0.02 SECS, INTEGRAL =      0.98 TIME LEFT: 172799.02
 STEP:  48 TIME =     0.02 SECS, INTEGRAL =      1.00 TIME LEFT: 172798.99
 STEP:  49 TIME =     0.02 SECS, INTEGRAL =      1.02 TIME LEFT: 172798.97
 STEP:  50 TIME =     0.02 SECS, INTEGRAL =      1.04 TIME LEFT: 172798.95
 STEP:  51 TIME =     0.02 SECS, INTEGRAL =      1.06 TIME LEFT: 172798.93
 STEP:  52 TIME =     0.02 SECS, INTEGRAL =      1.08 TIME LEFT: 172798.91
 STEP:  53 TIME =     0.02 SECS, INTEGRAL =      1.10 TIME LEFT: 172798.89
 STEP:  54 TIME =     0.02 SECS, INTEGRAL =      1.12 TIME LEFT: 172798.87
 STEP:  55 TIME =     0.02 SECS, INTEGRAL =      1.14 TIME LEFT: 172798.85
 STEP:  56 TIME =     0.02 SECS, INTEGRAL =      1.16 TIME LEFT: 172798.83
 STEP:  57 TIME =     0.02 SECS, INTEGRAL =      1.19 TIME LEFT: 172798.80
 STEP:  58 TIME =     0.02 SECS, INTEGRAL =      1.21 TIME LEFT: 172798.79
 STEP:  59 TIME =     0.02 SECS, INTEGRAL =      1.23 TIME LEFT: 172798.77
 STEP:  60 TIME =     0.02 SECS, INTEGRAL =      1.25 TIME LEFT: 172798.74
 STEP:  61 TIME =     0.02 SECS, INTEGRAL =      1.27 TIME LEFT: 172798.72
 STEP:  62 TIME =     0.02 SECS, INTEGRAL =      1.29 TIME LEFT: 172798.70
 STEP:  63 TIME =     0.02 SECS, INTEGRAL =      1.31 TIME LEFT: 172798.68
 STEP:  64 TIME =     0.02 SECS, INTEGRAL =      1.34 TIME LEFT: 172798.66
 STEP:  65 TIME =     0.02 SECS, INTEGRAL =      1.36 TIME LEFT: 172798.64
 STEP:  66 TIME =     0.02 SECS, INTEGRAL =      1.38 TIME LEFT: 172798.61

(To convert to Hartree/Bohr^2, multiply by (10^(-21) x N x a0^2)/(4.184 x 627.51) =  0.0642)


           FORCE MATRIX IN MILLIDYNES/ANGSTROM


                  C  1       C  2       C  3       C  4       C  5       C  6
 ------------------------------------------------------------------------------
     C    1  14.825322
     C    2   0.467186  15.094862
     C    3   4.204955   5.178882  18.391172
     C    4   4.422691   0.048098   1.107303  17.904492
     C    5   0.032956   4.863121   0.754818   0.007563  18.005967
     C    6   1.206262   0.668751   9.405468   1.601407   0.024905  18.251747
     C    7   1.251749   0.108811   1.592684   9.675027   0.016518   5.207229
     C    8   0.003495   0.830681   0.043566   0.003443  10.404399   0.003574
     C    9   0.001690   0.140753   0.019432   0.001305   1.072889   0.003727
     C   10   0.000445   0.015627   0.002818   0.001387   0.100868   0.001997
     H   11   4.518155   0.011707   0.425437   0.414200   0.002387   0.044742
     H   12   4.491293   0.009632   0.426820   0.416040   0.014204   0.044718
     H   13   0.038878   4.436335   0.443685   0.007393   0.459360   0.029556
     H   14   0.016825   4.385842   0.439224   0.005348   0.415218   0.033869
     H   15   0.403115   0.011708   0.043297   5.085812   0.001798   0.101641
     H   16   0.010160   0.431259   0.029566   0.002477   4.757786   0.002036
     H   17   0.000495   0.002537   0.000930   0.000449   0.041367   0.000452
     H   18   0.105318   0.048033   0.456384   0.048596   0.006761   5.061042
     H   19   0.001129   0.079065   0.007180   0.000949   0.464992   0.001258
     H   20   0.113795   0.006726   0.049577   0.445964   0.000875   0.419474
     H   21   0.000467   0.009848   0.001636   0.000450   0.008419   0.000591
     H   22   0.000506   0.005110   0.001387   0.000617   0.005715   0.000570


                  C  7       C  8       C  9       C 10       H 11       H 12
 ------------------------------------------------------------------------------
     C    7  18.293484
     C    8   0.002864  18.485193
     C    9   0.002671   5.598706  18.474565
     C   10   0.001761   1.071701  10.793180  17.906334
     H   11   0.044575   0.001007   0.000452   0.000344   5.121924
     H   12   0.045102   0.002267   0.000968   0.000460   0.542519   5.099210
     H   13   0.002494   0.048470   0.003920   0.001329   0.001129   0.001555
     H   14   0.012536   0.031603   0.020110   0.001912   0.006696   0.001538
     H   15   0.444052   0.000441   0.000332   0.000369   0.011131   0.011219
     H   16   0.001585   0.467008   0.087583   0.006366   0.000787   0.019052
     H   17   0.000945   0.445070   4.773382   0.451417   0.000168   0.000469
     H   18   0.418079   0.001993   0.001100   0.000577   0.014318   0.014550
     H   19   0.001235   4.750249   0.443766   0.038351   0.000220   0.000505
     H   20   5.071225   0.000692   0.000390   0.000558   0.015314   0.015300
     H   21   0.000481   0.134135   0.460198   5.114580   0.000155   0.000169
     H   22   0.000429   0.099601   0.487937   5.077109   0.000145   0.000205


                  H 13       H 14       H 15       H 16       H 17       H 18
 ------------------------------------------------------------------------------
     H   13   5.018513
     H   14   0.548832   4.957339
     H   15   0.001557   0.000761   5.486200
     H   16   0.037638   0.014449   0.000428   5.141145
     H   17   0.000657   0.000698   0.000175   0.028404   5.142139
     H   18   0.010661   0.004280   0.005360   0.000824   0.000257   5.455245
     H   19   0.029950   0.009378   0.000180   0.099887   0.035834   0.001065
     H   20   0.000615   0.001097   0.041825   0.000415   0.000168   0.009204
     H   21   0.000329   0.001553   0.000145   0.004191   0.076216   0.000231
     H   22   0.000292   0.000771   0.000161   0.002780   0.113907   0.000229


                  H 19       H 20       H 21       H 22
 ------------------------------------------------------
     H   19   5.126648
     H   20   0.000225   5.461945
     H   21   0.002286   0.000139   5.499430
     H   22   0.025635   0.000119   0.420021   5.471495


          HEAT OF FORMATION =      56.305319 KCALS/MOLE

          ZERO POINT ENERGY     117.151 KCAL/MOL


           NORMAL COORDINATE ANALYSIS (Total motion = 1 Angstrom)


   Root No.       1         2         3         4         5         6         7         8

                 1 A       2 A       3 A       4 A       5 A       6 A       7 A       8 A   

                  46.5      72.6     110.8     152.9     207.4     222.8     294.4     341.8
  
           1   -0.0094   -0.0158   -0.0040    0.0045   -0.0153   -0.0221    0.0252    0.0262
           2    0.0018    0.0040    0.0088   -0.0044    0.0009   -0.0006   -0.0065    0.0154
           3    0.0393    0.0343   -0.0143    0.0183   -0.0251    0.0177   -0.0246    0.0136
           4   -0.0105   -0.0158   -0.0035    0.0029   -0.0086   -0.0094   -0.0053   -0.0248
           5   -0.0371   -0.0067    0.0118    0.0042   -0.0075   -0.0119   -0.0188   -0.0358
           6    0.0180   -0.0319   -0.0152    0.0054    0.0126   -0.0009    0.0099    0.0009
           7    0.0005   -0.0128   -0.0046    0.0013   -0.0103   -0.0128    0.0152    0.0129
           8   -0.0170   -0.0018    0.0102    0.0019   -0.0069   -0.0164    0.0079    0.0382
           9    0.0052   -0.0153   -0.0171    0.0192   -0.0291    0.0179   -0.0040   -0.0079
          10    0.0067   -0.0107   -0.0056   -0.0009   -0.0091   -0.0092    0.0178    0.0000
          11    0.0161    0.0085    0.0072   -0.0090    0.0065    0.0121   -0.0162   -0.0117
          12    0.0027    0.0544    0.0144   -0.0164    0.0292   -0.0137    0.0159   -0.0106
          13   -0.0051   -0.0104    0.0003   -0.0003    0.0359    0.0136   -0.0227    0.0051
          14   -0.0248    0.0130   -0.0147    0.0472    0.0000    0.0326    0.0357   -0.0246
          15    0.0137   -0.0393   -0.0028   -0.0142    0.0223   -0.0151   -0.0142   -0.0005
          16    0.0198   -0.0068   -0.0068   -0.0049   -0.0041    0.0011    0.0111   -0.0148
          17   -0.0137   -0.0007    0.0099    0.0009   -0.0059   -0.0142    0.0061    0.0349
          18   -0.0439   -0.0270   -0.0001    0.0047   -0.0317    0.0203   -0.0234    0.0122
          19    0.0235   -0.0055   -0.0072   -0.0063   -0.0023    0.0049    0.0077   -0.0253
          20    0.0068    0.0057    0.0081   -0.0059    0.0027    0.0040   -0.0100    0.0023
          21   -0.0454    0.0170    0.0208   -0.0204    0.0135   -0.0053   -0.0017    0.0067
          22   -0.0083    0.0040    0.0132    0.0247    0.0374    0.0165   -0.0166    0.0060
          23   -0.0016   -0.0066   -0.0530   -0.0407    0.0105    0.0387    0.0202   -0.0002
          24    0.0101   -0.0117    0.0191    0.0275    0.0255   -0.0106    0.0024    0.0006
          25   -0.0047    0.0273    0.0228   -0.0063    0.0002    0.0200   -0.0143    0.0137
          26    0.0178    0.0004   -0.0537    0.0099    0.0209   -0.0244   -0.0120    0.0046
          27    0.0020   -0.0095    0.0217   -0.0028    0.0114    0.0173    0.0200   -0.0021
          28   -0.0095    0.0434   -0.0043   -0.0122   -0.0164   -0.0005   -0.0158    0.0074
          29    0.0488   -0.0140    0.0573   -0.0035   -0.0187   -0.0132    0.0039   -0.0073
          30   -0.0048    0.0233   -0.0246   -0.0164   -0.0269   -0.0249    0.0204   -0.0177
          31   -0.0137    0.0095    0.0062   -0.0024   -0.0034   -0.0396    0.0337    0.0491
          32    0.0360    0.0127   -0.0062    0.0148   -0.0325    0.0222   -0.0522    0.0478
          33    0.0638    0.0439   -0.0240    0.0316   -0.0485    0.0323   -0.0577    0.0416
          34   -0.0223   -0.0455   -0.0126    0.0169   -0.0348   -0.0207    0.0317    0.0390
          35   -0.0293   -0.0037    0.0236   -0.0250    0.0362   -0.0202    0.0359   -0.0241
          36    0.0633    0.0439   -0.0238    0.0314   -0.0481    0.0319   -0.0570    0.0409
          37   -0.0046   -0.0144   -0.0041    0.0031   -0.0200   -0.0161    0.0113    0.0075
          38   -0.0526   -0.0147    0.0195   -0.0067   -0.0096   -0.0209   -0.0633   -0.1080
          39    0.0356   -0.0184   -0.0293    0.0264    0.0440    0.0338    0.0590    0.0669
          40   -0.0321   -0.0185   -0.0003    0.0024   -0.0373   -0.0113   -0.0482   -0.1205
          41   -0.0447   -0.0199    0.0258   -0.0198   -0.0098   -0.0429   -0.0560   -0.0650
          42    0.0085   -0.0464    0.0006   -0.0212    0.0090   -0.0350   -0.0323   -0.0334
          43    0.0045   -0.0113   -0.0053   -0.0002   -0.0099   -0.0112    0.0193    0.0040
          44    0.0315    0.0132    0.0056   -0.0139    0.0126    0.0256   -0.0257   -0.0391
          45    0.0155    0.0928    0.0261   -0.0328    0.0696   -0.0366    0.0488   -0.0336
          46   -0.0002   -0.0134   -0.0050   -0.0304    0.0468    0.0232   -0.0320    0.0198
          47   -0.0319    0.0413    0.0033    0.1520   -0.0059    0.0250    0.0725   -0.0444
          48    0.0127   -0.0625   -0.0117   -0.0710    0.0085   -0.0245   -0.0365   -0.0057
          49    0.0023    0.0325    0.0521   -0.0293   -0.0291    0.0313   -0.0008    0.0098
          50    0.0067    0.0173   -0.1386    0.0625    0.0549   -0.0990   -0.0572    0.0086
          51    0.0017   -0.0349    0.0590   -0.0183    0.0237    0.0724    0.0434   -0.0009
          52    0.0311   -0.0033   -0.0081   -0.0087    0.0003    0.0110    0.0049   -0.0376
          53   -0.0244   -0.0040    0.0111    0.0045   -0.0101   -0.0236    0.0117    0.0564
          54   -0.0780   -0.0597    0.0026    0.0036   -0.0457    0.0294   -0.0393    0.0264
          55   -0.0141    0.0028    0.0163    0.0615    0.0437    0.0110   -0.0121   -0.0039
          56    0.0054   -0.0303   -0.0700   -0.1500    0.0037    0.0609    0.0020    0.0167
          57    0.0123    0.0150    0.0318    0.0785    0.0197   -0.0258    0.0134   -0.0012
          58    0.0378   -0.0010   -0.0085   -0.0111    0.0039    0.0177   -0.0031   -0.0499
          59    0.0131    0.0076    0.0074   -0.0078    0.0052    0.0096   -0.0147   -0.0081
          60   -0.0804    0.0188    0.0394   -0.0413    0.0379   -0.0196    0.0079    0.0094
          61   -0.0068    0.0634    0.0007   -0.0408   -0.0680   -0.0152    0.0018   -0.0133
          62    0.0642   -0.0109    0.0702    0.0353   -0.0176   -0.0741   -0.0283   -0.0120
          63   -0.0112    0.0264   -0.0295   -0.0404   -0.0392   -0.0009    0.0392   -0.0206
          64   -0.0165    0.0384   -0.0342    0.0106    0.0186   -0.0061   -0.0343    0.0203
          65    0.0607   -0.0304    0.1442   -0.0536   -0.0567    0.0572    0.0522   -0.0161
          66   -0.0047    0.0498   -0.0622   -0.0051   -0.0511   -0.0898    0.0032   -0.0326


   Root No.       9        10        11        12        13        14        15        16

                 9 A      10 A      11 A      12 A      13 A      14 A      15 A      16 A   

                 414.4     456.1     496.5     570.1     626.6     695.7     752.6     821.3
  
           1   -0.0048    0.0076   -0.0001    0.0017   -0.0004    0.0009    0.0004    0.0353
           2    0.0094   -0.0041   -0.0011    0.0091   -0.0104    0.0352   -0.0067   -0.0379
           3   -0.0103   -0.0011    0.0007    0.0086   -0.0010   -0.0119   -0.0214   -0.0020
           4    0.0026   -0.0067   -0.0029    0.0024   -0.0131    0.0607   -0.0140   -0.0044
           5   -0.0061    0.0038   -0.0019   -0.0116    0.0116   -0.0273    0.0020   -0.0226
           6    0.0248   -0.0321   -0.0190   -0.0343    0.0049    0.0126   -0.0040    0.0112
           7    0.0002    0.0007   -0.0008    0.0055   -0.0088    0.0386   -0.0086   -0.0152
           8    0.0059    0.0014   -0.0002    0.0024    0.0011   -0.0136    0.0032   -0.0275
           9    0.0428    0.0029   -0.0393    0.0493   -0.0032   -0.0131    0.0291   -0.0032
          10   -0.0112    0.0093    0.0008   -0.0063    0.0092   -0.0357    0.0086    0.0757
          11    0.0043   -0.0043   -0.0005    0.0030   -0.0045    0.0146   -0.0022    0.0242
          12    0.0340    0.0177    0.0200   -0.0080    0.0004   -0.0002   -0.0223    0.0029
          13    0.0083   -0.0310    0.0289    0.0190   -0.0078   -0.0097    0.0025    0.0017
          14    0.0013   -0.0232    0.0022   -0.0159    0.0234   -0.0038   -0.0012   -0.0053
          15    0.0125   -0.0224   -0.0048   -0.0243    0.0014   -0.0127   -0.0018   -0.0005
          16   -0.0119    0.0069    0.0012   -0.0070    0.0076   -0.0206    0.0020   -0.0618
          17    0.0057    0.0019   -0.0007    0.0029    0.0020   -0.0220    0.0064   -0.0217
          18    0.0153    0.0213    0.0330   -0.0089   -0.0005   -0.0043   -0.0009   -0.0031
          19   -0.0142    0.0070    0.0012   -0.0093    0.0098   -0.0267    0.0030   -0.0385
          20    0.0054   -0.0021   -0.0004    0.0037   -0.0033    0.0030    0.0024    0.0902
          21   -0.0414   -0.0268   -0.0278    0.0072   -0.0004   -0.0044   -0.0268    0.0025
          22   -0.0038   -0.0073    0.0258    0.0305   -0.0108   -0.0079    0.0056    0.0007
          23   -0.0127    0.0100    0.0048    0.0082    0.0070    0.0100   -0.0018    0.0090
          24   -0.0213    0.0295   -0.0019    0.0065   -0.0072   -0.0017    0.0016   -0.0036
          25    0.0129    0.0187   -0.0322   -0.0192    0.0166    0.0045   -0.0017    0.0000
          26   -0.0094    0.0242   -0.0127   -0.0092   -0.0416   -0.0047    0.0003   -0.0032
          27   -0.0258    0.0357   -0.0041    0.0088    0.0183    0.0169   -0.0034   -0.0005
          28    0.0202   -0.0043   -0.0209   -0.0194    0.0034   -0.0036   -0.0003   -0.0001
          29   -0.0020   -0.0074    0.0090    0.0056    0.0040    0.0013   -0.0003   -0.0011
          30   -0.0148   -0.0134    0.0281    0.0183   -0.0076    0.0038   -0.0006   -0.0007
          31   -0.0196    0.0207    0.0490   -0.0520    0.0055    0.0097   -0.0423    0.0290
          32   -0.0856   -0.0340    0.0183   -0.0446   -0.0063    0.0851    0.0798   -0.0411
          33   -0.0847   -0.0220    0.0222   -0.0401    0.0033    0.0263    0.0402   -0.0032
          34    0.0090    0.0002   -0.0468    0.0578   -0.0024   -0.0332    0.0492    0.0058
          35    0.1057    0.0245   -0.0207    0.0639   -0.0174   -0.0003   -0.0976   -0.0451
          36   -0.0837   -0.0215    0.0221   -0.0404    0.0042    0.0212    0.0402    0.0055
          37    0.0077   -0.0007   -0.0079    0.0119   -0.0169    0.0811   -0.0176   -0.0294
          38   -0.0193    0.0237   -0.0103   -0.0144   -0.0031   -0.0398    0.0114    0.0303
          39    0.0377   -0.0833    0.0096   -0.0502    0.0420   -0.0084   -0.0143   -0.0357
          40   -0.0050    0.0327   -0.0302    0.0306   -0.0348    0.0908    0.0045    0.0624
          41   -0.0196    0.0265   -0.0099   -0.0252   -0.0121   -0.0350   -0.0002    0.0034
          42    0.0098   -0.0060   -0.0283   -0.0478   -0.0212    0.0050   -0.0060    0.0415
          43   -0.0104    0.0095    0.0007   -0.0054    0.0083   -0.0328    0.0093    0.0870
          44   -0.0011   -0.0048    0.0003   -0.0041    0.0026   -0.0071   -0.0018   -0.0437
          45    0.0874    0.0424    0.0449   -0.0292    0.0037    0.0548    0.2993   -0.0230
          46    0.0009   -0.0165    0.0412    0.0506    0.0036   -0.0341    0.0157   -0.0051
          47    0.0002   -0.0373   -0.0104   -0.0578   -0.0303    0.0372   -0.0202    0.0441
          48    0.0253   -0.0297   -0.0136   -0.0336    0.0359   -0.0121   -0.0044   -0.0390
          49    0.0219    0.0063   -0.0388   -0.0361   -0.0024    0.0009   -0.0034    0.0032
          50   -0.0124    0.0335   -0.0049    0.0150    0.0333    0.0006    0.0027   -0.0169
          51   -0.0368    0.0433    0.0012    0.0130   -0.0258    0.0170   -0.0030    0.0081
          52   -0.0182    0.0087    0.0022   -0.0144    0.0157   -0.0474    0.0070   -0.0192
          53    0.0117   -0.0001   -0.0022    0.0105   -0.0060    0.0035    0.0014   -0.0641
          54    0.0272    0.0593    0.1391   -0.1102    0.0079    0.0524    0.0571    0.0134
          55    0.0019   -0.0346    0.0384    0.0254   -0.0368   -0.0175    0.0065    0.0062
          56   -0.0107    0.0246    0.0063    0.0354    0.0950    0.0152    0.0017   -0.0065
          57   -0.0316    0.0584   -0.0249   -0.0142   -0.0548    0.0093   -0.0036    0.0032
          58   -0.0156    0.0037    0.0013   -0.0101    0.0065    0.0000   -0.0054   -0.0622
          59    0.0054   -0.0033    0.0000    0.0034   -0.0049    0.0146   -0.0024    0.0818
          60   -0.1183   -0.0870   -0.0993    0.0171    0.0015    0.0337    0.1880   -0.0080
          61    0.0351   -0.0789    0.0292   -0.0061   -0.0709   -0.0437    0.0120    0.0021
          62    0.0024   -0.0231    0.0352    0.0575    0.2444    0.0526   -0.0088    0.0220
          63   -0.0138   -0.0239    0.0290   -0.0010   -0.1335   -0.0284    0.0062   -0.0106
          64    0.0136    0.0381   -0.0509   -0.0275    0.0563    0.0187   -0.0074   -0.0006
          65    0.0006   -0.0329    0.0165   -0.0190   -0.1674   -0.0416    0.0093   -0.0127
          66   -0.0050   -0.0665    0.0771    0.0603    0.0772    0.0074    0.0026    0.0129


   Root No.      17        18        19        20        21        22        23        24

                17 A      18 A      19 A      20 A      21 A      22 A      23 A      24 A   

                 852.1     873.4     919.5     926.5     942.0     948.4     953.5     968.3
  
           1    0.0014   -0.0001    0.0058   -0.0087   -0.0156    0.0006   -0.0237   -0.0101
           2    0.0128   -0.0008    0.0087   -0.0121   -0.0163   -0.0017   -0.0257   -0.0081
           3    0.0013    0.0481   -0.0114    0.0160   -0.0239    0.0046   -0.0003   -0.0163
           4   -0.0266    0.0018   -0.0102    0.0125    0.0088    0.0083    0.0179    0.0018
           5   -0.0330    0.0026   -0.0108    0.0110    0.0042    0.0111   -0.0006   -0.0092
           6    0.0177   -0.0012    0.0068   -0.0070   -0.0013    0.0013    0.0024    0.0043
           7   -0.0042    0.0004   -0.0015    0.0021   -0.0014    0.0041    0.0028   -0.0017
           8    0.0082   -0.0004   -0.0013    0.0027    0.0080   -0.0019    0.0110    0.0057
           9   -0.0007   -0.0077    0.0079   -0.0122    0.0249   -0.0052    0.0007    0.0104
          10   -0.0079    0.0000   -0.0023    0.0039    0.0080   -0.0013    0.0125    0.0059
          11   -0.0072    0.0004   -0.0009    0.0007   -0.0023    0.0019   -0.0020   -0.0022
          12    0.0013   -0.0052    0.0085   -0.0127    0.0184   -0.0035    0.0002    0.0232
          13    0.0068   -0.0009   -0.0037    0.0081    0.0006   -0.0158    0.0014   -0.0004
          14   -0.0158    0.0013    0.0093   -0.0226   -0.0082   -0.0041   -0.0146    0.0051
          15    0.0049   -0.0020   -0.0034    0.0103   -0.0023   -0.0028   -0.0017   -0.0040
          16    0.0135   -0.0006    0.0020   -0.0020    0.0025   -0.0032    0.0014    0.0037
          17    0.0138   -0.0006   -0.0001    0.0020    0.0152   -0.0061    0.0194    0.0134
          18   -0.0037   -0.0359   -0.0116    0.0184   -0.0320    0.0078   -0.0015    0.0200
          19    0.0049   -0.0001   -0.0005    0.0009    0.0028   -0.0005    0.0025    0.0011
          20   -0.0135    0.0004   -0.0016    0.0018    0.0000    0.0009    0.0015   -0.0001
          21   -0.0001   -0.0221    0.0046   -0.0070    0.0137   -0.0045    0.0013   -0.0372
          22    0.0048    0.0003    0.0084    0.0019    0.0057    0.0043   -0.0033    0.0034
          23    0.0257   -0.0026   -0.0208   -0.0145   -0.0104    0.0071    0.0247   -0.0059
          24   -0.0077    0.0009    0.0146    0.0021    0.0062    0.0274   -0.0107    0.0018
          25   -0.0006   -0.0000    0.0055   -0.0024   -0.0040    0.0085    0.0058   -0.0015
          26   -0.0062    0.0001   -0.0179    0.0059    0.0143    0.0070   -0.0171    0.0029
          27   -0.0057    0.0006    0.0068   -0.0001   -0.0064   -0.0042    0.0104   -0.0016
          28    0.0007   -0.0003    0.0008   -0.0006   -0.0026   -0.0046    0.0018   -0.0008
          29   -0.0045    0.0004   -0.0041    0.0057    0.0052   -0.0218   -0.0122    0.0042
          30   -0.0052    0.0005   -0.0037    0.0064   -0.0035   -0.0462    0.0032    0.0008
          31    0.0214   -0.0126    0.0277   -0.0325   -0.0602    0.0096   -0.0767    0.1140
          32    0.0086   -0.1251    0.0352   -0.0514    0.0434   -0.0148   -0.0254    0.0044
          33    0.0005   -0.0495    0.0118   -0.0173    0.0170   -0.0044   -0.0061    0.0111
          34    0.0151    0.0101    0.0069   -0.0215   -0.0202   -0.0181   -0.0615   -0.1608
          35    0.0156    0.1245   -0.0172    0.0259   -0.0799    0.0130   -0.0298   -0.0229
          36   -0.0026   -0.0479    0.0083   -0.0114    0.0242   -0.0037    0.0070    0.0161
          37   -0.0510    0.0028   -0.0302    0.0417    0.0304    0.0250    0.0615   -0.0024
          38    0.0674   -0.0030    0.0290   -0.0365   -0.0245   -0.0210   -0.0455    0.0044
          39   -0.1208    0.0074   -0.0243    0.0188    0.0051    0.0269   -0.0094   -0.0122
          40    0.0689   -0.0032    0.0557   -0.0671    0.0150   -0.0347   -0.0225    0.0606
          41    0.0775   -0.0058   -0.0077    0.0190   -0.0239    0.0057    0.0167   -0.0269
          42    0.1391   -0.0108    0.0120   -0.0007   -0.0316   -0.0055    0.0201   -0.0128
          43   -0.0078   -0.0003   -0.0004    0.0010    0.0023   -0.0014    0.0039    0.0019
          44   -0.0090    0.0015   -0.0144    0.0206    0.0339    0.0032    0.0549    0.0225
          45   -0.0129   -0.0750   -0.0332    0.0476   -0.0603    0.0089    0.0013   -0.1108
          46   -0.0101    0.0023   -0.0041   -0.0569   -0.0111   -0.0245   -0.0109    0.0056
          47    0.1252   -0.0124    0.0357    0.1774    0.0287    0.0003    0.0168   -0.0249
          48   -0.1088    0.0066   -0.0295   -0.0838   -0.0198    0.0072   -0.0121    0.0165
          49    0.0105   -0.0023   -0.0541    0.0108    0.0225   -0.0326   -0.0361    0.0054
          50   -0.0575    0.0082    0.1749   -0.0207   -0.0859   -0.0067    0.1042   -0.0170
          51    0.0278   -0.0039   -0.0889    0.0048    0.0506    0.0781   -0.0424    0.0070
          52    0.0029   -0.0004    0.0027   -0.0058   -0.0142   -0.0010   -0.0285   -0.0138
          53    0.0244   -0.0021   -0.0011    0.0061    0.0314   -0.0084    0.0493    0.0315
          54    0.0223    0.2559    0.0424   -0.0715    0.1260   -0.0316    0.0075   -0.0944
          55    0.0262   -0.0029   -0.0456   -0.0399   -0.0166   -0.0513    0.0249    0.0008
          56   -0.0229    0.0052    0.1562    0.1346    0.0558    0.0566   -0.0798    0.0125
          57    0.0074   -0.0019   -0.0786   -0.0825   -0.0251    0.0688    0.0508   -0.0126
          58   -0.0066    0.0015    0.0008   -0.0048   -0.0298    0.0125   -0.0454   -0.0328
          59   -0.0188   -0.0002   -0.0010   -0.0007   -0.0132    0.0063   -0.0185   -0.0155
          60    0.0063    0.2072   -0.0208    0.0308   -0.0614    0.0208   -0.0067    0.1631
          61    0.0254   -0.0020    0.0340   -0.0357    0.0111    0.2396    0.0013   -0.0068
          62    0.0560   -0.0054   -0.0266   -0.0204   -0.0194    0.0448    0.0520   -0.0165
          63   -0.0266    0.0028    0.0142    0.0100    0.0110   -0.0187   -0.0257    0.0087
          64   -0.0084   -0.0002   -0.0434    0.0258    0.0143   -0.1296   -0.0376    0.0115
          65   -0.0332    0.0047    0.1083   -0.0228   -0.0640    0.0130    0.0910   -0.0200
          66    0.0439   -0.0043   -0.0410   -0.0134    0.0392    0.1558   -0.0336    0.0035


   Root No.      25        26        27        28        29        30        31        32

                25 A      26 A      27 A      28 A      29 A      30 A      31 A      32 A   

                 991.4    1027.7    1032.6    1040.8    1047.1    1079.6    1120.3    1156.0
  
           1   -0.0146   -0.0008    0.0057    0.0003    0.0020    0.0036    0.0166   -0.0068
           2   -0.0072    0.0113   -0.0319   -0.0089   -0.0062    0.0043    0.0243   -0.0056
           3    0.0194    0.0026    0.0034   -0.0003    0.0003   -0.0009   -0.0017    0.0005
           4    0.0047   -0.0016   -0.0004    0.0010    0.0012   -0.0111   -0.0091    0.0189
           5   -0.0254    0.0042   -0.0024   -0.0092   -0.0018    0.0025    0.0075    0.0143
           6    0.0138   -0.0083    0.0029    0.0077   -0.0049   -0.0056   -0.0072    0.0325
           7    0.0022   -0.0063   -0.0024    0.0046   -0.0040    0.0096    0.0135   -0.0013
           8    0.0060   -0.0016    0.0074    0.0015    0.0017   -0.0035   -0.0196    0.0031
           9   -0.0229    0.0033    0.0120   -0.0160   -0.0170    0.0049    0.0082    0.0005
          10    0.0131    0.0052   -0.0237   -0.0025   -0.0049    0.0155    0.0223   -0.0055
          11   -0.0042   -0.0047    0.0148    0.0034    0.0031   -0.0045   -0.0009    0.0013
          12   -0.0251   -0.0110   -0.0233    0.0170    0.0156   -0.0015   -0.0007   -0.0007
          13   -0.0060    0.0060    0.0000   -0.0059    0.0063    0.0019    0.0011   -0.0044
          14    0.0222   -0.0118   -0.0019    0.0163   -0.0129   -0.0011   -0.0015   -0.0229
          15   -0.0100    0.0136   -0.0010   -0.0098    0.0148    0.0042   -0.0017   -0.0447
          16    0.0058    0.0072   -0.0135   -0.0051   -0.0015   -0.0152   -0.0153    0.0060
          17    0.0194    0.0051    0.0033    0.0001    0.0065   -0.0082   -0.0269    0.0089
          18    0.0057   -0.0045   -0.0105    0.0108    0.0099   -0.0019   -0.0027    0.0010
          19    0.0002   -0.0012    0.0076    0.0020    0.0032    0.0139    0.0104   -0.0015
          20   -0.0002   -0.0007   -0.0001   -0.0003   -0.0010   -0.0077   -0.0146    0.0036
          21    0.0140    0.0075    0.0162   -0.0123   -0.0110    0.0010    0.0007    0.0005
          22    0.0043   -0.0045    0.0015    0.0052   -0.0093   -0.0015   -0.0007    0.0139
          23   -0.0144   -0.0015   -0.0008   -0.0155    0.0090    0.0014    0.0003    0.0019
          24    0.0076   -0.0003    0.0005    0.0086   -0.0060   -0.0006   -0.0008   -0.0024
          25   -0.0005   -0.0036   -0.0015   -0.0065    0.0048   -0.0000   -0.0006   -0.0054
          26    0.0024    0.0181    0.0033    0.0208   -0.0100   -0.0012   -0.0011   -0.0074
          27   -0.0011   -0.0073   -0.0024   -0.0115    0.0077   -0.0003   -0.0013   -0.0108
          28   -0.0027    0.0079    0.0015    0.0073   -0.0037    0.0002   -0.0003   -0.0044
          29    0.0095   -0.0286   -0.0048   -0.0243    0.0104    0.0006    0.0004    0.0025
          30   -0.0052    0.0120    0.0034    0.0132   -0.0086   -0.0003    0.0006    0.0073
          31   -0.0577    0.0323    0.2472   -0.0878   -0.0583   -0.0798   -0.0007    0.0101
          32   -0.0481    0.0044   -0.0981    0.0027   -0.0017    0.0268    0.0614   -0.0174
          33   -0.0178    0.0014   -0.0129   -0.0033   -0.0043    0.0046    0.0203   -0.0050
          34   -0.0558   -0.0640    0.0171    0.1145    0.1450   -0.1137   -0.0306   -0.0018
          35    0.0412    0.0329   -0.0414   -0.0338   -0.0344    0.0281    0.0589   -0.0151
          36   -0.0121   -0.0045    0.0077    0.0017    0.0004   -0.0016   -0.0165    0.0059
          37   -0.0198   -0.0590    0.0051    0.0103   -0.0681   -0.0459   -0.0728   -0.1048
          38    0.0243    0.0436   -0.0049   -0.0050    0.0528    0.0339    0.0554    0.0848
          39   -0.0251    0.0468   -0.0057   -0.0213    0.0481    0.0102    0.0434    0.1944
          40    0.1142    0.0889    0.0292   -0.0041    0.1051   -0.0146   -0.0755   -0.0026
          41   -0.0312   -0.0882   -0.0169    0.0273   -0.0893   -0.0007    0.0332    0.0318
          42    0.0112   -0.1063   -0.0113    0.0474   -0.0972   -0.0100    0.0177    0.0531
          43    0.0095    0.0115   -0.0477   -0.0096   -0.0133    0.0338   -0.0048    0.0006
          44    0.0206   -0.0483    0.1847    0.0532    0.0620   -0.1237    0.1996   -0.0445
          45    0.0848    0.0269    0.0583   -0.0374   -0.0336    0.0012    0.0008    0.0016
          46    0.0184   -0.0293    0.0054    0.0229   -0.0263   -0.0046    0.0004    0.0661
          47   -0.0698    0.0462   -0.0034   -0.0478    0.0510    0.0100    0.0038   -0.0518
          48    0.0425    0.0125   -0.0083    0.0075    0.0034    0.0035   -0.0064   -0.1308
          49    0.0030    0.0121    0.0040    0.0198   -0.0111    0.0013    0.0028    0.0212
          50   -0.0120   -0.0461   -0.0115   -0.0608    0.0339    0.0006   -0.0018   -0.0177
          51    0.0075    0.0314    0.0035    0.0270   -0.0103   -0.0044   -0.0065   -0.0463
          52   -0.0332    0.0249   -0.0720   -0.0408   -0.0344   -0.1927   -0.1053    0.0220
          53    0.0583   -0.0116    0.0598    0.0346    0.0390    0.1624    0.0564   -0.0051
          54   -0.0191    0.0102    0.0241   -0.0260   -0.0229    0.0057    0.0074   -0.0043
          55   -0.0104   -0.0157    0.0024   -0.0093   -0.0118   -0.0011   -0.0156   -0.0913
          56    0.0368    0.0029    0.0022    0.0428   -0.0258   -0.0045    0.0032    0.0418
          57   -0.0206    0.0129   -0.0039   -0.0274    0.0330    0.0046    0.0196    0.1257
          58   -0.0718   -0.0458    0.1210    0.0284    0.0156    0.2133   -0.1470    0.0118
          59   -0.0304   -0.0199    0.0501    0.0110    0.0045    0.0768   -0.0836    0.0097
          60   -0.0524   -0.0217   -0.0452    0.0325    0.0278   -0.0022   -0.0014   -0.0004
          61    0.0145   -0.0226   -0.0089   -0.0284    0.0218   -0.0001   -0.0048   -0.0455
          62   -0.0452    0.1114    0.0196    0.0905   -0.0400   -0.0020   -0.0015   -0.0111
          63    0.0235   -0.0581   -0.0101   -0.0469    0.0201    0.0007    0.0004    0.0046
          64    0.0121   -0.0333   -0.0033   -0.0221    0.0045    0.0020    0.0011    0.0013
          65   -0.0422    0.0936    0.0166    0.0789   -0.0360   -0.0021   -0.0007   -0.0016
          66    0.0225   -0.0418   -0.0106   -0.0426    0.0258   -0.0007   -0.0013   -0.0033


   Root No.      33        34        35        36        37        38        39        40

                33 A      34 A      35 A      36 A      37 A      38 A      39 A      40 A   

                1170.4    1204.9    1215.1    1237.5    1265.9    1280.9    1330.6    1363.5
  
           1   -0.0018    0.0303   -0.0002   -0.0047    0.0239   -0.0153    0.0433   -0.0280
           2   -0.0037   -0.0049   -0.0049    0.0087   -0.0191    0.0070   -0.0031    0.0559
           3   -0.0013    0.0001   -0.0010    0.0008   -0.0009   -0.0002    0.0007    0.0005
           4    0.0028   -0.0076   -0.0020   -0.0086   -0.0021    0.0056   -0.0271    0.0037
           5   -0.0144   -0.0050   -0.0180    0.0092   -0.0087   -0.0071    0.0245   -0.0006
           6   -0.0039    0.0025   -0.0224    0.0074   -0.0185   -0.0014    0.0252    0.0069
           7   -0.0010    0.0138    0.0056   -0.0120    0.0323   -0.0116   -0.0121    0.0158
           8    0.0013    0.0209    0.0003   -0.0014   -0.0008    0.0022   -0.0067    0.0070
           9    0.0058   -0.0005    0.0044   -0.0043    0.0049    0.0018   -0.0056   -0.0006
          10   -0.0043    0.0017   -0.0056    0.0112   -0.0296    0.0145   -0.0215    0.0244
          11    0.0017   -0.0215    0.0042   -0.0064    0.0219   -0.0126    0.0192   -0.0146
          12    0.0006   -0.0002    0.0004   -0.0003    0.0000   -0.0001    0.0001   -0.0002
          13    0.0111    0.0012    0.0202    0.0095    0.0098    0.0223   -0.0084   -0.0065
          14   -0.0026   -0.0008    0.0149    0.0099    0.0174    0.0080   -0.0138   -0.0008
          15   -0.0231   -0.0014    0.0102    0.0177    0.0258   -0.0009   -0.0147    0.0017
          16    0.0044   -0.0236    0.0059   -0.0093    0.0246   -0.0109    0.0077   -0.0294
          17    0.0051    0.0113    0.0007   -0.0031   -0.0054    0.0063   -0.0093   -0.0048
          18   -0.0014    0.0002   -0.0015    0.0009   -0.0013   -0.0003    0.0012    0.0002
          19   -0.0021   -0.0150   -0.0039    0.0071   -0.0149    0.0033    0.0086    0.0139
          20    0.0031   -0.0124    0.0040   -0.0052    0.0109   -0.0039   -0.0014   -0.0108
          21    0.0001    0.0001   -0.0001   -0.0001    0.0002    0.0000    0.0000   -0.0000
          22    0.0130    0.0027    0.0118   -0.0072   -0.0239   -0.0138    0.0181    0.0022
          23   -0.0134    0.0008    0.0066   -0.0059   -0.0131   -0.0264    0.0080    0.0054
          24   -0.0294    0.0000    0.0080   -0.0082   -0.0111   -0.0417    0.0031    0.0093
          25    0.0059   -0.0012   -0.0075   -0.0038    0.0064    0.0315    0.0081    0.0010
          26    0.0011   -0.0020   -0.0086   -0.0113    0.0060    0.0280   -0.0052   -0.0054
          27   -0.0016   -0.0031   -0.0124   -0.0198    0.0078    0.0364   -0.0148   -0.0111
          28    0.0100    0.0009   -0.0079    0.0128    0.0009   -0.0178    0.0084    0.0079
          29    0.0074    0.0008   -0.0013    0.0061   -0.0013   -0.0086    0.0018    0.0014
          30    0.0090    0.0011    0.0020    0.0048   -0.0029   -0.0067   -0.0012   -0.0016
          31    0.0117   -0.1231    0.0021    0.0159   -0.0596    0.0323   -0.0616    0.0082
          32   -0.0129    0.0307   -0.0175    0.0309   -0.0751    0.0353   -0.0319   -0.1704
          33   -0.0052    0.0049   -0.0087    0.0174   -0.0469    0.0240   -0.0306   -0.1429
          34    0.0145   -0.1247    0.0023    0.0157   -0.0746    0.0276   -0.0532    0.0074
          35   -0.0177    0.0315   -0.0208    0.0335   -0.0769    0.0350   -0.0303   -0.1721
          36    0.0056   -0.0038    0.0088   -0.0175    0.0484   -0.0232    0.0295    0.1411
          37   -0.0652   -0.0306    0.0063    0.0971   -0.0654    0.0086    0.0700   -0.0183
          38    0.0447    0.0242   -0.0061   -0.0732    0.0657   -0.0097   -0.0671    0.0444
          39    0.0358   -0.0016   -0.0680   -0.0731   -0.0262   -0.0005   -0.0163   -0.0473
          40   -0.0445    0.0284   -0.0324    0.0427   -0.0601    0.0000    0.0638   -0.0423
          41    0.0459   -0.0137    0.0204   -0.0280    0.0042    0.0142   -0.0240   -0.0292
          42    0.0608   -0.0063    0.0174   -0.0313   -0.0112    0.0227   -0.0216   -0.0336
          43   -0.0019   -0.0241   -0.0036    0.0096   -0.0254    0.0115   -0.0174    0.0235
          44   -0.0169    0.1570   -0.0129    0.0105   -0.0219    0.0134   -0.0114    0.0061
          45   -0.0017    0.0012   -0.0014    0.0010   -0.0006   -0.0001    0.0010    0.0000
          46   -0.1378   -0.0071   -0.0810    0.0989    0.1017    0.0417   -0.0476   -0.0021
          47    0.0427    0.0019    0.0493   -0.0193   -0.0173   -0.0013    0.0056   -0.0035
          48    0.1729    0.0094    0.1471   -0.0964   -0.0884   -0.0202    0.0279   -0.0034
          49   -0.1702   -0.0041    0.1112   -0.0998   -0.0245    0.0755   -0.0002   -0.0112
          50    0.0642   -0.0010   -0.0517    0.0213    0.0169    0.0150   -0.0021   -0.0015
          51    0.2204    0.0002   -0.1621    0.0982    0.0465   -0.0147   -0.0038    0.0039
          52    0.0072    0.1247    0.0007   -0.0121    0.0004    0.0111   -0.0307    0.0131
          53    0.0033   -0.1319    0.0064   -0.0020    0.0205   -0.0155    0.0268   -0.0492
          54    0.0048   -0.0013    0.0051   -0.0030    0.0039    0.0011   -0.0042   -0.0008
          55   -0.0449   -0.0105   -0.1472   -0.1236   -0.0446   -0.0438    0.0267    0.0142
          56    0.0138    0.0056    0.0694    0.0334   -0.0073   -0.0152    0.0037    0.0018
          57    0.0362    0.0167    0.2077    0.1390    0.0119   -0.0067   -0.0019   -0.0050
          58    0.0032    0.1331   -0.0108    0.0107   -0.0531    0.0345   -0.0476    0.0182
          59    0.0058    0.0504    0.0016   -0.0046   -0.0033    0.0086   -0.0255   -0.0117
          60   -0.0003   -0.0001    0.0002    0.0000    0.0002    0.0000   -0.0002   -0.0001
          61   -0.0404   -0.0054   -0.0327   -0.0277   -0.0043   -0.1329   -0.1319   -0.0509
          62   -0.0079   -0.0013   -0.0098   -0.0073   -0.0026   -0.0435   -0.0428   -0.0174
          63    0.0068    0.0005   -0.0004    0.0013   -0.0025   -0.0069   -0.0073   -0.0048
          64    0.0141    0.0042   -0.0103    0.0322   -0.0157   -0.1605   -0.0691   -0.0195
          65    0.0064   -0.0007   -0.0024   -0.0021    0.0056    0.0464    0.0310    0.0119
          66    0.0028   -0.0037    0.0013   -0.0226    0.0193    0.1804    0.0987    0.0339


   Root No.      41        42        43        44        45        46        47        48

                41 A      42 A      43 A      44 A      45 A      46 A      47 A      48 A   

                1368.2    1388.1    1414.0    1461.9    1747.4    1826.5    1839.0    1884.1
  
           1    0.0209   -0.0126    0.0056   -0.0617    0.0035    0.0074   -0.0002   -0.0002
           2    0.0189    0.0047   -0.0318   -0.0275   -0.0115   -0.0026    0.0002    0.0001
           3   -0.0000   -0.0005   -0.0005    0.0005   -0.0002   -0.0002   -0.0000    0.0000
           4   -0.0139   -0.0047    0.0129   -0.0851    0.0224    0.0397    0.0068    0.0094
           5    0.0037   -0.0104   -0.0207    0.0396   -0.0150   -0.0299   -0.0053   -0.0068
           6   -0.0108   -0.0524   -0.0202    0.0212   -0.0022   -0.0047   -0.0151   -0.0187
           7   -0.0187    0.0096    0.0128    0.1218   -0.0482   -0.0746    0.0033    0.0033
           8   -0.0030   -0.0005    0.0246    0.0387    0.0667    0.1934   -0.0100   -0.0078
           9    0.0006    0.0039    0.0023   -0.0038    0.0013    0.0026   -0.0011   -0.0019
          10   -0.0032    0.0084   -0.0254    0.0097    0.0880   -0.0145    0.0005    0.0001
          11    0.0035   -0.0096    0.0418    0.0139    0.1801   -0.0526    0.0022    0.0009
          12    0.0000    0.0001    0.0003   -0.0000    0.0007   -0.0002    0.0000    0.0000
          13    0.0164   -0.0107   -0.0032    0.0077   -0.0005   -0.0084   -0.0801   -0.1373
          14    0.0008    0.0099    0.0069   -0.0101    0.0003    0.0007    0.0065    0.0062
          15   -0.0062    0.0259    0.0123   -0.0142    0.0008    0.0066    0.0586    0.0907
          16   -0.0098    0.0115   -0.0859   -0.0056    0.0161    0.0346   -0.0020   -0.0015
          17    0.0003   -0.0026    0.0176   -0.0477   -0.0364   -0.1634    0.0085    0.0061
          18   -0.0002   -0.0012   -0.0003    0.0006   -0.0004   -0.0012    0.0000    0.0000
          19    0.0140   -0.0178    0.0920   -0.0095   -0.1054    0.0342   -0.0013   -0.0006
          20   -0.0066    0.0040   -0.0195    0.0034   -0.1657    0.0540   -0.0023   -0.0010
          21   -0.0001   -0.0002   -0.0004    0.0002   -0.0006    0.0002   -0.0000   -0.0000
          22   -0.0037   -0.0099   -0.0071    0.0129   -0.0003    0.0072    0.0643    0.1466
          23   -0.0138    0.0121    0.0039   -0.0065    0.0001    0.0001    0.0054   -0.0136
          24   -0.0249    0.0285    0.0124   -0.0227    0.0008   -0.0035   -0.0273   -0.1114
          25   -0.0016   -0.0002   -0.0009    0.0033   -0.0005    0.0048    0.1384   -0.0837
          26    0.0138   -0.0134   -0.0049    0.0075   -0.0002   -0.0001   -0.0047    0.0138
          27    0.0276   -0.0259   -0.0088    0.0121    0.0001   -0.0026   -0.0872    0.0737
          28   -0.0201    0.0219    0.0083   -0.0122    0.0005   -0.0050   -0.1336    0.0646
          29   -0.0036    0.0031    0.0010   -0.0014    0.0000   -0.0001   -0.0049    0.0035
          30    0.0043   -0.0062   -0.0027    0.0043   -0.0002    0.0026    0.0660   -0.0298
          31   -0.0301    0.0125   -0.0035    0.0385    0.0161   -0.0384    0.0016    0.0009
          32   -0.0608   -0.0043    0.0315    0.0120   -0.0138    0.0034   -0.0002   -0.0003
          33   -0.0579   -0.0034    0.0385    0.0355   -0.0058   -0.0042    0.0000   -0.0000
          34   -0.0306    0.0095   -0.0058    0.0436    0.0165   -0.0392    0.0022    0.0018
          35   -0.0618   -0.0057    0.0312    0.0134   -0.0140    0.0030   -0.0001   -0.0002
          36    0.0574    0.0035   -0.0379   -0.0363    0.0058    0.0047   -0.0003   -0.0003
          37    0.0456   -0.0064   -0.0415    0.0102   -0.0073   -0.0215   -0.0122   -0.0197
          38   -0.1022   -0.0987    0.0184   -0.0557    0.0171    0.0372    0.0030    0.0068
          39    0.0971    0.1872    0.0363    0.0104    0.0022    0.0061    0.0137    0.0214
          40    0.1098    0.1298    0.0122    0.1293    0.0026    0.0196   -0.0041   -0.0055
          41    0.0578    0.1079    0.0185   -0.0021   -0.0070   -0.0148    0.0003   -0.0031
          42    0.0698    0.1080    0.0263   -0.0074    0.0026    0.0039   -0.0051   -0.0070
          43   -0.0018    0.0036    0.0001    0.0164    0.1545   -0.0311    0.0012    0.0003
          44   -0.0002    0.0219   -0.1271   -0.0372   -0.0335    0.0087   -0.0003   -0.0001
[...]
 T-DIPOLE    0.2254         C  1 -- C  4         +10.1% ( 44.4%)     74.9%
 TRAVEL      0.0877         C  2 -- C  5          +9.5% ( 42.9%)     87.4%
 RED. MASS   0.7435         C  2 -- H 14          +8.3% ( 40.3%)      0.0%
 EFF. MASS   6.5817

 VIBRATION   40   40A         ATOM PAIR      ENERGY CONTRIBUTION    RADIAL
 FREQ.      1363.48         C  1 -- H 12         +20.8% ( 59.0%)      4.7%
 T-DIPOLE    0.3122         C  1 -- H 11         +20.7% ( 59.0%)      4.6%
 TRAVEL      0.0951         C  1 -- C  4         +16.0% ( 51.8%)     99.4%
 RED. MASS   0.8884         C  1 -- C  3         +10.8% ( 42.6%)      5.5%
 EFF. MASS   5.4709

 VIBRATION   41   41A         ATOM PAIR      ENERGY CONTRIBUTION    RADIAL
 FREQ.      1368.18         C  8 -- C  9         +12.2% ( 42.9%)     94.5%
 T-DIPOLE    0.1557         C 10 -- H 21          +8.9% ( 36.6%)      0.9%
 TRAVEL      0.0988         C  2 -- H 13          +8.6% ( 35.9%)      3.4%
 RED. MASS   0.3213         C  2 -- H 14          +8.0% ( 34.7%)      3.0%
 EFF. MASS   5.0531

 VIBRATION   42   42A         ATOM PAIR      ENERGY CONTRIBUTION    RADIAL
 FREQ.      1388.14         C  2 -- H 13         +17.7% ( 54.2%)      4.4%
 T-DIPOLE    0.0757         C  2 -- H 14         +16.0% ( 51.4%)      5.6%
 TRAVEL      0.0918         C  2 -- C  5         +13.5% ( 47.3%)     95.9%
 RED. MASS   0.6365         C  8 -- C  9          +8.9% ( 38.3%)     99.9%
 EFF. MASS   5.7639

 VIBRATION   43   43A         ATOM PAIR      ENERGY CONTRIBUTION    RADIAL
 FREQ.      1414.02         C  6 -- C  7         +24.1% ( 81.3%)     99.9%
 T-DIPOLE    0.3751         C  4 -- C  7         +10.9% ( 54.8%)      0.1%
 TRAVEL      0.0678         C  4 -- C  6         +10.0% ( 52.5%)     99.9%
 RED. MASS   2.4656         C  3 -- C  7          +9.9% ( 52.1%)     93.2%
 EFF. MASS  10.3807

 VIBRATION   44   44A         ATOM PAIR      ENERGY CONTRIBUTION    RADIAL
 FREQ.      1461.93         C  2 -- C  3         +21.1% ( 76.6%)     76.1%
 T-DIPOLE    0.4461         C  1 -- C  3         +17.0% ( 68.6%)     97.8%
 TRAVEL      0.0644         C  3 -- C  6         +13.8% ( 61.8%)     18.3%
 RED. MASS   3.2655         C  3 -- C  7         +10.4% ( 53.8%)     26.2%
 EFF. MASS  11.1194

 VIBRATION   45   45A         ATOM PAIR      ENERGY CONTRIBUTION    RADIAL
 FREQ.      1747.41         C  4 -- C  7         +32.4% ( 96.3%)    100.0%
 T-DIPOLE    0.4072         C  3 -- C  7         +11.3% ( 56.9%)     25.5%
 TRAVEL      0.0568         C  4 -- C  6         +10.2% ( 53.9%)     44.6%
 RED. MASS   4.4388         C  1 -- C  4         +10.1% ( 53.8%)     18.2%
 EFF. MASS  11.9500

 VIBRATION   46   46A         ATOM PAIR      ENERGY CONTRIBUTION    RADIAL
 FREQ.      1826.46         C  3 -- C  6         +30.6% ( 92.0%)     98.0%
 T-DIPOLE    0.2107         C  2 -- C  3         +13.9% ( 62.0%)     68.4%
 TRAVEL      0.0559         C  3 -- C  7         +13.2% ( 60.4%)     98.1%
 RED. MASS   4.5934         C  1 -- C  3         +12.1% ( 57.8%)      0.9%
 EFF. MASS  11.8104

 VIBRATION   47   47A         ATOM PAIR      ENERGY CONTRIBUTION    RADIAL
 FREQ.      1838.99         C  9 -- C 10         +35.8% ( 88.3%)     99.2%
 T-DIPOLE    0.0768         C  8 -- C  9         +12.5% ( 52.2%)     56.5%
 TRAVEL      0.0556         C  9 -- H 17         +11.6% ( 50.3%)      4.8%
 RED. MASS   3.4794         C  5 -- C  8         +10.2% ( 47.2%)     98.6%
 EFF. MASS  11.8426

 VIBRATION   48   48A         ATOM PAIR      ENERGY CONTRIBUTION    RADIAL
 FREQ.      1884.06         C  5 -- C  8         +33.5% ( 85.9%)     95.4%
 T-DIPOLE    0.3962         C  8 -- C  9         +18.5% ( 63.8%)     55.6%
 TRAVEL      0.0551         C  8 -- H 19         +11.7% ( 50.8%)      2.4%
 RED. MASS   3.7004         C  2 -- C  5          +9.6% ( 46.0%)     52.4%
 EFF. MASS  11.7825

 VIBRATION   49   49A         ATOM PAIR      ENERGY CONTRIBUTION    RADIAL
 FREQ.      2936.25         C  2 -- H 14         +57.4% ( 78.6%)     97.3%
 T-DIPOLE    0.0514         C  2 -- H 13         +40.1% ( 65.8%)     95.4%
 TRAVEL      0.1218         C  2 -- C  5          +1.2% ( 11.3%)      0.0%
 RED. MASS   0.5332         C  2 -- C  3          +1.2% ( 11.2%)      0.1%
 EFF. MASS   1.5477

 VIBRATION   50   50A         ATOM PAIR      ENERGY CONTRIBUTION    RADIAL
 FREQ.      2981.15         C  1 -- H 12         +54.0% ( 76.1%)     97.4%
 T-DIPOLE    0.1567         C  1 -- H 11         +43.8% ( 68.5%)     96.2%
 TRAVEL      0.1215         C  1 -- C  4          +1.1% ( 10.7%)      0.1%
 RED. MASS   0.5218         C  1 -- C  3          +1.1% ( 10.7%)      0.1%
 EFF. MASS   1.5317

 VIBRATION   51   51A         ATOM PAIR      ENERGY CONTRIBUTION    RADIAL
 FREQ.      3010.18         C  2 -- H 13         +57.9% ( 75.1%)     98.5%
 T-DIPOLE    0.0673         C  2 -- H 14         +39.7% ( 62.2%)     96.3%
 TRAVEL      0.1321         C  5 -- H 16          +0.8% (  9.0%)     99.5%
 RED. MASS   0.4885         C  2 -- C  5          +0.7% (  8.2%)     29.0%
 EFF. MASS   1.2841

 VIBRATION   52   52A         ATOM PAIR      ENERGY CONTRIBUTION    RADIAL
 FREQ.      3029.16         C  8 -- H 19         +74.3% ( 87.6%)    100.0%
 T-DIPOLE    0.1150         C  9 -- H 17         +22.3% ( 48.0%)    100.0%
 TRAVEL      0.1206         C  8 -- C  9          +1.6% ( 12.9%)     17.3%
 RED. MASS   0.5966         C  5 -- C  8          +1.2% ( 11.0%)     37.1%
 EFF. MASS   1.5313

 VIBRATION   53   53A         ATOM PAIR      ENERGY CONTRIBUTION    RADIAL
 FREQ.      3034.94         C  5 -- H 16         +86.2% ( 94.0%)    100.0%
 T-DIPOLE    0.3732         C  9 -- H 17          +7.6% ( 27.8%)    100.0%
 TRAVEL      0.1224         C  8 -- H 19          +2.2% ( 15.1%)     99.4%
 RED. MASS   0.7316         C  2 -- C  5          +1.2% ( 10.9%)     15.2%
 EFF. MASS   1.4836

 VIBRATION   54   54A         ATOM PAIR      ENERGY CONTRIBUTION    RADIAL
 FREQ.      3038.66         C  9 -- H 17         +66.6% ( 82.7%)    100.0%
 T-DIPOLE    0.2021         C  8 -- H 19         +20.1% ( 45.4%)    100.0%
 TRAVEL      0.1208         C  5 -- H 16          +9.5% ( 31.2%)     99.9%
 RED. MASS   0.4855         C  8 -- C  9          +1.1% ( 10.6%)     23.3%
 EFF. MASS   1.5197

 VIBRATION   55   55A         ATOM PAIR      ENERGY CONTRIBUTION    RADIAL
 FREQ.      3048.73         C  1 -- H 11         +54.1% ( 72.7%)     97.9%
 T-DIPOLE    0.2534         C  1 -- H 12         +43.4% ( 65.2%)     96.5%
 TRAVEL      0.1310         C  5 -- H 16          +0.9% (  9.3%)    100.0%
 RED. MASS   0.4796         C  1 -- C  3          +0.7% (  8.4%)     37.7%
 EFF. MASS   1.2896

 VIBRATION   56   56A         ATOM PAIR      ENERGY CONTRIBUTION    RADIAL
 FREQ.      3133.20         C  7 -- H 20         +58.3% ( 78.3%)    100.0%
 T-DIPOLE    0.1670         C  6 -- H 18         +20.5% ( 46.5%)    100.0%
 TRAVEL      0.1197         C  4 -- H 15         +16.7% ( 41.9%)    100.0%
 RED. MASS   0.4179         C  6 -- C  7          +1.3% ( 11.6%)      2.5%
 EFF. MASS   1.5023

 VIBRATION   57   57A         ATOM PAIR      ENERGY CONTRIBUTION    RADIAL
 FREQ.      3136.73         C 10 -- H 22         +94.4% ( 98.7%)     99.9%
 T-DIPOLE    0.2199         C 10 -- H 21          +4.3% ( 21.0%)     60.4%
 TRAVEL      0.1188         C  9 -- C 10          +1.3% ( 11.7%)     27.1%
 RED. MASS   0.8894
 EFF. MASS   1.5244

 VIBRATION   58   58A         ATOM PAIR      ENERGY CONTRIBUTION    RADIAL
 FREQ.      3137.88         C  6 -- H 18         +67.9% ( 84.5%)    100.0%
 T-DIPOLE    0.5140         C  4 -- H 15         +21.2% ( 47.2%)    100.0%
 TRAVEL      0.1184         C  7 -- H 20          +6.0% ( 25.1%)     99.9%
 RED. MASS   0.5251         C  4 -- C  6          +1.4% ( 12.2%)     34.2%
 EFF. MASS   1.5342

 VIBRATION   59   59A         ATOM PAIR      ENERGY CONTRIBUTION    RADIAL
 FREQ.      3147.95         C 10 -- H 21         +94.2% ( 97.9%)     99.8%
 T-DIPOLE    0.3056         C 10 -- H 22          +3.5% ( 18.8%)     20.0%
 TRAVEL      0.1206         C  9 -- C 10          +1.5% ( 12.5%)     66.1%
 RED. MASS   0.8615         C  9 -- H 17          +0.7% (  8.3%)     94.8%
 EFF. MASS   1.4734

 VIBRATION   60   60A         ATOM PAIR      ENERGY CONTRIBUTION    RADIAL
 FREQ.      3153.65         C  4 -- H 15         +56.7% ( 77.5%)    100.0%
 T-DIPOLE    0.4269         C  7 -- H 20         +30.5% ( 56.8%)     99.9%
 TRAVEL      0.1135         C  6 -- H 18          +6.4% ( 26.1%)    100.0%
 RED. MASS   0.4450         C  4 -- C  7          +2.2% ( 15.4%)     98.0%
 EFF. MASS   1.6586

      SYMMETRY NUMBER FOR POINT-GROUP C1  =  1


          SYSTEM IS A GROUND STATE



 InChI=1S/C10H12/c1-2-3-4-7-10-8-5-6-9-10/h2-6,8H,1,7,9H2


          MOLECULE IS NOT LINEAR

          THERE ARE 60 GENUINE VIBRATIONS IN THIS SYSTEM
          THIS THERMODYNAMICS CALCULATION IS LIMITED TO
          MOLECULES WHICH HAVE NO INTERNAL ROTATIONS




                    CALCULATED THERMODYNAMIC PROPERTIES
                                          *
   TEMP. (K)   PARTITION FUNCTION   H.O.F.    ENTHALPY  HEAT CAPACITY ENTROPY
                                   KCAL/MOL   CAL/MOLE    CAL/K/MOL  CAL/K/MOL


 298.00  VIB.     0.6269D+03                  4399.6597    31.1793    27.5633
         ROT.     0.8581D+06                   888.2813     2.9808    30.1310
         INT.     0.5380D+09                  5287.9410    34.1601    57.6943
         TRA.     0.1470D+28                  1480.4688     4.9680    40.5480
         TOT.                       56.305    6768.4098    39.1281    98.2422

 200.00  VIB.     0.5651D+02                  1931.5519    19.5028    17.6749
         ROT.     0.4718D+06                   596.1620     2.9808    28.9423
         INT.     0.2666D+08                  2527.7139    22.4837    46.6172
         TRA.     0.8080D+27                   993.6033     4.9680    38.5668
         TOT.                       53.058    3521.3171    27.4517    85.1840

 210.00  VIB.     0.7206D+02                  2131.9918    20.5904    18.6526
         ROT.     0.5076D+06                   625.9700     2.9808    29.0878
         INT.     0.3658D+08                  2757.9619    23.5712    47.7404
         TRA.     0.8694D+27                  1043.2834     4.9680    38.8092
         TOT.                       53.338    3801.2453    28.5392    86.5496

 220.00  VIB.     0.9192D+02                  2343.4626    21.7088    19.6362
         ROT.     0.5443D+06                   655.7781     2.9808    29.2264
         INT.     0.5004D+08                  2999.2408    24.6896    48.8626
         TRA.     0.9322D+27                  1092.9636     4.9680    39.0403
         TOT.                       53.629    4092.2043    29.6576    87.9029

 230.00  VIB.     0.1173D+03                  2566.2635    22.8560    20.6264
         ROT.     0.5819D+06                   685.5862     2.9808    29.3589
         INT.     0.6826D+08                  3251.8498    25.8368    49.9853
         TRA.     0.9965D+27                  1142.6437     4.9680    39.2612
         TOT.                       53.931    4394.4935    30.8049    89.2465

 240.00  VIB.     0.1498D+03                  2800.6708    24.0296    21.6238
         ROT.     0.6202D+06                   715.3943     2.9808    29.4858
         INT.     0.9290D+08                  3516.0652    27.0104    51.1096
         TRA.     0.1062D+28                  1192.3239     4.9680    39.4726
         TOT.                       54.245    4708.3891    31.9784    90.5822

 250.00  VIB.     0.1914D+03                  3046.9317    25.2262    22.6289
         ROT.     0.6594D+06                   745.2024     2.9808    29.6075
         INT.     0.1262D+09                  3792.1342    28.2070    52.2364
         TRA.     0.1129D+28                  1242.0041     4.9680    39.6754
         TOT.                       54.571    5034.1382    33.1750    91.9118

 260.00  VIB.     0.2447D+03                  3305.2604    26.4425    23.6420
         ROT.     0.6993D+06                   775.0105     2.9808    29.7244
         INT.     0.1711D+09                  4080.2709    29.4233    53.3664
         TRA.     0.1198D+28                  1291.6842     4.9680    39.8703
         TOT.                       54.909    5371.9551    34.3913    93.2366

 270.00  VIB.     0.3130D+03                  3575.8352    27.6748    24.6630
         ROT.     0.7401D+06                   804.8186     2.9808    29.8369
         INT.     0.2317D+09                  4380.6539    30.6556    54.4999
         TRA.     0.1267D+28                  1341.3644     4.9680    40.0578
         TOT.                       55.259    5722.0182    35.6236    94.5576

 280.00  VIB.     0.4008D+03                  3858.7979    28.9195    25.6919
         ROT.     0.7816D+06                   834.6267     2.9808    29.9453
         INT.     0.3133D+09                  4693.4246    31.9003    55.6372
         TRA.     0.1338D+28                  1391.0445     4.9680    40.2384
         TOT.                       55.621    6084.4692    36.8683    95.8756

 290.00  VIB.     0.5137D+03                  4154.2532    30.1728    26.7286
         ROT.     0.8238D+06                   864.4348     2.9808    30.0499
         INT.     0.4232D+09                  5018.6881    33.1536    56.7785
         TRA.     0.1411D+28                  1440.7247     4.9680    40.4128
         TOT.                       55.996    6459.4128    38.1216    97.1912

 300.00  VIB.     0.6590D+03                  4462.2702    31.4312    27.7727
         ROT.     0.8668D+06                   894.2429     2.9808    30.1509
         INT.     0.5712D+09                  5356.5131    34.4120    57.9236
         TRA.     0.1484D+28                  1490.4049     4.9680    40.5812
         TOT.                       56.384    6846.9180    39.3800    98.5048

 310.00  VIB.     0.8462D+03                  4782.8833    32.6915    28.8238
         ROT.     0.9105D+06                   924.0510     2.9808    30.2487
         INT.     0.7704D+09                  5706.9343    35.6723    59.0725
         TRA.     0.1559D+28                  1540.0850     4.9680    40.7441
         TOT.                       56.784    7247.0194    40.6403    99.8166

 320.00  VIB.     0.1088D+04                  5116.0950    33.9504    29.8816
         ROT.     0.9549D+06                   953.8591     2.9808    30.3433
         INT.     0.1038D+10                  6069.9542    36.9312    60.2250
         TRA.     0.1635D+28                  1589.7652     4.9680    40.9018
         TOT.                       57.197    7659.7194    41.8992   101.1268

 330.00  VIB.     0.1399D+04                  5461.8779    35.2052    30.9456
         ROT.     0.1000D+07                   983.6672     2.9808    30.4350
         INT.     0.1399D+10                  6445.5451    38.1860    61.3806
         TRA.     0.1713D+28                  1639.4454     4.9680    41.0547
         TOT.                       57.622    8084.9905    43.1541   102.4353

 340.00  VIB.     0.1802D+04                  5820.1772    36.4533    32.0151
         ROT.     0.1046D+07                  1013.4753     2.9808    30.5240
         INT.     0.1884D+10                  6833.6525    39.4341    62.5391
         TRA.     0.1791D+28                  1689.1255     4.9680    41.2030
         TOT.                       58.060    8522.7780    44.4021   103.7422

 350.00  VIB.     0.2322D+04                  6190.9136    37.6923    33.0897
         ROT.     0.1092D+07                  1043.2834     2.9808    30.6104
         INT.     0.2536D+10                  7234.1971    40.6731    63.7001
         TRA.     0.1871D+28                  1738.8057     4.9680    41.3470
         TOT.                       58.510    8973.0027    45.6411   105.0472

 360.00  VIB.     0.2996D+04                  6573.9863    38.9202    34.1688
         ROT.     0.1139D+07                  1073.0915     2.9808    30.6944
         INT.     0.3414D+10                  7647.0778    41.9010    64.8632
         TRA.     0.1951D+28                  1788.4859     4.9680    41.4870
         TOT.                       58.972    9435.5637    46.8690   106.3502

 370.00  VIB.     0.3869D+04                  6969.2751    40.1352    35.2517
         ROT.     0.1187D+07                  1102.8996     2.9808    30.7761
         INT.     0.4593D+10                  8072.1747    43.1161    66.0278
         TRA.     0.2033D+28                  1838.1660     4.9680    41.6231
         TOT.                       59.447    9910.3407    48.0841   107.6509

 380.00  VIB.     0.5001D+04                  7376.6432    41.3359    36.3380
         ROT.     0.1236D+07                  1132.7077     2.9808    30.8556
         INT.     0.6180D+10                  8509.3509    44.3167    67.1936
         TRA.     0.2116D+28                  1887.8462     4.9680    41.7556
         TOT.                       59.934   10397.1971    49.2847   108.9492

 390.00  VIB.     0.6470D+04                  7795.9399    42.5208    37.4271
         ROT.     0.1285D+07                  1162.5158     2.9808    30.9330
         INT.     0.8312D+10                  8958.4557    45.5016    68.3601
         TRA.     0.2200D+28                  1937.5263     4.9680    41.8846
         TOT.                       60.433   10895.9821    50.4696   110.2448

 400.00  VIB.     0.8377D+04                  8227.0025    43.6889    38.5184
         ROT.     0.1334D+07                  1192.3239     2.9808    31.0085
         INT.     0.1118D+11                  9419.3264    46.6697    69.5269
         TRA.     0.2285D+28                  1987.2065     4.9680    42.0104
         TOT.                       60.943   11406.5329    51.6377   111.5373

   *: NOTE: HEATS OF FORMATION ARE RELATIVE TO THE
            ELEMENTS IN THEIR STANDARD STATE AT 298K
              (=  Standard Enthalpy of Formation).

            Hvib:  Zero-point energy is not included.
                   frequencies of less than zero cm-1 are not included.
            Hrot = (3/2)RT
            Htra = (3/2)RT + pV = (5/2)RT

            Heat capacity is Cp, not Cv

          For more information, see: HTTP://OpenMOPAC.net/Manual/thermochemistry.html


           FORCE CONSTANT IN CARTESIAN COORDINATES (Millidynes/A)

    ATOM   CHEMICAL       X               Y               Z
   NUMBER   SYMBOL  FORCE CONSTANT  FORCE CONSTANT  FORCE CONSTANT

      1       C        7.687276        9.977653        7.808335
      2       C        9.184283        8.494624        8.414165
      3       C       11.118463       13.901815        2.839133
      4       C       12.769623       11.664326        2.331213
      5       C       13.617734        4.229500        9.090235
      6       C       10.613405       14.580604        2.213812
      7       C       10.150076       15.043853        2.218053
      8       C       13.607309        4.289438        9.688527
      9       C       13.813556        4.222885        9.497542
     10       C       13.625445        3.833926        8.899307
     11       H        0.660338        2.079856        3.536742
     12       H        0.673898        2.025806        3.563376
     13       H        2.903613        2.392492        1.041124
     14       H        0.660759        3.020542        2.473884
     15       H        5.334299        0.795485        0.335674
     16       H        3.212549        1.394428        1.616920
     17       H        3.185788        1.396587        1.636700
     18       H        2.960691        3.138690        0.349951
     19       H        3.175766        1.426159        1.613248
     20       H        1.427537        4.678903        0.352356
     21       H        0.852561        1.218146        4.410680
     22       H        3.543166        1.413481        1.514760

 **********************
 *                    *
 * JOB ENDED NORMALLY *
 *                    *
 **********************



 TOTAL JOB TIME:             3.11 SECONDS

 == MOPAC DONE ==
