 *******************************************************************************
 ** Site#: 14399        For non-commercial use only    Version 18.184L 64BITS **
 *******************************************************************************
 ** Cite this program as: MOPAC2016, Version: 18.184L, James J. P. Stewart,   **
 ** Stewart Computational Chemistry, web: HTTP://OpenMOPAC.net. Days left:  18**
 *******************************************************************************
 **                                                                           **
 **                                MOPAC2016                                  **
 **                                                                           **
 *******************************************************************************

                              PM3 CALCULATION RESULTS

 *******************************************************************************
 *  CALCULATION DONE:                                Sat Jun 15 15:11:19 2019  *
 *  PM3        - The PM3 Hamiltonian to be used
 *  PRECISE    - CRITERIA TO BE INCREASED BY 100 TIMES
 *  NOSYM      - POINT-GROUP SYMMETRY SET TO C1
 *  THREADS=1  - MULTI-THREADING NOT USED
 *  T=         - A TIME OF 172800.0 SECONDS REQUESTED
 *  DUMP=N     - RESTART FILE WRITTEN EVERY  7200.000 SECONDS
 *******************************************************************************
pm3  precise nosym THREADS=1
 InChI=1S/C7H12/c1-4-7(3)5-6(7)2/h4,6H,1,5H2,2-3H3

   ATOM   CHEMICAL          X               Y               Z
  NUMBER   SYMBOL      (ANGSTROMS)     (ANGSTROMS)     (ANGSTROMS)
 
     1       C          0.27000000  *  -0.40690000  *  -0.08600000  *
     2       C         -1.24610000  *  -0.44500000  *   0.13050000  *
     3       C         -0.30810000  *  -0.26430000  *   1.32320000  *
     4       C          0.95110000  *  -1.74330000  *  -0.38950000  *
     5       C         -2.06330000  *   0.79910000  *  -0.23580000  *
     6       C          0.88440000  *   0.84070000  *  -0.66860000  *
     7       C          1.95260000  *   1.41620000  *  -0.11120000  *
     8       H         -1.73340000  *  -1.44210000  *   0.07230000  *
     9       H         -0.22750000  *  -1.16520000  *   1.96830000  *
    10       H         -0.27310000  *   0.75900000  *   1.75620000  *
    11       H          0.97490000  *  -1.90330000  *  -1.48770000  *
    12       H          0.41770000  *  -2.59800000  *   0.07960000  *
    13       H         -1.55520000  *   1.74830000  *   0.03780000  *
    14       H         -3.03670000  *   0.76070000  *   0.29550000  *
    15       H          1.99310000  *  -1.72460000  *  -0.00690000  *
    16       H         -2.25690000  *   0.79810000  *  -1.32850000  *
    17       H          0.46990000  *   1.25930000  *  -1.58060000  *
    18       H          2.39950000  *   1.00710000  *   0.79000000  *
    19       H          2.38680000  *   2.30410000  *  -0.55880000  *
 


          CARTESIAN COORDINATES 

    NO.       ATOM           X           Y           Z

     1         C          0.2700     -0.4069     -0.0860
     2         C         -1.2461     -0.4450      0.1305
     3         C         -0.3081     -0.2643      1.3232
     4         C          0.9511     -1.7433     -0.3895
     5         C         -2.0633      0.7991     -0.2358
     6         C          0.8844      0.8407     -0.6686
     7         C          1.9526      1.4162     -0.1112
     8         H         -1.7334     -1.4421      0.0723
     9         H         -0.2275     -1.1652      1.9683
    10         H         -0.2731      0.7590      1.7562
    11         H          0.9749     -1.9033     -1.4877
    12         H          0.4177     -2.5980      0.0796
    13         H         -1.5552      1.7483      0.0378
    14         H         -3.0367      0.7607      0.2955
    15         H          1.9931     -1.7246     -0.0069
    16         H         -2.2569      0.7981     -1.3285
    17         H          0.4699      1.2593     -1.5806
    18         H          2.3995      1.0071      0.7900
    19         H          2.3868      2.3041     -0.5588

  H: (PM3): J. J. P. STEWART, J. COMP. CHEM. 10, 209 (1989).
  C: (PM3): J. J. P. STEWART, J. COMP. CHEM. 10, 209 (1989).

           Empirical Formula: C7 H12  =    19 atoms



      MOLECULAR POINT GROUP   :   C1  


      RHF CALCULATION, NO. OF DOUBLY OCCUPIED LEVELS = 20


          Geometry optimization using EF

          DIAGONAL MATRIX USED AS START HESSIAN

 CYCLE:     1 TIME:   0.004 TIME LEFT:  2.00D  GRAD.:    82.744 HEAT:  27.22563
 CYCLE:     2 TIME:   0.008 TIME LEFT:  2.00D  GRAD.:   117.637 HEAT:  26.01678
 CYCLE:     3 TIME:   0.004 TIME LEFT:  2.00D  GRAD.:    93.176 HEAT:  24.06044
 CYCLE:     4 TIME:   0.004 TIME LEFT:  2.00D  GRAD.:    38.085 HEAT:  22.20933
 CYCLE:     5 TIME:   0.004 TIME LEFT:  2.00D  GRAD.:    45.863 HEAT:  21.76279
 CYCLE:     6 TIME:   0.008 TIME LEFT:  2.00D  GRAD.:    47.370 HEAT:  21.53682
 CYCLE:     7 TIME:   0.000 TIME LEFT:  2.00D  GRAD.:    29.959 HEAT:  21.16837
 CYCLE:     8 TIME:   0.004 TIME LEFT:  2.00D  GRAD.:    35.074 HEAT:  21.09606
 CYCLE:     9 TIME:   0.004 TIME LEFT:  2.00D  GRAD.:    26.159 HEAT:  20.89183
 CYCLE:    10 TIME:   0.008 TIME LEFT:  2.00D  GRAD.:    15.514 HEAT:  20.74098
 CYCLE:    11 TIME:   0.004 TIME LEFT:  2.00D  GRAD.:    11.811 HEAT:  20.67852
 CYCLE:    12 TIME:   0.004 TIME LEFT:  2.00D  GRAD.:    10.984 HEAT:  20.61927
 CYCLE:    13 TIME:   0.004 TIME LEFT:  2.00D  GRAD.:    11.663 HEAT:  20.54643
 CYCLE:    14 TIME:   0.004 TIME LEFT:  2.00D  GRAD.:    15.324 HEAT:  20.49706
 CYCLE:    15 TIME:   0.004 TIME LEFT:  2.00D  GRAD.:    17.924 HEAT:  20.47377
 CYCLE:    16 TIME:   0.004 TIME LEFT:  2.00D  GRAD.:    12.239 HEAT:  20.41370
 CYCLE:    17 TIME:   0.004 TIME LEFT:  2.00D  GRAD.:    12.790 HEAT:  20.39951
 CYCLE:    18 TIME:   0.004 TIME LEFT:  2.00D  GRAD.:     9.428 HEAT:  20.36208
 CYCLE:    19 TIME:   0.004 TIME LEFT:  2.00D  GRAD.:    11.075 HEAT:  20.35652
 CYCLE:    20 TIME:   0.004 TIME LEFT:  2.00D  GRAD.:     5.860 HEAT:  20.31605
 CYCLE:    21 TIME:   0.000 TIME LEFT:  2.00D  GRAD.:     6.007 HEAT:  20.30330
 CYCLE:    22 TIME:   0.004 TIME LEFT:  2.00D  GRAD.:     5.792 HEAT:  20.28842
 CYCLE:    23 TIME:   0.004 TIME LEFT:  2.00D  GRAD.:     5.082 HEAT:  20.27873
 CYCLE:    24 TIME:   0.004 TIME LEFT:  2.00D  GRAD.:     3.445 HEAT:  20.26976
 CYCLE:    25 TIME:   0.004 TIME LEFT:  2.00D  GRAD.:     1.989 HEAT:  20.26538
 CYCLE:    26 TIME:   0.004 TIME LEFT:  2.00D  GRAD.:     1.470 HEAT:  20.26218
 CYCLE:    27 TIME:   0.000 TIME LEFT:  2.00D  GRAD.:     1.525 HEAT:  20.25858
 CYCLE:    28 TIME:   0.004 TIME LEFT:  2.00D  GRAD.:     1.715 HEAT:  20.25758
 CYCLE:    29 TIME:   0.004 TIME LEFT:  2.00D  GRAD.:     0.899 HEAT:  20.25590
 CYCLE:    30 TIME:   0.004 TIME LEFT:  2.00D  GRAD.:     0.842 HEAT:  20.25477
 CYCLE:    31 TIME:   0.004 TIME LEFT:  2.00D  GRAD.:     0.806 HEAT:  20.25367
 CYCLE:    32 TIME:   0.004 TIME LEFT:  2.00D  GRAD.:     0.767 HEAT:  20.25278
 CYCLE:    33 TIME:   0.004 TIME LEFT:  2.00D  GRAD.:     0.747 HEAT:  20.25190
 CYCLE:    34 TIME:   0.000 TIME LEFT:  2.00D  GRAD.:     0.785 HEAT:  20.25070
 CYCLE:    35 TIME:   0.004 TIME LEFT:  2.00D  GRAD.:     0.752 HEAT:  20.24920
 CYCLE:    36 TIME:   0.004 TIME LEFT:  2.00D  GRAD.:     0.783 HEAT:  20.24855
 CYCLE:    37 TIME:   0.004 TIME LEFT:  2.00D  GRAD.:     0.480 HEAT:  20.24786
 CYCLE:    38 TIME:   0.004 TIME LEFT:  2.00D  GRAD.:     0.513 HEAT:  20.24711
 CYCLE:    39 TIME:   0.004 TIME LEFT:  2.00D  GRAD.:     0.545 HEAT:  20.24657
 CYCLE:    40 TIME:   0.000 TIME LEFT:  2.00D  GRAD.:     0.634 HEAT:  20.24570
 CYCLE:    41 TIME:   0.004 TIME LEFT:  2.00D  GRAD.:     0.555 HEAT:  20.24520
 CYCLE:    42 TIME:   0.004 TIME LEFT:  2.00D  GRAD.:     0.695 HEAT:  20.24426
 CYCLE:    43 TIME:   0.004 TIME LEFT:  2.00D  GRAD.:     0.512 HEAT:  20.24381
 CYCLE:    44 TIME:   0.004 TIME LEFT:  2.00D  GRAD.:     0.355 HEAT:  20.24294
 CYCLE:    45 TIME:   0.004 TIME LEFT:  2.00D  GRAD.:     0.384 HEAT:  20.24243
 CYCLE:    46 TIME:   0.004 TIME LEFT:  2.00D  GRAD.:     0.302 HEAT:  20.24215
 CYCLE:    47 TIME:   0.000 TIME LEFT:  2.00D  GRAD.:     0.300 HEAT:  20.24188
 CYCLE:    48 TIME:   0.004 TIME LEFT:  2.00D  GRAD.:     0.335 HEAT:  20.24165
 CYCLE:    49 TIME:   0.004 TIME LEFT:  2.00D  GRAD.:     0.614 HEAT:  20.24105
 CYCLE:    50 TIME:   0.004 TIME LEFT:  2.00D  GRAD.:     0.474 HEAT:  20.24067
 CYCLE:    51 TIME:   0.004 TIME LEFT:  2.00D  GRAD.:     0.399 HEAT:  20.23997
 CYCLE:    52 TIME:   0.004 TIME LEFT:  2.00D  GRAD.:     0.402 HEAT:  20.23968
 CYCLE:    53 TIME:   0.000 TIME LEFT:  2.00D  GRAD.:     0.565 HEAT:  20.23816
 CYCLE:    54 TIME:   0.004 TIME LEFT:  2.00D  GRAD.:     0.447 HEAT:  20.23774
 CYCLE:    55 TIME:   0.004 TIME LEFT:  2.00D  GRAD.:     0.562 HEAT:  20.23685
 CYCLE:    56 TIME:   0.004 TIME LEFT:  2.00D  GRAD.:     0.460 HEAT:  20.23647
 CYCLE:    57 TIME:   0.004 TIME LEFT:  2.00D  GRAD.:     0.420 HEAT:  20.23571
 CYCLE:    58 TIME:   0.004 TIME LEFT:  2.00D  GRAD.:     0.495 HEAT:  20.23506
 CYCLE:    59 TIME:   0.004 TIME LEFT:  2.00D  GRAD.:     0.486 HEAT:  20.23455
 CYCLE:    60 TIME:   0.004 TIME LEFT:  2.00D  GRAD.:     0.443 HEAT:  20.23390
 CYCLE:    61 TIME:   0.000 TIME LEFT:  2.00D  GRAD.:     0.377 HEAT:  20.23353
 CYCLE:    62 TIME:   0.004 TIME LEFT:  2.00D  GRAD.:     0.473 HEAT:  20.23294
 CYCLE:    63 TIME:   0.004 TIME LEFT:  2.00D  GRAD.:     0.404 HEAT:  20.23270
 CYCLE:    64 TIME:   0.004 TIME LEFT:  2.00D  GRAD.:     0.424 HEAT:  20.23218
 CYCLE:    65 TIME:   0.004 TIME LEFT:  2.00D  GRAD.:     0.484 HEAT:  20.23165
 CYCLE:    66 TIME:   0.004 TIME LEFT:  2.00D  GRAD.:     0.476 HEAT:  20.23093
 CYCLE:    67 TIME:   0.004 TIME LEFT:  2.00D  GRAD.:     0.355 HEAT:  20.23066
 CYCLE:    68 TIME:   0.000 TIME LEFT:  2.00D  GRAD.:     0.321 HEAT:  20.23036
 CYCLE:    69 TIME:   0.004 TIME LEFT:  2.00D  GRAD.:     0.273 HEAT:  20.23025
 CYCLE:    70 TIME:   0.004 TIME LEFT:  2.00D  GRAD.:     0.365 HEAT:  20.22982
 CYCLE:    71 TIME:   0.004 TIME LEFT:  2.00D  GRAD.:     0.344 HEAT:  20.22945
 CYCLE:    72 TIME:   0.004 TIME LEFT:  2.00D  GRAD.:     0.925 HEAT:  20.22522
 CYCLE:    73 TIME:   0.004 TIME LEFT:  2.00D  GRAD.:     1.684 HEAT:  20.22211
 CYCLE:    74 TIME:   0.004 TIME LEFT:  2.00D  GRAD.:     1.563 HEAT:  20.21743
 CYCLE:    75 TIME:   0.004 TIME LEFT:  2.00D  GRAD.:     1.120 HEAT:  20.21066
 CYCLE:    76 TIME:   0.000 TIME LEFT:  2.00D  GRAD.:     4.282 HEAT:  20.21544
 CYCLE:    77 TIME:   0.004 TIME LEFT:  2.00D  GRAD.:     0.976 HEAT:  20.20672
 CYCLE:    78 TIME:   0.004 TIME LEFT:  2.00D  GRAD.:     0.916 HEAT:  20.20430
 CYCLE:    79 TIME:   0.004 TIME LEFT:  2.00D  GRAD.:     1.395 HEAT:  20.19848
 CYCLE:    80 TIME:   0.004 TIME LEFT:  2.00D  GRAD.:     1.100 HEAT:  20.19621
 CYCLE:    81 TIME:   0.004 TIME LEFT:  2.00D  GRAD.:     1.067 HEAT:  20.19230
 CYCLE:    82 TIME:   0.004 TIME LEFT:  2.00D  GRAD.:     1.834 HEAT:  20.18943
 CYCLE:    83 TIME:   0.004 TIME LEFT:  2.00D  GRAD.:     2.278 HEAT:  20.18582
 CYCLE:    84 TIME:   0.000 TIME LEFT:  2.00D  GRAD.:     1.450 HEAT:  20.18219
 CYCLE:    85 TIME:   0.004 TIME LEFT:  2.00D  GRAD.:     1.222 HEAT:  20.17693
 CYCLE:    86 TIME:   0.004 TIME LEFT:  2.00D  GRAD.:     0.856 HEAT:  20.17458
 CYCLE:    87 TIME:   0.004 TIME LEFT:  2.00D  GRAD.:     0.702 HEAT:  20.17347
 CYCLE:    88 TIME:   0.004 TIME LEFT:  2.00D  GRAD.:     0.707 HEAT:  20.17262
 CYCLE:    89 TIME:   0.004 TIME LEFT:  2.00D  GRAD.:     0.473 HEAT:  20.17230
 CYCLE:    90 TIME:   0.000 TIME LEFT:  2.00D  GRAD.:     0.349 HEAT:  20.17208
 CYCLE:    91 TIME:   0.004 TIME LEFT:  2.00D  GRAD.:     0.269 HEAT:  20.17194
 CYCLE:    92 TIME:   0.004 TIME LEFT:  2.00D  GRAD.:     0.216 HEAT:  20.17186
 CYCLE:    93 TIME:   0.004 TIME LEFT:  2.00D  GRAD.:     0.184 HEAT:  20.17173
 CYCLE:    94 TIME:   0.004 TIME LEFT:  2.00D  GRAD.:     0.350 HEAT:  20.17163
 CYCLE:    95 TIME:   0.004 TIME LEFT:  2.00D  GRAD.:     0.168 HEAT:  20.17154
 CYCLE:    96 TIME:   0.004 TIME LEFT:  2.00D  GRAD.:     0.098 HEAT:  20.17148
 CYCLE:    97 TIME:   0.004 TIME LEFT:  2.00D  GRAD.:     0.117 HEAT:  20.17146
 CYCLE:    98 TIME:   0.000 TIME LEFT:  2.00D  GRAD.:     0.078 HEAT:  20.17144
 CYCLE:    99 TIME:   0.004 TIME LEFT:  2.00D  GRAD.:     0.056 HEAT:  20.17143
 CYCLE:   100 TIME:   0.004 TIME LEFT:  2.00D  GRAD.:     0.082 HEAT:  20.17141
 CYCLE:   101 TIME:   0.004 TIME LEFT:  2.00D  GRAD.:     0.056 HEAT:  20.17140
 CYCLE:   102 TIME:   0.004 TIME LEFT:  2.00D  GRAD.:     0.119 HEAT:  20.17139
 CYCLE:   103 TIME:   0.004 TIME LEFT:  2.00D  GRAD.:     0.063 HEAT:  20.17138
 CYCLE:   104 TIME:   0.000 TIME LEFT:  2.00D  GRAD.:     0.073 HEAT:  20.17137
 CYCLE:   105 TIME:   0.004 TIME LEFT:  2.00D  GRAD.:     0.076 HEAT:  20.17136
 CYCLE:   106 TIME:   0.004 TIME LEFT:  2.00D  GRAD.:     0.380 HEAT:  20.17162
 CYCLE:   107 TIME:   0.004 TIME LEFT:  2.00D  GRAD.:     0.082 HEAT:  20.17133
 CYCLE:   108 TIME:   0.004 TIME LEFT:  2.00D  GRAD.:     0.079 HEAT:  20.17132
 CYCLE:   109 TIME:   0.004 TIME LEFT:  2.00D  GRAD.:     0.068 HEAT:  20.17130
 CYCLE:   110 TIME:   0.004 TIME LEFT:  2.00D  GRAD.:     0.132 HEAT:  20.17126
 CYCLE:   111 TIME:   0.004 TIME LEFT:  2.00D  GRAD.:     0.138 HEAT:  20.17122
 CYCLE:   112 TIME:   0.000 TIME LEFT:  2.00D  GRAD.:     0.050 HEAT:  20.17109

     GRADIENT =  0.04991  IS LESS THAN CUTOFF =  0.05000



 -------------------------------------------------------------------------------
 pm3  precise nosym THREADS=1
 InChI=1S/C7H12/c1-4-7(3)5-6(7)2/h4,6H,1,5H2,2-3H3



     GEOMETRY OPTIMISED USING EIGENVECTOR FOLLOWING (EF).     
     SCF FIELD WAS ACHIEVED                                   


                              PM3 CALCULATION
                                                       MOPAC2016 (Version: 18.184L)
                                                       Sat Jun 15 15:11:20 2019
                                                       No. of days remaining =  18




          FINAL HEAT OF FORMATION =         20.17109 KCAL/MOL =      84.39582 KJ/MOL


          TOTAL ENERGY            =      -1013.60035 EV
          ELECTRONIC ENERGY       =      -4927.73707 EV  POINT GROUP:     C1  
          CORE-CORE REPULSION     =       3914.13672 EV
          COSMO AREA              =        153.03 SQUARE ANGSTROMS
          COSMO VOLUME            =        151.60 CUBIC ANGSTROMS

          GRADIENT NORM           =          0.04991 = 0.01145 PER ATOM
          IONIZATION POTENTIAL    =         10.153227 EV
          HOMO LUMO ENERGIES (EV) =        -10.153  1.143
          NO. OF FILLED LEVELS    =         20
          MOLECULAR WEIGHT        =         96.1718

          MOLECULAR DIMENSIONS (Angstroms)

            Atom       Atom       Distance
            H    15    H    14     5.59230
            H    19    H    12     5.29154
            H    17    H     9     3.51742


          SCF CALCULATIONS        =        119
 
          WALL-CLOCK TIME         =          0.398 SECONDS
          COMPUTATION TIME        =          0.360 SECONDS




   ATOM   CHEMICAL          X               Y               Z
  NUMBER   SYMBOL      (ANGSTROMS)     (ANGSTROMS)     (ANGSTROMS)
 
     1       C          0.28420375  *  -0.43290596  *  -0.05165023  *
     2       C         -1.21563425  *  -0.38754475  *   0.16845297  *
     3       C         -0.27870649  *  -0.30084619  *   1.33918390  *
     4       C          0.90666020  *  -1.74057050  *  -0.45907757  *
     5       C         -2.01724605  *   0.80845949  *  -0.23675467  *
     6       C          0.96214298  *   0.71783940  *  -0.69351043  *
     7       C          1.81910959  *   1.50927504  *  -0.06003485  *
     8       H         -1.77598580  *  -1.33114072  *   0.02360117  *
     9       H         -0.20148094  *  -1.14031882  *   2.03914956  *
    10       H         -0.16728175  *   0.64731405  *   1.87902688  *
    11       H          0.87752831  *  -1.86476453  *  -1.54929062  *
    12       H          0.38693076  *  -2.59817546  *  -0.01150577  *
    13       H         -1.45339695  *   1.74468959  *  -0.12440484  *
    14       H         -2.92490446  *   0.89115563  *   0.37465183  *
    15       H          1.95709730  *  -1.78665708  *  -0.14418758  *
    16       H         -2.32599136  *   0.73391261  *  -1.28741721  *
    17       H          0.72026317  *   0.86210415  *  -1.75358607  *
    18       H          2.07359751  *   1.38812225  *   0.98956902  *
    19       H          2.32392514  *   2.33584323  *  -0.55032935  *

                             CARTESIAN COORDINATES

   1    C        0.284203752    -0.432905959    -0.051650235
   2    C       -1.215634251    -0.387544749     0.168452966
   3    C       -0.278706488    -0.300846194     1.339183903
   4    C        0.906660203    -1.740570502    -0.459077571
   5    C       -2.017246048     0.808459487    -0.236754673
   6    C        0.962142984     0.717839404    -0.693510429
   7    C        1.819109594     1.509275038    -0.060034850
   8    H       -1.775985803    -1.331140722     0.023601172
   9    H       -0.201480942    -1.140318820     2.039149559
  10    H       -0.167281752     0.647314048     1.879026878
  11    H        0.877528311    -1.864764531    -1.549290621
  12    H        0.386930763    -2.598175464    -0.011505772
  13    H       -1.453396954     1.744689586    -0.124404840
  14    H       -2.924904458     0.891155632     0.374651835
  15    H        1.957097296    -1.786657077    -0.144187577
  16    H       -2.325991361     0.733912614    -1.287417213
  17    H        0.720263174     0.862104149    -1.753586066
  18    H        2.073597511     1.388122251     0.989569017
  19    H        2.323925136     2.335843231    -0.550329347


           Empirical Formula: C7 H12  =    19 atoms



      MOLECULAR POINT GROUP   :   C1  


                  EIGENVALUES  
 -41.10785 -32.12414 -29.98785 -27.00924 -22.20203 -20.55160 -18.23498 -16.55672
 -16.44190 -15.83859 -14.37027 -13.96967 -13.59059 -13.28107 -13.19250 -12.36156
 -12.07649 -11.26977 -10.81307 -10.15323   1.14259   2.78255   3.14544   3.27516
   3.42602   3.79854   3.90179   4.11247   4.17347   4.26018   4.41591   4.43584
   4.58139   4.71478   4.83551   5.05599   5.09769   5.18856   5.69320   5.89180


              NET ATOMIC CHARGES AND DIPOLE CONTRIBUTIONS

  ATOM NO.   TYPE          CHARGE      No. of ELECS.   s-Pop       p-Pop       
    1          C          -0.083198        4.0832     1.17082     2.91237
    2          C          -0.123573        4.1236     1.17699     2.94658
    3          C          -0.150215        4.1502     1.16643     2.98379
    4          C          -0.071007        4.0710     1.13102     2.93999
    5          C          -0.083200        4.0832     1.12986     2.95334
    6          C          -0.097605        4.0976     1.18347     2.91414
    7          C          -0.161676        4.1617     1.18154     2.98013
    8          H           0.092187        0.9078     0.90781
    9          H           0.078386        0.9216     0.92161
   10          H           0.083926        0.9161     0.91607
   11          H           0.042043        0.9580     0.95796
   12          H           0.040066        0.9599     0.95993
   13          H           0.044871        0.9551     0.95513
   14          H           0.041105        0.9589     0.95890
   15          H           0.043611        0.9564     0.95639
   16          H           0.040475        0.9595     0.95953
   17          H           0.099888        0.9001     0.90011
   18          H           0.084218        0.9158     0.91578
   19          H           0.079699        0.9203     0.92030
 DIPOLE           X         Y         Z       TOTAL
 POINT-CHG.    -0.095    -0.063    -0.087     0.143
 HYBRID         0.024    -0.001     0.033     0.041
 SUM           -0.071    -0.063    -0.054     0.109


          ATOMIC ORBITAL ELECTRON POPULATIONS

     Atom    s        px        py        pz   
    1  C   1.17082   0.95652   0.96271   0.99315
    2  C   1.17699   0.91923   1.00190   1.02546
    3  C   1.16643   1.03721   1.03274   0.91384
    4  C   1.13102   0.99778   0.93784   1.00437
    5  C   1.12986   0.98783   0.96370   1.00181
    6  C   1.18347   0.97453   0.95282   0.98679
    7  C   1.18154   0.98660   0.98991   1.00363
    8  H   0.90781
    9  H   0.92161
   10  H   0.91607
   11  H   0.95796
   12  H   0.95993
   13  H   0.95513
   14  H   0.95890
   15  H   0.95639
   16  H   0.95953
   17  H   0.90011
   18  H   0.91578
   19  H   0.92030
 *******************************************************************************
 ** Site#: 14399        For non-commercial use only    Version 18.184L 64BITS **
 *******************************************************************************
 ** Cite this program as: MOPAC2016, Version: 18.184L, James J. P. Stewart,   **
 ** Stewart Computational Chemistry, web: HTTP://OpenMOPAC.net. Days left:  18**
 *******************************************************************************
 **                                                                           **
 **                                MOPAC2016                                  **
 **                                                                           **
 *******************************************************************************

                              PM3 CALCULATION RESULTS

 *******************************************************************************
 *  CALCULATION DONE:                                Sat Jun 15 15:11:20 2019  *
 *  PM3        - The PM3 Hamiltonian to be used
 *  OLDGEO     - PREVIOUS GEOMETRY TO BE USED
 *  PRECISE    - CRITERIA TO BE INCREASED BY 100 TIMES
 *  NOSYM      - POINT-GROUP SYMMETRY SET TO C1
 *  THREADS=1  - MULTI-THREADING NOT USED
 *  T=         - A TIME OF 172800.0 SECONDS REQUESTED
 *  DUMP=N     - RESTART FILE WRITTEN EVERY  7200.000 SECONDS
 *  THERMO     - THERMODYNAMIC QUANTITIES TO BE CALCULATED
 *******************************************************************************
oldgeo thermo nosym precise THREADS=1  pm3
 InChI=1S/C7H12/c1-4-7(3)5-6(7)2/h4,6H,1,5H2,2-3H3

   ATOM   CHEMICAL          X               Y               Z
  NUMBER   SYMBOL      (ANGSTROMS)     (ANGSTROMS)     (ANGSTROMS)
 
     1       C          0.28420375  *  -0.43290596  *  -0.05165023  *
     2       C         -1.21563425  *  -0.38754475  *   0.16845297  *
     3       C         -0.27870649  *  -0.30084619  *   1.33918390  *
     4       C          0.90666020  *  -1.74057050  *  -0.45907757  *
     5       C         -2.01724605  *   0.80845949  *  -0.23675467  *
     6       C          0.96214298  *   0.71783940  *  -0.69351043  *
     7       C          1.81910959  *   1.50927504  *  -0.06003485  *
     8       H         -1.77598580  *  -1.33114072  *   0.02360117  *
     9       H         -0.20148094  *  -1.14031882  *   2.03914956  *
    10       H         -0.16728175  *   0.64731405  *   1.87902688  *
    11       H          0.87752831  *  -1.86476453  *  -1.54929062  *
    12       H          0.38693076  *  -2.59817546  *  -0.01150577  *
    13       H         -1.45339695  *   1.74468959  *  -0.12440484  *
    14       H         -2.92490446  *   0.89115563  *   0.37465183  *
    15       H          1.95709730  *  -1.78665708  *  -0.14418758  *
    16       H         -2.32599136  *   0.73391261  *  -1.28741721  *
    17       H          0.72026317  *   0.86210415  *  -1.75358607  *
    18       H          2.07359751  *   1.38812225  *   0.98956902  *
    19       H          2.32392514  *   2.33584323  *  -0.55032935  *
 


          CARTESIAN COORDINATES 

    NO.       ATOM           X           Y           Z

     1         C          0.2842     -0.4329     -0.0517
     2         C         -1.2156     -0.3875      0.1685
     3         C         -0.2787     -0.3008      1.3392
     4         C          0.9067     -1.7406     -0.4591
     5         C         -2.0172      0.8085     -0.2368
     6         C          0.9621      0.7178     -0.6935
     7         C          1.8191      1.5093     -0.0600
     8         H         -1.7760     -1.3311      0.0236
     9         H         -0.2015     -1.1403      2.0391
    10         H         -0.1673      0.6473      1.8790
    11         H          0.8775     -1.8648     -1.5493
    12         H          0.3869     -2.5982     -0.0115
    13         H         -1.4534      1.7447     -0.1244
    14         H         -2.9249      0.8912      0.3747
    15         H          1.9571     -1.7867     -0.1442
    16         H         -2.3260      0.7339     -1.2874
    17         H          0.7203      0.8621     -1.7536
    18         H          2.0736      1.3881      0.9896
    19         H          2.3239      2.3358     -0.5503

  H: (PM3): J. J. P. STEWART, J. COMP. CHEM. 10, 209 (1989).
  C: (PM3): J. J. P. STEWART, J. COMP. CHEM. 10, 209 (1989).

           Empirical Formula: C7 H12  =    19 atoms



      MOLECULAR POINT GROUP   :   C1  


      RHF CALCULATION, NO. OF DOUBLY OCCUPIED LEVELS = 20



          HEAT OF FORMATION =      20.171086 KCALS/MOLE


          CARTESIAN COORDINATE DERIVATIVES

   NUMBER  ATOM         X            Y            Z

     1       C     -0.001477    -0.002729     0.008316
     2       C     -0.002849    -0.001723     0.005317
     3       C      0.005143    -0.000048     0.002049
     4       C     -0.000867     0.004162     0.000956
     5       C     -0.008027     0.004010    -0.006120
     6       C     -0.003728     0.015622     0.009982
     7       C      0.016082    -0.016100     0.005329
     8       H      0.001933    -0.002845    -0.000664
     9       H     -0.002871    -0.001928    -0.005511
    10       H     -0.006995     0.001794    -0.006163
    11       H     -0.007708    -0.007672    -0.005942
    12       H      0.011091     0.004264    -0.000187
    13       H     -0.003085    -0.000104     0.005431
    14       H      0.006007     0.009285    -0.001516
    15       H     -0.007098     0.006754    -0.002951
    16       H      0.005113    -0.016109    -0.000466
    17       H      0.006763    -0.002274     0.005086
    18       H     -0.001191     0.008544    -0.000217
    19       H     -0.006237    -0.002901    -0.012729
 


          GRADIENT NORM =   0.05044


          TIME FOR SCF CALCULATION =    0.00

          TIME FOR DERIVATIVES     =    0.00

          MOLECULAR WEIGHT =   96.17



          ROTATIONAL CONSTANTS IN CM(-1)

          A =    0.10758293   B =    0.07971065   C =    0.06049085



           PRINCIPAL MOMENTS OF INERTIA IN UNITS OF 10**(-40)*GRAM-CM**2

          A =      260.1972   B =      351.1798   C =      462.7605


          ORIENTATION OF MOLECULE IN FORCE CALCULATION

    NO.       ATOM         X         Y         Z

     1          C      -0.2505   -0.0545   -0.4431
     2          C       1.2661   -0.0545   -0.4431
     3          C       0.5120    1.2445   -0.4431
     4          C      -0.9643   -0.4744   -1.6991
     5          C       2.0358   -0.4712    0.7698
     6          C      -0.9797   -0.4905    0.7710
     7          C      -1.7116    0.3265    1.5186
     8          H       1.7710   -0.3591   -1.3799
     9          H       0.5121    1.8751   -1.3391
    10          H       0.5085    1.8726    0.4560
    11          H      -1.0974   -1.5636   -1.7278
    12          H      -0.4110   -0.1819   -2.6014
    13          H       1.5225   -0.1988    1.7022
    14          H       3.0247    0.0047    0.7830
    15          H      -1.9588   -0.0134   -1.7544
    16          H       2.1865   -1.5584    0.7823
    17          H      -0.8900   -1.5587    1.0034
    18          H      -1.8145    1.3881    1.3104
    19          H      -2.2572   -0.0129    2.3935


    FIRST DERIVATIVES WILL BE USED IN THE CALCULATION OF SECOND DERIVATIVES

          ESTIMATED TIME TO COMPLETE CALCULATION =        0.89 SECONDS

    FOR POINT-GROUP C1   THERE ARE   1 UNIQUE SYMMETRY FUNCTIONS.

 STEP:   1 TIME =     0.02 SECS, INTEGRAL =      0.02 TIME LEFT: 172799.98
 STEP:   2 TIME =     0.02 SECS, INTEGRAL =      0.03 TIME LEFT: 172799.96
 STEP:   3 TIME =     0.01 SECS, INTEGRAL =      0.04 TIME LEFT: 172799.95
 STEP:   4 TIME =     0.02 SECS, INTEGRAL =      0.06 TIME LEFT: 172799.94
 STEP:   5 TIME =     0.01 SECS, INTEGRAL =      0.07 TIME LEFT: 172799.93
 STEP:   6 TIME =     0.02 SECS, INTEGRAL =      0.09 TIME LEFT: 172799.91
 STEP:   7 TIME =     0.02 SECS, INTEGRAL =      0.10 TIME LEFT: 172799.89
 STEP:   8 TIME =     0.01 SECS, INTEGRAL =      0.11 TIME LEFT: 172799.88
 STEP:   9 TIME =     0.01 SECS, INTEGRAL =      0.12 TIME LEFT: 172799.87
 STEP:  10 TIME =     0.02 SECS, INTEGRAL =      0.14 TIME LEFT: 172799.86
 STEP:  11 TIME =     0.01 SECS, INTEGRAL =      0.15 TIME LEFT: 172799.84
 STEP:  12 TIME =     0.01 SECS, INTEGRAL =      0.16 TIME LEFT: 172799.83
 STEP:  13 TIME =     0.02 SECS, INTEGRAL =      0.18 TIME LEFT: 172799.82
 STEP:  14 TIME =     0.01 SECS, INTEGRAL =      0.19 TIME LEFT: 172799.80
 STEP:  15 TIME =     0.01 SECS, INTEGRAL =      0.20 TIME LEFT: 172799.79
 STEP:  16 TIME =     0.02 SECS, INTEGRAL =      0.22 TIME LEFT: 172799.78
 STEP:  17 TIME =     0.01 SECS, INTEGRAL =      0.23 TIME LEFT: 172799.77
 STEP:  18 TIME =     0.01 SECS, INTEGRAL =      0.24 TIME LEFT: 172799.75
 STEP:  19 TIME =     0.02 SECS, INTEGRAL =      0.26 TIME LEFT: 172799.74
 STEP:  20 TIME =     0.01 SECS, INTEGRAL =      0.27 TIME LEFT: 172799.73
 STEP:  21 TIME =     0.02 SECS, INTEGRAL =      0.29 TIME LEFT: 172799.71
 STEP:  22 TIME =     0.01 SECS, INTEGRAL =      0.30 TIME LEFT: 172799.70
 STEP:  23 TIME =     0.02 SECS, INTEGRAL =      0.31 TIME LEFT: 172799.68
 STEP:  24 TIME =     0.01 SECS, INTEGRAL =      0.32 TIME LEFT: 172799.67
 STEP:  25 TIME =     0.02 SECS, INTEGRAL =      0.34 TIME LEFT: 172799.66
 STEP:  26 TIME =     0.01 SECS, INTEGRAL =      0.35 TIME LEFT: 172799.64
 STEP:  27 TIME =     0.02 SECS, INTEGRAL =      0.37 TIME LEFT: 172799.63
 STEP:  28 TIME =     0.02 SECS, INTEGRAL =      0.38 TIME LEFT: 172799.61
 STEP:  29 TIME =     0.01 SECS, INTEGRAL =      0.39 TIME LEFT: 172799.60
 STEP:  30 TIME =     0.02 SECS, INTEGRAL =      0.41 TIME LEFT: 172799.59
 STEP:  31 TIME =     0.01 SECS, INTEGRAL =      0.42 TIME LEFT: 172799.57
 STEP:  32 TIME =     0.02 SECS, INTEGRAL =      0.44 TIME LEFT: 172799.56
 STEP:  33 TIME =     0.01 SECS, INTEGRAL =      0.45 TIME LEFT: 172799.55
 STEP:  34 TIME =     0.02 SECS, INTEGRAL =      0.46 TIME LEFT: 172799.53
 STEP:  35 TIME =     0.01 SECS, INTEGRAL =      0.48 TIME LEFT: 172799.52
 STEP:  36 TIME =     0.02 SECS, INTEGRAL =      0.49 TIME LEFT: 172799.50
 STEP:  37 TIME =     0.02 SECS, INTEGRAL =      0.51 TIME LEFT: 172799.49
 STEP:  38 TIME =     0.01 SECS, INTEGRAL =      0.52 TIME LEFT: 172799.48
 STEP:  39 TIME =     0.01 SECS, INTEGRAL =      0.53 TIME LEFT: 172799.46
 STEP:  40 TIME =     0.01 SECS, INTEGRAL =      0.54 TIME LEFT: 172799.45
 STEP:  41 TIME =     0.02 SECS, INTEGRAL =      0.56 TIME LEFT: 172799.44
 STEP:  42 TIME =     0.01 SECS, INTEGRAL =      0.57 TIME LEFT: 172799.43
 STEP:  43 TIME =     0.02 SECS, INTEGRAL =      0.59 TIME LEFT: 172799.41
 STEP:  44 TIME =     0.01 SECS, INTEGRAL =      0.60 TIME LEFT: 172799.40
 STEP:  45 TIME =     0.02 SECS, INTEGRAL =      0.61 TIME LEFT: 172799.38
 STEP:  46 TIME =     0.01 SECS, INTEGRAL =      0.62 TIME LEFT: 172799.37
 STEP:  47 TIME =     0.02 SECS, INTEGRAL =      0.64 TIME LEFT: 172799.36
 STEP:  48 TIME =     0.01 SECS, INTEGRAL =      0.65 TIME LEFT: 172799.34
 STEP:  49 TIME =     0.02 SECS, INTEGRAL =      0.67 TIME LEFT: 172799.33
 STEP:  50 TIME =     0.01 SECS, INTEGRAL =      0.68 TIME LEFT: 172799.32
 STEP:  51 TIME =     0.02 SECS, INTEGRAL =      0.70 TIME LEFT: 172799.30
 STEP:  52 TIME =     0.02 SECS, INTEGRAL =      0.71 TIME LEFT: 172799.29
 STEP:  53 TIME =     0.01 SECS, INTEGRAL =      0.72 TIME LEFT: 172799.27
 STEP:  54 TIME =     0.02 SECS, INTEGRAL =      0.74 TIME LEFT: 172799.26
 STEP:  55 TIME =     0.01 SECS, INTEGRAL =      0.75 TIME LEFT: 172799.25
 STEP:  56 TIME =     0.02 SECS, INTEGRAL =      0.77 TIME LEFT: 172799.23
 STEP:  57 TIME =     0.01 SECS, INTEGRAL =      0.78 TIME LEFT: 172799.22

(To convert to Hartree/Bohr^2, multiply by (10^(-21) x N x a0^2)/(4.184 x 627.51) =  0.0642)


           FORCE MATRIX IN MILLIDYNES/ANGSTROM


                  C  1       C  2       C  3       C  4       C  5       C  6
 ------------------------------------------------------------------------------
     C    1  16.013199
     C    2   4.284664  15.422060
     C    3   4.714883   4.918264  15.297115
     C    4   4.534690   0.542480   0.543220  14.571912
     C    5   0.521795   4.871884   0.556177   0.045044  14.605369
     C    6   5.074472   0.545045   0.544675   0.683573   0.043022  18.364858
     C    7   0.825677   0.046645   0.038007   0.035354   0.007526  11.091246
     H    8   0.443430   4.519765   0.442095   0.025064   0.415675   0.037622
     H    9   0.460206   0.454963   4.827035   0.022800   0.044082   0.041978
     H   10   0.461606   0.467346   4.795754   0.041969   0.023704   0.018621
     H   11   0.457854   0.013360   0.048695   4.741905   0.002908   0.027781
     H   12   0.467443   0.028591   0.025068   4.723647   0.001445   0.044626
     H   13   0.020804   0.473000   0.020240   0.001407   4.710670   0.012351
     H   14   0.048968   0.450797   0.014266   0.008422   4.742848   0.006103
     H   15   0.454837   0.047624   0.013932   4.744610   0.008549   0.021838
     H   16   0.012636   0.450580   0.051051   0.002989   4.742598   0.003381
     H   17   0.434080   0.011996   0.039390   0.012372   0.005040   4.784196
     H   18   0.101116   0.009590   0.011212   0.013009   0.001569   0.493855
     H   19   0.137089   0.015632   0.005706   0.017667   0.001479   0.459171


                  C  7       H  8       H  9       H 10       H 11       H 12
 ------------------------------------------------------------------------------
     C    7  18.040118
     H    8   0.006232   5.048080
     H    9   0.004515   0.021191   5.432291
     H   10   0.011412   0.038725   0.484436   5.404438
     H   11   0.001749   0.002157   0.004038   0.007652   5.459288
     H   12   0.005069   0.022798   0.015908   0.001582   0.564501   5.452472
     H   13   0.005926   0.041751   0.001540   0.012882   0.000233   0.000398
     H   14   0.000659   0.027529   0.002536   0.002224   0.000551   0.000385
     H   15   0.002391   0.003513   0.002225   0.002290   0.565071   0.564315
     H   16   0.001421   0.029500   0.007871   0.004202   0.000375   0.000231
     H   17   0.456092   0.002191   0.006375   0.004084   0.007235   0.001444
     H   18   5.072036   0.001639   0.001336   0.018284   0.000632   0.002307
     H   19   5.109196   0.002190   0.000547   0.001585   0.000583   0.002956


                  H 13       H 14       H 15       H 16       H 17       H 18
 ------------------------------------------------------------------------------
     H   13   5.437754
     H   14   0.562921   5.459139
     H   15   0.000416   0.001671   5.460595
     H   16   0.569789   0.565353   0.000587   5.461647
     H   17   0.004212   0.000816   0.002294   0.003032   5.149617
     H   18   0.000644   0.000235   0.001392   0.000510   0.119162   5.461900
     H   19   0.000838   0.000350   0.000614   0.000374   0.078219   0.416623


                  H 19
 ------------------
     H   19   5.494481


          HEAT OF FORMATION =      20.171086 KCALS/MOLE

          ZERO POINT ENERGY     106.298 KCAL/MOL


           NORMAL COORDINATE ANALYSIS (Total motion = 1 Angstrom)


   Root No.       1         2         3         4         5         6         7         8

                 1 A       2 A       3 A       4 A       5 A       6 A       7 A       8 A   

                  88.0     149.0     151.9     198.5     230.2     283.8     352.1     441.3
  
           1   -0.0092   -0.0023   -0.0015   -0.0050   -0.0033   -0.0055    0.0222   -0.0112
           2   -0.0018   -0.0038    0.0028   -0.0051   -0.0149    0.0356    0.0120    0.0164
           3   -0.0177    0.0014    0.0011    0.0077    0.0108    0.0079   -0.0027   -0.0268
           4   -0.0088   -0.0019   -0.0021   -0.0049   -0.0011   -0.0041    0.0221   -0.0093
           5    0.0028   -0.0037    0.0024    0.0180   -0.0301   -0.0053    0.0210   -0.0224
           6    0.0081    0.0006   -0.0000    0.0035    0.0053   -0.0030    0.0002   -0.0114
           7   -0.0128   -0.0021   -0.0014   -0.0246    0.0111    0.0296    0.0163    0.0270
           8    0.0004   -0.0040    0.0030    0.0064   -0.0240    0.0143    0.0164   -0.0045
           9   -0.0134    0.0072    0.0052    0.0335   -0.0005   -0.0326    0.0024    0.0472
          10    0.0124    0.0031    0.0099    0.0293   -0.0080    0.0264   -0.0360   -0.0173
          11   -0.0076   -0.0067   -0.0097   -0.0267    0.0267   -0.0158   -0.0207   -0.0250
          12   -0.0280   -0.0008   -0.0010   -0.0051   -0.0032    0.0053    0.0419   -0.0126
          13   -0.0331    0.0079   -0.0026    0.0259    0.0442    0.0058    0.0020   -0.0045
          14    0.0130   -0.0053   -0.0104   -0.0155    0.0379   -0.0102   -0.0038    0.0194
          15    0.0275   -0.0064   -0.0046   -0.0299    0.0004   -0.0130    0.0060   -0.0000
          16   -0.0182   -0.0111   -0.0041   -0.0277   -0.0373   -0.0219   -0.0123    0.0056
          17   -0.0091    0.0046    0.0056    0.0021   -0.0122    0.0300   -0.0091    0.0208
          18   -0.0258   -0.0005    0.0005   -0.0032   -0.0097   -0.0033   -0.0320   -0.0174
          19    0.0672    0.0036   -0.0000   -0.0005   -0.0115   -0.0379    0.0024    0.0030
          20    0.0022    0.0179    0.0103    0.0249    0.0010   -0.0277   -0.0067   -0.0010
          21    0.0450   -0.0002   -0.0004   -0.0003    0.0015    0.0433   -0.0222    0.0030
          22    0.0098   -0.0038   -0.0061   -0.0133   -0.0190   -0.0258    0.0304   -0.0129
          23   -0.0026    0.0046    0.0051    0.0505   -0.0577   -0.0421    0.0345   -0.0197
          24    0.0201   -0.0034   -0.0031   -0.0130    0.0045   -0.0037    0.0007   -0.0129
          25   -0.0007   -0.0012    0.0002   -0.0337    0.0081    0.0434    0.0173    0.0632
          26   -0.0063    0.0013    0.0075    0.0284   -0.0275   -0.0124    0.0172    0.0673
          27   -0.0182    0.0109    0.0083    0.0493   -0.0031   -0.0519    0.0030    0.1007
          28   -0.0267   -0.0013   -0.0014   -0.0350    0.0288    0.0510    0.0098    0.0370
          29    0.0078   -0.0093   -0.0010   -0.0155   -0.0192    0.0399    0.0154   -0.0774
          30   -0.0186    0.0108    0.0081    0.0492   -0.0036   -0.0512    0.0033    0.1012
          31    0.0155    0.0510    0.2200    0.0033   -0.0096    0.0501   -0.0378    0.0001
          32   -0.0081   -0.0119   -0.0326   -0.0246    0.0282   -0.0202   -0.0225   -0.0293
          33   -0.0275   -0.0225   -0.0978    0.0284   -0.0446    0.0433    0.0862    0.0358
          34    0.0264   -0.0182   -0.0937    0.0710   -0.0133    0.0419   -0.0894   -0.0263
          35   -0.0089    0.0369    0.1842   -0.0730    0.0606   -0.0402   -0.0483   -0.0547
          36   -0.0199    0.0003   -0.0018    0.0052    0.0044    0.0066    0.0022   -0.0266
          37   -0.0490   -0.0874    0.0299    0.0732    0.0735    0.0093   -0.0086   -0.0070
          38    0.0271   -0.1976    0.0402   -0.0030    0.0794   -0.0254   -0.0092    0.0497
          39    0.0147   -0.0026   -0.0016   -0.0081    0.0040   -0.0070    0.0017   -0.0095
          40   -0.0307   -0.0755    0.0243    0.0447    0.0354    0.0021    0.0103   -0.0164
          41    0.0074    0.1661   -0.0657   -0.0533    0.0593   -0.0023   -0.0222    0.0460
          42    0.0403    0.0955   -0.0339   -0.0663   -0.0627   -0.0147    0.0296   -0.0240
          43    0.0122   -0.0176   -0.0818    0.0432   -0.0077    0.0186   -0.0417   -0.0261
          44   -0.0103   -0.0493   -0.1968   -0.0039    0.0306   -0.0389   -0.0259   -0.0465
          45   -0.0459    0.0181    0.0950   -0.0607    0.0195   -0.0373    0.0889   -0.0262
          46   -0.0398    0.1985   -0.0637   -0.0143    0.0679    0.0154   -0.0178    0.0222
          47    0.0123    0.0199   -0.0187   -0.0214    0.0422   -0.0092   -0.0069    0.0246
          48    0.0431   -0.1179    0.0178   -0.0449    0.0544   -0.0269   -0.0079    0.0486
          49   -0.0969   -0.0336   -0.0091   -0.0735   -0.0957   -0.0246   -0.0929    0.0451
          50   -0.0298    0.0023    0.0055   -0.0040   -0.0236    0.0186   -0.0298    0.0261
          51   -0.0904   -0.0031    0.0013   -0.0155   -0.0407   -0.0478   -0.0973   -0.0058
          52    0.1405    0.0247    0.0051    0.0437    0.0453   -0.0548    0.0879   -0.0515
          53    0.0226    0.0204    0.0106    0.0313    0.0123   -0.0153    0.0130   -0.0058
          54    0.1128    0.0015   -0.0016    0.0098    0.0316    0.1200    0.0366    0.0071
          55    0.0695   -0.0046   -0.0017   -0.0207   -0.0434   -0.0356   -0.0670    0.0526
          56   -0.0088    0.0275    0.0142    0.0395    0.0022   -0.1017   -0.0228   -0.0250
          57    0.0422   -0.0016    0.0000   -0.0073   -0.0179    0.0170   -0.0720    0.0250


   Root No.       9        10        11        12        13        14        15        16

                 9 A      10 A      11 A      12 A      13 A      14 A      15 A      16 A   

                 457.8     544.2     669.0     778.9     850.7     897.1     930.0     931.1
  
           1   -0.0091    0.0284    0.0082    0.0177    0.0163    0.0075   -0.0024   -0.0088
           2    0.0024   -0.0407   -0.0043    0.0022   -0.0252   -0.0194   -0.0023   -0.0045
           3   -0.0284   -0.0137    0.0091    0.0059   -0.0033    0.0051    0.0002    0.0095
           4   -0.0013    0.0420    0.0238   -0.0172   -0.0209   -0.0155    0.0015    0.0002
           5    0.0091    0.0099    0.0149   -0.0276    0.0033    0.0126   -0.0008    0.0007
           6    0.0514   -0.0254   -0.0117    0.0016    0.0141    0.0128    0.0007    0.0027
           7   -0.0159   -0.0145    0.0153   -0.0364    0.0204    0.0155    0.0016    0.0072
           8    0.0024   -0.0247    0.0001   -0.0027    0.0076    0.0120   -0.0077   -0.0121
           9   -0.0109    0.0039   -0.0042    0.0013    0.0033    0.0025    0.0106    0.0230
          10   -0.0298   -0.0055    0.0068    0.0261    0.0151   -0.0009    0.0049   -0.0154
          11   -0.0052   -0.0005    0.0032    0.0128   -0.0099   -0.0185    0.0069    0.0040
          12   -0.0202   -0.0107    0.0190    0.0372    0.0105   -0.0109    0.0068    0.0021
          13    0.0436   -0.0011    0.0015   -0.0073   -0.0278   -0.0113   -0.0035   -0.0066
          14   -0.0206    0.0027    0.0035   -0.0085    0.0092    0.0120   -0.0004   -0.0013
          15    0.0218    0.0012   -0.0028   -0.0010   -0.0234    0.0043   -0.0055   -0.0070
          16    0.0022   -0.0045   -0.0607    0.0113   -0.0019    0.0009   -0.0377    0.0100
          17    0.0204    0.0402   -0.0216    0.0243   -0.0024    0.0021   -0.0093    0.0013
          18   -0.0188    0.0035   -0.0284   -0.0348    0.0034   -0.0045   -0.0282    0.0003
          19    0.0026   -0.0228   -0.0024    0.0136   -0.0010    0.0028   -0.0072    0.0090
          20   -0.0016    0.0083   -0.0001    0.0045    0.0012    0.0048    0.0006    0.0096
          21    0.0043    0.0274    0.0073   -0.0213    0.0016   -0.0077   -0.0108   -0.0142
          22    0.0170    0.0741    0.0264   -0.0467   -0.0017   -0.0249    0.0316    0.0562
          23    0.0246    0.0616    0.0233   -0.0708    0.0480   -0.0457    0.0631    0.1205
          24    0.0540   -0.0232   -0.0128   -0.0002    0.0064    0.0261   -0.0043   -0.0065
          25    0.0466   -0.0488   -0.0150   -0.0911    0.2246   -0.0966    0.0057   -0.0002
          26   -0.0218    0.0051   -0.0068   -0.0009   -0.0119    0.0130   -0.0580   -0.1154
          27   -0.0289    0.0257   -0.0100    0.0035   -0.0103    0.0041   -0.0275   -0.0550
          28   -0.0933   -0.0498    0.0404   -0.0569   -0.1316    0.1694    0.0177    0.0526
          29    0.0270   -0.0535    0.0083   -0.0119    0.0230    0.0074    0.0431    0.0901
          30   -0.0292    0.0251   -0.0104    0.0076   -0.0093    0.0062   -0.0275   -0.0538
          31   -0.0342   -0.0396   -0.0007    0.0194   -0.0470   -0.0583    0.0179    0.0292
          32   -0.0046    0.0056    0.0037    0.0137    0.0008   -0.0086    0.0041   -0.0023
          33   -0.0182   -0.0523    0.0268    0.0513   -0.0556   -0.0832    0.0422    0.0051
          34   -0.0505   -0.0248   -0.0112    0.0079   -0.0099   -0.0185   -0.0061    0.0456
          35   -0.0045    0.0226   -0.0017    0.0108    0.0283    0.0173   -0.0107    0.0035
          36   -0.0318   -0.0149    0.0074    0.0263    0.0079   -0.0102   -0.0046    0.0377
          37    0.0952   -0.0463   -0.0288    0.0089    0.0134    0.0562   -0.0067   -0.0048
          38   -0.0465    0.0129   -0.0001    0.0096    0.0086   -0.0461    0.0124    0.0205
          39    0.0557   -0.0255   -0.0179    0.0024   -0.0020    0.0561   -0.0109   -0.0123
          40    0.0476    0.0082    0.0112   -0.0234   -0.0407    0.0002   -0.0094   -0.0172
          41   -0.0257   -0.0195   -0.0192    0.0271    0.0385   -0.0113    0.0126    0.0229
          42   -0.0172    0.0575    0.0429   -0.0461   -0.0936   -0.0355   -0.0137   -0.0315
          43   -0.0316    0.0057    0.0076    0.0312    0.0384    0.0181   -0.0009   -0.0274
          44   -0.0046    0.0316    0.0090    0.0282    0.0531    0.0327   -0.0055   -0.0359
          45    0.0042    0.0379    0.0425    0.0758    0.0921    0.0457    0.0126   -0.0896
          46    0.0454   -0.0278   -0.0248    0.0310   -0.0073   -0.0346    0.0065    0.0139
          47   -0.0215   -0.0008   -0.0004   -0.0025    0.0130    0.0065    0.0018    0.0031
          48   -0.0183    0.0100   -0.0130    0.0342   -0.0384   -0.0893    0.0106    0.0190
          49    0.0455   -0.0345   -0.0128    0.0092   -0.0296   -0.0054    0.2663   -0.0642
          50    0.0271    0.0397   -0.0084    0.0199   -0.0022    0.0089    0.0638   -0.0087
          51   -0.0012    0.0188    0.0143   -0.0515    0.0166    0.0315    0.1918   -0.0156
          52   -0.0618   -0.0538   -0.1499   -0.0647   -0.0189   -0.0216    0.1721   -0.0748
          53   -0.0078    0.0195   -0.0397    0.0081    0.0004    0.0109    0.0485    0.0084
          54    0.0063    0.1058   -0.1235    0.0454    0.0073    0.0433    0.1463    0.0322
          55    0.0644   -0.0244    0.2466    0.0802    0.0086    0.0279    0.0147    0.0440
          56   -0.0260   -0.0675    0.0812   -0.0921   -0.0070   -0.0521   -0.0189   -0.0796
          57    0.0339   -0.0006    0.1940   -0.0167    0.0052   -0.0131   -0.0044   -0.0258


   Root No.      17        18        19        20        21        22        23        24

                17 A      18 A      19 A      20 A      21 A      22 A      23 A      24 A   

                 948.8     981.2     994.5    1020.7    1032.7    1068.4    1137.9    1157.1
  
           1    0.0161    0.0019   -0.0034    0.0051    0.0093   -0.0275   -0.0327   -0.0076
           2    0.0008   -0.0028    0.0015   -0.0070   -0.0017    0.0125    0.0448   -0.0063
           3   -0.0076   -0.0102   -0.0011    0.0006    0.0015   -0.0039    0.0098    0.0052
           4   -0.0033    0.0039    0.0026    0.0003    0.0018   -0.0218    0.0306    0.0339
           5   -0.0066   -0.0026    0.0027    0.0083   -0.0028   -0.0116    0.0085    0.0490
           6   -0.0013    0.0008   -0.0070   -0.0055    0.0013    0.0027   -0.0224    0.0035
           7   -0.0023   -0.0001    0.0005    0.0046   -0.0013   -0.0168    0.0143   -0.0448
           8    0.0168   -0.0271    0.0054    0.0202   -0.0011   -0.0140   -0.0225   -0.0236
           9    0.0087   -0.0095   -0.0226   -0.0223    0.0104   -0.0179    0.0078    0.0030
          10    0.0102    0.0061   -0.0125   -0.0019   -0.0055    0.0235    0.0118    0.0012
          11   -0.0024    0.0252   -0.0116    0.0134    0.0024   -0.0024   -0.0177    0.0039
          12   -0.0176    0.0042    0.0226   -0.0106   -0.0091    0.0029   -0.0079   -0.0021
          13   -0.0089   -0.0232   -0.0070    0.0004   -0.0037    0.0169   -0.0103   -0.0117
          14   -0.0229    0.0167   -0.0151   -0.0149    0.0055    0.0036   -0.0018   -0.0167
          15    0.0022    0.0067    0.0107    0.0081   -0.0020    0.0026    0.0127   -0.0051
          16   -0.0001    0.0008   -0.0010   -0.0050    0.0354    0.0089   -0.0043    0.0000
          17    0.0030    0.0032    0.0042   -0.0280    0.0134   -0.0026   -0.0202    0.0028
          18    0.0053    0.0011   -0.0048    0.0197    0.0214    0.0105    0.0171    0.0009
          19   -0.0079   -0.0013   -0.0062    0.0014   -0.0554   -0.0040    0.0016   -0.0010
          20   -0.0070   -0.0032   -0.0048    0.0141   -0.0164    0.0035    0.0158    0.0048
          21    0.0149    0.0082   -0.0016   -0.0159   -0.0337   -0.0114   -0.0105   -0.0004
          22    0.0353    0.0931    0.0707   -0.0046   -0.0216    0.0516    0.0161   -0.0515
          23    0.0654    0.0398    0.0668   -0.0158   -0.0472    0.1697   -0.0282   -0.1405
          24   -0.0037    0.0348    0.0095    0.0001    0.0027   -0.0154   -0.0180    0.0202
          25   -0.0789   -0.0133   -0.0098    0.0191   -0.0055    0.0714   -0.0553    0.1859
          26   -0.0226   -0.0024    0.0809    0.0921   -0.0277    0.0287   -0.0461   -0.0356
          27   -0.0213    0.0097    0.0331    0.0310   -0.0090    0.0138   -0.0108   -0.0049
          28    0.0495    0.0067    0.0209   -0.0207   -0.0319    0.1225   -0.1155    0.1761
          29    0.0594   -0.0652   -0.0644   -0.0443    0.0255   -0.0617   -0.0027   -0.0286
          30   -0.0234    0.0180    0.0297    0.0258   -0.0091    0.0171   -0.0066    0.0076
          31   -0.0192    0.0686   -0.0164    0.0336    0.0078   -0.0179   -0.0582    0.0050
          32   -0.0002    0.0126   -0.0065    0.0055   -0.0004    0.0037   -0.0064    0.0028
          33    0.0181    0.1286   -0.0923    0.0689    0.0076    0.0131   -0.0677    0.0194
          34   -0.0720   -0.0178    0.0963   -0.0280   -0.0072   -0.0382   -0.0379   -0.0107
          35   -0.0318   -0.0411    0.0640   -0.0366   -0.0121   -0.0005    0.0095   -0.0063
          36   -0.0754   -0.0298    0.1104   -0.0418   -0.0152   -0.0319   -0.0293   -0.0120
          37    0.0173    0.1002    0.0477    0.0162    0.0034   -0.0262    0.0576    0.0014
          38    0.0367   -0.0566    0.0040    0.0094   -0.0092    0.0043   -0.0194    0.0218
          39   -0.0007    0.0914    0.0343    0.0099    0.0056   -0.0194    0.0534   -0.0093
          40   -0.0453   -0.0159   -0.0279   -0.0145    0.0004    0.0318   -0.0148   -0.0377
          41    0.0602    0.0065    0.0355    0.0197   -0.0040   -0.0302    0.0134    0.0416
          42   -0.0888   -0.0967   -0.0725   -0.0280   -0.0045    0.0771   -0.0521   -0.0696
          43    0.0116   -0.0190    0.0027   -0.0208   -0.0124    0.0379    0.0308   -0.0019
          44    0.0138   -0.0343    0.0098   -0.0305   -0.0156    0.0440    0.0392   -0.0013
          45    0.0709   -0.0132   -0.0576   -0.0268   -0.0284    0.1123    0.0748    0.0049
          46    0.0820   -0.0312    0.0565    0.0466   -0.0172   -0.0139    0.0202    0.0456
          47   -0.0071    0.0131   -0.0051   -0.0075    0.0031   -0.0010    0.0020   -0.0068
          48    0.1035   -0.1189    0.0516    0.0605   -0.0293    0.0082   -0.0077    0.0559
          49   -0.0139   -0.0050    0.0245   -0.0916   -0.0798   -0.0155    0.0357    0.0445
          50   -0.0017   -0.0007    0.0026   -0.0122   -0.0167   -0.0144   -0.0315   -0.0084
          51   -0.0124   -0.0150   -0.0225    0.1292   -0.0737   -0.0342   -0.0484   -0.0668
          52    0.0193    0.0020    0.0390   -0.0504    0.1944    0.0081   -0.0327   -0.0031
          53   -0.0153   -0.0095    0.0001    0.0286    0.0374    0.0122    0.0243    0.0047
          54   -0.0483   -0.0294   -0.0016    0.0960    0.1132    0.0300    0.0508   -0.0000
          55   -0.0321   -0.0271    0.0161    0.0563    0.2010    0.0364    0.0235    0.0037
          56    0.0631    0.0281    0.0245   -0.0804    0.0759   -0.0247   -0.0368   -0.0099
          57    0.0265    0.0041    0.0229   -0.0149    0.1617    0.0028   -0.0165   -0.0037


   Root No.      25        26        27        28        29        30        31        32

                25 A      26 A      27 A      28 A      29 A      30 A      31 A      32 A   

                1167.3    1188.8    1207.5    1291.9    1309.9    1359.1    1395.5    1395.7
  
           1   -0.0116   -0.0117    0.0264    0.0216    0.0149    0.0028    0.0149   -0.0050
           2   -0.0067    0.0349   -0.0044    0.0254    0.0200    0.0004    0.0100   -0.0042
           3    0.0048   -0.0197    0.0118    0.0399   -0.0095    0.0232    0.0011   -0.0006
           4   -0.0027    0.0118   -0.0050    0.0208    0.0141   -0.0156   -0.0027   -0.0057
           5    0.0250   -0.0125   -0.0341   -0.0235   -0.0137    0.0107   -0.0018    0.0040
           6    0.0570    0.0049   -0.0115    0.0185    0.0196   -0.0053    0.0010   -0.0088
           7    0.0347   -0.0217   -0.0218   -0.0179   -0.0122    0.0036   -0.0030    0.0017
           8   -0.0204    0.0012    0.0335   -0.0031   -0.0043   -0.0011    0.0158    0.0015
           9   -0.0181    0.0117    0.0044   -0.0113   -0.0034   -0.0020   -0.0003    0.0011
          10    0.0003    0.0034   -0.0078   -0.0022   -0.0028    0.0111   -0.0274    0.0080
          11    0.0048   -0.0098   -0.0005   -0.0027   -0.0032    0.0073   -0.0066    0.0059
          12   -0.0036    0.0070   -0.0095   -0.0081    0.0042    0.0093    0.0001    0.0015
          13   -0.0027    0.0006    0.0027   -0.0033    0.0014   -0.0109    0.0035    0.0255
          14   -0.0071    0.0031    0.0070    0.0023    0.0007    0.0043    0.0010   -0.0246
          15   -0.0406   -0.0218   -0.0068    0.0002    0.0037   -0.0167   -0.0048   -0.0114
          16    0.0007    0.0063   -0.0133   -0.0064    0.0107    0.0055   -0.0036    0.0009
          17   -0.0022    0.0014   -0.0222    0.0081   -0.0183    0.0070   -0.0042    0.0016
          18    0.0069   -0.0061    0.0188   -0.0028   -0.0108   -0.0132    0.0039   -0.0013
          19   -0.0012    0.0032   -0.0042    0.0027    0.0060    0.0058   -0.0018    0.0004
          20    0.0072   -0.0153    0.0248   -0.0027   -0.0054   -0.0089    0.0034   -0.0010
          21   -0.0036   -0.0007    0.0007   -0.0001   -0.0059   -0.0044    0.0020   -0.0004
          22    0.0557    0.2153    0.1721   -0.0258   -0.0677    0.0347   -0.0031    0.0145
          23   -0.0154   -0.1277   -0.0541    0.0589    0.0395   -0.0045    0.0057   -0.0117
          24    0.1038    0.1574    0.0935   -0.0344   -0.0438    0.0288   -0.0017    0.0069
          25   -0.1275    0.0078    0.0514    0.0234   -0.0038    0.0106    0.0016    0.0031
          26    0.0252   -0.0200    0.0428    0.0287   -0.0081   -0.0611   -0.1118   -0.0055
          27    0.0180   -0.0040    0.0110    0.0132   -0.0056   -0.0402   -0.0840   -0.0041
          28   -0.0387    0.0247    0.0145    0.0025    0.0324   -0.0140   -0.0006   -0.0045
          29   -0.0903    0.0254    0.0552   -0.0347   -0.0203   -0.0741   -0.1139    0.0018
          30    0.0341   -0.0045   -0.0100    0.0130    0.0074    0.0464    0.0848    0.0004
          31    0.0069   -0.0207   -0.0087   -0.0568   -0.0093   -0.0647    0.2029   -0.0559
          32    0.0027   -0.0039   -0.0019    0.0017   -0.0015    0.0113   -0.0277    0.0097
          33    0.0234   -0.0313   -0.0188   -0.0786   -0.0256   -0.0673   -0.0707   -0.0022
          34   -0.0121    0.0205   -0.0131   -0.0659    0.0029   -0.0603    0.0046    0.0127
          35   -0.0108    0.0267   -0.0174   -0.0306    0.0081   -0.0417   -0.0847   -0.0078
          36   -0.0148    0.0304   -0.0188   -0.0607    0.0094   -0.0544   -0.0188    0.0035
          37   -0.1112   -0.0337   -0.0009   -0.0417   -0.0460    0.0633    0.0103    0.1381
          38    0.0702    0.0135   -0.0119    0.0185    0.0205   -0.0271   -0.0304    0.0335
          39   -0.1223   -0.0454   -0.0043   -0.0291   -0.0316    0.0397    0.0127    0.0563
          40   -0.0289    0.0025    0.0151   -0.0227   -0.0183    0.0226   -0.0120   -0.1300
          41    0.0421   -0.0003   -0.0189    0.0343    0.0327   -0.0516    0.0277    0.2791
          42   -0.0270   -0.0040    0.0202   -0.0616   -0.0541    0.0796    0.0101    0.1344
          43   -0.0058    0.0184   -0.0175   -0.0233   -0.0009   -0.0265    0.0606   -0.0252
          44   -0.0066    0.0271   -0.0239   -0.0436   -0.0005   -0.0663    0.1528   -0.0585
          45    0.0070    0.0439   -0.0363   -0.0731   -0.0219   -0.0590    0.0106    0.0133
          46   -0.0101   -0.0130   -0.0167   -0.0458   -0.0437    0.0612   -0.0421   -0.2554
          47   -0.0039    0.0005    0.0020   -0.0005   -0.0021    0.0088   -0.0052   -0.0457
          48    0.0231   -0.0193   -0.0273   -0.0635   -0.0573    0.0779    0.0323    0.0280
          49    0.0595   -0.1427    0.1340   -0.0134   -0.0126   -0.0080    0.0024   -0.0017
          50   -0.0190    0.0325   -0.0510    0.0172   -0.0127    0.0125   -0.0039    0.0013
          51   -0.0885    0.1854   -0.1600    0.0365    0.0276    0.0137    0.0035   -0.0017
          52   -0.0050    0.0207   -0.0611    0.0538   -0.1408   -0.0260    0.0076   -0.0009
          53    0.0107   -0.0180    0.0327   -0.0166    0.0251   -0.0027    0.0010   -0.0005
          54    0.0149   -0.0183    0.0606   -0.0795    0.1833    0.0344   -0.0122    0.0021
          55    0.0086   -0.0050    0.0043    0.0343   -0.0756   -0.0187    0.0077   -0.0020
          56   -0.0110    0.0081   -0.0034   -0.0788    0.2079    0.0596   -0.0190    0.0046
          57   -0.0049    0.0035   -0.0026   -0.0146    0.0365    0.0085   -0.0012    0.0003


   Root No.      33        34        35        36        37        38        39        40

                33 A      34 A      35 A      36 A      37 A      38 A      39 A      40 A   

                1400.4    1401.5    1407.3    1420.5    1441.8    1621.0    1865.1    2991.8
  
           1    0.0049   -0.0014   -0.0115   -0.0167   -0.0212    0.1207    0.0323   -0.0001
           2    0.0020    0.0005   -0.0059   -0.0152   -0.0192    0.0738    0.0111   -0.0008
           3    0.0059    0.0065    0.0166   -0.0372    0.0648   -0.0065   -0.0383   -0.0005
           4    0.0005    0.0037    0.0024   -0.0149   -0.0206   -0.1104   -0.0068    0.0299
           5   -0.0016   -0.0021    0.0029    0.0119    0.0152    0.0638    0.0052   -0.0182
           6    0.0036    0.0041    0.0012   -0.0177   -0.0344   -0.0334   -0.0023   -0.0530
           7   -0.0008   -0.0008    0.0026    0.0065    0.0088   -0.0005   -0.0021    0.0004
           8   -0.0014   -0.0079   -0.0223    0.0060    0.0090   -0.1043   -0.0077    0.0007
           9   -0.0009   -0.0014   -0.0019    0.0067   -0.0021    0.0029    0.0035    0.0039
          10    0.0032   -0.0094   -0.0055    0.0233   -0.0085   -0.0167   -0.0014    0.0003
          11   -0.0325    0.0057    0.0005    0.0123   -0.0061   -0.0111   -0.0000    0.0003
          12    0.0015    0.0001    0.0096    0.0523   -0.0293   -0.0153   -0.0004   -0.0002
          13   -0.0088   -0.0200    0.0012    0.0200    0.0220    0.0240    0.0013   -0.0033
          14   -0.0056   -0.0173    0.0074   -0.0119   -0.0143   -0.0132   -0.0004    0.0020
          15   -0.0093   -0.0018   -0.0110    0.0327    0.0378    0.0265    0.0012    0.0026
          16   -0.0003    0.0012    0.0046   -0.0004    0.0087   -0.0058   -0.1364   -0.0004
          17    0.0003    0.0020    0.0079   -0.0032    0.0231   -0.0259    0.1043   -0.0001
          18   -0.0010   -0.0027   -0.0094    0.0067   -0.0240    0.0057    0.1578    0.0002
          19    0.0008    0.0016    0.0050   -0.0045    0.0126   -0.0127    0.1093    0.0000
          20   -0.0007   -0.0021   -0.0073    0.0045   -0.0180    0.0176   -0.1181    0.0000
          21   -0.0005   -0.0013   -0.0044    0.0032   -0.0109    0.0149   -0.1131   -0.0000
          22    0.0043   -0.0046    0.0142    0.0181    0.0851    0.0131   -0.0078   -0.3596
          23    0.0020    0.0004    0.0003   -0.0295   -0.0208   -0.0149   -0.0039    0.2153
          24    0.0052   -0.0013    0.0091    0.0140    0.0371    0.0651   -0.0018    0.6443
          25    0.0002    0.0014    0.0055   -0.0073    0.0338    0.0049   -0.0092    0.0023
          26    0.0016    0.0494    0.1293   -0.0287   -0.0109    0.0016   -0.0113    0.0169
          27    0.0012    0.0371    0.0990   -0.0181   -0.0136    0.0749    0.0006   -0.0261
          28   -0.0005    0.0006   -0.0058    0.0053   -0.0387   -0.0076    0.0087   -0.0028
          29   -0.0037    0.0406    0.1173    0.0060   -0.0272    0.0191    0.0036   -0.0154
          30    0.0010   -0.0323   -0.0925    0.0047    0.0233   -0.0825   -0.0053   -0.0252
          31    0.0140    0.0698    0.0967    0.0039    0.0259   -0.0127   -0.0017    0.0000
          32   -0.0165   -0.0057   -0.0100    0.0113   -0.0081   -0.0080    0.0011   -0.0016
          33    0.1442   -0.0617   -0.0625   -0.1174    0.0632   -0.0200   -0.0057   -0.0001
          34   -0.1760    0.0285   -0.0558   -0.1240    0.0040    0.0424    0.0114   -0.0012
          35    0.2456   -0.0923   -0.0657   -0.0573    0.0131    0.0249    0.0057   -0.0015
          36   -0.0259   -0.0119   -0.0534   -0.0787   -0.0091    0.0331    0.0070    0.0049
          37    0.0671    0.1056    0.0006   -0.0738   -0.0787   -0.0404   -0.0009    0.0214
          38    0.0660    0.2191   -0.0904    0.0595    0.0482    0.0223    0.0001   -0.0113
          39    0.0147   -0.0058    0.0231   -0.0505   -0.0470   -0.0227   -0.0007   -0.0308
          40   -0.0129   -0.0112   -0.0016   -0.0015   -0.0036    0.0119    0.0010    0.0176
          41    0.0161   -0.0008    0.0050    0.0233    0.0267    0.0033   -0.0001    0.0116
          42    0.0768    0.1282   -0.0101   -0.0679   -0.0813    0.0023    0.0008   -0.0022
          43    0.0868    0.0028    0.0340    0.0173    0.0082   -0.0095   -0.0016    0.0018
          44    0.1548    0.0200    0.0732   -0.0013    0.0301   -0.0041   -0.0022   -0.0006
          45   -0.1875    0.0408   -0.0320   -0.1290    0.0480   -0.0147   -0.0046    0.0001
          46    0.0244    0.1160   -0.0409   -0.0131   -0.0160    0.0049    0.0004    0.0002
          47    0.0022    0.0108   -0.0028   -0.0104   -0.0137   -0.0120   -0.0003   -0.0235
          48   -0.0242   -0.1438    0.0841   -0.0895   -0.0794    0.0033    0.0009   -0.0026
          49    0.0007   -0.0022   -0.0051    0.0030   -0.0036   -0.0009    0.0260   -0.0001
          50    0.0008    0.0033    0.0107   -0.0075    0.0294   -0.0219    0.1057    0.0025
          51    0.0011    0.0028    0.0038   -0.0123    0.0017    0.0309   -0.0744   -0.0007
          52   -0.0023   -0.0048   -0.0145    0.0111   -0.0205   -0.0001   -0.0334    0.0001
          53   -0.0005   -0.0011   -0.0037    0.0033   -0.0121    0.0129   -0.1239   -0.0008
          54    0.0018    0.0060    0.0197   -0.0087    0.0296   -0.0204    0.0861    0.0001
          55   -0.0003   -0.0030   -0.0109    0.0018   -0.0168    0.0098    0.0524   -0.0000
          56    0.0035    0.0105    0.0350   -0.0193    0.0678   -0.0318    0.0923   -0.0000
          57    0.0005    0.0009    0.0026   -0.0021    0.0037    0.0128   -0.1028    0.0003


   Root No.      41        42        43        44        45        46        47        48

                41 A      42 A      43 A      44 A      45 A      46 A      47 A      48 A   

                3040.7    3075.1    3078.3    3081.3    3081.6    3085.8    3125.4    3135.0
  
           1   -0.0001   -0.0002    0.0004    0.0001    0.0002    0.0001   -0.0009    0.0002
           2   -0.0004    0.0000    0.0002   -0.0001   -0.0001   -0.0000    0.0001   -0.0001
           3    0.0001   -0.0001   -0.0001   -0.0001    0.0002   -0.0006   -0.0001   -0.0003
           4   -0.0001    0.0015   -0.0004    0.0000   -0.0002    0.0010    0.0011    0.0001
           5   -0.0000   -0.0009    0.0001   -0.0002   -0.0000   -0.0007   -0.0002    0.0000
           6    0.0004   -0.0023    0.0002   -0.0005    0.0002   -0.0024   -0.0003   -0.0001
           7    0.0003   -0.0001   -0.0001    0.0002   -0.0001    0.0001   -0.0001    0.0001
           8    0.0002   -0.0001    0.0004   -0.0003    0.0003   -0.0037    0.0402    0.0039
           9    0.0005    0.0020    0.0011   -0.0043    0.0027   -0.0492   -0.0062    0.0006
          10    0.0001    0.0005    0.0361    0.0215    0.0048   -0.0010   -0.0006   -0.0000
          11   -0.0001    0.0005    0.0201   -0.0379   -0.0087    0.0041   -0.0004    0.0000
          12   -0.0001   -0.0005   -0.0287    0.0003    0.0001   -0.0007    0.0002   -0.0000
          13    0.0001    0.0313   -0.0006    0.0053   -0.0238   -0.0009    0.0005    0.0001
          14   -0.0002   -0.0220    0.0003    0.0078   -0.0371   -0.0042   -0.0005   -0.0000
          15   -0.0001   -0.0296    0.0006   -0.0007    0.0025   -0.0009   -0.0003   -0.0000
          16    0.0084   -0.0001    0.0000    0.0000    0.0000   -0.0001    0.0001   -0.0026
          17   -0.0693    0.0001    0.0001   -0.0001    0.0001   -0.0006   -0.0003    0.0020
          18    0.0113   -0.0000    0.0004    0.0000   -0.0000    0.0002   -0.0002    0.0030
          19    0.0002   -0.0000   -0.0000    0.0000    0.0000    0.0001   -0.0003    0.0043
          20    0.0051    0.0000    0.0001   -0.0001    0.0000   -0.0007    0.0040   -0.0643
          21   -0.0019   -0.0000    0.0000    0.0000    0.0000    0.0000   -0.0008    0.0153
          22    0.0011   -0.0132    0.0013   -0.0022    0.0009   -0.0148   -0.0018   -0.0002
          23   -0.0009    0.0078   -0.0011    0.0017   -0.0020    0.0111    0.0011   -0.0000
          24   -0.0025    0.0305   -0.0043    0.0038   -0.0029    0.0241    0.0036    0.0003
          25    0.0002    0.0000   -0.0002    0.0000   -0.0001   -0.0003   -0.0006   -0.0002
          26    0.0040    0.0113    0.0015   -0.0182    0.0119   -0.1988   -0.2670   -0.0204
          27   -0.0050   -0.0154   -0.0027    0.0239   -0.0155    0.2614    0.4002    0.0314
          28   -0.0001   -0.0003   -0.0001    0.0001    0.0001   -0.0007    0.0006    0.0008
          29   -0.0034   -0.0072   -0.0088    0.0225   -0.0138    0.2438   -0.2105   -0.0259
          30   -0.0046   -0.0106   -0.0122    0.0303   -0.0187    0.3313   -0.3259   -0.0393
          31    0.0001   -0.0003   -0.0073    0.0498    0.0113   -0.0044    0.0003   -0.0001
          32    0.0004   -0.0046   -0.2247    0.3375    0.0773   -0.0342    0.0057   -0.0008
          33    0.0008   -0.0003   -0.0154    0.0016    0.0004   -0.0002    0.0001   -0.0000
          34   -0.0008   -0.0039   -0.2348    0.0074    0.0025   -0.0067    0.0018   -0.0002
          35   -0.0005   -0.0020   -0.1239   -0.0208   -0.0043   -0.0009    0.0014   -0.0000
          36    0.0013    0.0063    0.3784    0.0055   -0.0002    0.0101   -0.0026    0.0004
          37   -0.0008   -0.2119    0.0039   -0.0027    0.0072   -0.0074   -0.0023   -0.0000
          38   -0.0000    0.1106   -0.0021    0.0068   -0.0290    0.0012    0.0014    0.0001
          39    0.0007    0.3795   -0.0070    0.0091   -0.0320    0.0126    0.0039    0.0002
          40   -0.0002   -0.1442    0.0032   -0.0721    0.3322    0.0252   -0.0026   -0.0009
          41   -0.0003   -0.0908    0.0019   -0.0333    0.1529    0.0108   -0.0014   -0.0004
          42   -0.0000   -0.0130    0.0003    0.0005   -0.0030   -0.0009   -0.0002   -0.0000
          43   -0.0001   -0.0019   -0.1875   -0.3149   -0.0709    0.0252    0.0047    0.0003
          44   -0.0000    0.0013    0.1087    0.1370    0.0308   -0.0104   -0.0024   -0.0002
          45   -0.0001   -0.0003   -0.0208   -0.0099   -0.0021    0.0004    0.0004   -0.0001
          46   -0.0006   -0.0155    0.0002    0.0116   -0.0544   -0.0050   -0.0003   -0.0000
          47    0.0025    0.2421   -0.0036   -0.0676    0.3202    0.0346    0.0050    0.0008
          48    0.0000   -0.0122    0.0003   -0.0012    0.0054    0.0001    0.0000    0.0000
          49   -0.0643    0.0001    0.0002   -0.0001    0.0003   -0.0006    0.0001   -0.0031
          50    0.7922   -0.0014   -0.0008    0.0002   -0.0012    0.0049    0.0004    0.0084
          51   -0.1745    0.0002    0.0005   -0.0004    0.0002   -0.0008   -0.0002    0.0009
          52   -0.0022    0.0001    0.0002   -0.0002    0.0000   -0.0013    0.0046   -0.0690
          53    0.0075   -0.0006   -0.0012    0.0014   -0.0002    0.0093   -0.0455    0.7235
          54   -0.0001    0.0001    0.0003   -0.0002    0.0000   -0.0018    0.0090   -0.1438
          55   -0.0376    0.0002    0.0001   -0.0001    0.0000   -0.0007   -0.0022    0.0475
          56   -0.0291    0.0002    0.0001   -0.0001    0.0000   -0.0008   -0.0002    0.0119
          57    0.0626   -0.0003   -0.0004    0.0002   -0.0000    0.0013    0.0031   -0.0708


   Root No.      49        50        51

                49 A      50 A      51 A   

                3146.6    3173.4    3173.4
  
           1   -0.0003   -0.0001   -0.0002
           2    0.0002   -0.0000   -0.0001
           3    0.0003   -0.0001   -0.0004
           4    0.0000    0.0003   -0.0001
           5    0.0000   -0.0002    0.0001
           6   -0.0000    0.0001    0.0001
           7   -0.0000   -0.0000    0.0000
           8    0.0001   -0.0001   -0.0001
           9    0.0003   -0.0002    0.0003
          10   -0.0000   -0.0021   -0.0107
          11    0.0000   -0.0012   -0.0060
          12   -0.0001   -0.0032   -0.0165
          13    0.0000    0.0118   -0.0023
          14   -0.0000   -0.0067    0.0013
          15    0.0000    0.0156   -0.0030
          16   -0.0040    0.0000   -0.0000
          17    0.0093    0.0000    0.0000
          18    0.0025   -0.0000    0.0000
          19    0.0350   -0.0000   -0.0000
          20    0.0078    0.0000   -0.0000
          21   -0.0515    0.0000    0.0000
          22    0.0001   -0.0008    0.0007
          23   -0.0001    0.0005   -0.0006
          24   -0.0001    0.0027   -0.0023
          25   -0.0001   -0.0001   -0.0001
          26    0.0001    0.0003    0.0019
          27   -0.0000   -0.0007   -0.0032
          28   -0.0001    0.0001    0.0000
          29   -0.0022    0.0015   -0.0000
          30   -0.0030    0.0026    0.0001
          31   -0.0000    0.0049    0.0252
          32   -0.0002    0.0526    0.2716
          33   -0.0002   -0.0012   -0.0060
          34   -0.0003   -0.0276   -0.1424
          35   -0.0001   -0.0146   -0.0756
          36    0.0005    0.0400    0.2067
          37    0.0001    0.1299   -0.0251
          38    0.0000   -0.0698    0.0135
          39   -0.0000   -0.2093    0.0404
          40   -0.0006   -0.2431    0.0472
          41   -0.0003   -0.1266    0.0246
          42    0.0000    0.0097   -0.0019
          43    0.0002    0.0478    0.2463
          44   -0.0000   -0.0238   -0.1227
          45    0.0000    0.0001    0.0006
          46    0.0000   -0.0298    0.0058
          47    0.0004    0.2774   -0.0539
          48    0.0000    0.0101   -0.0020
          49    0.0070    0.0001   -0.0000
          50   -0.0644   -0.0007   -0.0005
          51    0.0116    0.0001   -0.0001
          52    0.0005    0.0000   -0.0000
          53    0.0995   -0.0004    0.0003
          54   -0.0336    0.0001   -0.0001
          55   -0.3735    0.0002    0.0001
          56   -0.2418    0.0001    0.0001
          57    0.6021   -0.0004   -0.0002


           MASS-WEIGHTED COORDINATE ANALYSIS (NORMAL COORDINATES)


   Root No.       1         2         3         4         5         6         7         8

                 1 A       2 A       3 A       4 A       5 A       6 A       7 A       8 A   

                  88.0     149.0     151.9     198.5     230.2     283.8     352.1     441.3
  
           1   -0.0689   -0.0194   -0.0125   -0.0461   -0.0287   -0.0444    0.1900   -0.1001
           2   -0.0139   -0.0325    0.0231   -0.0471   -0.1309    0.2870    0.1028    0.1462
           3   -0.1328    0.0121    0.0090    0.0709    0.0944    0.0637   -0.0227   -0.2387
           4   -0.0659   -0.0163   -0.0171   -0.0447   -0.0099   -0.0333    0.1893   -0.0833
           5    0.0210   -0.0319    0.0197    0.1658   -0.2643   -0.0425    0.1797   -0.1997
           6    0.0611    0.0050   -0.0003    0.0322    0.0467   -0.0245    0.0020   -0.1018
           7   -0.0959   -0.0176   -0.0112   -0.2264    0.0971    0.2391    0.1400    0.2412
           8    0.0026   -0.0339    0.0243    0.0589   -0.2101    0.1156    0.1409   -0.0398
           9   -0.1008    0.0613    0.0428    0.3087   -0.0044   -0.2632    0.0209    0.4213
          10    0.0927    0.0268    0.0812    0.2700   -0.0702    0.2127   -0.3084   -0.1540
          11   -0.0574   -0.0569   -0.0794   -0.2457    0.2341   -0.1275   -0.1777   -0.2225
          12   -0.2102   -0.0067   -0.0081   -0.0472   -0.0278    0.0430    0.3587   -0.1120
          13   -0.2487    0.0679   -0.0211    0.2389    0.3876    0.0465    0.0173   -0.0401
          14    0.0976   -0.0449   -0.0854   -0.1424    0.3324   -0.0821   -0.0330    0.1726
          15    0.2059   -0.0550   -0.0376   -0.2753    0.0031   -0.1050    0.0516   -0.0001
          16   -0.1363   -0.0945   -0.0340   -0.2555   -0.3270   -0.1764   -0.1055    0.0497
          17   -0.0682    0.0393    0.0460    0.0193   -0.1071    0.2418   -0.0777    0.1853
          18   -0.1939   -0.0046    0.0039   -0.0296   -0.0851   -0.0269   -0.2746   -0.1549
          19    0.5041    0.0310   -0.0004   -0.0047   -0.1006   -0.3058    0.0208    0.0267
          20    0.0168    0.1530    0.0844    0.2290    0.0085   -0.2238   -0.0576   -0.0087
          21    0.3373   -0.0020   -0.0035   -0.0028    0.0131    0.3492   -0.1899    0.0266
          22    0.0213   -0.0095   -0.0144   -0.0355   -0.0483   -0.0602    0.0754   -0.0332
          23   -0.0057    0.0115    0.0122    0.1347   -0.1466   -0.0985    0.0856   -0.0509
          24    0.0437   -0.0084   -0.0073   -0.0346    0.0114   -0.0087    0.0018   -0.0333
          25   -0.0016   -0.0030    0.0004   -0.0899    0.0207    0.1015    0.0431    0.1633
          26   -0.0137    0.0033    0.0179    0.0757   -0.0699   -0.0289    0.0427    0.1739
          27   -0.0395    0.0271    0.0198    0.1315   -0.0078   -0.1213    0.0076    0.2602
          28   -0.0581   -0.0031   -0.0033   -0.0933    0.0731    0.1191    0.0244    0.0955
          29    0.0169   -0.0229   -0.0023   -0.0413   -0.0489    0.0933    0.0383   -0.1999
          30   -0.0403    0.0268    0.0192    0.1312   -0.0091   -0.1196    0.0081    0.2613
          31    0.0337    0.1262    0.5234    0.0087   -0.0245    0.1170   -0.0937    0.0001
          32   -0.0176   -0.0295   -0.0776   -0.0656    0.0718   -0.0471   -0.0559   -0.0757
          33   -0.0597   -0.0558   -0.2326    0.0757   -0.1132    0.1013    0.2139    0.0924
          34    0.0574   -0.0449   -0.2230    0.1895   -0.0338    0.0979   -0.2219   -0.0678
          35   -0.0193    0.0914    0.4381   -0.1947    0.1540   -0.0938   -0.1199   -0.1413
          36   -0.0431    0.0007   -0.0042    0.0140    0.0111    0.0155    0.0056   -0.0688
          37   -0.1065   -0.2163    0.0712    0.1953    0.1868    0.0217   -0.0214   -0.0182
          38    0.0588   -0.4888    0.0957   -0.0080    0.2017   -0.0594   -0.0228    0.1285
          39    0.0320   -0.0065   -0.0038   -0.0217    0.0101   -0.0163    0.0043   -0.0247
          40   -0.0666   -0.1868    0.0578    0.1193    0.0899    0.0048    0.0255   -0.0424
          41    0.0160    0.4110   -0.1562   -0.1423    0.1506   -0.0053   -0.0550    0.1189
          42    0.0876    0.2363   -0.0807   -0.1768   -0.1594   -0.0344    0.0734   -0.0621
          43    0.0264   -0.0435   -0.1947    0.1152   -0.0196    0.0435   -0.1036   -0.0675
          44   -0.0225   -0.1220   -0.4683   -0.0104    0.0777   -0.0908   -0.0642   -0.1200
          45   -0.0998    0.0447    0.2261   -0.1618    0.0495   -0.0871    0.2208   -0.0677
          46   -0.0864    0.4910   -0.1515   -0.0382    0.1725    0.0360   -0.0442    0.0573
          47    0.0267    0.0492   -0.0444   -0.0570    0.1073   -0.0214   -0.0171    0.0635
          48    0.0937   -0.2916    0.0424   -0.1197    0.1381   -0.0628   -0.0196    0.1257
          49   -0.2106   -0.0832   -0.0217   -0.1961   -0.2432   -0.0576   -0.2306    0.1164
          50   -0.0648    0.0058    0.0131   -0.0107   -0.0599    0.0434   -0.0740    0.0674
          51   -0.1965   -0.0078    0.0031   -0.0414   -0.1033   -0.1117   -0.2416   -0.0149
          52    0.3053    0.0611    0.0122    0.1166    0.1152   -0.1281    0.2181   -0.1331
          53    0.0491    0.0504    0.0252    0.0835    0.0313   -0.0358    0.0323   -0.0151
          54    0.2450    0.0037   -0.0037    0.0262    0.0802    0.2803    0.0910    0.0183
          55    0.1511   -0.0113   -0.0041   -0.0552   -0.1102   -0.0831   -0.1663    0.1359
          56   -0.0192    0.0681    0.0337    0.1052    0.0057   -0.2376   -0.0566   -0.0645
          57    0.0917   -0.0040    0.0001   -0.0194   -0.0454    0.0398   -0.1787    0.0646


   Root No.       9        10        11        12        13        14        15        16

                 9 A      10 A      11 A      12 A      13 A      14 A      15 A      16 A   

                 457.8     544.2     669.0     778.9     850.7     897.1     930.0     931.1
  
           1   -0.0776    0.2403    0.0584    0.1564    0.1445    0.0783   -0.0177   -0.0936
           2    0.0208   -0.3449   -0.0302    0.0195   -0.2230   -0.2019   -0.0172   -0.0474
           3   -0.2426   -0.1161    0.0646    0.0525   -0.0291    0.0528    0.0017    0.1006
           4   -0.0113    0.3557    0.1688   -0.1516   -0.1852   -0.1612    0.0115    0.0026
           5    0.0779    0.0834    0.1059   -0.2436    0.0289    0.1309   -0.0061    0.0072
           6    0.4391   -0.2149   -0.0831    0.0142    0.1246    0.1331    0.0055    0.0281
           7   -0.1357   -0.1225    0.1085   -0.3216    0.1803    0.1612    0.0119    0.0761
           8    0.0207   -0.2088    0.0009   -0.0235    0.0676    0.1249   -0.0575   -0.1279
           9   -0.0932    0.0332   -0.0299    0.0113    0.0295    0.0264    0.0791    0.2436
          10   -0.2547   -0.0470    0.0483    0.2310    0.1337   -0.0098    0.0364   -0.1636
          11   -0.0442   -0.0044    0.0229    0.1130   -0.0880   -0.1923    0.0512    0.0425
          12   -0.1730   -0.0903    0.1350    0.3291    0.0926   -0.1135    0.0509    0.0223
          13    0.3729   -0.0090    0.0109   -0.0643   -0.2463   -0.1175   -0.0263   -0.0702
          14   -0.1757    0.0233    0.0251   -0.0753    0.0816    0.1252   -0.0030   -0.0139
          15    0.1862    0.0103   -0.0200   -0.0089   -0.2069    0.0446   -0.0412   -0.0737
          16    0.0192   -0.0385   -0.4309    0.1003   -0.0170    0.0095   -0.2806    0.1064
          17    0.1742    0.3405   -0.1533    0.2150   -0.0211    0.0218   -0.0695    0.0142
          18   -0.1604    0.0293   -0.2016   -0.3078    0.0299   -0.0473   -0.2100    0.0034
          19    0.0224   -0.1929   -0.0169    0.1202   -0.0088    0.0292   -0.0537    0.0954
          20   -0.0133    0.0702   -0.0005    0.0400    0.0107    0.0500    0.0045    0.1013
          21    0.0372    0.2318    0.0515   -0.1883    0.0140   -0.0801   -0.0801   -0.1501
          22    0.0421    0.1819    0.0542   -0.1194   -0.0043   -0.0753    0.0681    0.1726
[...]
 FREQ.      1359.07         C  5 -- H 16          +9.3% ( 34.6%)      1.6%
 T-DIPOLE    0.0324         C  5 -- H 14          +8.9% ( 33.9%)      2.7%
 TRAVEL      0.1235         C  1 -- C  6          +7.6% ( 31.4%)     79.6%
 RED. MASS   0.2005         C  4 -- H 12          +7.5% ( 31.2%)      0.1%
 EFF. MASS   3.2554

 VIBRATION   31   31A         ATOM PAIR      ENERGY CONTRIBUTION    RADIAL
 FREQ.      1395.47         C  4 -- H 11         +27.9% ( 51.2%)      0.9%
 T-DIPOLE    0.0661         C  4 -- H 15         +17.0% ( 39.9%)      8.3%
 TRAVEL      0.1490         C  3 -- H 10         +12.7% ( 34.5%)      1.9%
 RED. MASS   0.2479         C  3 -- H  9         +12.3% ( 34.0%)      2.2%
 EFF. MASS   2.1776

 VIBRATION   32   32A         ATOM PAIR      ENERGY CONTRIBUTION    RADIAL
 FREQ.      1395.74         C  5 -- H 14         +46.5% ( 61.0%)      0.6%
 T-DIPOLE    0.0451         C  5 -- H 16         +28.5% ( 47.8%)      5.8%
 TRAVEL      0.1645         C  5 -- H 13         +11.0% ( 29.6%)     29.6%
 RED. MASS   0.3964         C  2 -- C  5          +6.5% ( 22.8%)     26.6%
 EFF. MASS   1.7846

 VIBRATION   33   33A         ATOM PAIR      ENERGY CONTRIBUTION    RADIAL
 FREQ.      1400.41         C  4 -- H 12         +41.9% ( 57.0%)      0.4%
 T-DIPOLE    0.0526         C  4 -- H 15         +30.7% ( 48.8%)      2.5%
 TRAVEL      0.1694         C  4 -- H 11         +10.4% ( 28.5%)     34.4%
 RED. MASS   0.3451         C  1 -- C  4          +5.1% ( 19.9%)     16.4%
 EFF. MASS   1.6778

 VIBRATION   34   34A         ATOM PAIR      ENERGY CONTRIBUTION    RADIAL
 FREQ.      1401.53         C  5 -- H 13         +38.3% ( 54.9%)      0.1%
 T-DIPOLE    0.0734         C  5 -- H 16         +22.8% ( 42.3%)      3.6%
 TRAVEL      0.1675         C  5 -- H 14         +11.4% ( 29.9%)     25.2%
 RED. MASS   0.2739         C  4 -- H 12          +6.0% ( 21.8%)      0.7%
 EFF. MASS   1.7152

 VIBRATION   35   35A         ATOM PAIR      ENERGY CONTRIBUTION    RADIAL
 FREQ.      1407.30         C  3 -- H  9         +20.2% ( 45.5%)      2.0%
 T-DIPOLE    0.0868         C  3 -- H 10         +17.2% ( 42.0%)      3.7%
 TRAVEL      0.1385         C  4 -- H 11          +7.9% ( 28.5%)      0.0%
 RED. MASS   0.1877         C  1 -- C  6          +6.3% ( 25.4%)     98.4%
 EFF. MASS   2.4972

 VIBRATION   36   36A         ATOM PAIR      ENERGY CONTRIBUTION    RADIAL
 FREQ.      1420.53         C  1 -- C  4         +17.1% ( 57.0%)     99.1%
 T-DIPOLE    0.0591         C  4 -- H 12         +13.6% ( 50.9%)      5.9%
 TRAVEL      0.0854         C  4 -- H 15         +11.8% ( 47.4%)      2.9%
 RED. MASS   1.0371         C  4 -- H 11         +11.2% ( 46.2%)      2.4%
 EFF. MASS   6.5090

 VIBRATION   37   37A         ATOM PAIR      ENERGY CONTRIBUTION    RADIAL
 FREQ.      1441.76         C  1 -- C  6         +15.0% ( 58.8%)     94.5%
 T-DIPOLE    0.0605         C  1 -- C  4         +12.7% ( 54.1%)     51.7%
 TRAVEL      0.0728         C  1 -- C  2         +12.6% ( 53.8%)      0.0%
 RED. MASS   1.6100         C  1 -- C  3         +10.1% ( 48.2%)     25.3%
 EFF. MASS   8.8368

 VIBRATION   38   38A         ATOM PAIR      ENERGY CONTRIBUTION    RADIAL
 FREQ.      1620.98         C  1 -- C  2         +20.0% ( 74.1%)     98.5%
 T-DIPOLE    0.0331         C  1 -- C  3         +17.1% ( 68.5%)     99.4%
 TRAVEL      0.0596         C  2 -- C  3         +15.4% ( 65.0%)     96.6%
 RED. MASS   3.3780         C  1 -- C  6          +9.4% ( 50.7%)     39.5%
 EFF. MASS  11.7176

 VIBRATION   39   39A         ATOM PAIR      ENERGY CONTRIBUTION    RADIAL
 FREQ.      1865.08         C  6 -- C  7         +44.4% ( 98.5%)     98.5%
 T-DIPOLE    0.1854         C  1 -- C  6         +17.4% ( 61.7%)     61.9%
 TRAVEL      0.0553         C  6 -- H 17         +15.4% ( 58.0%)      3.6%
 RED. MASS   5.2311         C  7 -- H 18         +10.6% ( 48.1%)     10.6%
 EFF. MASS  11.8270         C  7 -- H 19         +10.4% ( 47.6%)     13.0%

 VIBRATION   40   40A         ATOM PAIR      ENERGY CONTRIBUTION    RADIAL
 FREQ.      2991.85         C  2 -- H  8         +95.8% ( 99.6%)    100.0%
 T-DIPOLE    0.1939         C  2 -- C  5          +1.1% ( 10.8%)     10.9%
 TRAVEL      0.1246         C  2 -- C  3          +1.1% ( 10.8%)     21.7%
 RED. MASS   0.9158         C  1 -- C  2          +1.1% ( 10.7%)     22.7%
 EFF. MASS   1.4525

 VIBRATION   41   41A         ATOM PAIR      ENERGY CONTRIBUTION    RADIAL
 FREQ.      3040.66         C  6 -- H 17         +96.3% ( 99.5%)    100.0%
 T-DIPOLE    0.2415         C  6 -- C  7          +1.4% ( 12.1%)     31.8%
 TRAVEL      0.1214         C  1 -- C  6          +1.4% ( 11.8%)     12.9%
 RED. MASS   0.9133         C  7 -- H 19          +0.9% (  9.5%)     95.3%
 EFF. MASS   1.5042

 VIBRATION   42   42A         ATOM PAIR      ENERGY CONTRIBUTION    RADIAL
 FREQ.      3075.08         C  5 -- H 13         +67.3% ( 84.6%)     99.0%
 T-DIPOLE    0.0392         C  5 -- H 16         +20.6% ( 46.8%)     88.0%
 TRAVEL      0.1206         C  5 -- H 14         +10.6% ( 33.6%)     75.4%
 RED. MASS   0.5347         C  2 -- C  5          +1.0% ( 10.4%)      0.0%
 EFF. MASS   1.5068

 VIBRATION   43   43A         ATOM PAIR      ENERGY CONTRIBUTION    RADIAL
 FREQ.      3078.28         C  4 -- H 12         +66.7% ( 84.3%)     99.0%
 T-DIPOLE    0.0172         C  4 -- H 11         +16.6% ( 42.0%)     84.3%
 TRAVEL      0.1204         C  4 -- H 15         +15.5% ( 40.7%)     83.0%
 RED. MASS   0.5271         C  1 -- C  4          +1.0% ( 10.6%)      0.1%
 EFF. MASS   1.5114

 VIBRATION   44   44A         ATOM PAIR      ENERGY CONTRIBUTION    RADIAL
 FREQ.      3081.34         C  4 -- H 15         +46.7% ( 70.5%)     97.1%
 T-DIPOLE    0.0332         C  4 -- H 11         +46.0% ( 70.0%)     96.9%
 TRAVEL      0.1205         C  5 -- H 14          +2.5% ( 16.3%)     97.9%
 RED. MASS   0.4572         C  5 -- H 16          +1.9% ( 14.1%)     95.7%
 EFF. MASS   1.5061

 VIBRATION   45   45A         ATOM PAIR      ENERGY CONTRIBUTION    RADIAL
 FREQ.      3081.64         C  5 -- H 14         +51.6% ( 74.1%)     97.7%
 T-DIPOLE    0.0205         C  5 -- H 16         +40.9% ( 66.0%)     96.1%
 TRAVEL      0.1205         C  4 -- H 11          +2.4% ( 15.8%)     97.1%
 RED. MASS   0.4612         C  4 -- H 15          +2.3% ( 15.7%)     97.0%
 EFF. MASS   1.5071

 VIBRATION   46   46A         ATOM PAIR      ENERGY CONTRIBUTION    RADIAL
 FREQ.      3085.77         C  3 -- H 10         +57.8% ( 78.5%)     98.1%
 T-DIPOLE    0.1837         C  3 -- H  9         +38.1% ( 63.8%)     95.8%
 TRAVEL      0.1187         C  1 -- C  3          +1.1% ( 11.1%)      0.4%
 RED. MASS   0.5210         C  2 -- C  3          +1.1% ( 11.0%)      0.2%
 EFF. MASS   1.5522

 VIBRATION   47   47A         ATOM PAIR      ENERGY CONTRIBUTION    RADIAL
 FREQ.      3125.42         C  3 -- H  9         +59.6% ( 76.8%)     97.7%
 T-DIPOLE    0.2113         C  3 -- H 10         +38.0% ( 61.4%)     94.2%
 TRAVEL      0.1287         C  2 -- C  3          +0.8% (  9.1%)     75.6%
 RED. MASS   0.4987         C  1 -- C  3          +0.8% (  9.1%)     74.3%
 EFF. MASS   1.3033

 VIBRATION   48   48A         ATOM PAIR      ENERGY CONTRIBUTION    RADIAL
 FREQ.      3134.96         C  7 -- H 18         +95.1% ( 99.0%)    100.0%
 T-DIPOLE    0.1974         C  7 -- H 19          +3.0% ( 17.5%)     50.4%
 TRAVEL      0.1191         C  6 -- C  7          +1.3% ( 11.8%)     31.0%
 RED. MASS   0.8965         C  3 -- H 10          +0.4% (  6.1%)     97.8%
 EFF. MASS   1.5172

 VIBRATION   49   49A         ATOM PAIR      ENERGY CONTRIBUTION    RADIAL
 FREQ.      3146.57         C  7 -- H 19         +95.2% ( 98.5%)     99.9%
 T-DIPOLE    0.2454         C  7 -- H 18          +2.4% ( 15.7%)      7.3%
 TRAVEL      0.1201         C  6 -- C  7          +1.6% ( 12.6%)     62.9%
 RED. MASS   0.8812         C  6 -- H 17          +0.8% (  8.9%)     95.1%
 EFF. MASS   1.4863

 VIBRATION   50   50A         ATOM PAIR      ENERGY CONTRIBUTION    RADIAL
 FREQ.      3173.41         C  5 -- H 16         +34.4% ( 56.5%)     97.5%
 T-DIPOLE    0.0228         C  5 -- H 14         +33.1% ( 55.4%)     97.3%
 TRAVEL      0.1367         C  5 -- H 13         +28.5% ( 51.4%)     96.3%
 RED. MASS   0.3058         C  4 -- H 15          +1.3% ( 10.8%)     97.3%
 EFF. MASS   1.1374

 VIBRATION   51   51A         ATOM PAIR      ENERGY CONTRIBUTION    RADIAL
 FREQ.      3173.43         C  4 -- H 15         +33.4% ( 55.6%)     97.3%
 T-DIPOLE    0.0332         C  4 -- H 11         +32.7% ( 55.1%)     97.2%
 TRAVEL      0.1368         C  4 -- H 12         +30.0% ( 52.8%)     96.7%
 RED. MASS   0.3047         C  5 -- H 16          +1.3% ( 11.0%)     97.5%
 EFF. MASS   1.1355

      SYMMETRY NUMBER FOR POINT-GROUP C1  =  1


          SYSTEM IS A GROUND STATE



 InChI=1S/C7H12/c1-4-7(3)5-6(7)2/h4,6H,1,5H2,2-3H3


          MOLECULE IS NOT LINEAR

          THERE ARE 51 GENUINE VIBRATIONS IN THIS SYSTEM
          THIS THERMODYNAMICS CALCULATION IS LIMITED TO
          MOLECULES WHICH HAVE NO INTERNAL ROTATIONS




                    CALCULATED THERMODYNAMIC PROPERTIES
                                          *
   TEMP. (K)   PARTITION FUNCTION   H.O.F.    ENTHALPY  HEAT CAPACITY ENTROPY
                                   KCAL/MOL   CAL/MOLE    CAL/K/MOL  CAL/K/MOL


 298.00  VIB.     0.7169D+02                  3425.7947    24.6589    19.9860
         ROT.     0.2320D+06                   888.2813     2.9808    27.5315
         INT.     0.1663D+08                  4314.0760    27.6397    47.5175
         TRA.     0.9118D+27                  1480.4688     4.9680    39.5994
         TOT.                       20.171    5794.5448    32.6077    87.1169

 200.00  VIB.     0.1121D+02                  1463.2888    15.6615    12.1192
         ROT.     0.1275D+06                   596.1620     2.9808    26.3428
         INT.     0.1430D+07                  2059.4508    18.6423    38.4620
         TRA.     0.5013D+27                   993.6033     4.9680    37.6183
         TOT.                       17.430    3053.0540    23.6103    76.0803

 210.00  VIB.     0.1348D+02                  1624.0694    16.4980    12.9035
         ROT.     0.1372D+06                   625.9700     2.9808    26.4883
         INT.     0.1850D+07                  2250.0395    19.4788    39.3917
         TRA.     0.5394D+27                  1043.2834     4.9680    37.8607
         TOT.                       17.670    3293.3229    24.4468    77.2524

 220.00  VIB.     0.1624D+02                  1793.3172    17.3551    13.6907
         ROT.     0.1471D+06                   655.7781     2.9808    26.6269
         INT.     0.2390D+07                  2449.0954    20.3359    40.3176
         TRA.     0.5784D+27                  1092.9636     4.9680    38.0918
         TOT.                       17.919    3542.0590    25.3039    78.4094

 230.00  VIB.     0.1958D+02                  1971.2403    18.2330    14.4814
         ROT.     0.1573D+06                   685.5862     2.9808    26.7594
         INT.     0.3080D+07                  2656.8265    21.2138    41.2409
         TRA.     0.6182D+27                  1142.6437     4.9680    38.3126
         TOT.                       18.176    3799.4702    26.1818    79.5535

 240.00  VIB.     0.2363D+02                  2158.0455    19.1314    15.2763
         ROT.     0.1677D+06                   715.3943     2.9808    26.8863
         INT.     0.3962D+07                  2873.4398    22.1122    42.1626
         TRA.     0.6590D+27                  1192.3239     4.9680    38.5241
         TOT.                       18.442    4065.7637    27.0802    80.6867

 250.00  VIB.     0.2855D+02                  2353.9315    20.0489    16.0759
         ROT.     0.1782D+06                   745.2024     2.9808    27.0080
         INT.     0.5088D+07                  3099.1339    23.0297    43.0838
         TRA.     0.7006D+27                  1242.0041     4.9680    38.7269
         TOT.                       18.718    4341.1380    27.9977    81.8107

 260.00  VIB.     0.3452D+02                  2559.0824    20.9840    16.8804
         ROT.     0.1890D+06                   775.0105     2.9808    27.1249
         INT.     0.6526D+07                  3334.0929    23.9648    44.0052
         TRA.     0.7431D+27                  1291.6842     4.9680    38.9217
         TOT.                       19.002    4625.7771    28.9329    82.9269

 270.00  VIB.     0.4178D+02                  2773.6638    21.9347    17.6901
         ROT.     0.2001D+06                   804.8186     2.9808    27.2374
         INT.     0.8359D+07                  3578.4825    24.9155    44.9274
         TRA.     0.7864D+27                  1341.3644     4.9680    39.1092
         TOT.                       19.296    4919.8468    29.8835    84.0367

 280.00  VIB.     0.5062D+02                  2997.8196    22.8985    18.5052
         ROT.     0.2113D+06                   834.6267     2.9808    27.3458
         INT.     0.1070D+08                  3832.4464    25.8793    45.8509
         TRA.     0.8304D+27                  1391.0445     4.9680    39.2899
         TOT.                       19.600    5223.4909    30.8473    85.1408

 290.00  VIB.     0.6140D+02                  3231.6698    23.8731    19.3257
         ROT.     0.2227D+06                   864.4348     2.9808    27.4504
         INT.     0.1367D+08                  4096.1046    26.8539    46.7761
         TRA.     0.8753D+27                  1440.7247     4.9680    39.4642
         TOT.                       19.913    5536.8294    31.8219    86.2403

 300.00  VIB.     0.7453D+02                  3475.3095    24.8560    20.1516
         ROT.     0.2343D+06                   894.2429     2.9808    27.5514
         INT.     0.1746D+08                  4369.5525    27.8368    47.7030
         TRA.     0.9210D+27                  1490.4049     4.9680    39.6326
         TOT.                       20.236    5859.9573    32.8048    87.3356

 310.00  VIB.     0.9056D+02                  3728.8089    25.8446    20.9827
         ROT.     0.2461D+06                   924.0510     2.9808    27.6492
         INT.     0.2229D+08                  4652.8599    28.8254    48.6319
         TRA.     0.9674D+27                  1540.0850     4.9680    39.7955
         TOT.                       20.569    6192.9450    33.7935    88.4274

 320.00  VIB.     0.1101D+03                  3992.2133    26.8366    21.8189
         ROT.     0.2581D+06                   953.8591     2.9808    27.7438
         INT.     0.2843D+08                  4946.0724    29.8174    49.5627
         TRA.     0.1015D+28                  1589.7652     4.9680    39.9533
         TOT.                       20.912    6535.8376    34.7854    89.5160

 330.00  VIB.     0.1341D+03                  4265.5443    27.8296    22.6599
         ROT.     0.2703D+06                   983.6672     2.9808    27.8355
         INT.     0.3624D+08                  5249.2116    30.8104    50.4954
         TRA.     0.1063D+28                  1639.4454     4.9680    40.1062
         TOT.                       21.265    6888.6569    35.7784    90.6016

 340.00  VIB.     0.1634D+03                  4548.8011    28.8214    23.5054
         ROT.     0.2827D+06                  1013.4753     2.9808    27.9245
         INT.     0.4618D+08                  5562.2764    31.8022    51.4299
         TRA.     0.1111D+28                  1689.1255     4.9680    40.2545
         TOT.                       21.628    7251.4019    36.7702    91.6844

 350.00  VIB.     0.1992D+03                  4841.9615    29.8100    24.3552
         ROT.     0.2953D+06                  1043.2834     2.9808    28.0109
         INT.     0.5882D+08                  5885.2449    32.7908    52.3661
         TRA.     0.1161D+28                  1738.8057     4.9680    40.3985
         TOT.                       22.001    7624.0506    37.7588    92.7646

 360.00  VIB.     0.2432D+03                  5144.9843    30.7936    25.2087
         ROT.     0.3080D+06                  1073.0915     2.9808    28.0949
         INT.     0.7489D+08                  6218.0758    33.7744    53.3036
         TRA.     0.1211D+28                  1788.4859     4.9680    40.5384
         TOT.                       22.383    8006.5616    38.7424    93.8421

 370.00  VIB.     0.2970D+03                  5457.8107    31.7705    26.0658
         ROT.     0.3209D+06                  1102.8996     2.9808    28.1766
         INT.     0.9533D+08                  6560.7103    34.7513    54.2424
         TRA.     0.1261D+28                  1838.1660     4.9680    40.6745
         TOT.                       22.775    8398.8763    39.7193    94.9169

 380.00  VIB.     0.3632D+03                  5780.3661    32.7392    26.9259
         ROT.     0.3340D+06                  1132.7077     2.9808    28.2561
         INT.     0.1213D+09                  6913.0738    35.7200    55.1820
         TRA.     0.1313D+28                  1887.8462     4.9680    40.8070
         TOT.                       23.177    8800.9200    40.6880    95.9890

 390.00  VIB.     0.4444D+03                  6112.5623    33.6984    27.7888
         ROT.     0.3473D+06                  1162.5158     2.9808    28.3335
         INT.     0.1543D+09                  7275.0781    36.6792    56.1223
         TRA.     0.1365D+28                  1937.5263     4.9680    40.9361
         TOT.                       23.589    9212.6044    41.6472    97.0583

 400.00  VIB.     0.5442D+03                  6454.2988    34.6471    28.6539
         ROT.     0.3607D+06                  1192.3239     2.9808    28.4090
         INT.     0.1963D+09                  7646.6227    37.6279    57.0629
         TRA.     0.1418D+28                  1987.2065     4.9680    41.0619
         TOT.                       24.010    9633.8292    42.5959    98.1247

   *: NOTE: HEATS OF FORMATION ARE RELATIVE TO THE
            ELEMENTS IN THEIR STANDARD STATE AT 298K
              (=  Standard Enthalpy of Formation).

            Hvib:  Zero-point energy is not included.
                   frequencies of less than zero cm-1 are not included.
            Hrot = (3/2)RT
            Htra = (3/2)RT + pV = (5/2)RT

            Heat capacity is Cp, not Cv

          For more information, see: HTTP://OpenMOPAC.net/Manual/thermochemistry.html


           FORCE CONSTANT IN CARTESIAN COORDINATES (Millidynes/A)

    ATOM   CHEMICAL       X               Y               Z
   NUMBER   SYMBOL  FORCE CONSTANT  FORCE CONSTANT  FORCE CONSTANT

      1       C        9.917063        7.015653        9.557333
      2       C        9.628986        6.630580        9.118561
      3       C        4.604317       11.560385        8.896622
      4       C        8.395128        8.271929        8.568200
      5       C        8.469518        8.293691        8.526779
      6       C        6.973448       11.227663        9.395536
      7       C        6.562944       11.065463        8.899328
      8       H        1.663437        0.928412        3.719598
      9       H        0.529182        2.296454        3.819493
     10       H        0.533978        2.275687        3.808566
     11       H        0.714454        5.317200        0.696923
     12       H        1.966454        1.026380        3.781074
     13       H        1.777460        0.982793        3.980918
     14       H        4.445026        1.589137        0.689634
     15       H        4.499689        1.532486        0.694605
     16       H        0.729894        5.302510        0.696546
     17       H        0.510959        4.844341        0.814251
     18       H        0.518124        5.175571        0.755468
     19       H        1.661694        1.160517        3.656671

 **********************
 *                    *
 * JOB ENDED NORMALLY *
 *                    *
 **********************



 TOTAL JOB TIME:             1.61 SECONDS

 == MOPAC DONE ==
