 *******************************************************************************
 ** Site#: 14399        For non-commercial use only    Version 18.184L 64BITS **
 *******************************************************************************
 ** Cite this program as: MOPAC2016, Version: 18.184L, James J. P. Stewart,   **
 ** Stewart Computational Chemistry, web: HTTP://OpenMOPAC.net. Days left:  18**
 *******************************************************************************
 **                                                                           **
 **                                MOPAC2016                                  **
 **                                                                           **
 *******************************************************************************

                              PM3 CALCULATION RESULTS

 *******************************************************************************
 *  CALCULATION DONE:                                Sat Jun 15 10:11:53 2019  *
 *  PM3        - The PM3 Hamiltonian to be used
 *  PRECISE    - CRITERIA TO BE INCREASED BY 100 TIMES
 *  NOSYM      - POINT-GROUP SYMMETRY SET TO C1
 *  THREADS=1  - MULTI-THREADING NOT USED
 *  T=         - A TIME OF 172800.0 SECONDS REQUESTED
 *  DUMP=N     - RESTART FILE WRITTEN EVERY  7200.000 SECONDS
 *******************************************************************************
pm3  precise nosym THREADS=1
 InChI=1S/C10H10/c1-2-6-10-8-4-3-7-9(10)5-1/h1-3,5-9H,4H2

   ATOM   CHEMICAL          X               Y               Z
  NUMBER   SYMBOL      (ANGSTROMS)     (ANGSTROMS)     (ANGSTROMS)
 
     1       C          0.23080000  *  -0.76640000  *  -0.35740000  *
     2       C         -2.46380000  *   0.22090000  *  -0.04390000  *
     3       C         -0.04280000  *   0.72640000  *  -0.26340000  *
     4       C         -0.78660000  *  -1.54750000  *   0.44220000  *
     5       C         -1.30320000  *   1.17530000  *  -0.16320000  *
     6       C          1.63800000  *  -1.11490000  *   0.07210000  *
     7       C         -2.04640000  *  -1.09910000  *   0.55970000  *
     8       C          1.08810000  *   1.67380000  *  -0.29430000  *
     9       C          2.60900000  *  -0.19560000  *   0.13230000  *
    10       C          2.33440000  *   1.23240000  *  -0.11440000  *
    11       H          0.11870000  *  -1.06890000  *  -1.42080000  *
    12       H         -3.23900000  *   0.68020000  *   0.60500000  *
    13       H         -2.90390000  *   0.04600000  *  -1.04790000  *
    14       H          1.89520000  *  -2.15430000  *   0.23830000  *
    15       H         -0.52830000  *  -2.51730000  *   0.85860000  *
    16       H         -1.50360000  *   2.23980000  *  -0.12910000  *
    17       H         -2.78350000  *  -1.70150000  *   1.08160000  *
    18       H          3.61880000  *  -0.50140000  *   0.37440000  *
    19       H          3.15640000  *   1.93670000  *  -0.10940000  *
    20       H          0.91150000  *   2.73550000  *  -0.42040000  *
 


          CARTESIAN COORDINATES 

    NO.       ATOM           X           Y           Z

     1         C          0.2308     -0.7664     -0.3574
     2         C         -2.4638      0.2209     -0.0439
     3         C         -0.0428      0.7264     -0.2634
     4         C         -0.7866     -1.5475      0.4422
     5         C         -1.3032      1.1753     -0.1632
     6         C          1.6380     -1.1149      0.0721
     7         C         -2.0464     -1.0991      0.5597
     8         C          1.0881      1.6738     -0.2943
     9         C          2.6090     -0.1956      0.1323
    10         C          2.3344      1.2324     -0.1144
    11         H          0.1187     -1.0689     -1.4208
    12         H         -3.2390      0.6802      0.6050
    13         H         -2.9039      0.0460     -1.0479
    14         H          1.8952     -2.1543      0.2383
    15         H         -0.5283     -2.5173      0.8586
    16         H         -1.5036      2.2398     -0.1291
    17         H         -2.7835     -1.7015      1.0816
    18         H          3.6188     -0.5014      0.3744
    19         H          3.1564      1.9367     -0.1094
    20         H          0.9115      2.7355     -0.4204

  H: (PM3): J. J. P. STEWART, J. COMP. CHEM. 10, 209 (1989).
  C: (PM3): J. J. P. STEWART, J. COMP. CHEM. 10, 209 (1989).

           Empirical Formula: C10 H10  =    20 atoms



      MOLECULAR POINT GROUP   :   C1  


      RHF CALCULATION, NO. OF DOUBLY OCCUPIED LEVELS = 25


          Geometry optimization using EF

          DIAGONAL MATRIX USED AS START HESSIAN

 CYCLE:     1 TIME:   0.008 TIME LEFT:  2.00D  GRAD.:    84.239 HEAT:  57.22338
 CYCLE:     2 TIME:   0.012 TIME LEFT:  2.00D  GRAD.:    33.129 HEAT:  55.38308
 CYCLE:     3 TIME:   0.008 TIME LEFT:  2.00D  GRAD.:    34.349 HEAT:  54.99924
 CYCLE:     4 TIME:   0.004 TIME LEFT:  2.00D  GRAD.:    36.996 HEAT:  54.86071
 CYCLE:     5 TIME:   0.004 TIME LEFT:  2.00D  GRAD.:    44.147 HEAT:  54.79114
 CYCLE:     6 TIME:   0.004 TIME LEFT:  2.00D  GRAD.:    46.756 HEAT:  54.74529
 CYCLE:     7 TIME:   0.004 TIME LEFT:  2.00D  GRAD.:    45.786 HEAT:  54.69301
 CYCLE:     8 TIME:   0.008 TIME LEFT:  2.00D  GRAD.:    23.102 HEAT:  54.23748
 CYCLE:     9 TIME:   0.012 TIME LEFT:  2.00D  GRAD.:    15.107 HEAT:  54.15226
 CYCLE:    10 TIME:   0.004 TIME LEFT:  2.00D  GRAD.:    14.288 HEAT:  54.10465
 CYCLE:    11 TIME:   0.008 TIME LEFT:  2.00D  GRAD.:    10.450 HEAT:  54.07090
 CYCLE:    12 TIME:   0.004 TIME LEFT:  2.00D  GRAD.:     9.877 HEAT:  54.05459
 CYCLE:    13 TIME:   0.004 TIME LEFT:  2.00D  GRAD.:     8.310 HEAT:  54.04177
 CYCLE:    14 TIME:   0.004 TIME LEFT:  2.00D  GRAD.:     9.557 HEAT:  54.03558
 CYCLE:    15 TIME:   0.004 TIME LEFT:  2.00D  GRAD.:     9.314 HEAT:  54.03278
 CYCLE:    16 TIME:   0.004 TIME LEFT:  2.00D  GRAD.:     5.401 HEAT:  54.01488
 CYCLE:    17 TIME:   0.008 TIME LEFT:  2.00D  GRAD.:     4.418 HEAT:  54.00940
 CYCLE:    18 TIME:   0.004 TIME LEFT:  2.00D  GRAD.:     3.184 HEAT:  54.00526
 CYCLE:    19 TIME:   0.004 TIME LEFT:  2.00D  GRAD.:     2.751 HEAT:  54.00055
 CYCLE:    20 TIME:   0.004 TIME LEFT:  2.00D  GRAD.:     3.393 HEAT:  53.99558
 CYCLE:    21 TIME:   0.004 TIME LEFT:  2.00D  GRAD.:     2.915 HEAT:  53.98760
 CYCLE:    22 TIME:   0.004 TIME LEFT:  2.00D  GRAD.:     2.128 HEAT:  53.98174
 CYCLE:    23 TIME:   0.004 TIME LEFT:  2.00D  GRAD.:     3.545 HEAT:  53.98050
 CYCLE:    24 TIME:   0.004 TIME LEFT:  2.00D  GRAD.:     2.612 HEAT:  53.97754
 CYCLE:    25 TIME:   0.004 TIME LEFT:  2.00D  GRAD.:     3.050 HEAT:  53.97541
 CYCLE:    26 TIME:   0.008 TIME LEFT:  2.00D  GRAD.:     1.885 HEAT:  53.97079
 CYCLE:    27 TIME:   0.004 TIME LEFT:  2.00D  GRAD.:     2.987 HEAT:  53.96728
 CYCLE:    28 TIME:   0.004 TIME LEFT:  2.00D  GRAD.:     1.935 HEAT:  53.96141
 CYCLE:    29 TIME:   0.004 TIME LEFT:  2.00D  GRAD.:     2.790 HEAT:  53.95738
 CYCLE:    30 TIME:   0.004 TIME LEFT:  2.00D  GRAD.:     3.075 HEAT:  53.95436
 CYCLE:    31 TIME:   0.004 TIME LEFT:  2.00D  GRAD.:     1.977 HEAT:  53.94936
 CYCLE:    32 TIME:   0.004 TIME LEFT:  2.00D  GRAD.:     2.167 HEAT:  53.94219
 CYCLE:    33 TIME:   0.004 TIME LEFT:  2.00D  GRAD.:     2.990 HEAT:  53.93382
 CYCLE:    34 TIME:   0.004 TIME LEFT:  2.00D  GRAD.:     2.064 HEAT:  53.92700
 CYCLE:    35 TIME:   0.004 TIME LEFT:  2.00D  GRAD.:     1.788 HEAT:  53.91928
 CYCLE:    36 TIME:   0.004 TIME LEFT:  2.00D  GRAD.:     2.385 HEAT:  53.91034
 CYCLE:    37 TIME:   0.008 TIME LEFT:  2.00D  GRAD.:     2.257 HEAT:  53.90370
 CYCLE:    38 TIME:   0.004 TIME LEFT:  2.00D  GRAD.:     1.546 HEAT:  53.89767
 CYCLE:    39 TIME:   0.004 TIME LEFT:  2.00D  GRAD.:     1.355 HEAT:  53.89349
 CYCLE:    40 TIME:   0.004 TIME LEFT:  2.00D  GRAD.:     1.125 HEAT:  53.89107
 CYCLE:    41 TIME:   0.004 TIME LEFT:  2.00D  GRAD.:     0.729 HEAT:  53.88961
 CYCLE:    42 TIME:   0.004 TIME LEFT:  2.00D  GRAD.:     0.625 HEAT:  53.88869
 CYCLE:    43 TIME:   0.004 TIME LEFT:  2.00D  GRAD.:     0.676 HEAT:  53.88791
 CYCLE:    44 TIME:   0.004 TIME LEFT:  2.00D  GRAD.:     0.525 HEAT:  53.88732
 CYCLE:    45 TIME:   0.004 TIME LEFT:  2.00D  GRAD.:     0.383 HEAT:  53.88687
 CYCLE:    46 TIME:   0.004 TIME LEFT:  2.00D  GRAD.:     0.365 HEAT:  53.88650
 CYCLE:    47 TIME:   0.004 TIME LEFT:  2.00D  GRAD.:     0.303 HEAT:  53.88628
 CYCLE:    48 TIME:   0.004 TIME LEFT:  2.00D  GRAD.:     0.208 HEAT:  53.88612
 CYCLE:    49 TIME:   0.004 TIME LEFT:  2.00D  GRAD.:     0.181 HEAT:  53.88600
 CYCLE:    50 TIME:   0.008 TIME LEFT:  2.00D  GRAD.:     0.160 HEAT:  53.88593
 CYCLE:    51 TIME:   0.004 TIME LEFT:  2.00D  GRAD.:     0.102 HEAT:  53.88589
 CYCLE:    52 TIME:   0.004 TIME LEFT:  2.00D  GRAD.:     0.058 HEAT:  53.88587
 CYCLE:    53 TIME:   0.004 TIME LEFT:  2.00D  GRAD.:     0.058 HEAT:  53.88586
 CYCLE:    54 TIME:   0.004 TIME LEFT:  2.00D  GRAD.:     0.060 HEAT:  53.88586
 CYCLE:    55 TIME:   0.004 TIME LEFT:  2.00D  GRAD.:     0.030 HEAT:  53.88586

     GRADIENT =  0.02954  IS LESS THAN CUTOFF =  0.05000



 -------------------------------------------------------------------------------
 pm3  precise nosym THREADS=1
 InChI=1S/C10H10/c1-2-6-10-8-4-3-7-9(10)5-1/h1-3,5-9H,4H2



     GEOMETRY OPTIMISED USING EIGENVECTOR FOLLOWING (EF).     
     SCF FIELD WAS ACHIEVED                                   


                              PM3 CALCULATION
                                                       MOPAC2016 (Version: 18.184L)
                                                       Sat Jun 15 10:11:53 2019
                                                       No. of days remaining =  18




          FINAL HEAT OF FORMATION =         53.88586 KCAL/MOL =     225.45842 KJ/MOL


          TOTAL ENERGY            =      -1337.39423 EV
          ELECTRONIC ENERGY       =      -7101.46657 EV  POINT GROUP:     C1  
          CORE-CORE REPULSION     =       5764.07234 EV
          COSMO AREA              =        169.99 SQUARE ANGSTROMS
          COSMO VOLUME            =        171.28 CUBIC ANGSTROMS

          GRADIENT NORM           =          0.02954 = 0.00661 PER ATOM
          IONIZATION POTENTIAL    =          8.512504 EV
          HOMO LUMO ENERGIES (EV) =         -8.513 -0.174
          NO. OF FILLED LEVELS    =         25
          MOLECULAR WEIGHT        =        130.1890

          MOLECULAR DIMENSIONS (Angstroms)

            Atom       Atom       Distance
            H    19    H    17     7.09896
            H    16    H    14     5.50796
            H    11    H    18     2.31253


          SCF CALCULATIONS        =         63
 
          WALL-CLOCK TIME         =          0.270 SECONDS
          COMPUTATION TIME        =          0.248 SECONDS




   ATOM   CHEMICAL          X               Y               Z
  NUMBER   SYMBOL      (ANGSTROMS)     (ANGSTROMS)     (ANGSTROMS)
 
     1       C          0.25328828  *  -0.75368235  *  -0.35451355  *
     2       C         -2.45239541  *   0.24317302  *   0.04905424  *
     3       C         -0.04458088  *   0.71741649  *  -0.28461103  *
     4       C         -0.79399306  *  -1.56421790  *   0.34120315  *
     5       C         -1.30230005  *   1.16497311  *  -0.13544913  *
     6       C          1.62856667  *  -1.09234157  *   0.12170462  *
     7       C         -2.03665599  *  -1.10938573  *   0.50826830  *
     8       C          1.08268253  *   1.63700505  *  -0.36673882  *
     9       C          2.59862669  *  -0.17116417  *   0.20005657  *
    10       C          2.33663931  *   1.21480809  *  -0.13293721  *
    11       H          0.21693122  *  -1.04195307  *  -1.43977569  *
    12       H         -3.16733291  *   0.68197618  *   0.77316195  *
    13       H         -3.00552571  *   0.14887579  *  -0.90883672  *
    14       H          1.81685960  *  -2.14105753  *   0.37768165  *
    15       H         -0.49820067  *  -2.55920237  *   0.69189063  *
    16       H         -1.52253259  *   2.23857238  *  -0.12854954  *
    17       H         -2.80470321  *  -1.72075211  *   0.99351751  *
    18       H          3.61218818  *  -0.43504185  *   0.51868954  *
    19       H          3.18819240  *   1.90127615  *  -0.17324061  *
    20       H          0.86369351  *   2.68671541  *  -0.59255266  *

                             CARTESIAN COORDINATES

   1    C        0.253288279    -0.753682349    -0.354513553
   2    C       -2.452395409     0.243173023     0.049054245
   3    C       -0.044580884     0.717416491    -0.284611031
   4    C       -0.793993058    -1.564217904     0.341203153
   5    C       -1.302300046     1.164973112    -0.135449131
   6    C        1.628566672    -1.092341571     0.121704622
   7    C       -2.036655989    -1.109385731     0.508268302
   8    C        1.082682532     1.637005053    -0.366738823
   9    C        2.598626695    -0.171164171     0.200056573
  10    C        2.336639307     1.214808093    -0.132937210
  11    H        0.216931217    -1.041953070    -1.439775691
  12    H       -3.167332909     0.681976185     0.773161955
  13    H       -3.005525713     0.148875787    -0.908836715
  14    H        1.816859599    -2.141057533     0.377681647
  15    H       -0.498200668    -2.559202374     0.691890627
  16    H       -1.522532586     2.238572382    -0.128549543
  17    H       -2.804703213    -1.720752106     0.993517506
  18    H        3.612188177    -0.435041854     0.518689545
  19    H        3.188192395     1.901276147    -0.173240606
  20    H        0.863693512     2.686715410    -0.592552660


           Empirical Formula: C10 H10  =    20 atoms



      MOLECULAR POINT GROUP   :   C1  


                  EIGENVALUES  
 -41.19645 -35.62771 -31.74779 -28.86231 -27.50902 -22.67655 -21.62109 -20.72371
 -17.61801 -17.28953 -17.18150 -16.11036 -15.30388 -15.04544 -14.80481 -14.43127
 -13.89548 -13.54414 -12.74597 -12.40332 -11.90623 -11.57491 -10.48069  -9.84784
  -8.51250  -0.17412   1.04158   1.26709   2.29960   3.16963   3.27398   3.40773
   3.42049   3.49850   3.66265   3.80567   3.91634   4.10717   4.31185   4.42483
   4.49656   4.54927   4.78163   5.11043   5.38916   5.53611   5.63983   5.87970
   6.23683   6.31300


              NET ATOMIC CHARGES AND DIPOLE CONTRIBUTIONS

  ATOM NO.   TYPE          CHARGE      No. of ELECS.   s-Pop       p-Pop       
    1          C           0.041140        3.9589     1.13374     2.82512
    2          C          -0.020900        4.0209     1.13172     2.88918
    3          C          -0.084148        4.0841     1.18149     2.90265
    4          C          -0.140142        4.1401     1.19599     2.94415
    5          C          -0.140591        4.1406     1.19399     2.94660
    6          C          -0.124117        4.1241     1.19834     2.92577
    7          C          -0.147508        4.1475     1.19407     2.95344
    8          C          -0.089380        4.0894     1.18010     2.90928
    9          C          -0.115813        4.1158     1.17874     2.93708
   10          C          -0.100977        4.1010     1.18003     2.92095
   11          H           0.082187        0.9178     0.91781
   12          H           0.058367        0.9416     0.94163
   13          H           0.064660        0.9353     0.93534
   14          H           0.102229        0.8978     0.89777
   15          H           0.104009        0.8960     0.89599
   16          H           0.103777        0.8962     0.89622
   17          H           0.100876        0.8991     0.89912
   18          H           0.102324        0.8977     0.89768
   19          H           0.101629        0.8984     0.89837
   20          H           0.102378        0.8976     0.89762
 DIPOLE           X         Y         Z       TOTAL
 POINT-CHG.    -0.297    -0.143    -0.227     0.400
 HYBRID        -0.002     0.004     0.060     0.061
 SUM           -0.299    -0.139    -0.166     0.370


          ATOMIC ORBITAL ELECTRON POPULATIONS

     Atom    s        px        py        pz   
    1  C   1.13374   0.92110   0.91841   0.98561
    2  C   1.13172   0.95848   0.93076   0.99995
    3  C   1.18149   0.94336   0.94539   1.01390
    4  C   1.19599   0.95183   0.98726   1.00506
    5  C   1.19399   0.94652   0.98579   1.01430
    6  C   1.19834   0.94918   0.98425   0.99234
    7  C   1.19407   0.97088   0.97272   1.00984
    8  C   1.18010   0.93616   0.97261   1.00051
    9  C   1.17874   0.98039   0.94265   1.01403
   10  C   1.18003   0.96581   0.95588   0.99925
   11  H   0.91781
   12  H   0.94163
   13  H   0.93534
   14  H   0.89777
   15  H   0.89599
   16  H   0.89622
   17  H   0.89912
   18  H   0.89768
   19  H   0.89837
   20  H   0.89762
 *******************************************************************************
 ** Site#: 14399        For non-commercial use only    Version 18.184L 64BITS **
 *******************************************************************************
 ** Cite this program as: MOPAC2016, Version: 18.184L, James J. P. Stewart,   **
 ** Stewart Computational Chemistry, web: HTTP://OpenMOPAC.net. Days left:  18**
 *******************************************************************************
 **                                                                           **
 **                                MOPAC2016                                  **
 **                                                                           **
 *******************************************************************************

                              PM3 CALCULATION RESULTS

 *******************************************************************************
 *  CALCULATION DONE:                                Sat Jun 15 10:11:53 2019  *
 *  PM3        - The PM3 Hamiltonian to be used
 *  OLDGEO     - PREVIOUS GEOMETRY TO BE USED
 *  PRECISE    - CRITERIA TO BE INCREASED BY 100 TIMES
 *  NOSYM      - POINT-GROUP SYMMETRY SET TO C1
 *  THREADS=1  - MULTI-THREADING NOT USED
 *  T=         - A TIME OF 172800.0 SECONDS REQUESTED
 *  DUMP=N     - RESTART FILE WRITTEN EVERY  7200.000 SECONDS
 *  THERMO     - THERMODYNAMIC QUANTITIES TO BE CALCULATED
 *******************************************************************************
oldgeo thermo nosym precise THREADS=1  pm3
 InChI=1S/C10H10/c1-2-6-10-8-4-3-7-9(10)5-1/h1-3,5-9H,4H2

   ATOM   CHEMICAL          X               Y               Z
  NUMBER   SYMBOL      (ANGSTROMS)     (ANGSTROMS)     (ANGSTROMS)
 
     1       C          0.25328828  *  -0.75368235  *  -0.35451355  *
     2       C         -2.45239541  *   0.24317302  *   0.04905424  *
     3       C         -0.04458088  *   0.71741649  *  -0.28461103  *
     4       C         -0.79399306  *  -1.56421790  *   0.34120315  *
     5       C         -1.30230005  *   1.16497311  *  -0.13544913  *
     6       C          1.62856667  *  -1.09234157  *   0.12170462  *
     7       C         -2.03665599  *  -1.10938573  *   0.50826830  *
     8       C          1.08268253  *   1.63700505  *  -0.36673882  *
     9       C          2.59862669  *  -0.17116417  *   0.20005657  *
    10       C          2.33663931  *   1.21480809  *  -0.13293721  *
    11       H          0.21693122  *  -1.04195307  *  -1.43977569  *
    12       H         -3.16733291  *   0.68197618  *   0.77316195  *
    13       H         -3.00552571  *   0.14887579  *  -0.90883672  *
    14       H          1.81685960  *  -2.14105753  *   0.37768165  *
    15       H         -0.49820067  *  -2.55920237  *   0.69189063  *
    16       H         -1.52253259  *   2.23857238  *  -0.12854954  *
    17       H         -2.80470321  *  -1.72075211  *   0.99351751  *
    18       H          3.61218818  *  -0.43504185  *   0.51868954  *
    19       H          3.18819240  *   1.90127615  *  -0.17324061  *
    20       H          0.86369351  *   2.68671541  *  -0.59255266  *
 


          CARTESIAN COORDINATES 

    NO.       ATOM           X           Y           Z

     1         C          0.2533     -0.7537     -0.3545
     2         C         -2.4524      0.2432      0.0491
     3         C         -0.0446      0.7174     -0.2846
     4         C         -0.7940     -1.5642      0.3412
     5         C         -1.3023      1.1650     -0.1354
     6         C          1.6286     -1.0923      0.1217
     7         C         -2.0367     -1.1094      0.5083
     8         C          1.0827      1.6370     -0.3667
     9         C          2.5986     -0.1712      0.2001
    10         C          2.3366      1.2148     -0.1329
    11         H          0.2169     -1.0420     -1.4398
    12         H         -3.1673      0.6820      0.7732
    13         H         -3.0055      0.1489     -0.9088
    14         H          1.8169     -2.1411      0.3777
    15         H         -0.4982     -2.5592      0.6919
    16         H         -1.5225      2.2386     -0.1285
    17         H         -2.8047     -1.7208      0.9935
    18         H          3.6122     -0.4350      0.5187
    19         H          3.1882      1.9013     -0.1732
    20         H          0.8637      2.6867     -0.5926

  H: (PM3): J. J. P. STEWART, J. COMP. CHEM. 10, 209 (1989).
  C: (PM3): J. J. P. STEWART, J. COMP. CHEM. 10, 209 (1989).

           Empirical Formula: C10 H10  =    20 atoms



      MOLECULAR POINT GROUP   :   C1  


      RHF CALCULATION, NO. OF DOUBLY OCCUPIED LEVELS = 25



          HEAT OF FORMATION =      53.885856 KCALS/MOLE


          CARTESIAN COORDINATE DERIVATIVES

   NUMBER  ATOM         X            Y            Z

     1       C     -0.001328     0.003669    -0.006697
     2       C     -0.001414    -0.003437     0.000197
     3       C      0.000831     0.003118     0.004397
     4       C     -0.001694    -0.003740    -0.003062
     5       C      0.006552    -0.002465     0.001205
     6       C      0.003809     0.001081    -0.004459
     7       C      0.002876     0.000915    -0.001243
     8       C      0.009302    -0.011027     0.004483
     9       C     -0.002736     0.016705     0.006077
    10       C     -0.008022    -0.009676    -0.002624
    11       H     -0.004909     0.006388    -0.001360
    12       H      0.007361    -0.003121     0.002872
    13       H     -0.003942     0.007868     0.000920
    14       H      0.007347    -0.000392     0.000023
    15       H      0.005991    -0.006293     0.002111
    16       H     -0.003490     0.003440    -0.002863
    17       H     -0.005315    -0.002857    -0.001247
    18       H     -0.011614     0.000319     0.000888
    19       H     -0.001485    -0.001038    -0.000699
    20       H      0.001880     0.000545     0.001081
 


          GRADIENT NORM =   0.03885


          TIME FOR SCF CALCULATION =    0.00

          TIME FOR DERIVATIVES     =    0.00

          MOLECULAR WEIGHT =  130.19



          ROTATIONAL CONSTANTS IN CM(-1)

          A =    0.09562065   B =    0.04025819   C =    0.02928196



           PRINCIPAL MOMENTS OF INERTIA IN UNITS OF 10**(-40)*GRAM-CM**2

          A =      292.7482   B =      695.3312   C =      955.9734


          ORIENTATION OF MOLECULE IN FORCE CALCULATION

    NO.       ATOM         X         Y         Z

     1          C      -0.4509   -0.6703    0.3118
     2          C       2.4607   -0.6703    0.3118
     3          C       0.3393    0.6077    0.3118
     4          C       0.3413   -1.8109   -0.2444
     5          C       1.6820    0.5941    0.3496
     6          C      -1.7789   -0.5336   -0.3595
     7          C       1.6749   -1.8131   -0.2263
     8          C      -0.4048    1.8591    0.2514
     9          C      -2.3541    0.6606   -0.5566
    10          C      -1.6822    1.8834   -0.1644
    11          H      -0.6662   -0.9199    1.3859
    12          H       3.3757   -0.5247   -0.2961
    13          H       2.8097   -0.9181    1.3362
    14          H      -2.2774   -1.4624   -0.6588
    15          H      -0.2257   -2.6554   -0.6516
    16          H       2.2551    1.5272    0.3937
    17          H       2.2466   -2.6648   -0.6098
    18          H      -3.3421    0.7489   -1.0196
    19          H      -2.2441    2.8203   -0.2317
    20          H       0.1268    2.7774    0.5252


    FIRST DERIVATIVES WILL BE USED IN THE CALCULATION OF SECOND DERIVATIVES

          ESTIMATED TIME TO COMPLETE CALCULATION =        1.88 SECONDS

    FOR POINT-GROUP C1   THERE ARE   1 UNIQUE SYMMETRY FUNCTIONS.

 STEP:   1 TIME =     0.02 SECS, INTEGRAL =      0.02 TIME LEFT: 172799.98
 STEP:   2 TIME =     0.02 SECS, INTEGRAL =      0.04 TIME LEFT: 172799.96
 STEP:   3 TIME =     0.02 SECS, INTEGRAL =      0.05 TIME LEFT: 172799.94
 STEP:   4 TIME =     0.02 SECS, INTEGRAL =      0.07 TIME LEFT: 172799.92
 STEP:   5 TIME =     0.02 SECS, INTEGRAL =      0.09 TIME LEFT: 172799.90
 STEP:   6 TIME =     0.02 SECS, INTEGRAL =      0.11 TIME LEFT: 172799.88
 STEP:   7 TIME =     0.02 SECS, INTEGRAL =      0.13 TIME LEFT: 172799.86
 STEP:   8 TIME =     0.02 SECS, INTEGRAL =      0.15 TIME LEFT: 172799.84
 STEP:   9 TIME =     0.02 SECS, INTEGRAL =      0.17 TIME LEFT: 172799.82
 STEP:  10 TIME =     0.02 SECS, INTEGRAL =      0.19 TIME LEFT: 172799.80
 STEP:  11 TIME =     0.02 SECS, INTEGRAL =      0.21 TIME LEFT: 172799.79
 STEP:  12 TIME =     0.02 SECS, INTEGRAL =      0.23 TIME LEFT: 172799.77
 STEP:  13 TIME =     0.02 SECS, INTEGRAL =      0.25 TIME LEFT: 172799.75
 STEP:  14 TIME =     0.02 SECS, INTEGRAL =      0.26 TIME LEFT: 172799.73
 STEP:  15 TIME =     0.02 SECS, INTEGRAL =      0.29 TIME LEFT: 172799.71
 STEP:  16 TIME =     0.02 SECS, INTEGRAL =      0.30 TIME LEFT: 172799.69
 STEP:  17 TIME =     0.02 SECS, INTEGRAL =      0.32 TIME LEFT: 172799.67
 STEP:  18 TIME =     0.02 SECS, INTEGRAL =      0.34 TIME LEFT: 172799.65
 STEP:  19 TIME =     0.02 SECS, INTEGRAL =      0.36 TIME LEFT: 172799.63
 STEP:  20 TIME =     0.02 SECS, INTEGRAL =      0.38 TIME LEFT: 172799.61
 STEP:  21 TIME =     0.02 SECS, INTEGRAL =      0.39 TIME LEFT: 172799.60
 STEP:  22 TIME =     0.02 SECS, INTEGRAL =      0.41 TIME LEFT: 172799.58
 STEP:  23 TIME =     0.02 SECS, INTEGRAL =      0.43 TIME LEFT: 172799.56
 STEP:  24 TIME =     0.02 SECS, INTEGRAL =      0.45 TIME LEFT: 172799.54
 STEP:  25 TIME =     0.02 SECS, INTEGRAL =      0.47 TIME LEFT: 172799.52
 STEP:  26 TIME =     0.02 SECS, INTEGRAL =      0.49 TIME LEFT: 172799.50
 STEP:  27 TIME =     0.02 SECS, INTEGRAL =      0.51 TIME LEFT: 172799.48
 STEP:  28 TIME =     0.02 SECS, INTEGRAL =      0.53 TIME LEFT: 172799.46
 STEP:  29 TIME =     0.02 SECS, INTEGRAL =      0.55 TIME LEFT: 172799.45
 STEP:  30 TIME =     0.02 SECS, INTEGRAL =      0.57 TIME LEFT: 172799.43
 STEP:  31 TIME =     0.02 SECS, INTEGRAL =      0.59 TIME LEFT: 172799.41
 STEP:  32 TIME =     0.02 SECS, INTEGRAL =      0.61 TIME LEFT: 172799.39
 STEP:  33 TIME =     0.02 SECS, INTEGRAL =      0.62 TIME LEFT: 172799.37
 STEP:  34 TIME =     0.02 SECS, INTEGRAL =      0.64 TIME LEFT: 172799.35
 STEP:  35 TIME =     0.02 SECS, INTEGRAL =      0.66 TIME LEFT: 172799.33
 STEP:  36 TIME =     0.02 SECS, INTEGRAL =      0.68 TIME LEFT: 172799.31
 STEP:  37 TIME =     0.02 SECS, INTEGRAL =      0.70 TIME LEFT: 172799.29
 STEP:  38 TIME =     0.02 SECS, INTEGRAL =      0.72 TIME LEFT: 172799.27
 STEP:  39 TIME =     0.02 SECS, INTEGRAL =      0.74 TIME LEFT: 172799.25
 STEP:  40 TIME =     0.02 SECS, INTEGRAL =      0.76 TIME LEFT: 172799.23
 STEP:  41 TIME =     0.02 SECS, INTEGRAL =      0.77 TIME LEFT: 172799.22
 STEP:  42 TIME =     0.02 SECS, INTEGRAL =      0.79 TIME LEFT: 172799.20
 STEP:  43 TIME =     0.02 SECS, INTEGRAL =      0.81 TIME LEFT: 172799.18
 STEP:  44 TIME =     0.02 SECS, INTEGRAL =      0.83 TIME LEFT: 172799.16
 STEP:  45 TIME =     0.02 SECS, INTEGRAL =      0.85 TIME LEFT: 172799.14
 STEP:  46 TIME =     0.02 SECS, INTEGRAL =      0.87 TIME LEFT: 172799.12
 STEP:  47 TIME =     0.02 SECS, INTEGRAL =      0.89 TIME LEFT: 172799.11
 STEP:  48 TIME =     0.02 SECS, INTEGRAL =      0.91 TIME LEFT: 172799.09
 STEP:  49 TIME =     0.02 SECS, INTEGRAL =      0.93 TIME LEFT: 172799.07
 STEP:  50 TIME =     0.02 SECS, INTEGRAL =      0.95 TIME LEFT: 172799.05
 STEP:  51 TIME =     0.02 SECS, INTEGRAL =      0.96 TIME LEFT: 172799.03
 STEP:  52 TIME =     0.02 SECS, INTEGRAL =      0.98 TIME LEFT: 172799.01
 STEP:  53 TIME =     0.02 SECS, INTEGRAL =      1.00 TIME LEFT: 172798.99
 STEP:  54 TIME =     0.02 SECS, INTEGRAL =      1.02 TIME LEFT: 172798.97
 STEP:  55 TIME =     0.02 SECS, INTEGRAL =      1.04 TIME LEFT: 172798.95
 STEP:  56 TIME =     0.02 SECS, INTEGRAL =      1.06 TIME LEFT: 172798.93
 STEP:  57 TIME =     0.02 SECS, INTEGRAL =      1.08 TIME LEFT: 172798.91
 STEP:  58 TIME =     0.02 SECS, INTEGRAL =      1.09 TIME LEFT: 172798.90
 STEP:  59 TIME =     0.02 SECS, INTEGRAL =      1.11 TIME LEFT: 172798.88
 STEP:  60 TIME =     0.02 SECS, INTEGRAL =      1.13 TIME LEFT: 172798.86

(To convert to Hartree/Bohr^2, multiply by (10^(-21) x N x a0^2)/(4.184 x 627.51) =  0.0642)


           FORCE MATRIX IN MILLIDYNES/ANGSTROM


                  C  1       C  2       C  3       C  4       C  5       C  6
 ------------------------------------------------------------------------------
     C    1  15.376704
     C    2   0.181643  15.079523
     C    3   4.419619   0.869308  18.816622
     C    4   4.625101   0.874054   0.717861  18.233377
     C    5   0.807458   4.989940   9.985675   0.081510  18.062998
     C    6   4.676209   0.009668   0.690651   0.725280   0.056944  18.020510
     C    7   0.854397   4.946521   0.080972  10.680694   0.760312   0.050101
     C    8   0.617479   0.134233   5.432754   0.045376   1.086410   0.197573
     C    9   0.845540   0.012901   0.164602   0.052611   0.057925  10.217672
     C   10   0.137840   0.024631   1.102643   0.015579   0.146313   1.165364
     H   11   3.987887   0.016762   0.399667   0.396196   0.030080   0.389382
     H   12   0.013392   4.444118   0.042753   0.045641   0.424534   0.001862
     H   13   0.017268   4.349463   0.030853   0.030129   0.417480   0.002958
     H   14   0.432399   0.002342   0.042956   0.042982   0.007692   4.823050
     H   15   0.435271   0.119447   0.038520   4.825296   0.004382   0.047952
     H   16   0.106344   0.426601   0.457449   0.008134   4.817726   0.013443
     H   17   0.114822   0.427573   0.006093   0.445422   0.043218   0.012946
     H   18   0.115110   0.000540   0.005109   0.013817   0.000839   0.443727
     H   19   0.003906   0.009036   0.119255   0.000880   0.009452   0.047924
     H   20   0.040446   0.003752   0.443992   0.006604   0.040614   0.016026


                  C  7       C  8       C  9       C 10       H 11       H 12
 ------------------------------------------------------------------------------
     C    7  18.217356
     C    8   0.005595  18.336817
     C    9   0.012172   1.165212  18.360445
     C   10   0.006008   9.966750   5.663320  18.267966
     H   11   0.029169   0.016494   0.035663   0.017716   4.421922
     H   12   0.426030   0.016043   0.001277   0.003181   0.002470   5.021256
     H   13   0.419767   0.019230   0.002287   0.002822   0.006474   0.563267
     H   14   0.003096   0.012068   0.441597   0.122091   0.015534   0.000409
     H   15   0.445011   0.005908   0.003059   0.000683   0.012915   0.012696
     H   16   0.043161   0.081353   0.007960   0.009540   0.015928   0.036604
     H   17   4.848235   0.002165   0.002911   0.001539   0.015004   0.036292
     H   18   0.002673   0.048236   4.860117   0.433839   0.015099   0.000208
     H   19   0.000491   0.440371   0.433189   4.868053   0.001039   0.001068
     H   20   0.001294   4.821521   0.121348   0.442658   0.003461   0.000748


                  H 13       H 14       H 15       H 16       H 17       H 18
 ------------------------------------------------------------------------------
     H   13   4.942015
     H   14   0.000457   5.203113
     H   15   0.016611   0.030012   5.206818
     H   16   0.014369   0.003669   0.001481   5.200756
     H   17   0.014324   0.000683   0.067378   0.005798   5.222543
     H   18   0.000180   0.064018   0.000705   0.000573   0.000661   5.226011
     H   19   0.001433   0.007284   0.000364   0.004742   0.000217   0.031233
     H   20   0.000680   0.008389   0.001261   0.026535   0.000261   0.007018


                  H 19       H 20
 ------------------------------
     H   19   5.232467
     H   20   0.062915   5.196843


          HEAT OF FORMATION =      53.885856 KCALS/MOLE

          ZERO POINT ENERGY     105.080 KCAL/MOL


           NORMAL COORDINATE ANALYSIS (Total motion = 1 Angstrom)


   Root No.       1         2         3         4         5         6         7         8

                 1 A       2 A       3 A       4 A       5 A       6 A       7 A       8 A   

                  87.9     160.2     255.1     337.2     378.9     453.2     467.8     474.6
  
           1    0.0078    0.0056   -0.0046   -0.0063    0.0204    0.0284   -0.0164    0.0147
           2   -0.0008    0.0069   -0.0010   -0.0198    0.0316    0.0035    0.0042   -0.0259
           3   -0.0062   -0.0392   -0.0273   -0.0191   -0.0099   -0.0070    0.0340    0.0164
           4   -0.0079   -0.0005    0.0160    0.0080   -0.0010   -0.0276    0.0135   -0.0343
           5   -0.0120   -0.0062    0.0079    0.0159   -0.0206   -0.0128   -0.0023    0.0100
           6    0.0467    0.0301   -0.0247   -0.0005   -0.0083   -0.0081   -0.0013   -0.0064
           7    0.0038    0.0076   -0.0013   -0.0136    0.0205   -0.0090    0.0013   -0.0300
           8    0.0022    0.0056   -0.0046   -0.0175    0.0313    0.0256   -0.0064    0.0048
           9   -0.0094   -0.0473    0.0000    0.0049   -0.0112    0.0380    0.0516   -0.0034
          10    0.0051    0.0092    0.0058    0.0160   -0.0122    0.0056   -0.0104    0.0024
          11    0.0156   -0.0079   -0.0050   -0.0003    0.0225   -0.0180    0.0422   -0.0230
          12   -0.0457   -0.0011   -0.0005   -0.0340   -0.0281   -0.0032   -0.0250   -0.0255
          13    0.0035    0.0070   -0.0026   -0.0130    0.0207   -0.0090    0.0051   -0.0350
          14   -0.0034    0.0011   -0.0069    0.0013   -0.0003    0.0047   -0.0068    0.0058
          15    0.0179   -0.0345    0.0596   -0.0280    0.0132   -0.0095   -0.0176    0.0091
          16   -0.0132    0.0052   -0.0102   -0.0259    0.0047    0.0444    0.0100    0.0252
          17   -0.0050    0.0077    0.0038    0.0059   -0.0069    0.0051   -0.0042   -0.0059
          18    0.0367   -0.0374   -0.0135    0.0226    0.0219   -0.0240   -0.0238    0.0208
          19    0.0051    0.0089    0.0058    0.0168   -0.0150    0.0030   -0.0124    0.0006
          20    0.0101   -0.0184   -0.0052   -0.0099   -0.0251   -0.0333    0.0058   -0.0216
          21   -0.0214    0.0421    0.0183    0.0410    0.0223   -0.0079    0.0238    0.0076
          22    0.0092    0.0003    0.0089   -0.0019   -0.0190   -0.0222    0.0117    0.0078
          23    0.0030    0.0031   -0.0006   -0.0100    0.0115    0.0249   -0.0062    0.0298
          24   -0.0391   -0.0129   -0.0311    0.0308    0.0160    0.0221   -0.0203   -0.0303
          25   -0.0152   -0.0195   -0.0228   -0.0006   -0.0003   -0.0048   -0.0079    0.0501
          26   -0.0068    0.0074    0.0055    0.0164   -0.0191   -0.0082   -0.0106    0.0017
          27    0.0323    0.0300    0.0295    0.0018   -0.0219    0.0428    0.0061   -0.0058
          28    0.0021   -0.0221    0.0004    0.0172   -0.0165   -0.0048    0.0011   -0.0085
          29   -0.0009    0.0010    0.0036    0.0143   -0.0164    0.0163   -0.0176    0.0235
          30   -0.0175    0.0555   -0.0060   -0.0221   -0.0013   -0.0371    0.0103    0.0284
          31    0.0414   -0.0037   -0.0164    0.0113    0.0553    0.0062   -0.0436    0.0529
          32   -0.0184    0.0250   -0.0010   -0.0579    0.0356   -0.0183   -0.0397   -0.0518
          33   -0.0035   -0.0361   -0.0285   -0.0238   -0.0014   -0.0159    0.0166    0.0171
          34    0.0327    0.0224   -0.0493   -0.0076   -0.0291   -0.0118   -0.0100   -0.0593
          35   -0.0152   -0.0355    0.0474    0.0087   -0.0329   -0.0190   -0.0201    0.0334
          36    0.1077    0.0580   -0.1159   -0.0265   -0.0547    0.0154   -0.0422   -0.0394
          37   -0.0770   -0.0393    0.1277    0.0348    0.0465   -0.0568    0.0545    0.0048
          38   -0.0347    0.0278   -0.0032    0.0637   -0.0140   -0.0079    0.0245    0.0247
          39    0.0648    0.0518   -0.0663    0.0016   -0.0234    0.0037   -0.0098   -0.0169
          40   -0.0270    0.0223   -0.0109   -0.0642    0.0075    0.0669    0.0511    0.0178
          41   -0.0086    0.0124    0.0070    0.0111   -0.0238    0.0046   -0.0037    0.0052
          42    0.0706   -0.0797   -0.0215    0.0707    0.0688   -0.0616   -0.0950   -0.0019
          43    0.0068    0.0137    0.0123    0.0325   -0.0309   -0.0142   -0.0070    0.0003
          44    0.0374   -0.0107   -0.0163    0.0080    0.0488   -0.0166    0.0816   -0.0071
          45   -0.0928   -0.0012    0.0138   -0.0731   -0.0572    0.0212   -0.1131   -0.0549
          46    0.0090    0.0114   -0.0088   -0.0282    0.0438    0.0119    0.0030   -0.0345
          47   -0.0070   -0.0011   -0.0062    0.0124   -0.0168   -0.0073   -0.0007    0.0055
          48    0.0182   -0.0483    0.1384   -0.0576    0.0517   -0.0342   -0.1134    0.0148
          49    0.0115    0.0150    0.0060    0.0294   -0.0295    0.0110   -0.0316    0.0256
          50    0.0264   -0.0329   -0.0217   -0.0292   -0.0551   -0.0376   -0.0095   -0.0176
          51   -0.0473    0.0836    0.0541    0.1020    0.0675    0.0146    0.0292    0.0363
          52   -0.0300   -0.0301   -0.0434   -0.0087    0.0080   -0.0472   -0.0003    0.0830
          53   -0.0131    0.0135    0.0091    0.0249   -0.0336   -0.0435   -0.0057   -0.0090
          54    0.0628    0.0539    0.0740    0.0205   -0.0416    0.1264   -0.0089   -0.0786
          55    0.0083   -0.0377    0.0143    0.0397   -0.0411    0.0144    0.0096   -0.0476
          56    0.0015   -0.0039    0.0108    0.0253   -0.0292    0.0198   -0.0137    0.0027
          57   -0.0363    0.1163   -0.0234   -0.0557    0.0201   -0.1513   -0.0081    0.0733
          58    0.0188    0.0070    0.0246   -0.0003   -0.0561   -0.0289    0.0277    0.0400
          59    0.0087    0.0025    0.0043   -0.0239    0.0202    0.0325    0.0102    0.0261
          60   -0.0765   -0.0236   -0.0769    0.0749    0.0574    0.0088   -0.1058   -0.0808


   Root No.       9        10        11        12        13        14        15        16

                 9 A      10 A      11 A      12 A      13 A      14 A      15 A      16 A   

                 510.2     608.5     655.6     742.7     771.1     776.9     820.2     837.5
  
           1   -0.0044   -0.0318    0.0010   -0.0041   -0.0002   -0.0012   -0.0016   -0.0160
           2    0.0002    0.0215    0.0077    0.0041    0.0092   -0.0007   -0.0007   -0.0206
           3   -0.0253   -0.0122   -0.0297    0.0126    0.0246    0.0030   -0.0039    0.0121
           4   -0.0410    0.0165   -0.0089   -0.0042   -0.0356    0.0182    0.0108    0.0191
           5    0.0354   -0.0207    0.0019    0.0039    0.0069    0.0003    0.0020    0.0006
           6   -0.0007    0.0004   -0.0131   -0.0181   -0.0164   -0.0054   -0.0159   -0.0222
           7    0.0132   -0.0377    0.0060   -0.0020   -0.0053   -0.0073   -0.0011    0.0125
           8   -0.0003    0.0276    0.0137   -0.0065   -0.0076   -0.0113   -0.0074    0.0085
           9   -0.0125   -0.0149    0.0556   -0.0164   -0.0019    0.0010    0.0047    0.0162
          10   -0.0445    0.0256    0.0109    0.0067    0.0195   -0.0113   -0.0045   -0.0024
          11   -0.0137    0.0462   -0.0082    0.0207    0.0239    0.0228    0.0048   -0.0184
          12   -0.0143    0.0209   -0.0031   -0.0054    0.0107   -0.0182    0.0095    0.0035
          13    0.0084   -0.0402    0.0094   -0.0030   -0.0139   -0.0066    0.0021    0.0249
          14    0.0504   -0.0506    0.0135    0.0017    0.0109   -0.0175   -0.0011    0.0182
          15    0.0017   -0.0104    0.0020   -0.0052    0.0023    0.0052   -0.0133   -0.0036
          16   -0.0021   -0.0337   -0.0265   -0.0068    0.0097    0.0198    0.0145   -0.0251
          17   -0.0442   -0.0568   -0.0007    0.0007    0.0152   -0.0024   -0.0033   -0.0192
          18   -0.0181   -0.0170    0.0038    0.0123   -0.0098   -0.0022   -0.0155   -0.0015
          19   -0.0486    0.0265    0.0120    0.0073    0.0192   -0.0134   -0.0052    0.0000
          20    0.0287   -0.0091   -0.0134   -0.0067   -0.0316    0.0279    0.0021   -0.0064
          21    0.0145   -0.0081   -0.0128   -0.0054   -0.0061   -0.0094    0.0100    0.0083
          22    0.0438    0.0222    0.0111   -0.0005    0.0182   -0.0047   -0.0136   -0.0038
          23    0.0030    0.0698    0.0119   -0.0127   -0.0157   -0.0077   -0.0129    0.0214
          24    0.0195    0.0191   -0.0067    0.0110   -0.0142   -0.0152    0.0101   -0.0182
          25    0.0266    0.0300   -0.0129   -0.0081   -0.0157    0.0216    0.0248    0.0057
          26   -0.0288   -0.0234    0.0018    0.0003    0.0030   -0.0031    0.0014   -0.0000
          27    0.0222    0.0139   -0.0218    0.0106   -0.0146    0.0042   -0.0111    0.0123
          28    0.0537    0.0268    0.0019    0.0019    0.0202   -0.0053   -0.0152   -0.0061
          29   -0.0345   -0.0061   -0.0182   -0.0041   -0.0197    0.0151    0.0120    0.0206
          30    0.0021    0.0048    0.0172    0.0062   -0.0099   -0.0112    0.0142   -0.0192
          31   -0.0017   -0.0483   -0.0103    0.0316   -0.0256    0.0029   -0.0414   -0.0360
          32    0.0227    0.0483   -0.0392    0.0128    0.0213   -0.0422    0.0201   -0.0451
          33   -0.0188   -0.0092   -0.0417    0.0216    0.0223   -0.0047   -0.0062    0.0010
          34   -0.0383    0.0163    0.0277    0.0388   -0.0227    0.0466    0.0500    0.0725
          35    0.0032    0.0173   -0.0070   -0.0050    0.0275   -0.0009   -0.0346   -0.0580
          36   -0.0033    0.0088    0.0423    0.0480    0.0110    0.0385    0.0367    0.0462
          37   -0.0515    0.0201   -0.0734   -0.0833   -0.0743   -0.0268   -0.0553   -0.0656
          38    0.0409   -0.0151   -0.0146    0.0024    0.0225   -0.0436    0.0275    0.0074
          39    0.0045    0.0006    0.0066    0.0104    0.0006    0.0009    0.0144    0.0104
          40   -0.0073   -0.0477   -0.0522    0.0542   -0.0008    0.0043   -0.0670   -0.0187
          41   -0.0435   -0.0558   -0.0087    0.0076    0.0023   -0.0047   -0.0101    0.0044
          42   -0.0105    0.0053    0.0720   -0.1102    0.0488    0.0301    0.1408   -0.0871
          43   -0.0369    0.0254    0.0038    0.0002   -0.0040   -0.0127   -0.0040    0.0186
          44   -0.0255    0.0453   -0.0566    0.0043    0.0672   -0.0507    0.0384    0.0111
          45    0.0001    0.0213    0.1074    0.0378   -0.0455    0.1358   -0.0614   -0.0882
          46    0.0029   -0.0333    0.0216   -0.0091   -0.0180   -0.0238   -0.0053    0.0363
          47    0.0518   -0.0550    0.0087   -0.0007    0.0107   -0.0060   -0.0033    0.0070
          48    0.0383    0.0076   -0.0501    0.1205    0.0552   -0.0226    0.1249    0.0976
          49   -0.0281   -0.0065    0.0216   -0.0014    0.0219   -0.0348   -0.0237   -0.0040
          50    0.0269   -0.0188   -0.0475   -0.0575   -0.0372   -0.0652    0.0032   -0.0040
          51    0.0494   -0.0347    0.0769    0.0951    0.0114    0.1670   -0.0191   -0.0048
          52    0.0079    0.0219    0.0005    0.0458   -0.0687   -0.0147   -0.0198    0.0142
          53    0.0019    0.0168    0.0282    0.0129    0.0059   -0.0355   -0.0207    0.0123
          54    0.0687    0.0377   -0.0461   -0.1024    0.1000    0.0769    0.0811   -0.0053
          55    0.0539   -0.0176   -0.0034    0.0497    0.0019   -0.0440    0.0010   -0.0684
          56   -0.0367   -0.0340   -0.0195    0.0169   -0.0212   -0.0019    0.0171   -0.0082
          57   -0.0262   -0.0212    0.0357   -0.0970    0.1337    0.0790   -0.0503    0.0832
          58    0.0395    0.0191    0.0160    0.0250   -0.0043   -0.0152    0.0355   -0.0535
          59    0.0031    0.0686    0.0380   -0.0098   -0.0323   -0.0280   -0.0003    0.0170
          60    0.0272    0.0266   -0.1023   -0.0481    0.0847    0.0723   -0.1278    0.0939


   Root No.      17        18        19        20        21        22        23        24

                17 A      18 A      19 A      20 A      21 A      22 A      23 A      24 A   

                 875.8     920.0     939.1     968.7     985.9    1009.3    1017.8    1029.6
  
           1    0.0100   -0.0142   -0.0064   -0.0051   -0.0028    0.0017    0.0054    0.0148
           2   -0.0060   -0.0235   -0.0086   -0.0071    0.0037    0.0107    0.0041   -0.0062
           3    0.0055    0.0468    0.0152    0.0090   -0.0022    0.0079   -0.0209    0.0123
           4    0.0255    0.0041   -0.0171   -0.0072   -0.0129    0.0061   -0.0263   -0.0028
           5    0.0053   -0.0030   -0.0108   -0.0029   -0.0052    0.0041   -0.0071   -0.0033
           6   -0.0024    0.0063    0.0278    0.0066    0.0179    0.0103   -0.0040    0.0033
           7   -0.0144    0.0085    0.0077    0.0029    0.0035    0.0006    0.0011   -0.0038
           8    0.0086    0.0096    0.0029    0.0021    0.0001   -0.0003    0.0031    0.0038
           9    0.0054   -0.0319    0.0025   -0.0012    0.0087    0.0293    0.0131    0.0086
          10   -0.0145    0.0022    0.0079    0.0024    0.0030   -0.0053    0.0085    0.0006
          11   -0.0285   -0.0193    0.0207    0.0029   -0.0142   -0.0202    0.0035    0.0029
          12   -0.0123   -0.0079   -0.0180   -0.0016    0.0053   -0.0203    0.0285    0.0171
          13   -0.0190    0.0141    0.0128    0.0034    0.0028   -0.0018    0.0000   -0.0027
          14   -0.0324    0.0139    0.0119    0.0004   -0.0068   -0.0120   -0.0143   -0.0020
          15   -0.0248    0.0134   -0.0294   -0.0117   -0.0220   -0.0101   -0.0159   -0.0091
          16    0.0196   -0.0093   -0.0115    0.0203    0.0051   -0.0133   -0.0077   -0.0051
          17    0.0326    0.0014   -0.0075    0.0105    0.0006   -0.0118   -0.0014   -0.0149
          18    0.0116   -0.0150   -0.0017   -0.0185    0.0005   -0.0053    0.0192   -0.0517
          19   -0.0120    0.0060    0.0051    0.0006    0.0036    0.0032   -0.0011   -0.0034
          20    0.0231    0.0035   -0.0060    0.0048    0.0191   -0.0033    0.0324    0.0129
          21    0.0132   -0.0202   -0.0023   -0.0044   -0.0223   -0.0146    0.0046   -0.0005
          22    0.0176   -0.0005   -0.0056    0.0116   -0.0057    0.0042    0.0031   -0.0038
          23    0.0358    0.0261   -0.0033    0.0122   -0.0048   -0.0044   -0.0058   -0.0035
          24    0.0100    0.0167    0.0048   -0.0269    0.0160   -0.0282   -0.0163    0.0013
          25   -0.0357   -0.0072    0.0080   -0.0142   -0.0049    0.0071    0.0110   -0.0194
          26   -0.0015    0.0041    0.0024   -0.0030   -0.0020    0.0020    0.0015    0.0017
          27   -0.0203   -0.0260   -0.0088    0.0200    0.0182   -0.0117   -0.0191    0.0197
          28    0.0176   -0.0030   -0.0024   -0.0056    0.0064   -0.0110   -0.0076    0.0032
          29   -0.0353   -0.0081    0.0065   -0.0097    0.0063    0.0062    0.0001    0.0076
          30   -0.0046    0.0148   -0.0047    0.0218   -0.0247    0.0219    0.0171   -0.0116
          31    0.0545   -0.0121    0.0081   -0.1202   -0.1027    0.0604    0.0453    0.3143
          32   -0.0429   -0.0150   -0.0905   -0.0833    0.1112    0.2276   -0.0640   -0.0453
          33    0.0059    0.0469   -0.0016   -0.0317    0.0026    0.0693   -0.0282    0.0626
          34    0.0495   -0.0044   -0.0747   -0.0225   -0.0495   -0.0023   -0.0438   -0.0119
          35   -0.0085    0.0171   -0.0329   -0.0075    0.0190    0.0069   -0.0060    0.0022
          36    0.0296   -0.0033   -0.0670   -0.0183   -0.0337   -0.0036   -0.0298   -0.0091
          37   -0.0029    0.0248    0.0774    0.0158    0.0460    0.0310   -0.0222    0.0085
          38    0.0542   -0.0822    0.0537    0.0041   -0.0303    0.1215   -0.1017   -0.0538
          39    0.0208   -0.0202    0.0091   -0.0001   -0.0092    0.0304   -0.0287   -0.0127
          40    0.0594   -0.0401   -0.0131   -0.0480    0.0036   -0.0030    0.0401   -0.0930
          41    0.0166    0.0108    0.0047   -0.0037   -0.0065   -0.0140   -0.0006   -0.0130
          42   -0.0045    0.0075   -0.0369    0.1385    0.0247   -0.0147   -0.0630    0.0897
          43    0.0060    0.0224    0.0026    0.0099    0.0312   -0.0196    0.0690   -0.0092
          44   -0.0461   -0.0138   -0.0549   -0.0093    0.0029   -0.0261    0.0173    0.0307
          45   -0.0047   -0.0473    0.1466    0.0136   -0.0676    0.0112   -0.0793   -0.0250
          46   -0.0356    0.0307    0.0474    0.0166    0.0276   -0.0080    0.0558    0.0101
          47   -0.0307    0.0079   -0.0163   -0.0109   -0.0258   -0.0107   -0.0519   -0.0119
          48    0.1403   -0.0559    0.1297    0.0580    0.0558    0.0389    0.0337    0.0238
          49    0.0006    0.0338    0.0067    0.0063    0.0491    0.0486    0.0284   -0.0144
          50    0.0424   -0.0485    0.0191   -0.0020   -0.0145    0.0024    0.0314   -0.0058
          51   -0.0105    0.1333   -0.0564    0.0189    0.1183    0.0384    0.0521    0.0269
          52   -0.0550   -0.0681   -0.0251    0.0504    0.0347   -0.0197   -0.0311    0.0321
          53   -0.0147    0.0245    0.0107   -0.0090   -0.0140    0.0314   -0.0119    0.0935
          54    0.0177    0.1053    0.0627   -0.1189   -0.0681    0.0507    0.0689   -0.0762
          55   -0.0089    0.0111   -0.0142    0.0313   -0.0372    0.0393    0.0284    0.0216
          56   -0.0478   -0.0060    0.0021    0.0023   -0.0106    0.0300    0.0164    0.0238
          57    0.0459   -0.0840    0.0266   -0.1170    0.1026   -0.0724   -0.0546    0.0514
          58   -0.0047   -0.0068    0.0028   -0.0485    0.0199   -0.0257   -0.0064    0.0080
          59    0.0575    0.0491    0.0052   -0.0024    0.0059   -0.0256   -0.0212   -0.0083
          60   -0.0183   -0.0461   -0.0400    0.1383   -0.0696    0.1001    0.0527   -0.0044


   Root No.      25        26        27        28        29        30        31        32

                25 A      26 A      27 A      28 A      29 A      30 A      31 A      32 A   

                1043.9    1054.9    1081.5    1097.5    1131.7    1153.5    1157.0    1183.6
  
           1   -0.0083    0.0032   -0.0024    0.0000    0.0087    0.0077   -0.0001    0.0224
           2   -0.0044   -0.0035    0.0036    0.0107    0.0093    0.0153    0.0036   -0.0127
           3    0.0167   -0.0068    0.0016    0.0085    0.0067    0.0038    0.0005    0.0016
           4   -0.0230   -0.0086    0.0091   -0.0041    0.0047    0.0036    0.0029    0.0072
           5   -0.0023   -0.0017   -0.0011    0.0173   -0.0028   -0.0002   -0.0012    0.0062
           6   -0.0302   -0.0005    0.0065   -0.0058   -0.0015   -0.0010   -0.0019    0.0006
           7    0.0042    0.0026   -0.0051    0.0169   -0.0028   -0.0030   -0.0023   -0.0171
           8    0.0026    0.0023   -0.0011    0.0104    0.0147   -0.0065    0.0041    0.0156
           9   -0.0081   -0.0117    0.0014   -0.0053   -0.0064   -0.0017   -0.0018    0.0001
          10    0.0099    0.0028   -0.0017   -0.0140   -0.0018   -0.0031   -0.0015    0.0056
          11    0.0065    0.0008   -0.0056   -0.0072   -0.0076   -0.0055   -0.0015   -0.0047
          12   -0.0248    0.0266    0.0007   -0.0018   -0.0033   -0.0003    0.0004   -0.0058
          13    0.0041    0.0012    0.0014    0.0112   -0.0072   -0.0008   -0.0025   -0.0134
          14   -0.0189   -0.0152    0.0155   -0.0321   -0.0039    0.0005   -0.0021    0.0088
          15    0.0193    0.0275   -0.0018   -0.0006    0.0021    0.0009    0.0012   -0.0003
          16    0.0027   -0.0002   -0.0063   -0.0067    0.0009   -0.0039   -0.0009    0.0065
          17   -0.0022    0.0010   -0.0179   -0.0094   -0.0153   -0.0026   -0.0019   -0.0038
          18   -0.0105    0.0018   -0.0038   -0.0049    0.0030   -0.0008   -0.0007    0.0072
          19    0.0032   -0.0003   -0.0008   -0.0033   -0.0027    0.0015    0.0033    0.0032
          20    0.0175    0.0162   -0.0066   -0.0093    0.0021   -0.0010    0.0005    0.0091
          21    0.0325   -0.0341   -0.0063    0.0026    0.0001   -0.0013   -0.0003    0.0058
          22   -0.0006   -0.0010    0.0126   -0.0033   -0.0149   -0.0006    0.0009   -0.0079
          23    0.0025    0.0013    0.0155   -0.0056   -0.0117    0.0004   -0.0008    0.0023
          24    0.0070    0.0054    0.0056    0.0040   -0.0046    0.0009    0.0001   -0.0032
          25   -0.0097   -0.0016   -0.0329   -0.0000    0.0049   -0.0019    0.0023   -0.0044
          26   -0.0019   -0.0003   -0.0169   -0.0032   -0.0002    0.0001   -0.0034   -0.0083
          27    0.0036   -0.0009   -0.0188    0.0003   -0.0001   -0.0006    0.0003   -0.0040
          28   -0.0007   -0.0002   -0.0032   -0.0043    0.0019   -0.0028    0.0023   -0.0042
          29    0.0084    0.0002    0.0405    0.0104   -0.0019    0.0032   -0.0018   -0.0121
          30   -0.0048   -0.0023    0.0068   -0.0025   -0.0020   -0.0015    0.0012   -0.0027
          31   -0.0103    0.0217   -0.0016   -0.0193   -0.0691   -0.0213    0.0028   -0.0654
          32    0.0755   -0.0898   -0.0316   -0.0950   -0.0471   -0.0443   -0.0155    0.0346
          33    0.0345   -0.0230   -0.0064   -0.0204   -0.0222   -0.0156   -0.0035   -0.0052
          34   -0.0023   -0.0161    0.0087    0.0055    0.0103    0.0100    0.0092    0.0186
          35   -0.0878   -0.1550   -0.0208    0.2574   -0.0302   -0.0835   -0.0920   -0.0371
          36   -0.0184   -0.0484    0.0006    0.0643   -0.0000   -0.0134   -0.0162    0.0050
          37   -0.0886   -0.0064    0.0248   -0.0218    0.0025    0.0067    0.0044    0.0124
          38    0.0071    0.2974   -0.0122    0.0759    0.0029   -0.0251   -0.0284   -0.0339
          39   -0.0051    0.0708   -0.0014    0.0151    0.0009   -0.0074   -0.0083   -0.0098
          40    0.0068   -0.0038    0.1325   -0.0021    0.1063    0.0663   -0.0967   -0.0852
          41   -0.0218    0.0063   -0.1154   -0.0141   -0.0840   -0.0480    0.0628    0.0629
          42    0.0430   -0.0092    0.0535   -0.0014    0.0370    0.0219   -0.0421   -0.0436
          43    0.1061    0.0029    0.0066   -0.0898    0.0185   -0.0986   -0.1220   -0.0771
          44   -0.0899    0.0378   -0.0061    0.0381   -0.0183    0.0507    0.0665    0.0368
          45    0.0478   -0.0504   -0.0123    0.0060   -0.0102    0.0148    0.0264    0.0211
          46    0.0916    0.0565   -0.0076    0.1099   -0.0373   -0.0405   -0.0472    0.1211
          47   -0.0700   -0.0456    0.0215   -0.0904    0.0137    0.0243    0.0243   -0.0733
          48   -0.0549   -0.0583    0.0114   -0.0118   -0.0005    0.0056    0.0012   -0.0007
          49    0.0830   -0.0305   -0.0276    0.0798    0.0072    0.1355    0.1462   -0.0706
          50    0.1024   -0.0515   -0.0268    0.0438    0.0065    0.0731    0.0799   -0.0303
          51   -0.0398    0.0723   -0.0024    0.0124    0.0042    0.0308    0.0335   -0.0140
          52    0.0016   -0.0019   -0.0429   -0.0003    0.0129    0.0033   -0.0037   -0.0012
          53   -0.0121   -0.0095   -0.1423   -0.0100    0.1898    0.1324   -0.1429    0.0807
          54   -0.0232   -0.0024   -0.0228   -0.0004    0.0218    0.0115   -0.0118    0.0044
          55    0.0020   -0.0078    0.0933    0.0116    0.1773   -0.1150    0.1067    0.0620
          56    0.0120   -0.0039    0.1017    0.0214    0.1092   -0.0664    0.0628    0.0283
          57    0.0183    0.0022    0.0418    0.0104    0.0758   -0.0466    0.0441    0.0248
          58    0.0277    0.0115    0.1646    0.0171   -0.1277    0.0924   -0.0541    0.1086
          59   -0.0083   -0.0002   -0.0770   -0.0134    0.0613   -0.0581    0.0352   -0.0733
          60   -0.0106   -0.0138    0.0355   -0.0097   -0.0347    0.0171   -0.0126    0.0261


   Root No.      33        34        35        36        37        38        39        40

                33 A      34 A      35 A      36 A      37 A      38 A      39 A      40 A   

                1234.1    1245.9    1319.9    1356.9    1398.1    1404.3    1453.2    1503.1
  
           1   -0.0032   -0.0412    0.0104    0.0494    0.0381   -0.0367    0.0372   -0.0521
           2    0.0314    0.0164    0.0497    0.0042    0.0106    0.0381   -0.0486   -0.0712
           3    0.0098   -0.0061    0.0295    0.0112    0.0041   -0.0053   -0.0025   -0.0212
           4    0.0065    0.0181    0.0018   -0.0295    0.0407   -0.0143    0.0042    0.0071
           5   -0.0129    0.0052    0.0266    0.0018    0.0019    0.0719    0.0756    0.0175
           6   -0.0011    0.0043    0.0063   -0.0110    0.0122    0.0141    0.0189    0.0052
           7    0.0013   -0.0273    0.0023   -0.0031   -0.0185    0.0159    0.0168    0.0084
           8    0.0273    0.0081    0.0298   -0.0023   -0.0149   -0.0386    0.0163    0.1295
           9   -0.0009   -0.0011   -0.0036   -0.0022   -0.0017    0.0012    0.0019    0.0012
          10   -0.0120   -0.0106    0.0145   -0.0021   -0.0183   -0.0050   -0.0217   -0.0050
          11   -0.0035   -0.0059   -0.0436    0.0080    0.0132   -0.0078    0.0342    0.0135
          12    0.0010    0.0012   -0.0193    0.0022    0.0059   -0.0023    0.0138    0.0062
          13   -0.0007   -0.0180   -0.0130   -0.0147   -0.0208    0.0115    0.0084   -0.0080
          14   -0.0003    0.0306   -0.0198   -0.0001    0.0184   -0.0275   -0.0378   -0.0198
          15    0.0006    0.0004   -0.0011    0.0005   -0.0002   -0.0022   -0.0026   -0.0016
          16    0.0058    0.0047   -0.0300   -0.0156   -0.0013    0.0349   -0.0297    0.0397
          17   -0.0006    0.0163   -0.0039   -0.0138   -0.0127   -0.0066    0.0081   -0.0076
          18    0.0009   -0.0013   -0.0165   -0.0063   -0.0001    0.0148   -0.0121    0.0179
          19   -0.0097    0.0020    0.0196   -0.0109   -0.0171    0.0084   -0.0224   -0.0023
          20   -0.0118   -0.0203    0.0130    0.0004   -0.0190   -0.0241   -0.0396   -0.0110
          21   -0.0070   -0.0104    0.0069    0.0009   -0.0095   -0.0097   -0.0168   -0.0050
          22   -0.0102   -0.0038    0.0034    0.0152    0.0155    0.0095   -0.0186    0.0292
          23   -0.0079   -0.0175   -0.0326   -0.0159   -0.0110    0.0151    0.0133   -0.0744
          24   -0.0024   -0.0049   -0.0013    0.0021    0.0021    0.0062   -0.0036    0.0004
          25    0.0086    0.0205    0.0108   -0.0147   -0.0167   -0.0134    0.0172   -0.0318
          26   -0.0067    0.0124    0.0189    0.0017   -0.0089   -0.0386    0.0352   -0.0290
          27    0.0042    0.0117    0.0073   -0.0071   -0.0087   -0.0086    0.0099   -0.0163
          28   -0.0057    0.0086    0.0115    0.0125    0.0127   -0.0108   -0.0101    0.0347
          29   -0.0143   -0.0198    0.0001    0.0224    0.0235    0.0234   -0.0318    0.0498
          30   -0.0047   -0.0001    0.0033    0.0077    0.0080   -0.0007   -0.0075    0.0176
          31   -0.0043    0.0676   -0.0266   -0.0496   -0.0318    0.0343   -0.0228    0.0178
          32   -0.0605   -0.0192   -0.0632   -0.0069   -0.0078   -0.0269    0.0296    0.0346
          33   -0.0124    0.0078   -0.0066   -0.0116   -0.0135   -0.0051    0.0035    0.0161
          34    0.0169    0.0645   -0.0365    0.1241   -0.0562    0.0129   -0.0011    0.0016
          35    0.0236   -0.0487   -0.0641   -0.0449    0.0179   -0.1011   -0.0800   -0.0300
          36    0.0215    0.0496   -0.0647    0.1791   -0.1116    0.0083   -0.0253   -0.0142
          37    0.0222    0.0838   -0.0616    0.2048   -0.1189    0.0355   -0.0065   -0.0062
          38    0.0322   -0.0196   -0.0535    0.0159   -0.0181   -0.0666   -0.0626   -0.0212
          39    0.0055   -0.0189    0.0040   -0.0686    0.0487   -0.0325   -0.0117   -0.0003
          40   -0.1032    0.0770   -0.0002   -0.0368   -0.0484   -0.0731    0.0603    0.0003
          41    0.0729   -0.0351   -0.0260    0.0009    0.0197    0.0668   -0.0526    0.0155
          42   -0.0370    0.0406    0.0010   -0.0204   -0.0236   -0.0270    0.0225    0.0023
          43    0.1598    0.0248   -0.0391    0.0520    0.0766    0.0269    0.0676   -0.0269
          44   -0.0957   -0.0223   -0.0144   -0.0211   -0.0387   -0.0237   -0.0164    0.0221
          45   -0.0420   -0.0168   -0.0092   -0.0076   -0.0158   -0.0154   -0.0044    0.0117
          46   -0.0911    0.1759   -0.0251    0.0070    0.0763    0.0208   -0.0253   -0.0720
          47    0.0558   -0.0868   -0.0145   -0.0157   -0.0412   -0.0346   -0.0186    0.0202
          48    0.0037   -0.0004    0.0049    0.0002    0.0019    0.0022    0.0022   -0.0036
          49    0.0586    0.0636   -0.1220    0.0004    0.0597   -0.0258    0.0445    0.0214
          50    0.0232    0.0108   -0.0641    0.0082    0.0212   -0.0417   -0.0020    0.0009
          51    0.0123    0.0055   -0.0328    0.0044    0.0118   -0.0265   -0.0014    0.0018
          52    0.0106    0.0204    0.0059   -0.0180   -0.0180   -0.0092    0.0151   -0.0319
          53    0.0171   -0.0511   -0.0998   -0.0272    0.0044    0.0903   -0.0563    0.0531
          54    0.0058    0.0065   -0.0028   -0.0115   -0.0092    0.0042    0.0004   -0.0092
          55    0.0388    0.0077   -0.0481   -0.0591   -0.0440    0.0009    0.0369   -0.0999
          56    0.0119   -0.0231   -0.0390   -0.0212   -0.0104    0.0350   -0.0049   -0.0334
          57    0.0162    0.0014   -0.0215   -0.0240   -0.0170    0.0043    0.0121   -0.0414
          58    0.1208   -0.0258   -0.0206   -0.0642   -0.0666   -0.0244    0.0543   -0.0439
          59   -0.0901   -0.0088   -0.0187    0.0346    0.0403    0.0397   -0.0331   -0.0296
          60    0.0211   -0.0019   -0.0101   -0.0150   -0.0132   -0.0033    0.0107   -0.0154


   Root No.      41        42        43        44        45        46        47        48

                41 A      42 A      43 A      44 A      45 A      46 A      47 A      48 A   

                1828.1    1844.8    1870.5    1890.0    2801.4    2932.7    3013.4    3049.0
  
           1    0.0123   -0.0138    0.0018   -0.0297    0.0140   -0.0001   -0.0001   -0.0001
           2   -0.0037    0.0171    0.0068    0.0032    0.0162   -0.0001   -0.0000   -0.0000
           3    0.0028   -0.0037    0.0075    0.0000   -0.0695    0.0004    0.0002   -0.0001
           4   -0.0059   -0.0033    0.0076    0.0221    0.0001    0.0141   -0.0391   -0.0004
           5    0.0044    0.0130    0.0158   -0.0040    0.0000    0.0137    0.0012    0.0000
           6   -0.0007    0.0024    0.0051    0.0028   -0.0002   -0.0566   -0.0049    0.0001
           7   -0.0024   -0.0718   -0.0688    0.1488    0.0014    0.0003    0.0003    0.0001
           8   -0.0183   -0.0071    0.0112   -0.0148    0.0010    0.0001   -0.0003    0.0002
           9    0.0022   -0.0018   -0.0041    0.0066   -0.0000   -0.0002    0.0000    0.0001
          10   -0.0119    0.0460    0.1216    0.0991    0.0013    0.0002    0.0001   -0.0072
          11    0.0020   -0.0070   -0.0162   -0.0120   -0.0008   -0.0000   -0.0001   -0.0101
          12    0.0016   -0.0033   -0.0049   -0.0048   -0.0006   -0.0003   -0.0000   -0.0049
          13    0.0242    0.0760    0.0559   -0.1297   -0.0008   -0.0010    0.0021   -0.0004
          14   -0.0099   -0.0152   -0.0109    0.0222    0.0002   -0.0005    0.0042   -0.0007
          15    0.0005    0.0012    0.0008   -0.0030   -0.0003   -0.0001    0.0002   -0.0001
          16   -0.0491    0.0632   -0.0392    0.0154   -0.0015    0.0000   -0.0000   -0.0080
          17    0.0834   -0.0914    0.0601   -0.0243    0.0006    0.0000   -0.0000   -0.0159
          18   -0.0184    0.0242   -0.0140    0.0075   -0.0009   -0.0000   -0.0000   -0.0049
          19    0.0135   -0.0465   -0.1216   -0.0982   -0.0008   -0.0009    0.0018   -0.0043
          20    0.0016   -0.0075   -0.0171   -0.0122   -0.0000    0.0005   -0.0032    0.0071
          21    0.0010   -0.0038   -0.0093   -0.0073   -0.0003    0.0001   -0.0015    0.0032
          22   -0.1697   -0.0583    0.0408   -0.0417   -0.0001   -0.0000   -0.0000   -0.0068
          23    0.0282    0.0092   -0.0156    0.0191   -0.0000    0.0000    0.0001   -0.0113
          24   -0.0496   -0.0179    0.0109   -0.0096   -0.0002   -0.0001   -0.0000   -0.0035
          25    0.0094   -0.0405    0.0243   -0.0105    0.0003    0.0000   -0.0000    0.0116
          26   -0.1182    0.1021   -0.0654    0.0254   -0.0010   -0.0000   -0.0000   -0.0004
          27   -0.0022   -0.0123    0.0071   -0.0032   -0.0002   -0.0000   -0.0000    0.0054
          28    0.1738    0.0603   -0.0289    0.0225    0.0002    0.0000    0.0000   -0.0045
          29    0.0432   -0.0083    0.0053    0.0006    0.0003    0.0000    0.0000    0.0083
          30    0.0631    0.0194   -0.0092    0.0076    0.0002    0.0000    0.0000   -0.0005
          31    0.0046   -0.0030    0.0016    0.0106   -0.1717    0.0002    0.0002   -0.0005
          32    0.0062    0.0007    0.0126   -0.0046   -0.1992    0.0007    0.0004   -0.0005
          33   -0.0007   -0.0003    0.0040   -0.0006    0.8584   -0.0028   -0.0017   -0.0005
          34   -0.0034   -0.0027    0.0064    0.0202   -0.0007   -0.3285    0.3799    0.0057
          35   -0.0005    0.0170    0.0242   -0.0046    0.0000   -0.0491    0.0688    0.0015
          36    0.0014    0.0035    0.0064    0.0055   -0.0001    0.2046   -0.2861   -0.0037
          37   -0.0008   -0.0001    0.0003    0.0016    0.0021    0.1656    0.0867    0.0006
          38    0.0013    0.0080    0.0104   -0.0021   -0.0011   -0.1163   -0.0838   -0.0005
          39   -0.0026    0.0010    0.0047    0.0031    0.0044    0.4809    0.3467    0.0030
          40    0.0333   -0.0534    0.0320   -0.0159    0.0017   -0.0000    0.0001    0.1002
          41    0.0450   -0.0319    0.0276   -0.0094    0.0031   -0.0000    0.0002    0.1809
          42    0.0192   -0.0280    0.0180   -0.0081   -0.0016    0.0000    0.0001    0.0596
          43    0.0028    0.0041    0.0174    0.0040    0.0003    0.0001    0.0029    0.0787
          44   -0.0070    0.0239    0.0647    0.0582    0.0015    0.0007    0.0035    0.1215
          45   -0.0028    0.0093    0.0288    0.0275   -0.0019   -0.0005    0.0016    0.0583
          46   -0.0015    0.0070    0.0077   -0.0026   -0.0012    0.0072   -0.0297    0.0043
          47    0.0069    0.0400    0.0304   -0.0813   -0.0018    0.0082   -0.0431    0.0062
          48    0.0045    0.0015    0.0022    0.0002   -0.0010   -0.0011   -0.0025    0.0003
          49   -0.0012   -0.0079   -0.0148   -0.0044   -0.0012    0.0066   -0.0248    0.0550
          50   -0.0080    0.0222    0.0637    0.0563    0.0022   -0.0060    0.0326   -0.0845
          51   -0.0045    0.0092    0.0285    0.0273   -0.0002   -0.0044    0.0142   -0.0381
          52    0.0274   -0.0615    0.0381   -0.0161    0.0026   -0.0000   -0.0000   -0.1386
          53   -0.0177   -0.0363    0.0202   -0.0104   -0.0003   -0.0000    0.0000    0.0115
          54    0.0137   -0.0326    0.0197   -0.0084    0.0000    0.0000   -0.0000   -0.0648
          55    0.0255   -0.0075    0.0042    0.0002   -0.0000   -0.0000    0.0002    0.0576
          56   -0.0811   -0.0636    0.0312   -0.0165    0.0002   -0.0000   -0.0004   -0.0965
          57   -0.0045   -0.0102    0.0063   -0.0041    0.0000    0.0000    0.0000    0.0069
          58   -0.0179   -0.0094   -0.0145    0.0256   -0.0001   -0.0000    0.0000    0.0755
          59   -0.0979   -0.0371    0.0240   -0.0242   -0.0007   -0.0001   -0.0002    0.1335
          60   -0.0261   -0.0059    0.0022   -0.0023   -0.0004   -0.0000   -0.0000    0.0395


   Root No.      49        50        51        52        53        54

                49 A      50 A      51 A      52 A      53 A      54 A   

                3049.8    3050.9    3055.5    3066.8    3070.9    3077.4
  
           1    0.0000   -0.0001    0.0004    0.0000   -0.0005   -0.0001
           2   -0.0003   -0.0001    0.0001   -0.0002   -0.0001    0.0004
           3   -0.0000    0.0000   -0.0001    0.0001    0.0001   -0.0001
           4   -0.0004    0.0005   -0.0040    0.0002    0.0031    0.0000
           5    0.0000   -0.0000   -0.0001    0.0000    0.0001    0.0000
           6    0.0001   -0.0001    0.0003   -0.0000   -0.0002   -0.0000
           7   -0.0003    0.0002    0.0043   -0.0004   -0.0004   -0.0008
           8    0.0001   -0.0001   -0.0004    0.0002    0.0004    0.0002
           9    0.0000    0.0000    0.0002   -0.0000    0.0000   -0.0001
          10   -0.0114    0.0057   -0.0033   -0.0004   -0.0198   -0.0001
          11   -0.0163    0.0084   -0.0042   -0.0001   -0.0213   -0.0003
          12   -0.0079    0.0040   -0.0020   -0.0001   -0.0104   -0.0001
          13    0.0027    0.0007   -0.0314    0.0008    0.0021    0.0004
          14    0.0040    0.0013   -0.0448    0.0009    0.0032    0.0002
          15    0.0002    0.0001   -0.0023    0.0000    0.0002    0.0000
          16    0.0005   -0.0088   -0.0005   -0.0064    0.0008    0.0045
          17    0.0006   -0.0172   -0.0011   -0.0170    0.0013    0.0134
          18    0.0002   -0.0053   -0.0003   -0.0042    0.0004    0.0030
          19   -0.0078    0.0042    0.0011    0.0010    0.0250    0.0000
          20    0.0124   -0.0066   -0.0005   -0.0013   -0.0293    0.0000
          21    0.0056   -0.0030   -0.0003   -0.0006   -0.0131   -0.0000
          22    0.0101    0.0087    0.0022   -0.0090    0.0005   -0.0093
          23    0.0166    0.0144    0.0044   -0.0114    0.0005   -0.0111
          24    0.0051    0.0044    0.0013   -0.0042    0.0002   -0.0043
          25   -0.0029    0.0105   -0.0009   -0.0213    0.0005    0.0232
          26    0.0003   -0.0003    0.0003    0.0046   -0.0002   -0.0037
          27   -0.0013    0.0049   -0.0004   -0.0098    0.0002    0.0107
          28    0.0051    0.0028    0.0021    0.0131   -0.0008    0.0165
          29   -0.0097   -0.0060   -0.0037   -0.0177    0.0010   -0.0242
          30    0.0005    0.0002    0.0002    0.0021   -0.0001    0.0024
          31   -0.0002   -0.0002   -0.0000    0.0000   -0.0004   -0.0001
          32   -0.0004   -0.0000   -0.0001   -0.0001   -0.0000    0.0001
          33   -0.0002   -0.0008    0.0008   -0.0012   -0.0010    0.0011
          34    0.0058   -0.0062    0.0404   -0.0019   -0.0290   -0.0000
          35    0.0024   -0.0015    0.0030   -0.0003   -0.0071    0.0000
          36   -0.0035    0.0041   -0.0289    0.0013    0.0194    0.0000
          37    0.0005   -0.0007    0.0050   -0.0002   -0.0035    0.0000
          38   -0.0001    0.0006   -0.0070    0.0003    0.0035    0.0000
          39    0.0028   -0.0034    0.0236   -0.0010   -0.0174    0.0001
          40   -0.0041    0.1092    0.0063    0.0924   -0.0078   -0.0668
          41   -0.0086    0.1992    0.0113    0.1721   -0.0165   -0.1252
          42   -0.0028    0.0654    0.0037    0.0553   -0.0052   -0.0401
          43    0.1280   -0.0661    0.0337    0.0009    0.1698    0.0027
          44    0.1960   -0.0999    0.0511    0.0023    0.2531    0.0032
          45    0.0944   -0.0483    0.0246    0.0010    0.1221    0.0016
          46   -0.0299   -0.0091    0.3267   -0.0068   -0.0210   -0.0016
          47   -0.0476   -0.0139    0.5341   -0.0120   -0.0341   -0.0034
          48   -0.0023   -0.0007    0.0254   -0.0006   -0.0016   -0.0001
          49    0.0976   -0.0514   -0.0078   -0.0099   -0.2324    0.0000
          50   -0.1495    0.0788    0.0110    0.0149    0.3473   -0.0001
          51   -0.0674    0.0355    0.0049    0.0067    0.1564   -0.0000
          52    0.0321   -0.1282    0.0098    0.2379   -0.0048   -0.2541
          53   -0.0035    0.0094   -0.0012   -0.0232    0.0006    0.0210
          54    0.0150   -0.0601    0.0045    0.1110   -0.0022   -0.1190
          55   -0.0677   -0.0414   -0.0259   -0.1278    0.0075   -0.1641
          56    0.1154    0.0728    0.0439    0.2095   -0.0124    0.2764
          57   -0.0078   -0.0044   -0.0031   -0.0158    0.0009   -0.0192
          58   -0.1109   -0.0966   -0.0299    0.0797   -0.0038    0.0747
          59   -0.1959   -0.1701   -0.0498    0.1365   -0.0066    0.1275
          60   -0.0580   -0.0504   -0.0150    0.0411   -0.0020    0.0385


           MASS-WEIGHTED COORDINATE ANALYSIS (NORMAL COORDINATES)


   Root No.       1         2         3         4         5         6         7         8

                 1 A       2 A       3 A       4 A       5 A       6 A       7 A       8 A   

                  87.9     160.2     255.1     337.2     378.9     453.2     467.8     474.6
  
           1    0.0626    0.0405   -0.0372   -0.0528    0.1736    0.2075   -0.1314    0.1112
           2   -0.0064    0.0501   -0.0084   -0.1663    0.2688    0.0257    0.0333   -0.1952
           3   -0.0498   -0.2831   -0.2211   -0.1607   -0.0843   -0.0512    0.2725    0.1236
           4   -0.0631   -0.0039    0.1294    0.0671   -0.0088   -0.2016    0.1080   -0.2586
           5   -0.0960   -0.0448    0.0640    0.1338   -0.1754   -0.0933   -0.0187    0.0751
           6    0.3744    0.2175   -0.2007   -0.0043   -0.0706   -0.0590   -0.0103   -0.0485
           7    0.0303    0.0549   -0.0109   -0.1140    0.1741   -0.0656    0.0105   -0.2261
           8    0.0176    0.0404   -0.0376   -0.1467    0.2662    0.1868   -0.0515    0.0362
           9   -0.0753   -0.3415    0.0000    0.0408   -0.0951    0.2771    0.4129   -0.0257
          10    0.0409    0.0664    0.0468    0.1345   -0.1041    0.0412   -0.0832    0.0178
          11    0.1246   -0.0571   -0.0406   -0.0029    0.1911   -0.1311    0.3376   -0.1739
          12   -0.3665   -0.0079   -0.0044   -0.2856   -0.2391   -0.0232   -0.2005   -0.1923
          13    0.0284    0.0508   -0.0213   -0.1092    0.1756   -0.0658    0.0404   -0.2641
          14   -0.0273    0.0077   -0.0559    0.0110   -0.0029    0.0345   -0.0542    0.0437
          15    0.1436   -0.2490    0.4836   -0.2349    0.1124   -0.0694   -0.1405    0.0686
          16   -0.1054    0.0372   -0.0825   -0.2177    0.0400    0.3241    0.0799    0.1902
          17   -0.0400    0.0553    0.0311    0.0497   -0.0584    0.0369   -0.0340   -0.0448
          18    0.2938   -0.2696   -0.1092    0.1901    0.1859   -0.1751   -0.1906    0.1570
          19    0.0409    0.0642    0.0474    0.1409   -0.1278    0.0219   -0.0990    0.0045
          20    0.0812   -0.1329   -0.0419   -0.0830   -0.2137   -0.2432    0.0465   -0.1632
          21   -0.1712    0.3035    0.1486    0.3438    0.1899   -0.0574    0.1908    0.0576
          22    0.0739    0.0022    0.0722   -0.0158   -0.1616   -0.1619    0.0937    0.0587
          23    0.0237    0.0226   -0.0048   -0.0837    0.0977    0.1815   -0.0493    0.2247
          24   -0.3130   -0.0928   -0.2522    0.2583    0.1359    0.1611   -0.1628   -0.2283
          25   -0.1216   -0.1410   -0.1853   -0.0047   -0.0023   -0.0349   -0.0632    0.3780
          26   -0.0546    0.0531    0.0448    0.1376   -0.1623   -0.0597   -0.0847    0.0125
          27    0.2585    0.2168    0.2395    0.0153   -0.1865    0.3121    0.0489   -0.0435
          28    0.0165   -0.1598    0.0031    0.1446   -0.1406   -0.0351    0.0084   -0.0642
          29   -0.0075    0.0075    0.0289    0.1202   -0.1393    0.1190   -0.1405    0.1771
          30   -0.1399    0.4003   -0.0486   -0.1859   -0.0108   -0.2703    0.0822    0.2145
          31    0.0961   -0.0078   -0.0385    0.0275    0.1361    0.0131   -0.1010    0.1157
          32   -0.0426    0.0523   -0.0024   -0.1407    0.0876   -0.0386   -0.0922   -0.1133
          33   -0.0081   -0.0755   -0.0669   -0.0580   -0.0034   -0.0335    0.0386    0.0375
          34    0.0760    0.0468   -0.1158   -0.0184   -0.0715   -0.0250   -0.0232   -0.1297
          35   -0.0352   -0.0743    0.1113    0.0212   -0.0809   -0.0402   -0.0465    0.0729
          36    0.2500    0.1212   -0.2722   -0.0644   -0.1348    0.0326   -0.0979   -0.0862
          37   -0.1788   -0.0822    0.2999    0.0846    0.1144   -0.1201    0.1262    0.0105
          38   -0.0805    0.0582   -0.0076    0.1548   -0.0344   -0.0166    0.0568    0.0540
          39    0.1505    0.1083   -0.1557    0.0038   -0.0577    0.0078   -0.0228   -0.0369
          40   -0.0626    0.0466   -0.0255   -0.1560    0.0186    0.1413    0.1185    0.0388
          41   -0.0200    0.0259    0.0163    0.0270   -0.0587    0.0096   -0.0085    0.0113
          42    0.1638   -0.1667   -0.0506    0.1719    0.1694   -0.1302   -0.2202   -0.0042
          43    0.0159    0.0286    0.0288    0.0789   -0.0760   -0.0300   -0.0161    0.0007
          44    0.0869   -0.0224   -0.0383    0.0194    0.1201   -0.0351    0.1892   -0.0155
          45   -0.2155   -0.0024    0.0324   -0.1778   -0.1408    0.0448   -0.2622   -0.1200
          46    0.0208    0.0239   -0.0207   -0.0686    0.1079    0.0252    0.0069   -0.0753
          47   -0.0163   -0.0024   -0.0145    0.0301   -0.0414   -0.0155   -0.0016    0.0119
          48    0.0422   -0.1009    0.3251   -0.1401    0.1274   -0.0723   -0.2630    0.0324
          49    0.0267    0.0314    0.0142    0.0715   -0.0726    0.0232   -0.0732    0.0561
          50    0.0614   -0.0689   -0.0510   -0.0711   -0.1357   -0.0795   -0.0221   -0.0384
          51   -0.1099    0.1747    0.1270    0.2479    0.1662    0.0307    0.0676    0.0792
          52   -0.0697   -0.0629   -0.1019   -0.0211    0.0196   -0.0996   -0.0007    0.1814
          53   -0.0305    0.0282    0.0214    0.0605   -0.0828   -0.0919   -0.0132   -0.0197
          54    0.1457    0.1126    0.1739    0.0498   -0.1025    0.2671   -0.0206   -0.1719
          55    0.0194   -0.0787    0.0335    0.0965   -0.1011    0.0304    0.0224   -0.1040
          56    0.0036   -0.0082    0.0253    0.0615   -0.0719    0.0418   -0.0317    0.0059
          57   -0.0843    0.2430   -0.0549   -0.1354    0.0496   -0.3197   -0.0189    0.1603
          58    0.0436    0.0145    0.0578   -0.0007   -0.1383   -0.0611    0.0642    0.0874
          59    0.0203    0.0052    0.0101   -0.0582    0.0497    0.0687    0.0237    0.0571
          60   -0.1776   -0.0493   -0.1807    0.1821    0.1414    0.0187   -0.2454   -0.1766


   Root No.       9        10        11        12        13        14        15        16

                 9 A      10 A      11 A      12 A      13 A      14 A      15 A      16 A   

                 510.2     608.5     655.6     742.7     771.1     776.9     820.2     837.5
  
           1   -0.0272   -0.1888    0.0085   -0.0422   -0.0016   -0.0111   -0.0158   -0.1443
           2    0.0015    0.1278    0.0671    0.0428    0.0799   -0.0067   -0.0072   -0.1861
           3   -0.1584   -0.0726   -0.2600    0.1309    0.2145    0.0277   -0.0381    0.1094
           4   -0.2563    0.0979   -0.0777   -0.0440   -0.3102    0.1673    0.1060    0.1724
           5    0.2213   -0.1229    0.0166    0.0400    0.0599    0.0029    0.0199    0.0052
           6   -0.0044    0.0027   -0.1143   -0.1875   -0.1433   -0.0497   -0.1564   -0.2005
           7    0.0824   -0.2234    0.0529   -0.0206   -0.0466   -0.0670   -0.0111    0.1131
           8   -0.0018    0.1638    0.1197   -0.0670   -0.0666   -0.1040   -0.0728    0.0770
           9   -0.0781   -0.0886    0.4873   -0.1699   -0.0167    0.0094    0.0463    0.1462
          10   -0.2783    0.1517    0.0956    0.0697    0.1703   -0.1036   -0.0447   -0.0220
          11   -0.0855    0.2740   -0.0722    0.2147    0.2080    0.2098    0.0468   -0.1656
          12   -0.0894    0.1238   -0.0268   -0.0564    0.0929   -0.1674    0.0934    0.0314
          13    0.0526   -0.2381    0.0824   -0.0311   -0.1209   -0.0606    0.0207    0.2247
          14    0.3148   -0.3000    0.1182    0.0174    0.0950   -0.1611   -0.0109    0.1639
[...]
 FREQ.      1234.11         C  4 -- H 15         +17.8% ( 51.1%)      1.0%
 T-DIPOLE    0.0606         C  8 -- H 20         +11.1% ( 40.4%)      3.2%
 TRAVEL      0.1264         C  6 -- H 14          +8.1% ( 34.4%)      0.1%
 RED. MASS   0.3027         C  1 -- H 11          +7.9% ( 34.1%)      0.2%
 EFF. MASS   3.4209

 VIBRATION   34   34A         ATOM PAIR      ENERGY CONTRIBUTION    RADIAL
 FREQ.      1245.89         C  5 -- H 16         +16.5% ( 58.1%)      1.7%
 T-DIPOLE    0.1042         C  1 -- C  3          +9.5% ( 44.2%)      0.0%
 TRAVEL      0.0894         C  1 -- H 11          +8.6% ( 41.9%)      0.0%
 RED. MASS   0.5653         C  1 -- C  6          +7.9% ( 40.1%)     86.6%
 EFF. MASS   6.7704

 VIBRATION   35   35A         ATOM PAIR      ENERGY CONTRIBUTION    RADIAL
 FREQ.      1319.91         C  1 -- C  4         +16.7% ( 60.4%)     75.3%
 T-DIPOLE    0.1373         C  1 -- C  6         +11.0% ( 49.1%)     40.4%
 TRAVEL      0.0768         C  1 -- H 11          +8.3% ( 42.6%)      2.2%
 RED. MASS   1.0091         C  1 -- C  3          +6.6% ( 38.0%)     28.8%
 EFF. MASS   8.6544

 VIBRATION   36   36A         ATOM PAIR      ENERGY CONTRIBUTION    RADIAL
 FREQ.      1356.94         C  2 -- H 12         +14.7% ( 47.6%)      3.7%
 T-DIPOLE    0.0590         C  2 -- H 13         +14.0% ( 46.4%)      4.6%
 TRAVEL      0.1001         C  1 -- C  6         +11.8% ( 42.6%)     84.3%
 RED. MASS   0.5669         C  1 -- H 11          +9.4% ( 38.1%)      0.0%
 EFF. MASS   4.9633

 VIBRATION   37   37A         ATOM PAIR      ENERGY CONTRIBUTION    RADIAL
 FREQ.      1398.07         C  2 -- C  7          +9.0% ( 41.9%)     69.8%
 T-DIPOLE    0.0745         C  2 -- C  5          +8.9% ( 41.5%)     50.2%
 TRAVEL      0.0821         C  2 -- H 13          +8.6% ( 40.8%)      7.2%
 RED. MASS   0.6092         C  2 -- H 12          +8.0% ( 39.4%)      9.4%
 EFF. MASS   7.1517

 VIBRATION   38   38A         ATOM PAIR      ENERGY CONTRIBUTION    RADIAL
 FREQ.      1404.32         C  2 -- C  5         +11.9% ( 53.5%)     89.8%
 T-DIPOLE    0.1612         C  2 -- C  7         +10.4% ( 50.1%)     48.1%
 TRAVEL      0.0704         C  2 -- H 12         +10.0% ( 49.0%)      0.6%
 RED. MASS   1.4679         C  2 -- H 13          +9.2% ( 47.0%)      0.4%
 EFF. MASS   9.6806

 VIBRATION   39   39A         ATOM PAIR      ENERGY CONTRIBUTION    RADIAL
 FREQ.      1453.16         C  2 -- C  7         +13.1% ( 56.4%)     87.4%
 T-DIPOLE    0.1106         C  2 -- C  5         +11.1% ( 51.8%)     73.8%
 TRAVEL      0.0665         C  1 -- C  4          +9.0% ( 46.8%)     95.1%
 RED. MASS   1.4766         C  2 -- H 12          +8.1% ( 44.3%)      0.1%
 EFF. MASS  10.4835

 VIBRATION   40   40A         ATOM PAIR      ENERGY CONTRIBUTION    RADIAL
 FREQ.      1503.15         C  3 -- C  8         +21.0% ( 69.5%)     82.1%
 T-DIPOLE    0.1055         C  1 -- C  3         +20.8% ( 69.1%)     92.3%
 TRAVEL      0.0627         C  3 -- C  5         +11.6% ( 51.8%)      1.0%
 RED. MASS   2.6641         C  1 -- C  6          +7.4% ( 41.2%)     62.3%
 EFF. MASS  11.3992

 VIBRATION   41   41A         ATOM PAIR      ENERGY CONTRIBUTION    RADIAL
 FREQ.      1828.07         C  8 -- C 10         +32.3% ( 84.9%)     99.6%
 T-DIPOLE    0.2168         C  9 -- C 10         +16.2% ( 60.2%)     92.3%
 TRAVEL      0.0555         C  6 -- C  9         +11.0% ( 49.6%)     96.8%
 RED. MASS   3.4584         C 10 -- H 19         +10.2% ( 47.8%)      2.9%
 EFF. MASS  11.9602

 VIBRATION   42   42A         ATOM PAIR      ENERGY CONTRIBUTION    RADIAL
 FREQ.      1844.85         C  6 -- C  9         +23.2% ( 71.0%)     99.8%
 T-DIPOLE    0.3953         C  3 -- C  5         +10.3% ( 47.3%)     99.8%
 TRAVEL      0.0556         C  9 -- C 10          +9.0% ( 44.3%)      6.1%
 RED. MASS   1.9427         C  1 -- C  6          +7.8% ( 41.3%)     44.7%
 EFF. MASS  11.8391

 VIBRATION   43   43A         ATOM PAIR      ENERGY CONTRIBUTION    RADIAL
 FREQ.      1870.51         C  4 -- C  7         +26.6% ( 76.0%)    100.0%
 T-DIPOLE    0.1615         C  6 -- C  9          +8.8% ( 43.7%)    100.0%
 TRAVEL      0.0551         C  2 -- C  7          +8.5% ( 42.9%)     54.2%
 RED. MASS   2.2983         C  1 -- C  4          +8.1% ( 41.9%)     48.8%
 EFF. MASS  11.8727

 VIBRATION   44   44A         ATOM PAIR      ENERGY CONTRIBUTION    RADIAL
 FREQ.      1890.02         C  3 -- C  5         +26.8% ( 76.4%)     98.5%
 T-DIPOLE    0.3033         C  4 -- C  7         +13.7% ( 54.6%)    100.0%
 TRAVEL      0.0548         C  3 -- C  8         +11.3% ( 49.7%)     42.8%
 RED. MASS   2.7037         C  1 -- C  3         +10.1% ( 47.0%)     19.2%
 EFF. MASS  11.8754

 VIBRATION   45   45A         ATOM PAIR      ENERGY CONTRIBUTION    RADIAL
 FREQ.      2801.38         C  1 -- H 11         +97.2% (100.0%)    100.0%
 T-DIPOLE    0.1108         C  1 -- C  3          +0.9% (  9.7%)      7.4%
 TRAVEL      0.1300         C  1 -- C  4          +0.9% (  9.7%)      7.2%
 RED. MASS   0.9297         C  1 -- C  6          +0.9% (  9.7%)      6.5%
 EFF. MASS   1.4242

 VIBRATION   46   46A         ATOM PAIR      ENERGY CONTRIBUTION    RADIAL
 FREQ.      2932.71         C  2 -- H 13         +61.6% ( 81.3%)     97.7%
 T-DIPOLE    0.0482         C  2 -- H 12         +36.2% ( 62.4%)     94.8%
 TRAVEL      0.1225         C  2 -- C  5          +1.1% ( 10.8%)      0.2%
 RED. MASS   0.5492         C  2 -- C  7          +1.1% ( 10.8%)      0.2%
 EFF. MASS   1.5311

 VIBRATION   47   47A         ATOM PAIR      ENERGY CONTRIBUTION    RADIAL
 FREQ.      3013.45         C  2 -- H 12         +62.1% ( 77.9%)     98.9%
 T-DIPOLE    0.1035         C  2 -- H 13         +35.1% ( 58.5%)     95.4%
 TRAVEL      0.1317         C  5 -- H 16          +0.8% (  8.9%)    100.0%
 RED. MASS   0.5026         C  2 -- C  5          +0.7% (  8.2%)     20.6%
 EFF. MASS   1.2897

 VIBRATION   48   48A         ATOM PAIR      ENERGY CONTRIBUTION    RADIAL
 FREQ.      3049.03         C  6 -- H 14         +31.4% ( 56.9%)    100.0%
 T-DIPOLE    0.3590         C  8 -- H 20         +17.0% ( 41.9%)    100.0%
 TRAVEL      0.1224         C  4 -- H 15         +16.5% ( 41.3%)    100.0%
 RED. MASS   0.1902         C  9 -- H 18         +16.0% ( 40.6%)    100.0%
 EFF. MASS   1.4750

 VIBRATION   49   49A         ATOM PAIR      ENERGY CONTRIBUTION    RADIAL
 FREQ.      3049.75         C  4 -- H 15         +35.1% ( 60.2%)    100.0%
 T-DIPOLE    0.0921         C  8 -- H 20         +29.8% ( 55.5%)    100.0%
 TRAVEL      0.1227         C  7 -- H 17         +20.1% ( 45.5%)    100.0%
 RED. MASS   0.2575         C 10 -- H 19          +9.9% ( 32.0%)    100.0%
 EFF. MASS   1.4682

 VIBRATION   50   50A         ATOM PAIR      ENERGY CONTRIBUTION    RADIAL
 FREQ.      3050.90         C  6 -- H 14         +36.1% ( 60.9%)    100.0%
 T-DIPOLE    0.3304         C  8 -- H 20         +26.4% ( 52.1%)    100.0%
 TRAVEL      0.1228         C  9 -- H 18         +13.0% ( 36.6%)     99.9%
 RED. MASS   0.2298         C  4 -- H 15         +10.8% ( 33.3%)    100.0%
 EFF. MASS   1.4655

 VIBRATION   51   51A         ATOM PAIR      ENERGY CONTRIBUTION    RADIAL
 FREQ.      3055.50         C  5 -- H 16         +93.7% ( 98.2%)    100.0%
 T-DIPOLE    0.3467         C  3 -- C  5          +1.5% ( 12.3%)     38.3%
 TRAVEL      0.1207         C  2 -- C  5          +1.4% ( 11.9%)     20.4%
 RED. MASS   0.8667         C  4 -- H 15          +1.0% ( 10.3%)    100.0%
 EFF. MASS   1.5155

 VIBRATION   52   52A         ATOM PAIR      ENERGY CONTRIBUTION    RADIAL
 FREQ.      3066.79         C  9 -- H 18         +33.8% ( 59.1%)     99.9%
 T-DIPOLE    0.3521         C 10 -- H 19         +29.4% ( 55.2%)     99.9%
 TRAVEL      0.1183         C  6 -- H 14         +20.0% ( 45.4%)     99.9%
 RED. MASS   0.2576         C  8 -- H 20         +12.9% ( 36.6%)     99.9%
 EFF. MASS   1.5719

 VIBRATION   53   53A         ATOM PAIR      ENERGY CONTRIBUTION    RADIAL
 FREQ.      3070.92         C  7 -- H 17         +61.7% ( 79.7%)     99.9%
 T-DIPOLE    0.2882         C  4 -- H 15         +33.5% ( 58.7%)     99.9%
 TRAVEL      0.1174         C  4 -- C  7          +2.0% ( 14.5%)     96.5%
 RED. MASS   0.4944         C  2 -- C  7          +1.0% ( 10.2%)     16.2%
 EFF. MASS   1.5919

 VIBRATION   54   54A         ATOM PAIR      ENERGY CONTRIBUTION    RADIAL
 FREQ.      3077.37         C 10 -- H 19         +43.8% ( 67.1%)    100.0%
 T-DIPOLE    0.4123         C  9 -- H 18         +33.4% ( 58.6%)    100.0%
 TRAVEL      0.1170         C  8 -- H 20          +9.9% ( 31.9%)     99.8%
 RED. MASS   0.3223         C  6 -- H 14          +9.2% ( 30.8%)     99.8%
 EFF. MASS   1.6005

      SYMMETRY NUMBER FOR POINT-GROUP C1  =  1


          SYSTEM IS A GROUND STATE



 InChI=1S/C10H10/c1-2-6-10-8-4-3-7-9(10)5-1/h1-3,5-9H,4H2


          MOLECULE IS NOT LINEAR

          THERE ARE 54 GENUINE VIBRATIONS IN THIS SYSTEM
          THIS THERMODYNAMICS CALCULATION IS LIMITED TO
          MOLECULES WHICH HAVE NO INTERNAL ROTATIONS




                    CALCULATED THERMODYNAMIC PROPERTIES
                                          *
   TEMP. (K)   PARTITION FUNCTION   H.O.F.    ENTHALPY  HEAT CAPACITY ENTROPY
                                   KCAL/MOL   CAL/MOLE    CAL/K/MOL  CAL/K/MOL


 298.00  VIB.     0.2412D+02                  3037.3635    25.7714    16.5180
         ROT.     0.4976D+06                   888.2813     2.9808    29.0482
         INT.     0.1200D+08                  3925.6448    28.7522    45.5662
         TRA.     0.1436D+28                  1480.4688     4.9680    40.5022
         TOT.                       53.886    5406.1137    33.7203    86.0684

 200.00  VIB.     0.5239D+01                  1099.4903    14.0171     8.7883
         ROT.     0.2736D+06                   596.1620     2.9808    27.8595
         INT.     0.1433D+07                  1695.6522    16.9979    36.6479
         TRA.     0.7896D+27                   993.6033     4.9680    38.5210
         TOT.                       51.169    2689.2555    21.9659    75.1689

 210.00  VIB.     0.6027D+01                  1245.2000    15.1299     9.4990
         ROT.     0.2944D+06                   625.9700     2.9808    28.0050
         INT.     0.1774D+07                  1871.1700    18.1107    37.5040
         TRA.     0.8496D+27                  1043.2834     4.9680    38.7634
         TOT.                       51.394    2914.4534    23.0787    76.2674

 220.00  VIB.     0.6960D+01                  1402.1844    16.2715    10.2291
         ROT.     0.3157D+06                   655.7781     2.9808    28.1436
         INT.     0.2197D+07                  2057.9625    19.2523    38.3728
         TRA.     0.9110D+27                  1092.9636     4.9680    38.9945
         TOT.                       51.631    3150.9261    24.2204    77.3673

 230.00  VIB.     0.8067D+01                  1570.7158    17.4387    10.9781
         ROT.     0.3374D+06                   685.5862     2.9808    28.2761
         INT.     0.2722D+07                  2256.3020    20.4195    39.2542
         TRA.     0.9738D+27                  1142.6437     4.9680    39.2154
         TOT.                       51.879    3398.9458    25.3876    78.4696

 240.00  VIB.     0.9384D+01                  1751.0327    18.6280    11.7453
         ROT.     0.3597D+06                   715.3943     2.9808    28.4030
         INT.     0.3375D+07                  2466.4271    21.6088    40.1483
         TRA.     0.1038D+28                  1192.3239     4.9680    39.4268
         TOT.                       52.138    3658.7510    26.5768    79.5751

 250.00  VIB.     0.1095D+02                  1943.3375    19.8357    12.5302
         ROT.     0.3824D+06                   745.2024     2.9808    28.5247
         INT.     0.4189D+07                  2688.5400    22.8165    41.0549
         TRA.     0.1103D+28                  1242.0041     4.9680    39.6296
         TOT.                       52.410    3930.5440    27.7845    80.6845

 260.00  VIB.     0.1283D+02                  2147.7952    21.0580    13.3319
         ROT.     0.4055D+06                   775.0105     2.9808    28.6416
         INT.     0.5204D+07                  2922.8057    24.0388    41.9735
         TRA.     0.1170D+28                  1291.6842     4.9680    39.8245
         TOT.                       52.694    4214.4899    29.0068    81.7980

 270.00  VIB.     0.1508D+02                  2364.5329    22.2911    14.1498
         ROT.     0.4292D+06                   804.8186     2.9808    28.7541
         INT.     0.6473D+07                  3169.3516    25.2719    42.9039
         TRA.     0.1239D+28                  1341.3644     4.9680    40.0120
         TOT.                       52.990    4510.7160    30.2399    82.9158

 280.00  VIB.     0.1778D+02                  2593.6413    23.5315    14.9828
         ROT.     0.4532D+06                   834.6267     2.9808    28.8625
         INT.     0.8060D+07                  3428.2680    26.5123    43.8453
         TRA.     0.1308D+28                  1391.0445     4.9680    40.1926
         TOT.                       53.299    4819.3126    31.4803    84.0380

 290.00  VIB.     0.2104D+02                  2835.1750    24.7756    15.8303
         ROT.     0.4777D+06                   864.4348     2.9808    28.9671
         INT.     0.1005D+08                  3699.6098    27.7564    44.7974
         TRA.     0.1379D+28                  1440.7247     4.9680    40.3670
         TOT.                       53.620    5140.3345    32.7244    85.1644

 300.00  VIB.     0.2497D+02                  3089.1552    26.0203    16.6912
         ROT.     0.5026D+06                   894.2429     2.9808    29.0682
         INT.     0.1255D+08                  3983.3981    29.0011    45.7593
         TRA.     0.1451D+28                  1490.4049     4.9680    40.5354
         TOT.                       53.954    5473.8030    33.9691    86.2947

 310.00  VIB.     0.2972D+02                  3355.5716    27.2624    17.5647
         ROT.     0.5280D+06                   924.0510     2.9808    29.1659
         INT.     0.1569D+08                  4279.6226    30.2432    46.7306
         TRA.     0.1524D+28                  1540.0850     4.9680    40.6983
         TOT.                       54.299    5819.7077    35.2112    87.4288

 320.00  VIB.     0.3548D+02                  3634.3850    28.4992    18.4498
         ROT.     0.5537D+06                   953.8591     2.9808    29.2605
         INT.     0.1965D+08                  4588.2441    31.4800    47.7103
         TRA.     0.1598D+28                  1589.7652     4.9680    40.8560
         TOT.                       54.658    6178.0093    36.4480    88.5663

 330.00  VIB.     0.4248D+02                  3925.5299    29.7283    19.3456
         ROT.     0.5799D+06                   983.6672     2.9808    29.3523
         INT.     0.2463D+08                  4909.1971    32.7091    48.6978
         TRA.     0.1674D+28                  1639.4454     4.9680    41.0089
         TOT.                       55.028    6548.6424    37.6771    89.7067

 340.00  VIB.     0.5100D+02                  4228.9174    30.9474    20.2512
         ROT.     0.6065D+06                  1013.4753     2.9808    29.4412
         INT.     0.3093D+08                  5242.3927    33.9282    49.6924
         TRA.     0.1750D+28                  1689.1255     4.9680    41.1572
         TOT.                       55.411    6931.5182    38.8962    90.8496

 350.00  VIB.     0.6138D+02                  4544.4379    32.1546    21.1657
         ROT.     0.6334D+06                  1043.2834     2.9808    29.5276
         INT.     0.3888D+08                  5587.7213    35.1354    50.6933
         TRA.     0.1828D+28                  1738.8057     4.9680    41.3012
         TOT.                       55.806    7326.5270    40.1034    91.9946

 360.00  VIB.     0.7407D+02                  4871.9634    33.3481    22.0883
         ROT.     0.6607D+06                  1073.0915     2.9808    29.6116
         INT.     0.4894D+08                  5945.0549    36.3289    51.6999
         TRA.     0.1907D+28                  1788.4859     4.9680    41.4412
         TOT.                       56.213    7733.5407    41.2970    93.1411

 370.00  VIB.     0.8961D+02                  5211.3504    34.5267    23.0181
         ROT.     0.6885D+06                  1102.8996     2.9808    29.6933
         INT.     0.6169D+08                  6314.2500    37.5075    52.7114
         TRA.     0.1987D+28                  1838.1660     4.9680    41.5773
         TOT.                       56.632    8152.4160    42.4755    94.2887

 380.00  VIB.     0.1087D+03                  5562.4422    35.6889    23.9543
         ROT.     0.7166D+06                  1132.7077     2.9808    29.7728
         INT.     0.7786D+08                  6695.1499    38.6697    53.7271
         TRA.     0.2068D+28                  1887.8462     4.9680    41.7098
         TOT.                       57.063    8582.9961    43.6377    95.4369

 390.00  VIB.     0.1320D+03                  5925.0708    36.8339    24.8962
         ROT.     0.7450D+06                  1162.5158     2.9808    29.8502
         INT.     0.9837D+08                  7087.5866    39.8147    54.7464
         TRA.     0.2150D+28                  1937.5263     4.9680    41.8388
         TOT.                       57.505    9025.1129    44.7827    96.5853

 400.00  VIB.     0.1608D+03                  6299.0592    37.9607    25.8430
         ROT.     0.7739D+06                  1192.3239     2.9808    29.9257
         INT.     0.1244D+09                  7491.3831    40.9416    55.7687
         TRA.     0.2233D+28                  1987.2065     4.9680    41.9646
         TOT.                       57.958    9478.5896    45.9096    97.7333

   *: NOTE: HEATS OF FORMATION ARE RELATIVE TO THE
            ELEMENTS IN THEIR STANDARD STATE AT 298K
              (=  Standard Enthalpy of Formation).

            Hvib:  Zero-point energy is not included.
                   frequencies of less than zero cm-1 are not included.
            Hrot = (3/2)RT
            Htra = (3/2)RT + pV = (5/2)RT

            Heat capacity is Cp, not Cv

          For more information, see: HTTP://OpenMOPAC.net/Manual/thermochemistry.html


           FORCE CONSTANT IN CARTESIAN COORDINATES (Millidynes/A)

    ATOM   CHEMICAL       X               Y               Z
   NUMBER   SYMBOL  FORCE CONSTANT  FORCE CONSTANT  FORCE CONSTANT

      1       C        9.756836        9.249132        7.420579
      2       C        9.152953        9.142709        7.733219
      3       C       15.450721       10.300855        2.715664
      4       C       15.408328        8.180989        3.666853
      5       C       14.970616        9.795940        2.397265
      6       C        8.926853       14.271961        3.817682
      7       C       15.270765        8.418554        3.630975
      8       C       13.982760       10.072553        3.459404
      9       C        9.966965       13.830443        3.842303
     10       C       13.519237       10.432084        3.570092
     11       H        0.736634        0.767856        4.019910
     12       H        3.460150        0.788693        2.025717
     13       H        0.983458        0.832720        4.292807
     14       H        1.631458        3.876862        0.754574
     15       H        1.922491        3.320561        1.029664
     16       H        1.968453        3.939091        0.347931
     17       H        1.940841        3.367084        0.962151
     18       H        4.273320        0.783975        1.214394
     19       H        1.869036        3.990146        0.410449
     20       H        1.747848        3.845652        0.657348

 **********************
 *                    *
 * JOB ENDED NORMALLY *
 *                    *
 **********************



 TOTAL JOB TIME:             1.70 SECONDS

 == MOPAC DONE ==
