 *******************************************************************************
 ** Site#: 14399        For non-commercial use only    Version 18.184L 64BITS **
 *******************************************************************************
 ** Cite this program as: MOPAC2016, Version: 18.184L, James J. P. Stewart,   **
 ** Stewart Computational Chemistry, web: HTTP://OpenMOPAC.net. Days left:  18**
 *******************************************************************************
 **                                                                           **
 **                                MOPAC2016                                  **
 **                                                                           **
 *******************************************************************************

                              PM3 CALCULATION RESULTS

 *******************************************************************************
 *  CALCULATION DONE:                                Sat Jun 15 10:15:35 2019  *
 *  PM3        - The PM3 Hamiltonian to be used
 *  PRECISE    - CRITERIA TO BE INCREASED BY 100 TIMES
 *  NOSYM      - POINT-GROUP SYMMETRY SET TO C1
 *  THREADS=1  - MULTI-THREADING NOT USED
 *  T=         - A TIME OF 172800.0 SECONDS REQUESTED
 *  DUMP=N     - RESTART FILE WRITTEN EVERY  7200.000 SECONDS
 *******************************************************************************
pm3  precise nosym THREADS=1
 InChI=1S/C10H10/c1-3-6-10-8-5-4-7-9(10)2/h4,7-8H,2,5H2,1H3

   ATOM   CHEMICAL          X               Y               Z
  NUMBER   SYMBOL      (ANGSTROMS)     (ANGSTROMS)     (ANGSTROMS)
 
     1       C         -2.30250000  *   1.32810000  *  -0.50330000  *
     2       C          4.01850000  *   0.56080000  *   0.06690000  *
     3       C         -0.75400000  *  -1.08500000  *  -0.01130000  *
     4       C         -0.07470000  *   0.22780000  *  -0.17090000  *
     5       C         -0.79720000  *   1.33350000  *  -0.39730000  *
     6       C         -2.93560000  *  -0.02900000  *  -0.33330000  *
     7       C         -2.22480000  *  -1.13480000  *  -0.10780000  *
     8       C         -0.07400000  *  -2.21570000  *   0.21600000  *
     9       C          2.56300000  *   0.44340000  *  -0.01790000  *
    10       C          1.36330000  *   0.34550000  *  -0.08750000  *
    11       H         -2.58720000  *   1.72750000  *  -1.49920000  *
    12       H         -2.71290000  *   2.00800000  *   0.27240000  *
    13       H          4.41330000  *   0.96390000  *  -0.88830000  *
    14       H          4.28660000  *   1.24660000  *   0.89670000  *
    15       H          4.45960000  *  -0.43940000  *   0.25660000  *
    16       H         -0.29620000  *   2.28850000  *  -0.51290000  *
    17       H         -4.01400000  *  -0.10320000  *  -0.39810000  *
    18       H         -2.74600000  *  -2.07870000  *   0.00470000  *
    19       H         -0.59000000  *  -3.16140000  *   0.32920000  *
    20       H          1.00500000  *  -2.22650000  *   0.29430000  *
 


          CARTESIAN COORDINATES 

    NO.       ATOM           X           Y           Z

     1         C         -2.3025      1.3281     -0.5033
     2         C          4.0185      0.5608      0.0669
     3         C         -0.7540     -1.0850     -0.0113
     4         C         -0.0747      0.2278     -0.1709
     5         C         -0.7972      1.3335     -0.3973
     6         C         -2.9356     -0.0290     -0.3333
     7         C         -2.2248     -1.1348     -0.1078
     8         C         -0.0740     -2.2157      0.2160
     9         C          2.5630      0.4434     -0.0179
    10         C          1.3633      0.3455     -0.0875
    11         H         -2.5872      1.7275     -1.4992
    12         H         -2.7129      2.0080      0.2724
    13         H          4.4133      0.9639     -0.8883
    14         H          4.2866      1.2466      0.8967
    15         H          4.4596     -0.4394      0.2566
    16         H         -0.2962      2.2885     -0.5129
    17         H         -4.0140     -0.1032     -0.3981
    18         H         -2.7460     -2.0787      0.0047
    19         H         -0.5900     -3.1614      0.3292
    20         H          1.0050     -2.2265      0.2943

  H: (PM3): J. J. P. STEWART, J. COMP. CHEM. 10, 209 (1989).
  C: (PM3): J. J. P. STEWART, J. COMP. CHEM. 10, 209 (1989).

           Empirical Formula: C10 H10  =    20 atoms



      MOLECULAR POINT GROUP   :   C1  


      RHF CALCULATION, NO. OF DOUBLY OCCUPIED LEVELS = 25


          Geometry optimization using EF

          DIAGONAL MATRIX USED AS START HESSIAN

 CYCLE:     1 TIME:   0.004 TIME LEFT:  2.00D  GRAD.:    66.223 HEAT:  84.56421
 CYCLE:     2 TIME:   0.008 TIME LEFT:  2.00D  GRAD.:    59.047 HEAT:  83.35738
 CYCLE:     3 TIME:   0.008 TIME LEFT:  2.00D  GRAD.:    37.933 HEAT:  82.66367
 CYCLE:     4 TIME:   0.004 TIME LEFT:  2.00D  GRAD.:    44.004 HEAT:  82.50457
 CYCLE:     5 TIME:   0.004 TIME LEFT:  2.00D  GRAD.:    28.691 HEAT:  82.02883
 CYCLE:     6 TIME:   0.008 TIME LEFT:  2.00D  GRAD.:    28.278 HEAT:  81.86274
 CYCLE:     7 TIME:   0.004 TIME LEFT:  2.00D  GRAD.:    27.136 HEAT:  81.76565
 CYCLE:     8 TIME:   0.008 TIME LEFT:  2.00D  GRAD.:    15.195 HEAT:  81.57392
 CYCLE:     9 TIME:   0.004 TIME LEFT:  2.00D  GRAD.:    24.660 HEAT:  81.57214
 CYCLE:    10 TIME:   0.004 TIME LEFT:  2.00D  GRAD.:    18.395 HEAT:  81.37777
 CYCLE:    11 TIME:   0.008 TIME LEFT:  2.00D  GRAD.:    19.937 HEAT:  81.33943
 CYCLE:    12 TIME:   0.008 TIME LEFT:  2.00D  GRAD.:    12.615 HEAT:  81.28865
 CYCLE:    13 TIME:   0.004 TIME LEFT:  2.00D  GRAD.:    10.958 HEAT:  81.26003
 CYCLE:    14 TIME:   0.004 TIME LEFT:  2.00D  GRAD.:    14.028 HEAT:  81.24476
 CYCLE:    15 TIME:   0.004 TIME LEFT:  2.00D  GRAD.:     8.378 HEAT:  81.20798
 CYCLE:    16 TIME:   0.004 TIME LEFT:  2.00D  GRAD.:    12.511 HEAT:  81.20779
 CYCLE:    17 TIME:   0.004 TIME LEFT:  2.00D  GRAD.:    10.887 HEAT:  81.17929
 CYCLE:    18 TIME:   0.004 TIME LEFT:  2.00D  GRAD.:     6.631 HEAT:  81.15958
 CYCLE:    19 TIME:   0.004 TIME LEFT:  2.00D  GRAD.:     5.623 HEAT:  81.14839
 CYCLE:    20 TIME:   0.004 TIME LEFT:  2.00D  GRAD.:     4.645 HEAT:  81.14107
 CYCLE:    21 TIME:   0.004 TIME LEFT:  2.00D  GRAD.:     3.654 HEAT:  81.13391
 CYCLE:    22 TIME:   0.004 TIME LEFT:  2.00D  GRAD.:     2.616 HEAT:  81.12926
 CYCLE:    23 TIME:   0.004 TIME LEFT:  2.00D  GRAD.:     2.488 HEAT:  81.12517
 CYCLE:    24 TIME:   0.004 TIME LEFT:  2.00D  GRAD.:     1.833 HEAT:  81.12149
 CYCLE:    25 TIME:   0.008 TIME LEFT:  2.00D  GRAD.:     1.834 HEAT:  81.11810
 CYCLE:    26 TIME:   0.004 TIME LEFT:  2.00D  GRAD.:     2.174 HEAT:  81.11500
 CYCLE:    27 TIME:   0.004 TIME LEFT:  2.00D  GRAD.:     1.336 HEAT:  81.11188
 CYCLE:    28 TIME:   0.004 TIME LEFT:  2.00D  GRAD.:     0.959 HEAT:  81.11006
 CYCLE:    29 TIME:   0.004 TIME LEFT:  2.00D  GRAD.:     0.769 HEAT:  81.10887
 CYCLE:    30 TIME:   0.004 TIME LEFT:  2.00D  GRAD.:     0.683 HEAT:  81.10791
 CYCLE:    31 TIME:   0.004 TIME LEFT:  2.00D  GRAD.:     0.700 HEAT:  81.10740
 CYCLE:    32 TIME:   0.004 TIME LEFT:  2.00D  GRAD.:     0.559 HEAT:  81.10688
 CYCLE:    33 TIME:   0.004 TIME LEFT:  2.00D  GRAD.:     0.718 HEAT:  81.10588
 CYCLE:    34 TIME:   0.004 TIME LEFT:  2.00D  GRAD.:     1.094 HEAT:  81.10437
 CYCLE:    35 TIME:   0.004 TIME LEFT:  2.00D  GRAD.:     1.212 HEAT:  81.10246
 CYCLE:    36 TIME:   0.008 TIME LEFT:  2.00D  GRAD.:     1.110 HEAT:  81.09980
 CYCLE:    37 TIME:   0.004 TIME LEFT:  2.00D  GRAD.:     1.053 HEAT:  81.09666
 CYCLE:    38 TIME:   0.004 TIME LEFT:  2.00D  GRAD.:     1.189 HEAT:  81.09443
 CYCLE:    39 TIME:   0.004 TIME LEFT:  2.00D  GRAD.:     1.078 HEAT:  81.09254
 CYCLE:    40 TIME:   0.004 TIME LEFT:  2.00D  GRAD.:     0.746 HEAT:  81.09092
 CYCLE:    41 TIME:   0.004 TIME LEFT:  2.00D  GRAD.:     0.526 HEAT:  81.08992
 CYCLE:    42 TIME:   0.004 TIME LEFT:  2.00D  GRAD.:     0.404 HEAT:  81.08951
 CYCLE:    43 TIME:   0.004 TIME LEFT:  2.00D  GRAD.:     0.305 HEAT:  81.08923
 CYCLE:    44 TIME:   0.004 TIME LEFT:  2.00D  GRAD.:     0.262 HEAT:  81.08904
 CYCLE:    45 TIME:   0.004 TIME LEFT:  2.00D  GRAD.:     0.204 HEAT:  81.08893
 CYCLE:    46 TIME:   0.004 TIME LEFT:  2.00D  GRAD.:     0.167 HEAT:  81.08885
 CYCLE:    47 TIME:   0.004 TIME LEFT:  2.00D  GRAD.:     0.149 HEAT:  81.08878
 CYCLE:    48 TIME:   0.004 TIME LEFT:  2.00D  GRAD.:     0.131 HEAT:  81.08873
 CYCLE:    49 TIME:   0.004 TIME LEFT:  2.00D  GRAD.:     0.099 HEAT:  81.08869
 CYCLE:    50 TIME:   0.004 TIME LEFT:  2.00D  GRAD.:     0.071 HEAT:  81.08867
 CYCLE:    51 TIME:   0.004 TIME LEFT:  2.00D  GRAD.:     0.059 HEAT:  81.08866
 CYCLE:    52 TIME:   0.008 TIME LEFT:  2.00D  GRAD.:     0.061 HEAT:  81.08865
 CYCLE:    53 TIME:   0.004 TIME LEFT:  2.00D  GRAD.:     0.046 HEAT:  81.08865

     GRADIENT =  0.04551  IS LESS THAN CUTOFF =  0.05000



 -------------------------------------------------------------------------------
 pm3  precise nosym THREADS=1
 InChI=1S/C10H10/c1-3-6-10-8-5-4-7-9(10)2/h4,7-8H,2,5H2,1H3



     GEOMETRY OPTIMISED USING EIGENVECTOR FOLLOWING (EF).     
     SCF FIELD WAS ACHIEVED                                   


                              PM3 CALCULATION
                                                       MOPAC2016 (Version: 18.184L)
                                                       Sat Jun 15 10:15:35 2019
                                                       No. of days remaining =  18




          FINAL HEAT OF FORMATION =         81.08865 KCAL/MOL =     339.27489 KJ/MOL


          TOTAL ENERGY            =      -1336.21460 EV
          ELECTRONIC ENERGY       =      -6723.92360 EV  POINT GROUP:     C1  
          CORE-CORE REPULSION     =       5387.70900 EV
          COSMO AREA              =        185.66 SQUARE ANGSTROMS
          COSMO VOLUME            =        180.40 CUBIC ANGSTROMS

          GRADIENT NORM           =          0.04551 = 0.01018 PER ATOM
          IONIZATION POTENTIAL    =          8.585867 EV
          HOMO LUMO ENERGIES (EV) =         -8.586 -0.151
          NO. OF FILLED LEVELS    =         25
          MOLECULAR WEIGHT        =        130.1890

          MOLECULAR DIMENSIONS (Angstroms)

            Atom       Atom       Distance
            H    17    H    13     8.42323
            H    19    H    16     5.49642
            H    11    H    14     2.51611


          SCF CALCULATIONS        =         59
 
          WALL-CLOCK TIME         =          0.250 SECONDS
          COMPUTATION TIME        =          0.231 SECONDS




   ATOM   CHEMICAL          X               Y               Z
  NUMBER   SYMBOL      (ANGSTROMS)     (ANGSTROMS)     (ANGSTROMS)
 
     1       C         -2.29811414  *   1.33006068  *  -0.50375539  *
     2       C          3.94022414  *   0.51832529  *   0.06994706  *
     3       C         -0.71716902  *  -1.07670751  *  -0.01036127  *
     4       C         -0.08666998  *   0.24007370  *  -0.17528190  *
     5       C         -0.81846417  *   1.34800964  *  -0.40325977  *
     6       C         -2.90229330  *  -0.01444125  *  -0.33125617  *
     7       C         -2.17514016  *  -1.11318444  *  -0.10558582  *
     8       C         -0.01432892  *  -2.19413356  *   0.21515114  *
     9       C          2.51532953  *   0.41476309  *  -0.01695197  *
    10       C          1.32644256  *   0.32810830  *  -0.08874326  *
    11       H         -2.59925587  *   1.74176848  *  -1.48962110  *
    12       H         -2.72066000  *   2.02015333  *   0.25608125  *
    13       H          4.35802407  *   0.91678701  *  -0.86415615  *
    14       H          4.23075920  *   1.18905542  *   0.88945485  *
    15       H          4.38998733  *  -0.46601910  *   0.25541589  *
    16       H         -0.33506107  *   2.32428054  *  -0.52496628  *
    17       H         -3.99467547  *  -0.06629929  *  -0.39864682  *
    18       H         -2.65500985  *  -2.09154270  *   0.01724627  *
    19       H         -0.48352624  *  -3.16613497  *   0.33652199  *
    20       H          1.06967616  *  -2.19840689  *   0.29083363  *

                             CARTESIAN COORDINATES

   1    C       -2.298114138     1.330060679    -0.503755391
   2    C        3.940224139     0.518325290     0.069947065
   3    C       -0.717169024    -1.076707506    -0.010361273
   4    C       -0.086669976     0.240073697    -0.175281896
   5    C       -0.818464169     1.348009644    -0.403259767
   6    C       -2.902293296    -0.014441246    -0.331256171
   7    C       -2.175140159    -1.113184439    -0.105585817
   8    C       -0.014328919    -2.194133558     0.215151138
   9    C        2.515329531     0.414763092    -0.016951969
  10    C        1.326442557     0.328108299    -0.088743264
  11    H       -2.599255874     1.741768475    -1.489621102
  12    H       -2.720659997     2.020153331     0.256081255
  13    H        4.358024074     0.916787014    -0.864156149
  14    H        4.230759202     1.189055420     0.889454850
  15    H        4.389987331    -0.466019102     0.255415885
  16    H       -0.335061070     2.324280537    -0.524966282
  17    H       -3.994675473    -0.066299295    -0.398646824
  18    H       -2.655009850    -2.091542695     0.017246273
  19    H       -0.483526243    -3.166134973     0.336521990
  20    H        1.069676164    -2.198406894     0.290833635


           Empirical Formula: C10 H10  =    20 atoms



      MOLECULAR POINT GROUP   :   C1  


                  EIGENVALUES  
 -39.89782 -34.28729 -32.27098 -30.57818 -26.62298 -25.27580 -21.38822 -20.61478
 -18.22083 -16.75067 -16.43933 -15.94353 -15.14272 -15.08963 -14.69068 -14.62784
 -14.20155 -13.40117 -13.11515 -12.49398 -11.88005 -11.32914 -10.63287  -9.80684
  -8.58587  -0.15137   0.64049   1.72980   2.00179   2.56614   2.90491   3.23309
   3.35347   3.39049   3.71423   3.74204   3.97066   4.08461   4.28090   4.33475
   4.37426   4.43021   4.45621   4.95811   5.22682   5.35749   5.42862   6.10893
   6.27175   6.88739


              NET ATOMIC CHARGES AND DIPOLE CONTRIBUTIONS

  ATOM NO.   TYPE          CHARGE      No. of ELECS.   s-Pop       p-Pop       
    1          C          -0.025359        4.0254     1.13163     2.89373
    2          C           0.041150        3.9588     1.08888     2.86997
    3          C          -0.037515        4.0375     1.16397     2.87354
    4          C           0.064077        3.9359     1.12650     2.80942
    5          C          -0.123709        4.1237     1.19521     2.92850
    6          C          -0.136283        4.1363     1.19458     2.94170
    7          C          -0.102070        4.1021     1.17987     2.92220
    8          C          -0.144276        4.1443     1.18379     2.96049
    9          C          -0.166551        4.1666     1.19744     2.96911
   10          C          -0.128813        4.1288     1.17271     2.95611
   11          H           0.066166        0.9338     0.93383
   12          H           0.066136        0.9339     0.93386
   13          H           0.048545        0.9515     0.95146
   14          H           0.048532        0.9515     0.95147
   15          H           0.048058        0.9519     0.95194
   16          H           0.106188        0.8938     0.89381
   17          H           0.099361        0.9006     0.90064
   18          H           0.102758        0.8972     0.89724
   19          H           0.082598        0.9174     0.91740
   20          H           0.091006        0.9090     0.90899
 DIPOLE           X         Y         Z       TOTAL
 POINT-CHG.     0.004     0.431    -0.065     0.436
 HYBRID         0.002     0.013    -0.002     0.013
 SUM            0.006     0.444    -0.067     0.449


          ATOMIC ORBITAL ELECTRON POPULATIONS

     Atom    s        px        py        pz   
    1  C   1.13163   0.93229   0.95498   1.00646
    2  C   1.08888   0.86683   1.00162   1.00152
    3  C   1.16397   0.93248   0.93341   1.00766
    4  C   1.12650   0.86389   0.93313   1.01240
    5  C   1.19521   0.95686   0.97566   0.99598
    6  C   1.19458   0.98553   0.95344   1.00273
    7  C   1.17987   0.93517   0.97634   1.01069
    8  C   1.18379   1.00097   0.96227   0.99725
    9  C   1.19744   0.95035   1.01140   1.00737
   10  C   1.17271   0.92940   1.01025   1.01645
   11  H   0.93383
   12  H   0.93386
   13  H   0.95146
   14  H   0.95147
   15  H   0.95194
   16  H   0.89381
   17  H   0.90064
   18  H   0.89724
   19  H   0.91740
   20  H   0.90899
 *******************************************************************************
 ** Site#: 14399        For non-commercial use only    Version 18.184L 64BITS **
 *******************************************************************************
 ** Cite this program as: MOPAC2016, Version: 18.184L, James J. P. Stewart,   **
 ** Stewart Computational Chemistry, web: HTTP://OpenMOPAC.net. Days left:  18**
 *******************************************************************************
 **                                                                           **
 **                                MOPAC2016                                  **
 **                                                                           **
 *******************************************************************************

                              PM3 CALCULATION RESULTS

 *******************************************************************************
 *  CALCULATION DONE:                                Sat Jun 15 10:15:35 2019  *
 *  PM3        - The PM3 Hamiltonian to be used
 *  OLDGEO     - PREVIOUS GEOMETRY TO BE USED
 *  PRECISE    - CRITERIA TO BE INCREASED BY 100 TIMES
 *  NOSYM      - POINT-GROUP SYMMETRY SET TO C1
 *  THREADS=1  - MULTI-THREADING NOT USED
 *  T=         - A TIME OF 172800.0 SECONDS REQUESTED
 *  DUMP=N     - RESTART FILE WRITTEN EVERY  7200.000 SECONDS
 *  THERMO     - THERMODYNAMIC QUANTITIES TO BE CALCULATED
 *******************************************************************************
oldgeo thermo nosym precise THREADS=1  pm3
 InChI=1S/C10H10/c1-3-6-10-8-5-4-7-9(10)2/h4,7-8H,2,5H2,1H3

   ATOM   CHEMICAL          X               Y               Z
  NUMBER   SYMBOL      (ANGSTROMS)     (ANGSTROMS)     (ANGSTROMS)
 
     1       C         -2.29811414  *   1.33006068  *  -0.50375539  *
     2       C          3.94022414  *   0.51832529  *   0.06994706  *
     3       C         -0.71716902  *  -1.07670751  *  -0.01036127  *
     4       C         -0.08666998  *   0.24007370  *  -0.17528190  *
     5       C         -0.81846417  *   1.34800964  *  -0.40325977  *
     6       C         -2.90229330  *  -0.01444125  *  -0.33125617  *
     7       C         -2.17514016  *  -1.11318444  *  -0.10558582  *
     8       C         -0.01432892  *  -2.19413356  *   0.21515114  *
     9       C          2.51532953  *   0.41476309  *  -0.01695197  *
    10       C          1.32644256  *   0.32810830  *  -0.08874326  *
    11       H         -2.59925587  *   1.74176848  *  -1.48962110  *
    12       H         -2.72066000  *   2.02015333  *   0.25608125  *
    13       H          4.35802407  *   0.91678701  *  -0.86415615  *
    14       H          4.23075920  *   1.18905542  *   0.88945485  *
    15       H          4.38998733  *  -0.46601910  *   0.25541589  *
    16       H         -0.33506107  *   2.32428054  *  -0.52496628  *
    17       H         -3.99467547  *  -0.06629929  *  -0.39864682  *
    18       H         -2.65500985  *  -2.09154270  *   0.01724627  *
    19       H         -0.48352624  *  -3.16613497  *   0.33652199  *
    20       H          1.06967616  *  -2.19840689  *   0.29083363  *
 


          CARTESIAN COORDINATES 

    NO.       ATOM           X           Y           Z

     1         C         -2.2981      1.3301     -0.5038
     2         C          3.9402      0.5183      0.0699
     3         C         -0.7172     -1.0767     -0.0104
     4         C         -0.0867      0.2401     -0.1753
     5         C         -0.8185      1.3480     -0.4033
     6         C         -2.9023     -0.0144     -0.3313
     7         C         -2.1751     -1.1132     -0.1056
     8         C         -0.0143     -2.1941      0.2152
     9         C          2.5153      0.4148     -0.0170
    10         C          1.3264      0.3281     -0.0887
    11         H         -2.5993      1.7418     -1.4896
    12         H         -2.7207      2.0202      0.2561
    13         H          4.3580      0.9168     -0.8642
    14         H          4.2308      1.1891      0.8895
    15         H          4.3900     -0.4660      0.2554
    16         H         -0.3351      2.3243     -0.5250
    17         H         -3.9947     -0.0663     -0.3986
    18         H         -2.6550     -2.0915      0.0172
    19         H         -0.4835     -3.1661      0.3365
    20         H          1.0697     -2.1984      0.2908

  H: (PM3): J. J. P. STEWART, J. COMP. CHEM. 10, 209 (1989).
  C: (PM3): J. J. P. STEWART, J. COMP. CHEM. 10, 209 (1989).

           Empirical Formula: C10 H10  =    20 atoms



      MOLECULAR POINT GROUP   :   C1  


      RHF CALCULATION, NO. OF DOUBLY OCCUPIED LEVELS = 25



          HEAT OF FORMATION =      81.088645 KCALS/MOLE


          CARTESIAN COORDINATE DERIVATIVES

   NUMBER  ATOM         X            Y            Z

     1       C     -0.003195     0.011394    -0.001416
     2       C     -0.001759    -0.006256     0.000965
     3       C     -0.001456    -0.009114     0.003830
     4       C      0.006346    -0.001979     0.000382
     5       C      0.000235     0.000185     0.001496
     6       C     -0.001671     0.000493     0.002752
     7       C      0.009549     0.003449    -0.000545
     8       C      0.004371    -0.003860    -0.001775
     9       C      0.003124     0.003556     0.001164
    10       C      0.003056    -0.004630     0.002114
    11       H     -0.006360    -0.001924    -0.003943
    12       H      0.018672     0.006520    -0.000499
    13       H      0.011389    -0.005083    -0.000725
    14       H     -0.016067     0.001869    -0.004526
    15       H     -0.012717     0.004305    -0.003099
    16       H      0.004875    -0.002820     0.008437
    17       H     -0.002521    -0.006934    -0.004191
    18       H     -0.013636     0.005246    -0.002891
    19       H      0.007339    -0.002766     0.000391
    20       H     -0.009574     0.008349     0.002077
 


          GRADIENT NORM =   0.04738


          TIME FOR SCF CALCULATION =    0.00

          TIME FOR DERIVATIVES     =    0.00

          MOLECULAR WEIGHT =  130.19



          ROTATIONAL CONSTANTS IN CM(-1)

          A =    0.09541747   B =    0.02713679   C =    0.02129763



           PRINCIPAL MOMENTS OF INERTIA IN UNITS OF 10**(-40)*GRAM-CM**2

          A =      293.3716   B =     1031.5434   C =     1314.3611


          ORIENTATION OF MOLECULE IN FORCE CALCULATION

    NO.       ATOM         X         Y         Z

     1          C      -2.3739   -1.0656   -0.0002
     2          C       3.9431   -1.0656   -0.0002
     3          C      -0.4586    1.1405   -0.0002
     4          C      -0.0201   -0.2617    0.0015
     5          C      -0.9059   -1.2769    0.0020
     6          C      -2.7821    0.3613   -0.0032
     7          C      -1.9024    1.3677   -0.0033
     8          C       0.3996    2.1687    0.0011
     9          C       2.5414   -0.7762    0.0013
    10          C       1.3719   -0.5343    0.0019
    11          H      -2.8137   -1.5692    0.8858
    12          H      -2.8109   -1.5719   -0.8861
    13          H       4.2197   -1.6499    0.8874
    14          H       4.2183   -1.6447   -0.8917
    15          H       4.5306   -0.1380    0.0020
    16          H      -0.5650   -2.3187    0.0039
    17          H      -3.8604    0.5560   -0.0056
    18          H      -2.2394    2.4112   -0.0057
    19          H       0.0721    3.2043   -0.0001
    20          H       1.4775    2.0312    0.0034


    FIRST DERIVATIVES WILL BE USED IN THE CALCULATION OF SECOND DERIVATIVES

          ESTIMATED TIME TO COMPLETE CALCULATION =        0.94 SECONDS

    FOR POINT-GROUP C1   THERE ARE   1 UNIQUE SYMMETRY FUNCTIONS.

 STEP:   1 TIME =     0.02 SECS, INTEGRAL =      0.02 TIME LEFT: 172799.98
 STEP:   2 TIME =     0.02 SECS, INTEGRAL =      0.04 TIME LEFT: 172799.96
 STEP:   3 TIME =     0.02 SECS, INTEGRAL =      0.05 TIME LEFT: 172799.94
 STEP:   4 TIME =     0.02 SECS, INTEGRAL =      0.07 TIME LEFT: 172799.93
 STEP:   5 TIME =     0.02 SECS, INTEGRAL =      0.09 TIME LEFT: 172799.91
 STEP:   6 TIME =     0.02 SECS, INTEGRAL =      0.11 TIME LEFT: 172799.89
 STEP:   7 TIME =     0.02 SECS, INTEGRAL =      0.13 TIME LEFT: 172799.87
 STEP:   8 TIME =     0.02 SECS, INTEGRAL =      0.14 TIME LEFT: 172799.85
 STEP:   9 TIME =     0.02 SECS, INTEGRAL =      0.16 TIME LEFT: 172799.83
 STEP:  10 TIME =     0.02 SECS, INTEGRAL =      0.18 TIME LEFT: 172799.82
 STEP:  11 TIME =     0.02 SECS, INTEGRAL =      0.20 TIME LEFT: 172799.80
 STEP:  12 TIME =     0.02 SECS, INTEGRAL =      0.22 TIME LEFT: 172799.78
 STEP:  13 TIME =     0.02 SECS, INTEGRAL =      0.24 TIME LEFT: 172799.76
 STEP:  14 TIME =     0.02 SECS, INTEGRAL =      0.25 TIME LEFT: 172799.74
 STEP:  15 TIME =     0.02 SECS, INTEGRAL =      0.27 TIME LEFT: 172799.73
 STEP:  16 TIME =     0.02 SECS, INTEGRAL =      0.29 TIME LEFT: 172799.71
 STEP:  17 TIME =     0.02 SECS, INTEGRAL =      0.31 TIME LEFT: 172799.69
 STEP:  18 TIME =     0.02 SECS, INTEGRAL =      0.33 TIME LEFT: 172799.67
 STEP:  19 TIME =     0.02 SECS, INTEGRAL =      0.35 TIME LEFT: 172799.65
 STEP:  20 TIME =     0.02 SECS, INTEGRAL =      0.36 TIME LEFT: 172799.63
 STEP:  21 TIME =     0.02 SECS, INTEGRAL =      0.38 TIME LEFT: 172799.62
 STEP:  22 TIME =     0.02 SECS, INTEGRAL =      0.40 TIME LEFT: 172799.60
 STEP:  23 TIME =     0.02 SECS, INTEGRAL =      0.42 TIME LEFT: 172799.58
 STEP:  24 TIME =     0.02 SECS, INTEGRAL =      0.44 TIME LEFT: 172799.56
 STEP:  25 TIME =     0.02 SECS, INTEGRAL =      0.46 TIME LEFT: 172799.54
 STEP:  26 TIME =     0.02 SECS, INTEGRAL =      0.47 TIME LEFT: 172799.52
 STEP:  27 TIME =     0.02 SECS, INTEGRAL =      0.50 TIME LEFT: 172799.50
 STEP:  28 TIME =     0.02 SECS, INTEGRAL =      0.51 TIME LEFT: 172799.48
 STEP:  29 TIME =     0.02 SECS, INTEGRAL =      0.53 TIME LEFT: 172799.46
 STEP:  30 TIME =     0.02 SECS, INTEGRAL =      0.55 TIME LEFT: 172799.45
 STEP:  31 TIME =     0.02 SECS, INTEGRAL =      0.57 TIME LEFT: 172799.43
 STEP:  32 TIME =     0.02 SECS, INTEGRAL =      0.59 TIME LEFT: 172799.41
 STEP:  33 TIME =     0.02 SECS, INTEGRAL =      0.61 TIME LEFT: 172799.39
 STEP:  34 TIME =     0.02 SECS, INTEGRAL =      0.63 TIME LEFT: 172799.37
 STEP:  35 TIME =     0.02 SECS, INTEGRAL =      0.64 TIME LEFT: 172799.35
 STEP:  36 TIME =     0.02 SECS, INTEGRAL =      0.66 TIME LEFT: 172799.33
 STEP:  37 TIME =     0.02 SECS, INTEGRAL =      0.68 TIME LEFT: 172799.31
 STEP:  38 TIME =     0.02 SECS, INTEGRAL =      0.70 TIME LEFT: 172799.29
 STEP:  39 TIME =     0.02 SECS, INTEGRAL =      0.72 TIME LEFT: 172799.28
 STEP:  40 TIME =     0.02 SECS, INTEGRAL =      0.74 TIME LEFT: 172799.26
 STEP:  41 TIME =     0.02 SECS, INTEGRAL =      0.75 TIME LEFT: 172799.24
 STEP:  42 TIME =     0.02 SECS, INTEGRAL =      0.77 TIME LEFT: 172799.22
 STEP:  43 TIME =     0.02 SECS, INTEGRAL =      0.79 TIME LEFT: 172799.20
 STEP:  44 TIME =     0.02 SECS, INTEGRAL =      0.81 TIME LEFT: 172799.19
 STEP:  45 TIME =     0.02 SECS, INTEGRAL =      0.83 TIME LEFT: 172799.17
 STEP:  46 TIME =     0.02 SECS, INTEGRAL =      0.85 TIME LEFT: 172799.15
 STEP:  47 TIME =     0.02 SECS, INTEGRAL =      0.86 TIME LEFT: 172799.13
 STEP:  48 TIME =     0.02 SECS, INTEGRAL =      0.88 TIME LEFT: 172799.12
 STEP:  49 TIME =     0.02 SECS, INTEGRAL =      0.90 TIME LEFT: 172799.10
 STEP:  50 TIME =     0.02 SECS, INTEGRAL =      0.92 TIME LEFT: 172799.08
 STEP:  51 TIME =     0.02 SECS, INTEGRAL =      0.94 TIME LEFT: 172799.06
 STEP:  52 TIME =     0.02 SECS, INTEGRAL =      0.96 TIME LEFT: 172799.04
 STEP:  53 TIME =     0.02 SECS, INTEGRAL =      0.97 TIME LEFT: 172799.02
 STEP:  54 TIME =     0.02 SECS, INTEGRAL =      0.99 TIME LEFT: 172799.00
 STEP:  55 TIME =     0.02 SECS, INTEGRAL =      1.01 TIME LEFT: 172798.98
 STEP:  56 TIME =     0.02 SECS, INTEGRAL =      1.03 TIME LEFT: 172798.96
 STEP:  57 TIME =     0.02 SECS, INTEGRAL =      1.05 TIME LEFT: 172798.95
 STEP:  58 TIME =     0.02 SECS, INTEGRAL =      1.07 TIME LEFT: 172798.93
 STEP:  59 TIME =     0.02 SECS, INTEGRAL =      1.09 TIME LEFT: 172798.91
 STEP:  60 TIME =     0.02 SECS, INTEGRAL =      1.11 TIME LEFT: 172798.89

(To convert to Hartree/Bohr^2, multiply by (10^(-21) x N x a0^2)/(4.184 x 627.51) =  0.0642)


           FORCE MATRIX IN MILLIDYNES/ANGSTROM


                  C  1       C  2       C  3       C  4       C  5       C  6
 ------------------------------------------------------------------------------
     C    1  15.132813
     C    2   0.004702  15.178184
     C    3   0.181721   0.009747  19.112627
     C    4   0.823832   0.097720   5.063261  19.439335
     C    5   5.067131   0.017053   0.975924   9.783993  18.039724
     C    6   5.065870   0.000946   1.037034   0.059726   0.734478  18.169217
     C    7   0.852169   0.001444   5.364674   0.703578   0.065116  10.456175
     C    8   0.028610   0.001433  10.230920   0.965627   0.100414   0.109068
     C    9   0.014490   6.690204   0.043825   0.750246   0.111001   0.001565
     C   10   0.141397   0.585598   0.737547   6.705314   1.152545   0.004991
     H   11   4.366478   0.000738   0.014232   0.036058   0.414710   0.418080
     H   12   4.366697   0.000759   0.014235   0.036043   0.414566   0.418009
     H   13   0.001105   4.705112   0.001196   0.010854   0.001323   0.000200
     H   14   0.001103   4.705169   0.001149   0.010855   0.001357   0.000238
     H   15   0.000621   4.711379   0.001856   0.009276   0.001133   0.000236
     H   16   0.419399   0.001541   0.111166   0.459386   4.829934   0.045959
     H   17   0.423496   0.000491   0.124851   0.004540   0.046694   4.830930
     H   18   0.122099   0.000315   0.442055   0.039863   0.003889   0.440425
     H   19   0.002149   0.001042   0.470601   0.124478   0.009023   0.006817
     H   20   0.002135   0.001956   0.473914   0.086686   0.006956   0.009903


                  C  7       C  8       C  9       C 10       H 11       H 12
 ------------------------------------------------------------------------------
     C    7  18.595242
     C    8   1.049225  17.799745
     C    9   0.006044   0.019763  24.715063
     C   10   0.050435   0.072802  16.787570  25.273038
     H   11   0.038064   0.004250   0.001913   0.019589   4.955060
     H   12   0.038090   0.004187   0.001907   0.019616   0.564789   4.954913
     H   13   0.000272   0.000463   0.453932   0.030709   0.000177   0.000280
     H   14   0.000285   0.000462   0.453707   0.030718   0.000276   0.000182
     H   15   0.000662   0.000402   0.455297   0.029351   0.000084   0.000084
     H   16   0.005236   0.008686   0.008814   0.083993   0.028463   0.028509
     H   17   0.440994   0.009399   0.000507   0.002174   0.027779   0.027781
     H   18   4.799569   0.045016   0.001495   0.008736   0.015437   0.015441
     H   19   0.090248   5.090645   0.000513   0.005258   0.000934   0.000936
     H   20   0.123103   5.080278   0.013336   0.032679   0.000908   0.000915


                  H 13       H 14       H 15       H 16       H 17       H 18
 ------------------------------------------------------------------------------
     H   13   5.385013
     H   14   0.549788   5.384899
     H   15   0.549226   0.549259   5.388717
     H   16   0.000585   0.000584   0.000377   5.204574
     H   17   0.000087   0.000092   0.000121   0.006451   5.205686
     H   18   0.000134   0.000126   0.000213   0.000966   0.068103   5.171823
     H   19   0.000133   0.000151   0.000211   0.008540   0.005841   0.028450
     H   20   0.000393   0.000416   0.000464   0.005507   0.009086   0.002009


                  H 19       H 20
 ------------------------------
     H   19   5.475595
     H   20   0.402502   5.458462


          HEAT OF FORMATION =      81.088645 KCALS/MOLE

          ZERO POINT ENERGY     103.476 KCAL/MOL


           NORMAL COORDINATE ANALYSIS (Total motion = 1 Angstrom)


   Root No.       1         2         3         4         5         6         7         8

                 1 A       2 A       3 A       4 A       5 A       6 A       7 A       8 A   

                  53.5      92.3      96.0     120.3     254.5     293.9     310.9     377.3
  
           1   -0.0001   -0.0045   -0.0255    0.0004    0.0000    0.0001   -0.0051   -0.0271
           2    0.0001    0.0025    0.0142   -0.0002   -0.0000   -0.0001   -0.0083    0.0335
           3    0.0270    0.0143   -0.0032   -0.0458   -0.0282   -0.0119    0.0000   -0.0001
           4   -0.0000    0.0017    0.0098   -0.0002    0.0000   -0.0001   -0.0251    0.0501
           5    0.0002    0.0129    0.0727   -0.0008    0.0001    0.0001   -0.0244   -0.0183
           6   -0.0339    0.0031   -0.0011   -0.0506    0.0250   -0.0109   -0.0001   -0.0001
           7    0.0000    0.0025    0.0141   -0.0001    0.0000   -0.0000   -0.0037   -0.0091
           8   -0.0001   -0.0039   -0.0220    0.0003   -0.0000    0.0001   -0.0124   -0.0362
           9    0.0078   -0.0052    0.0011    0.0137   -0.0040   -0.0541   -0.0000   -0.0001
          10   -0.0000   -0.0020   -0.0113    0.0001   -0.0001   -0.0000   -0.0153    0.0210
          11   -0.0001   -0.0054   -0.0306    0.0004   -0.0001    0.0001   -0.0121   -0.0309
          12    0.0168   -0.0014    0.0008    0.0471    0.0063   -0.0266    0.0001    0.0003
          13   -0.0001   -0.0051   -0.0290    0.0003   -0.0001    0.0001   -0.0051   -0.0214
          14   -0.0000   -0.0025   -0.0145    0.0002    0.0000    0.0000   -0.0191    0.0031
          15    0.0302    0.0080   -0.0012    0.0285    0.0772    0.0075   -0.0002   -0.0000
          16    0.0001    0.0001    0.0006    0.0001    0.0000   -0.0000    0.0031   -0.0352
          17    0.0000    0.0039    0.0219   -0.0003    0.0000    0.0000   -0.0039    0.0293
          18   -0.0470   -0.0021    0.0002   -0.0208   -0.0039    0.0580   -0.0000    0.0002
          19    0.0002    0.0034    0.0189   -0.0002    0.0000   -0.0000    0.0017   -0.0065
          20   -0.0000    0.0010    0.0058   -0.0001    0.0001    0.0001   -0.0011   -0.0003
          21   -0.0562   -0.0114    0.0024    0.0117    0.0080   -0.0408   -0.0000   -0.0003
          22    0.0000    0.0061    0.0345   -0.0004    0.0001    0.0001    0.0470   -0.0506
          23   -0.0001   -0.0069   -0.0389    0.0005   -0.0002   -0.0001   -0.0548   -0.0035
          24    0.0608   -0.0014   -0.0004   -0.0278    0.0106    0.0268   -0.0000   -0.0000
          25   -0.0000   -0.0008   -0.0042   -0.0000   -0.0000   -0.0001    0.0051    0.0522
          26    0.0000    0.0007    0.0045   -0.0001    0.0002   -0.0001    0.1116    0.0323
          27   -0.0112   -0.0032    0.0010    0.0218   -0.0586    0.0315    0.0000   -0.0001
          28   -0.0000   -0.0022   -0.0124    0.0001   -0.0001   -0.0001   -0.0046    0.0377
          29   -0.0001   -0.0063   -0.0351    0.0004   -0.0000    0.0000    0.0583   -0.0116
          30    0.0057   -0.0047    0.0016    0.0586   -0.0478    0.0145    0.0002    0.0003
          31    0.0043   -0.0005   -0.0367   -0.0524   -0.0903   -0.0274   -0.0091   -0.0314
          32    0.0479    0.0159    0.0201   -0.0320   -0.0474   -0.0692   -0.0047    0.0368
          33    0.0564    0.0239   -0.0054   -0.0904   -0.1013   -0.0661    0.0001   -0.0004
          34   -0.0046   -0.0119   -0.0337    0.0535    0.0905    0.0278   -0.0095   -0.0312
          35   -0.0475   -0.0079    0.0252    0.0312    0.0471    0.0689   -0.0049    0.0376
          36    0.0566    0.0239   -0.0054   -0.0903   -0.1011   -0.0662    0.0003   -0.0005
          37    0.0187   -0.0430    0.0493    0.0417   -0.0620    0.0336   -0.1011    0.0229
          38    0.0195   -0.2037    0.1262   -0.0333    0.0164   -0.0079   -0.0616   -0.0335
          39   -0.0271   -0.1255    0.0217   -0.0852    0.0556   -0.0270   -0.0003   -0.0010
          40   -0.0186    0.0571    0.0298   -0.0429    0.0621   -0.0338   -0.1004    0.0235
          41   -0.0191    0.2354    0.0475    0.0315   -0.0164    0.0081   -0.0610   -0.0333
          42   -0.0272   -0.1243    0.0214   -0.0849    0.0554   -0.0269   -0.0001    0.0009
          43   -0.0001   -0.0067   -0.0375    0.0003    0.0000   -0.0002    0.0925    0.1004
          44    0.0004    0.0177    0.1029   -0.0012    0.0000    0.0002   -0.1002   -0.0504
          45   -0.0665    0.2655   -0.0485   -0.0450    0.0498   -0.0256    0.0002    0.0001
          46   -0.0002   -0.0085   -0.0484    0.0005   -0.0002    0.0001   -0.0037   -0.0627
          47   -0.0000   -0.0036   -0.0207    0.0003    0.0001    0.0001   -0.0180   -0.0102
          48    0.0418    0.0121   -0.0018    0.0542    0.1610    0.0535   -0.0004   -0.0001
          49    0.0002    0.0008    0.0042    0.0000    0.0000   -0.0002    0.0033   -0.0322
          50   -0.0000    0.0073    0.0417   -0.0005    0.0000    0.0001   -0.0021    0.0440
          51   -0.0924   -0.0060    0.0009   -0.0301    0.0003    0.1588    0.0000    0.0008
          52    0.0003    0.0069    0.0387   -0.0004    0.0000   -0.0001    0.0076    0.0244
          53   -0.0001    0.0021    0.0122   -0.0001    0.0001   -0.0000    0.0003    0.0103
          54   -0.1100   -0.0233    0.0049    0.0322    0.0277   -0.0605   -0.0000   -0.0006
          55    0.0001    0.0097    0.0550   -0.0006    0.0003    0.0004    0.1044   -0.1002
          56   -0.0001   -0.0057   -0.0325    0.0004   -0.0001   -0.0000   -0.0377   -0.0183
          57    0.0571   -0.0034   -0.0004   -0.0583    0.0258    0.0506   -0.0001   -0.0004
          58   -0.0001    0.0056    0.0320   -0.0003    0.0001   -0.0000    0.0411   -0.0451
          59   -0.0002   -0.0105   -0.0595    0.0008   -0.0003   -0.0004   -0.1121    0.0484
          60    0.1109    0.0041   -0.0016   -0.0342    0.0087    0.0815    0.0001    0.0004


   Root No.       9        10        11        12        13        14        15        16

                 9 A      10 A      11 A      12 A      13 A      14 A      15 A      16 A   

                 401.5     445.0     536.9     542.1     613.1     627.4     720.2     730.5
  
           1    0.0000   -0.0117   -0.0003    0.0655   -0.0000   -0.0365    0.0000   -0.0329
           2   -0.0002   -0.0145   -0.0002    0.0375   -0.0000   -0.0042   -0.0000   -0.0436
           3   -0.0055    0.0000   -0.0034    0.0000   -0.0059   -0.0001   -0.0140   -0.0000
           4   -0.0002   -0.0276    0.0001   -0.0255    0.0000   -0.0033   -0.0000    0.0478
           5    0.0001    0.0018   -0.0000    0.0049   -0.0000   -0.0050    0.0000   -0.0109
           6    0.0081   -0.0000   -0.0003    0.0000    0.0009    0.0000    0.0034   -0.0001
           7    0.0002    0.0471    0.0003   -0.0294    0.0001    0.0219    0.0001   -0.0233
           8    0.0001   -0.0061    0.0002   -0.0355   -0.0000   -0.0288   -0.0000    0.0314
           9    0.0243   -0.0001   -0.0642   -0.0004   -0.0289   -0.0002   -0.0378   -0.0000
          10   -0.0001   -0.0119    0.0001   -0.0048   -0.0000   -0.0003   -0.0000   -0.0356
          11    0.0000   -0.0237    0.0002   -0.0282   -0.0000   -0.0171    0.0001   -0.0088
          12    0.0568   -0.0004   -0.0098   -0.0001    0.0116    0.0000    0.0739    0.0001
          13    0.0000   -0.0153   -0.0002    0.0439   -0.0000   -0.0194   -0.0000   -0.0249
          14   -0.0001   -0.0253    0.0004   -0.0624   -0.0000   -0.0095    0.0000   -0.0376
          15   -0.0254    0.0002   -0.0100    0.0000    0.0036   -0.0000    0.0053    0.0000
          16    0.0002    0.0415   -0.0001    0.0332    0.0001   -0.0007    0.0000    0.0586
          17   -0.0000   -0.0013   -0.0003    0.0358   -0.0000    0.0044   -0.0000   -0.0072
          18    0.0317    0.0000   -0.0130   -0.0001   -0.0137   -0.0000   -0.0113    0.0001
          19    0.0003    0.0528   -0.0000   -0.0056   -0.0000    0.0347    0.0000   -0.0173
          20   -0.0001   -0.0135   -0.0003    0.0604    0.0000   -0.0292   -0.0000    0.0626
          21   -0.0388    0.0002    0.0188    0.0001    0.0159    0.0001   -0.0144   -0.0001
          22    0.0001   -0.0216    0.0002   -0.0459   -0.0000   -0.0022   -0.0000   -0.0018
          23    0.0003    0.0544    0.0003   -0.0290    0.0000   -0.0088   -0.0000    0.0166
          24   -0.0068    0.0000    0.0093   -0.0000    0.0034    0.0000    0.0010   -0.0000
          25   -0.0003   -0.0138    0.0000   -0.0199    0.0000   -0.0131    0.0000    0.0181
          26   -0.0000    0.0390    0.0001   -0.0096    0.0000   -0.0570    0.0000   -0.0072
          27   -0.0516    0.0003   -0.0641   -0.0005    0.0091   -0.0001    0.0136    0.0000
          28   -0.0002   -0.0223   -0.0000   -0.0091   -0.0000    0.0282   -0.0000    0.0058
          29   -0.0001   -0.0211   -0.0004    0.0174   -0.0000    0.1410   -0.0001    0.0109
          30    0.0193   -0.0002    0.0914    0.0006   -0.0196    0.0001   -0.0396    0.0001
          31    0.0089   -0.0263    0.0422    0.0519    0.0147   -0.0502    0.0268   -0.0710
          32   -0.0407   -0.0027    0.0534    0.0560    0.0420    0.0050    0.0463   -0.0213
          33   -0.0248   -0.0005    0.0505    0.0032    0.0268   -0.0015    0.0275   -0.0048
          34   -0.0089   -0.0261   -0.0428    0.0511   -0.0149   -0.0504   -0.0268   -0.0711
          35    0.0403   -0.0028   -0.0540    0.0550   -0.0420    0.0047   -0.0462   -0.0216
          36   -0.0249    0.0004    0.0505   -0.0023    0.0269    0.0016    0.0276    0.0049
          37   -0.0567   -0.0570   -0.0802   -0.0189    0.0133    0.0582    0.0251    0.0680
          38    0.0125   -0.0119    0.0171    0.0106   -0.0028    0.0267   -0.0054   -0.0090
          39    0.0347    0.0002    0.0373    0.0013   -0.0054    0.0007   -0.0085   -0.0039
          40    0.0565   -0.0575    0.0806   -0.0178   -0.0134    0.0580   -0.0254    0.0680
          41   -0.0123   -0.0117   -0.0173    0.0103    0.0028    0.0266    0.0054   -0.0090
          42    0.0345   -0.0006    0.0371   -0.0006   -0.0053   -0.0006   -0.0084    0.0037
          43   -0.0004    0.0133    0.0001   -0.0457    0.0001   -0.1011    0.0001    0.0536
          44    0.0002   -0.0250   -0.0001    0.0176   -0.0000    0.0587   -0.0000   -0.0131
          45    0.0341   -0.0002    0.0374    0.0003   -0.0056    0.0002   -0.0087   -0.0001
          46    0.0002   -0.0171   -0.0001    0.0265   -0.0000   -0.0371    0.0001   -0.0110
          47   -0.0002   -0.0260    0.0005   -0.0673   -0.0000   -0.0143   -0.0001   -0.0333
          48   -0.1107    0.0007    0.0586    0.0004   -0.0063    0.0003   -0.1088   -0.0001
          49    0.0002    0.0478   -0.0002    0.0255   -0.0001    0.0090   -0.0002    0.0563
          50    0.0001    0.0334   -0.0000   -0.0091    0.0001    0.0565    0.0002   -0.0142
          51    0.0736   -0.0000    0.0236    0.0002    0.0471    0.0003    0.1253    0.0000
          52    0.0003    0.0501   -0.0004    0.0185   -0.0003    0.0578   -0.0002   -0.0658
          53   -0.0002   -0.0136   -0.0002    0.0678    0.0002   -0.0213    0.0002    0.0473
          54   -0.1121    0.0003    0.1341    0.0011    0.1586    0.0005    0.1150    0.0001
          55   -0.0000   -0.1223    0.0002   -0.0769    0.0004   -0.0589   -0.0003    0.0471
          56    0.0001    0.0250    0.0004   -0.0382   -0.0001   -0.0257    0.0001    0.0320
          57   -0.1086    0.0006    0.1088    0.0006   -0.2456    0.0004    0.1654    0.0002
          58   -0.0000   -0.0104    0.0002   -0.0436   -0.0006    0.0047    0.0002   -0.0070
          59    0.0006    0.1591    0.0001    0.0007    0.0002    0.0523   -0.0001   -0.0297
          60    0.0608   -0.0003    0.0025   -0.0002    0.2909    0.0000   -0.0879   -0.0002


   Root No.      17        18        19        20        21        22        23        24

                17 A      18 A      19 A      20 A      21 A      22 A      23 A      24 A   

                 778.1     852.4     858.1     948.3     951.0     974.6     977.7     998.4
  
           1    0.0001   -0.0000   -0.0173   -0.0000    0.0005    0.0000   -0.0025   -0.0000
           2   -0.0001    0.0001   -0.0271   -0.0000   -0.0106   -0.0000   -0.0012   -0.0000
           3   -0.0392    0.0341    0.0001    0.0316   -0.0003    0.0000    0.0000    0.0287
           4    0.0000    0.0000   -0.0153    0.0000    0.0058   -0.0002    0.0156    0.0000
           5    0.0000   -0.0000    0.0049   -0.0000   -0.0005   -0.0010    0.0677    0.0000
           6    0.0000   -0.0025    0.0000    0.0061   -0.0001    0.0646    0.0010   -0.0021
           7   -0.0001   -0.0000   -0.0223    0.0001    0.0117    0.0000   -0.0006   -0.0000
           8    0.0000    0.0000   -0.0395   -0.0000   -0.0023    0.0000   -0.0001   -0.0000
           9    0.0503    0.0249    0.0001    0.0045   -0.0000    0.0004   -0.0000    0.0100
          10    0.0000   -0.0000    0.0237   -0.0000   -0.0069    0.0000   -0.0014   -0.0000
          11    0.0000   -0.0000    0.0312   -0.0000    0.0038   -0.0000    0.0018    0.0000
          12   -0.0168   -0.0322   -0.0000    0.0233   -0.0002   -0.0063   -0.0001    0.0092
          13    0.0000   -0.0000   -0.0190   -0.0000   -0.0045   -0.0000    0.0027   -0.0000
          14   -0.0000   -0.0000    0.0886   -0.0000    0.0068    0.0001   -0.0039   -0.0000
          15   -0.0035    0.0172   -0.0001   -0.0455    0.0004    0.0039    0.0001   -0.0289
          16   -0.0000   -0.0000    0.0735   -0.0001   -0.0124    0.0000   -0.0016    0.0001
          17   -0.0000   -0.0000   -0.0118   -0.0000   -0.0004   -0.0000    0.0016   -0.0000
          18   -0.0062   -0.0291    0.0001    0.0058   -0.0001   -0.0049   -0.0001   -0.0367
          19    0.0000    0.0000    0.0239   -0.0002   -0.0312   -0.0001    0.0019   -0.0000
          20   -0.0001   -0.0001    0.0217    0.0002    0.0313    0.0001   -0.0018    0.0001
          21   -0.0259   -0.0304   -0.0000   -0.0350    0.0002    0.0066    0.0001    0.0231
          22    0.0000    0.0000   -0.0417    0.0004    0.0536    0.0000   -0.0002    0.0001
          23    0.0000    0.0000   -0.0569   -0.0002   -0.0319   -0.0000   -0.0003   -0.0000
          24    0.0022    0.0036   -0.0000    0.0042    0.0001   -0.0015   -0.0000   -0.0391
          25   -0.0000   -0.0000   -0.0016    0.0000   -0.0008    0.0002   -0.0126   -0.0000
          26    0.0000   -0.0000    0.0024    0.0000   -0.0002    0.0009   -0.0607   -0.0000
          27   -0.0002   -0.0028   -0.0000   -0.0029    0.0001   -0.0578   -0.0009    0.0025
          28   -0.0000    0.0000    0.0025   -0.0000   -0.0030   -0.0000    0.0025   -0.0000
          29   -0.0000    0.0000   -0.0097   -0.0000    0.0001   -0.0002    0.0162    0.0000
          30   -0.0003    0.0163   -0.0000   -0.0078    0.0001    0.0157    0.0003   -0.0030
          31    0.0816   -0.0985   -0.0088    0.0123    0.0208   -0.0136   -0.0076   -0.0612
          32    0.0958   -0.0332   -0.0429   -0.1068   -0.0319    0.0115    0.0021   -0.0311
          33    0.0600   -0.0365   -0.0035   -0.0248   -0.0016   -0.0002   -0.0007   -0.0208
          34   -0.0818    0.0987   -0.0086   -0.0118    0.0209    0.0138   -0.0072    0.0617
          35   -0.0955    0.0331   -0.0428    0.1062   -0.0340   -0.0117    0.0019    0.0306
          36    0.0600   -0.0363    0.0035   -0.0252    0.0023   -0.0001    0.0007   -0.0206
          37    0.0002   -0.0137   -0.0299    0.0285    0.0082    0.2976   -0.1949   -0.0096
          38    0.0001    0.0029    0.0023   -0.0062   -0.0018   -0.0647   -0.0463    0.0021
          39    0.0000    0.0039    0.0022   -0.0073   -0.0013   -0.0747   -0.0057    0.0024
          40   -0.0002    0.0139   -0.0298   -0.0285    0.0092   -0.2932   -0.2029    0.0096
          41   -0.0001   -0.0029    0.0023    0.0062   -0.0020    0.0661   -0.0445   -0.0021
          42    0.0000    0.0039   -0.0021   -0.0072    0.0015   -0.0739    0.0036    0.0024
          43    0.0000   -0.0000   -0.0141    0.0000    0.0137   -0.0044    0.3538    0.0001
          44   -0.0000    0.0000    0.0032    0.0000   -0.0052    0.0021   -0.1517   -0.0001
          45   -0.0001    0.0042    0.0000   -0.0080    0.0001   -0.0809   -0.0018    0.0026
          46   -0.0001    0.0002    0.0321   -0.0003    0.0172   -0.0000    0.0069   -0.0000
          47    0.0003   -0.0003    0.1073    0.0003    0.0138    0.0000   -0.0024    0.0002
          48    0.1996   -0.1616   -0.0000    0.2034   -0.0020   -0.0248   -0.0003    0.0925
          49   -0.0004   -0.0003    0.0828   -0.0000   -0.0267   -0.0001    0.0004   -0.0003
          50    0.0004    0.0002    0.0266   -0.0008   -0.0715   -0.0002    0.0126    0.0002
          51    0.2352    0.1403    0.0001   -0.0999    0.0010    0.0291    0.0003    0.1450
          52   -0.0000   -0.0003    0.0334   -0.0009   -0.0694   -0.0001    0.0072    0.0002
          53    0.0001    0.0003    0.0248    0.0005    0.0199   -0.0000   -0.0000   -0.0001
          54    0.0300    0.1721    0.0005    0.1982   -0.0020   -0.0333   -0.0004   -0.0922
          55    0.0002    0.0001   -0.0884   -0.0015   -0.2337   -0.0002   -0.0001   -0.0004
          56    0.0000    0.0000   -0.0738   -0.0007   -0.1170   -0.0001   -0.0003    0.0000
          57   -0.0464   -0.0296   -0.0004   -0.0083   -0.0005    0.0026   -0.0000    0.1553
          58    0.0001    0.0001   -0.0441    0.0007    0.0881    0.0001   -0.0003   -0.0003
          59   -0.0001    0.0000   -0.0522    0.0019    0.2764    0.0002   -0.0005    0.0001
          60   -0.0647   -0.0493   -0.0003   -0.0349    0.0001    0.0085    0.0000    0.1652


   Root No.      25        26        27        28        29        30        31        32

                25 A      26 A      27 A      28 A      29 A      30 A      31 A      32 A   

                1021.4    1021.9    1045.3    1059.3    1079.0    1153.5    1210.9    1286.1
  
           1    0.0003   -0.0241   -0.0215    0.0001    0.0164    0.0028   -0.0110   -0.0054
           2    0.0006   -0.0492   -0.0162    0.0000   -0.0050    0.0028    0.0169   -0.0062
           3   -0.0229   -0.0003   -0.0000   -0.0031   -0.0000   -0.0000   -0.0001    0.0000
           4    0.0000   -0.0042   -0.0459    0.0001    0.0039   -0.0024   -0.0001   -0.0099
           5    0.0000   -0.0005    0.0102   -0.0000    0.0001    0.0004    0.0003    0.0021
           6    0.0010    0.0000    0.0000   -0.0003   -0.0000    0.0000   -0.0000    0.0000
           7   -0.0000    0.0009    0.0088   -0.0000    0.0099   -0.0125    0.0241    0.0149
           8    0.0000   -0.0041    0.0010   -0.0000   -0.0064    0.0132   -0.0159   -0.0058
           9    0.0335    0.0005    0.0000    0.0028    0.0000   -0.0000    0.0001    0.0000
          10   -0.0000    0.0036    0.0549   -0.0002   -0.0061    0.0031   -0.0061    0.0169
          11   -0.0001    0.0084   -0.0293    0.0001   -0.0210   -0.0018   -0.0267    0.0109
          12   -0.0175   -0.0002    0.0000    0.0087   -0.0000    0.0000    0.0000   -0.0000
          13   -0.0004    0.0294    0.0063   -0.0000   -0.0356    0.0048   -0.0234    0.0269
          14    0.0003   -0.0170   -0.0005   -0.0000    0.0155   -0.0049    0.0017    0.0003
          15    0.0253    0.0004   -0.0000   -0.0354    0.0000    0.0000   -0.0000    0.0000
          16    0.0004   -0.0394   -0.0009   -0.0001   -0.0058    0.0067    0.0005   -0.0090
          17   -0.0004    0.0397   -0.0019    0.0001    0.0075    0.0007    0.0177    0.0202
          18    0.0306    0.0003    0.0000    0.0433   -0.0000    0.0000   -0.0000   -0.0000
          19   -0.0000    0.0050   -0.0265    0.0001    0.0014   -0.0000    0.0103    0.0138
          20   -0.0003    0.0213    0.0308   -0.0001    0.0175   -0.0095    0.0066    0.0071
          21   -0.0328   -0.0005   -0.0001   -0.0158   -0.0000   -0.0000    0.0000    0.0000
          22    0.0002   -0.0035    0.0056   -0.0000   -0.0048    0.0044   -0.0077   -0.0043
          23   -0.0000    0.0015    0.0156   -0.0000    0.0120   -0.0061    0.0083    0.0004
          24   -0.0473   -0.0006   -0.0000   -0.0022    0.0000   -0.0000   -0.0000   -0.0000
          25   -0.0000    0.0018    0.0215   -0.0001   -0.0029    0.0032    0.0007   -0.0172
          26   -0.0000    0.0018   -0.0063    0.0000   -0.0019   -0.0004   -0.0017    0.0041
          27   -0.0020   -0.0000   -0.0000    0.0006   -0.0000   -0.0000    0.0000    0.0000
          28   -0.0000    0.0020    0.0426   -0.0001   -0.0023    0.0038    0.0022   -0.0131
          29    0.0001   -0.0064   -0.0042    0.0000    0.0094   -0.0019    0.0056    0.0004
          30    0.0042    0.0001   -0.0000   -0.0013    0.0000    0.0000   -0.0000   -0.0000
          31    0.0599    0.0186   -0.0512   -0.2582    0.1681    0.0761    0.0640   -0.0625
          32    0.0151   -0.1156   -0.0129    0.2341   -0.1339   -0.0499   -0.0279   -0.0614
          33    0.0160   -0.0165   -0.0101    0.0018    0.0032    0.0044    0.0092   -0.0509
          34   -0.0605    0.0166   -0.0501    0.2589    0.1676    0.0761    0.0639   -0.0626
          35   -0.0122   -0.1158   -0.0139   -0.2342   -0.1339   -0.0499   -0.0278   -0.0613
          36    0.0155    0.0174    0.0100    0.0033   -0.0022   -0.0040   -0.0089    0.0509
          37    0.0043   -0.0052   -0.1152   -0.0008    0.0083   -0.0110   -0.0042    0.0795
          38   -0.0010    0.0018    0.0124    0.0002   -0.0017    0.0009    0.0000   -0.0025
          39   -0.0011    0.0014    0.0176    0.0002   -0.0019    0.0023    0.0009   -0.0241
          40   -0.0043   -0.0053   -0.1148    0.0015    0.0083   -0.0110   -0.0042    0.0796
          41    0.0010    0.0019    0.0124   -0.0003   -0.0017    0.0009    0.0000   -0.0026
          42   -0.0010   -0.0014   -0.0172    0.0003    0.0019   -0.0023   -0.0009    0.0239
          43    0.0002   -0.0146   -0.1042    0.0003    0.0144   -0.0109   -0.0021    0.0711
          44   -0.0001    0.0058    0.0417   -0.0001   -0.0060    0.0051    0.0012   -0.0428
          45   -0.0013    0.0000    0.0002    0.0004   -0.0000    0.0000    0.0000   -0.0002
          46   -0.0021    0.1889   -0.0759    0.0001   -0.1495   -0.1117    0.2599   -0.0869
          47   -0.0005    0.0338   -0.0284    0.0002   -0.0236   -0.0446    0.0955   -0.0376
          48   -0.0626   -0.0007    0.0000    0.0558   -0.0003   -0.0001    0.0001   -0.0000
          49    0.0004   -0.0162   -0.0120    0.0002   -0.0200    0.0669   -0.0184   -0.0267
          50   -0.0022    0.1643   -0.0537   -0.0000   -0.0794    0.3208   -0.0790   -0.0685
          51   -0.1090   -0.0020    0.0001   -0.0803    0.0001   -0.0004    0.0001    0.0001
          52   -0.0020    0.1500   -0.0664    0.0002    0.0723   -0.2108   -0.2424   -0.0927
          53   -0.0006    0.0721    0.0190    0.0001    0.0416   -0.0781   -0.0773   -0.0276
          54    0.1194    0.0020   -0.0003    0.0352    0.0000   -0.0002   -0.0003   -0.0001
          55   -0.0005    0.0088    0.0503   -0.0001    0.0455   -0.0337    0.0252   -0.0465
          56   -0.0000    0.0059    0.0303   -0.0000    0.0282   -0.0188    0.0168   -0.0160
          57    0.1779    0.0024    0.0001    0.0129   -0.0000   -0.0000    0.0000   -0.0001
          58   -0.0003   -0.0038    0.0060   -0.0000   -0.0076    0.0046   -0.0150   -0.0158
          59    0.0001   -0.0016    0.0043   -0.0000   -0.0192    0.0031   -0.0542   -0.0782
          60    0.1760    0.0024    0.0000    0.0016   -0.0001    0.0000   -0.0000   -0.0000


   Root No.      33        34        35        36        37        38        39        40

                33 A      34 A      35 A      36 A      37 A      38 A      39 A      40 A   

                1306.1    1349.1    1375.7    1376.0    1381.0    1405.0    1480.2    1578.5
  
           1    0.0068    0.0078    0.0000   -0.0011    0.0461   -0.0474    0.0647   -0.0050
           2   -0.0067    0.0249   -0.0001   -0.0011    0.0235    0.0532   -0.0519    0.0215
           3    0.0000   -0.0000   -0.0000    0.0000    0.0000   -0.0002    0.0002   -0.0000
           4   -0.0190    0.0170   -0.0001   -0.0087   -0.0039   -0.0450   -0.0590   -0.0633
           5    0.0040   -0.0036   -0.0006   -0.0432    0.0002    0.0091    0.0122    0.0133
           6    0.0000   -0.0000   -0.0444    0.0006   -0.0000    0.0000    0.0001    0.0001
           7    0.0060   -0.0185    0.0001    0.0002    0.0138   -0.0370   -0.0451    0.0869
           8   -0.0233   -0.0063   -0.0001   -0.0005    0.0029    0.0323    0.0358   -0.0688
           9    0.0000   -0.0000   -0.0000    0.0000    0.0000   -0.0001   -0.0001    0.0002
          10    0.0216   -0.0116    0.0000    0.0002   -0.0019    0.0143   -0.0246   -0.0981
          11   -0.0201    0.0116   -0.0000    0.0006   -0.0275   -0.0053   -0.0084    0.1022
          12    0.0000   -0.0000   -0.0001    0.0000    0.0000    0.0000    0.0000   -0.0001
          13   -0.0019    0.0044    0.0000    0.0009   -0.0288    0.0062   -0.0489    0.0003
          14    0.0151   -0.0029    0.0000   -0.0000    0.0104   -0.0226    0.0047   -0.0250
          15   -0.0000    0.0000    0.0000    0.0000   -0.0000    0.0000   -0.0001    0.0000
          16    0.0017    0.0061   -0.0000   -0.0002    0.0003    0.0253   -0.0193   -0.0030
          17   -0.0130    0.0084    0.0000    0.0007   -0.0246   -0.0168    0.0466   -0.0308
          18    0.0000    0.0000    0.0000   -0.0000    0.0000    0.0001   -0.0001    0.0000
          19   -0.0225    0.0156   -0.0000    0.0005   -0.0293    0.0015    0.0487   -0.0342
          20    0.0095   -0.0105    0.0001    0.0002    0.0025   -0.0188   -0.0139    0.0200
          21   -0.0000    0.0000   -0.0000   -0.0000   -0.0000    0.0000    0.0001   -0.0001
          22   -0.0050   -0.0100   -0.0000   -0.0004    0.0120    0.0091   -0.0012   -0.0200
          23    0.0006   -0.0151    0.0000   -0.0003    0.0170   -0.0033   -0.0125   -0.0040
          24   -0.0000   -0.0000   -0.0000   -0.0000    0.0000    0.0000   -0.0000   -0.0000
          25   -0.0187    0.0041   -0.0001   -0.0005    0.0000    0.0114    0.0394    0.0701
          26    0.0033   -0.0004    0.0000   -0.0008   -0.0010   -0.0023   -0.0085   -0.0133
          27    0.0000    0.0000   -0.0010    0.0000   -0.0000   -0.0000   -0.0000   -0.0001
          28   -0.0101   -0.0021   -0.0001   -0.0002    0.0021    0.0214    0.0441    0.0569
          29    0.0039   -0.0018    0.0000   -0.0001    0.0043   -0.0063   -0.0072   -0.0135
          30   -0.0000    0.0000   -0.0001    0.0000   -0.0000   -0.0000    0.0000    0.0000
          31   -0.0090   -0.0645    0.0001    0.0026   -0.0989    0.0580   -0.0482    0.0141
          32    0.0349   -0.1059    0.0002    0.0030   -0.0715   -0.0719    0.0421   -0.0114
          33    0.0134   -0.0949    0.0002    0.0036   -0.1087   -0.0163   -0.0022   -0.0080
          34   -0.0090   -0.0647    0.0000    0.0026   -0.0993    0.0579   -0.0483    0.0141
          35    0.0349   -0.1056    0.0003    0.0030   -0.0713   -0.0718    0.0420   -0.0114
          36   -0.0136    0.0951   -0.0002   -0.0036    0.1086    0.0167    0.0019    0.0081
          37    0.1010   -0.0505    0.1712   -0.0142    0.0082    0.0790    0.0614    0.0371
          38   -0.0025    0.0005    0.1927    0.3092    0.0045    0.0050    0.0073    0.0086
          39   -0.0326    0.0188    0.0589    0.2166   -0.0003   -0.0326   -0.0325   -0.0279
          40    0.1011   -0.0507   -0.1715   -0.0090    0.0081    0.0787    0.0614    0.0371
          41   -0.0026    0.0005   -0.1824    0.3168    0.0044    0.0045    0.0070    0.0084
          42    0.0324   -0.0186    0.0507   -0.2167    0.0003    0.0326    0.0324    0.0279
          43    0.0903   -0.0443    0.0026    0.1314    0.0092    0.0682    0.0504    0.0278
          44   -0.0566    0.0305   -0.0029   -0.0994   -0.0068   -0.0540   -0.0493   -0.0383
          45   -0.0003    0.0003    0.4324   -0.0076    0.0000    0.0002   -0.0000   -0.0001
          46    0.0222   -0.0044   -0.0002   -0.0025    0.0634    0.0649    0.0028   -0.0462
          47    0.0241   -0.0054   -0.0000   -0.0012    0.0425   -0.0052    0.0220   -0.0409
          48   -0.0000    0.0000    0.0000   -0.0000    0.0000    0.0001   -0.0000    0.0000
          49    0.0176   -0.0004   -0.0000   -0.0007    0.0232    0.0237   -0.0338    0.0091
          50    0.0736   -0.0328    0.0001   -0.0019    0.0942   -0.0396   -0.0304    0.0439
          51   -0.0001    0.0000   -0.0000   -0.0000   -0.0001    0.0001   -0.0001   -0.0000
          52   -0.0036   -0.0298   -0.0002   -0.0024    0.0579    0.0807   -0.0366   -0.0226
          53    0.0162   -0.0276    0.0000   -0.0007    0.0322    0.0054   -0.0431    0.0248
          54   -0.0001   -0.0000    0.0001   -0.0000    0.0000    0.0001    0.0001   -0.0001
          55    0.1605    0.1419    0.0000    0.0026   -0.0909   -0.0420   -0.0001    0.0614
          56    0.0575    0.0373    0.0000    0.0006   -0.0176   -0.0185   -0.0108    0.0186
          57    0.0003    0.0003    0.0001   -0.0000   -0.0002   -0.0001    0.0000    0.0001
          58    0.0173    0.0156   -0.0000    0.0000   -0.0048    0.0103    0.0056   -0.0208
          59    0.1372    0.1594   -0.0001    0.0022   -0.1021    0.0157    0.0519   -0.0211
          60   -0.0000   -0.0000    0.0002   -0.0000    0.0000    0.0000    0.0000   -0.0000


   Root No.      41        42        43        44        45        46        47        48

                41 A      42 A      43 A      44 A      45 A      46 A      47 A      48 A   

                1842.2    1861.0    1889.3    2457.5    2925.6    3004.9    3041.3    3056.7
  
           1    0.0099   -0.0262    0.0112    0.0017    0.0001    0.0254   -0.0008   -0.0020
           2    0.0129    0.0199    0.0167    0.0004   -0.0001    0.0293   -0.0007   -0.0024
           3   -0.0000   -0.0001   -0.0000    0.0000   -0.0609   -0.0000    0.0000    0.0000
           4    0.0075   -0.0122    0.0057    0.0659    0.0000    0.0000    0.0000   -0.0000
           5   -0.0015    0.0023   -0.0010   -0.0135   -0.0000   -0.0000    0.0000    0.0000
           6   -0.0000    0.0000   -0.0000   -0.0001   -0.0000   -0.0000    0.0000    0.0000
           7    0.0968   -0.0153   -0.0821   -0.0010    0.0000    0.0002   -0.0002    0.0002
           8    0.1274    0.0247   -0.0839   -0.0000    0.0000    0.0002   -0.0001    0.0006
           9    0.0001   -0.0000   -0.0001   -0.0000    0.0001   -0.0000    0.0000   -0.0000
          10    0.0571   -0.1186    0.0656   -0.0765    0.0000   -0.0005   -0.0004    0.0033
          11    0.0224   -0.1200    0.0751    0.0134    0.0000   -0.0002    0.0002    0.0031
          12    0.0000    0.0001   -0.0000   -0.0000   -0.0003   -0.0000   -0.0000   -0.0000
          13   -0.0520    0.1241   -0.0659   -0.0015   -0.0000    0.0018   -0.0001    0.0151
          14   -0.0450    0.0956   -0.0523    0.0002   -0.0000   -0.0038    0.0009   -0.0576
          15    0.0000   -0.0000    0.0000   -0.0000   -0.0001    0.0000   -0.0000    0.0001
          16   -0.0460   -0.0658   -0.0614    0.0001   -0.0000   -0.0039   -0.0255    0.0083
          17   -0.0668   -0.1090   -0.0972    0.0001   -0.0000    0.0012    0.0061   -0.0004
          18    0.0000    0.0001    0.0000   -0.0000   -0.0001   -0.0000   -0.0001    0.0000
          19    0.0385    0.1011    0.1036    0.0008    0.0000   -0.0002    0.0137    0.0011
          20    0.0467    0.0795    0.0786   -0.0008    0.0000   -0.0000   -0.0453   -0.0063
          21   -0.0000    0.0001    0.0001   -0.0000   -0.0003   -0.0000    0.0001    0.0000
          22   -0.0878   -0.0075    0.0465   -0.0001   -0.0000   -0.0000    0.0000   -0.0001
          23   -0.1057   -0.0027    0.0556    0.0005   -0.0000   -0.0000   -0.0003   -0.0001
          24   -0.0001   -0.0000    0.0001    0.0000   -0.0000    0.0000    0.0000    0.0000
          25   -0.0160    0.0267   -0.0131   -0.3742   -0.0000   -0.0001   -0.0000    0.0000
          26    0.0034   -0.0068    0.0037    0.0771    0.0000    0.0000    0.0000   -0.0000
          27    0.0000   -0.0000    0.0000    0.0002    0.0000   -0.0000    0.0000   -0.0000
          28   -0.0063    0.0107   -0.0050    0.3826    0.0000    0.0001    0.0001   -0.0006
          29    0.0023    0.0007   -0.0027   -0.0773   -0.0000   -0.0001    0.0000   -0.0002
          30   -0.0000    0.0000   -0.0000   -0.0001   -0.0001   -0.0000   -0.0000    0.0000
          31    0.0037   -0.0199    0.0051    0.0015   -0.1886   -0.1531    0.0038    0.0148
          32    0.0073    0.0150    0.0115    0.0006   -0.2160   -0.1752    0.0070    0.0114
          33   -0.0031   -0.0010   -0.0002   -0.0025    0.3685    0.3582   -0.0115   -0.0272
          34    0.0037   -0.0199    0.0051    0.0015    0.1875   -0.1519    0.0038    0.0147
          35    0.0073    0.0150    0.0115    0.0005    0.2173   -0.1762    0.0070    0.0115
          36    0.0031    0.0009    0.0002    0.0025    0.3686   -0.3580    0.0115    0.0271
          37   -0.0010    0.0016   -0.0006    0.0096    0.0000   -0.0000    0.0000    0.0002
          38   -0.0011    0.0019   -0.0009   -0.0094   -0.0000   -0.0000   -0.0000   -0.0002
          39    0.0025   -0.0040    0.0018    0.0109    0.0000    0.0000    0.0000    0.0004
          40   -0.0010    0.0016   -0.0006    0.0096   -0.0000   -0.0000    0.0000    0.0002
          41   -0.0011    0.0018   -0.0009   -0.0092    0.0000    0.0000   -0.0000   -0.0003
          42   -0.0025    0.0040   -0.0019   -0.0109    0.0000    0.0000   -0.0000   -0.0006
          43   -0.0000   -0.0005    0.0006    0.0145    0.0000   -0.0000   -0.0001    0.0001
          44    0.0028   -0.0045    0.0020    0.0116    0.0000   -0.0000   -0.0001    0.0001
          45   -0.0000   -0.0000    0.0000    0.0000    0.0000   -0.0000   -0.0000    0.0000
          46    0.0403   -0.0563    0.0399   -0.0090   -0.0000   -0.0115    0.0039   -0.2142
          47   -0.0275    0.0620   -0.0303    0.0058    0.0000    0.0449   -0.0119    0.6477
          48    0.0001   -0.0001    0.0001    0.0000   -0.0016   -0.0001    0.0000   -0.0011
          49   -0.0420   -0.0615   -0.0545    0.0003    0.0000    0.0443    0.3162   -0.0952
          50    0.0333    0.0295    0.0402   -0.0000   -0.0000   -0.0051   -0.0622    0.0174
          51   -0.0001   -0.0001   -0.0002   -0.0000   -0.0016    0.0001    0.0007   -0.0002
          52   -0.0018   -0.0376   -0.0659    0.0014   -0.0000    0.0010   -0.1742   -0.0214
          53    0.0497    0.0549    0.0417   -0.0025   -0.0000   -0.0046    0.5219    0.0665
          54   -0.0001   -0.0002   -0.0002    0.0000   -0.0008    0.0000   -0.0012   -0.0001
          55    0.0660   -0.0003   -0.0365    0.0002    0.0000    0.0003   -0.0001    0.0002
          56   -0.0776    0.0021    0.0413    0.0017   -0.0000   -0.0009    0.0049    0.0001
          57    0.0002    0.0000   -0.0001   -0.0000   -0.0000    0.0000   -0.0000    0.0000
          58   -0.0881   -0.0101    0.0468   -0.0021   -0.0000   -0.0009    0.0051    0.0004
          59    0.0552    0.0093   -0.0262    0.0007    0.0000    0.0002   -0.0005   -0.0001
          60   -0.0002   -0.0000    0.0001   -0.0000   -0.0000   -0.0000    0.0000    0.0000


   Root No.      49        50        51        52        53        54

                49 A      50 A      51 A      52 A      53 A      54 A   

                3063.9    3065.3    3066.4    3133.3    3140.2    3152.0
  
           1   -0.0022   -0.0000   -0.0000    0.0001    0.0000    0.0000
           2   -0.0025   -0.0000   -0.0000    0.0001    0.0000    0.0000
           3    0.0000    0.0000    0.0000   -0.0000   -0.0000    0.0000
           4    0.0000   -0.0001   -0.0105    0.0000   -0.0000   -0.0243
           5    0.0001    0.0001   -0.0511    0.0001   -0.0000    0.0048
           6    0.0001   -0.0583   -0.0000   -0.0000   -0.0000    0.0000
           7    0.0007    0.0000    0.0000    0.0037    0.0021    0.0000
           8    0.0006    0.0000    0.0000    0.0047    0.0016    0.0000
           9    0.0000   -0.0000    0.0000    0.0000    0.0000    0.0000
          10    0.0008    0.0000    0.0000    0.0000    0.0004   -0.0002
          11    0.0003    0.0000   -0.0000    0.0000    0.0007    0.0000
          12   -0.0000   -0.0000   -0.0000   -0.0000    0.0000   -0.0000
          13    0.0023    0.0000    0.0000   -0.0001   -0.0001    0.0000
          14   -0.0082   -0.0000   -0.0001   -0.0002   -0.0002    0.0001
          15    0.0000    0.0000   -0.0000    0.0000   -0.0000   -0.0000
          16   -0.0427   -0.0001   -0.0001   -0.0004   -0.0001    0.0000
          17    0.0033    0.0000    0.0000   -0.0003    0.0000   -0.0000
          18   -0.0001    0.0000   -0.0000   -0.0000   -0.0000   -0.0000
          19   -0.0039   -0.0000   -0.0000    0.0004   -0.0006    0.0000
          20    0.0260    0.0000    0.0000    0.0011   -0.0000   -0.0000
          21   -0.0000    0.0000    0.0000   -0.0000   -0.0000    0.0000
          22   -0.0001    0.0000   -0.0000   -0.0498    0.0370   -0.0000
          23    0.0001    0.0000   -0.0000   -0.0188   -0.0563    0.0000
          24    0.0000    0.0000    0.0000   -0.0001    0.0001   -0.0000
          25    0.0000    0.0000    0.0001   -0.0001    0.0001   -0.0001
          26    0.0000   -0.0000   -0.0000   -0.0000    0.0000    0.0000
          27   -0.0000   -0.0000   -0.0000    0.0000   -0.0000    0.0000
          28   -0.0001   -0.0000   -0.0001    0.0001   -0.0001    0.0007
          29   -0.0000    0.0000   -0.0002   -0.0001    0.0001   -0.0001
          30    0.0000   -0.0002    0.0000    0.0000   -0.0000   -0.0000
          31    0.0106    0.0000    0.0000   -0.0003   -0.0001   -0.0000
          32    0.0147    0.0000    0.0000   -0.0003   -0.0001   -0.0000
          33   -0.0268   -0.0001   -0.0001    0.0006    0.0003    0.0001
          34    0.0105    0.0000    0.0000   -0.0003   -0.0001   -0.0000
          35    0.0148    0.0000    0.0000   -0.0003   -0.0001   -0.0000
          36    0.0268    0.0001    0.0000   -0.0006   -0.0003   -0.0001
          37    0.0000    0.1074   -0.0612   -0.0000    0.0000    0.0634
          38   -0.0000   -0.2540    0.1076    0.0001   -0.0000   -0.1714
          39    0.0001    0.3618   -0.2040   -0.0000    0.0001    0.2667
          40    0.0003   -0.1071   -0.0605   -0.0000    0.0000    0.0629
          41   -0.0006    0.2524    0.1056    0.0001   -0.0000   -0.1697
          42   -0.0010    0.3644    0.2036    0.0001   -0.0001   -0.2676
          43   -0.0004    0.0004    0.2466   -0.0003    0.0001    0.1584
          44   -0.0007    0.0008    0.3987   -0.0006    0.0002    0.2853
          45    0.0000   -0.0287    0.0010   -0.0000    0.0000    0.0007
          46   -0.0290   -0.0001   -0.0002   -0.0002   -0.0001    0.0002
          47    0.0878    0.0003    0.0005    0.0006    0.0004   -0.0006
          48   -0.0002   -0.0000   -0.0000    0.0000    0.0000   -0.0000
          49    0.4670    0.0007    0.0010    0.0016    0.0004   -0.0001
          50   -0.0855   -0.0001   -0.0002   -0.0002   -0.0001    0.0000
          51    0.0010    0.0000    0.0000    0.0000    0.0000   -0.0000
          52    0.0836    0.0001    0.0001    0.0027   -0.0007   -0.0000
          53   -0.2618   -0.0004   -0.0004   -0.0081   -0.0042    0.0001
          54    0.0006    0.0000    0.0000    0.0000    0.0000    0.0000
          55    0.0005    0.0000   -0.0000   -0.0966   -0.1952   -0.0000
          56   -0.0036   -0.0000    0.0000    0.2590    0.6267   -0.0000
          57    0.0000    0.0000    0.0000   -0.0003   -0.0007   -0.0000
          58   -0.0041   -0.0000    0.0004    0.6429   -0.2648    0.0004
          59    0.0005    0.0000   -0.0000   -0.0890    0.0203   -0.0000
          60   -0.0000   -0.0000    0.0000    0.0013   -0.0005   -0.0000


           MASS-WEIGHTED COORDINATE ANALYSIS (NORMAL COORDINATES)


   Root No.       1         2         3         4         5         6         7         8

                 1 A       2 A       3 A       4 A       5 A       6 A       7 A       8 A   

                  53.5      92.3      96.0     120.3     254.5     293.9     310.9     377.3
  
           1   -0.0007   -0.0334   -0.1864    0.0030    0.0002    0.0010   -0.0296   -0.1845
           2    0.0007    0.0187    0.1040   -0.0018   -0.0002   -0.0006   -0.0484    0.2277
           3    0.2066    0.1056   -0.0231   -0.3436   -0.1965   -0.0933    0.0001   -0.0010
           4   -0.0001    0.0129    0.0718   -0.0018    0.0003   -0.0008   -0.1462    0.3410
           5    0.0016    0.0956    0.5319   -0.0061    0.0005    0.0005   -0.1421   -0.1243
           6   -0.2597    0.0228   -0.0082   -0.3793    0.1748   -0.0853   -0.0005   -0.0005
           7    0.0002    0.0185    0.1030   -0.0010    0.0000   -0.0000   -0.0214   -0.0618
           8   -0.0004   -0.0287   -0.1609    0.0020   -0.0002    0.0005   -0.0722   -0.2460
           9    0.0600   -0.0387    0.0079    0.1029   -0.0278   -0.4225   -0.0001   -0.0003
          10   -0.0003   -0.0148   -0.0829    0.0009   -0.0006   -0.0002   -0.0891    0.1429
          11   -0.0006   -0.0399   -0.2237    0.0029   -0.0004    0.0006   -0.0703   -0.2101
          12    0.1285   -0.0102    0.0057    0.3531    0.0441   -0.2080    0.0004    0.0019
          13   -0.0008   -0.0379   -0.2120    0.0025   -0.0008    0.0006   -0.0296   -0.1455
          14   -0.0001   -0.0188   -0.1060    0.0014    0.0000    0.0001   -0.1113    0.0213
          15    0.2313    0.0590   -0.0091    0.2133    0.5390    0.0590   -0.0010   -0.0002
          16    0.0008    0.0009    0.0045    0.0004    0.0002   -0.0001    0.0178   -0.2396
          17    0.0001    0.0285    0.1600   -0.0021    0.0002    0.0002   -0.0224    0.1993
          18   -0.3592   -0.0153    0.0017   -0.1558   -0.0275    0.4531   -0.0000    0.0016
          19    0.0012    0.0248    0.1385   -0.0014    0.0001   -0.0003    0.0100   -0.0443
          20   -0.0003    0.0075    0.0425   -0.0005    0.0004    0.0004   -0.0061   -0.0023
          21   -0.4302   -0.0842    0.0174    0.0874    0.0558   -0.3190   -0.0001   -0.0020
          22    0.0002    0.0450    0.2524   -0.0028    0.0010    0.0009    0.2734   -0.3444
          23   -0.0009   -0.0508   -0.2848    0.0039   -0.0012   -0.0010   -0.3187   -0.0238
          24    0.4653   -0.0102   -0.0026   -0.2088    0.0739    0.2095   -0.0001   -0.0000
          25   -0.0002   -0.0057   -0.0308   -0.0002   -0.0002   -0.0007    0.0295    0.3551
          26    0.0001    0.0050    0.0326   -0.0010    0.0012   -0.0009    0.6488    0.2196
          27   -0.0859   -0.0233    0.0070    0.1631   -0.4089    0.2459    0.0001   -0.0010
          28   -0.0003   -0.0162   -0.0904    0.0008   -0.0004   -0.0005   -0.0269    0.2562
          29   -0.0007   -0.0463   -0.2570    0.0030   -0.0000    0.0003    0.3389   -0.0791
          30    0.0435   -0.0346    0.0119    0.4395   -0.3334    0.1133    0.0013    0.0018
          31    0.0095   -0.0011   -0.0778   -0.1137   -0.1826   -0.0620   -0.0154   -0.0618
          32    0.1061    0.0341    0.0426   -0.0694   -0.0958   -0.1567   -0.0079    0.0725
          33    0.1251    0.0512   -0.0114   -0.1963   -0.2048   -0.1496    0.0001   -0.0007
          34   -0.0102   -0.0256   -0.0713    0.1162    0.1830    0.0629   -0.0161   -0.0614
          35   -0.1054   -0.0169    0.0533    0.0677    0.0953    0.1559   -0.0083    0.0741
          36    0.1254    0.0513   -0.0114   -0.1961   -0.2044   -0.1498    0.0005   -0.0010
          37    0.0415   -0.0922    0.1045    0.0905   -0.1253    0.0761   -0.1702    0.0451
          38    0.0432   -0.4365    0.2674   -0.0723    0.0332   -0.0178   -0.1037   -0.0659
          39   -0.0600   -0.2690    0.0460   -0.1849    0.1125   -0.0611   -0.0006   -0.0019
          40   -0.0413    0.1224    0.0630   -0.0933    0.1257   -0.0764   -0.1691    0.0463
          41   -0.0423    0.5044    0.1007    0.0684   -0.0332    0.0184   -0.1026   -0.0657
          42   -0.0602   -0.2662    0.0454   -0.1843    0.1120   -0.0609   -0.0002    0.0018
          43   -0.0003   -0.0143   -0.0794    0.0007    0.0001   -0.0005    0.1557    0.1979
          44    0.0008    0.0378    0.2180   -0.0026    0.0000    0.0004   -0.1686   -0.0994
          45   -0.1473    0.5690   -0.1028   -0.0978    0.1008   -0.0580    0.0003    0.0002
          46   -0.0004   -0.0183   -0.1025    0.0011   -0.0004    0.0003   -0.0062   -0.1236
          47   -0.0000   -0.0078   -0.0438    0.0006    0.0002    0.0003   -0.0304   -0.0201
          48    0.0927    0.0260   -0.0038    0.1177    0.3255    0.1212   -0.0006   -0.0002
          49    0.0004    0.0016    0.0089    0.0001    0.0000   -0.0005    0.0055   -0.0634
          50   -0.0001    0.0157    0.0884   -0.0011    0.0001    0.0002   -0.0035    0.0867
          51   -0.2049   -0.0129    0.0020   -0.0654    0.0006    0.3594    0.0000    0.0016
          52    0.0007    0.0147    0.0820   -0.0010    0.0000   -0.0002    0.0127    0.0481
          53   -0.0002    0.0045    0.0258   -0.0002    0.0002   -0.0000    0.0005    0.0203
          54   -0.2437   -0.0499    0.0105    0.0699    0.0559   -0.1371   -0.0000   -0.0011
          55    0.0003    0.0208    0.1166   -0.0014    0.0005    0.0008    0.1758   -0.1975
          56   -0.0002   -0.0123   -0.0689    0.0009   -0.0002   -0.0001   -0.0635   -0.0360
          57    0.1265   -0.0072   -0.0008   -0.1266    0.0522    0.1146   -0.0001   -0.0008
          58   -0.0002    0.0121    0.0679   -0.0007    0.0002   -0.0001    0.0692   -0.0888
          59   -0.0005   -0.0225   -0.1261    0.0018   -0.0007   -0.0010   -0.1888    0.0953
          60    0.2458    0.0087   -0.0034   -0.0743    0.0176    0.1846    0.0001    0.0008


   Root No.       9        10        11        12        13        14        15        16

                 9 A      10 A      11 A      12 A      13 A      14 A      15 A      16 A   

                 401.5     445.0     536.9     542.1     613.1     627.4     720.2     730.5
  
           1    0.0003   -0.0817   -0.0021    0.3916   -0.0000   -0.2003    0.0003   -0.2218
           2   -0.0014   -0.1014   -0.0016    0.2245   -0.0002   -0.0230   -0.0001   -0.2937
           3   -0.0446    0.0002   -0.0223    0.0002   -0.0456   -0.0004   -0.1094   -0.0000
           4   -0.0019   -0.1928    0.0007   -0.1527    0.0000   -0.0184   -0.0002    0.3216
           5    0.0008    0.0125   -0.0000    0.0292   -0.0000   -0.0274    0.0000   -0.0733
           6    0.0659   -0.0002   -0.0017    0.0002    0.0067    0.0001    0.0262   -0.0004
           7    0.0015    0.3292    0.0019   -0.1757    0.0005    0.1199    0.0005   -0.1570
           8    0.0007   -0.0426    0.0016   -0.2125   -0.0001   -0.1582   -0.0002    0.2111
           9    0.1969   -0.0008   -0.4237   -0.0027   -0.2227   -0.0011   -0.2963   -0.0002
          10   -0.0010   -0.0830    0.0004   -0.0286   -0.0001   -0.0014   -0.0001   -0.2395
          11    0.0003   -0.1658    0.0013   -0.1689   -0.0000   -0.0938    0.0006   -0.0591
          12    0.4598   -0.0031   -0.0647   -0.0004    0.0892    0.0001    0.5783    0.0004
          13    0.0001   -0.1068   -0.0013    0.2626   -0.0001   -0.1065   -0.0000   -0.1675
          14   -0.0011   -0.1767    0.0026   -0.3733   -0.0001   -0.0519    0.0004   -0.2533
          15   -0.2061    0.0011   -0.0662    0.0000    0.0274   -0.0000    0.0415    0.0003
          16    0.0020    0.2899   -0.0009    0.1984    0.0004   -0.0040    0.0001    0.3944
[...]
 FREQ.      1306.08         C  8 -- H 19         +11.8% ( 40.5%)      0.0%
 T-DIPOLE    0.1123         C  4 -- C 10          +8.9% ( 35.1%)     80.8%
 TRAVEL      0.1119         C  3 -- C  7          +8.8% ( 34.9%)     58.5%
 RED. MASS   0.2694         C  4 -- C  5          +7.5% ( 32.3%)      6.9%
 EFF. MASS   4.1228

 VIBRATION   34   34A         ATOM PAIR      ENERGY CONTRIBUTION    RADIAL
 FREQ.      1349.09         C  8 -- H 20         +15.0% ( 41.9%)      1.1%
 T-DIPOLE    0.0653         C  1 -- H 12         +14.1% ( 40.6%)      4.2%
 TRAVEL      0.1274         C  1 -- H 11         +14.1% ( 40.6%)      4.2%
 RED. MASS   0.2186         C  8 -- H 19         +12.6% ( 38.5%)      2.6%
 EFF. MASS   3.0791

 VIBRATION   35   35A         ATOM PAIR      ENERGY CONTRIBUTION    RADIAL
 FREQ.      1375.75         C  2 -- H 15         +54.3% ( 63.8%)      0.0%
 T-DIPOLE    0.0622         C  2 -- H 13         +20.8% ( 39.5%)     11.0%
 TRAVEL      0.1756         C  2 -- H 14         +19.5% ( 38.2%)     12.4%
 RED. MASS   0.4276         C  2 -- C  9          +5.4% ( 20.1%)      0.0%
 EFF. MASS   1.5887

 VIBRATION   36   36A         ATOM PAIR      ENERGY CONTRIBUTION    RADIAL
 FREQ.      1376.03         C  2 -- H 14         +43.6% ( 57.2%)      1.5%
 T-DIPOLE    0.0615         C  2 -- H 13         +42.2% ( 56.3%)      1.7%
 TRAVEL      0.1756         C  2 -- H 15          +8.7% ( 25.6%)     57.5%
 RED. MASS   0.4275         C  2 -- C  9          +5.4% ( 20.1%)      0.0%
 EFF. MASS   1.5899

 VIBRATION   37   37A         ATOM PAIR      ENERGY CONTRIBUTION    RADIAL
 FREQ.      1380.98         C  1 -- C  5         +14.2% ( 48.7%)     90.3%
 T-DIPOLE    0.1601         C  1 -- H 12         +14.1% ( 48.6%)      7.0%
 TRAVEL      0.0919         C  1 -- H 11         +14.1% ( 48.6%)      7.1%
 RED. MASS   0.6491         C  1 -- C  6         +10.7% ( 42.4%)     25.7%
 EFF. MASS   5.7788

 VIBRATION   38   38A         ATOM PAIR      ENERGY CONTRIBUTION    RADIAL
 FREQ.      1405.04         C  1 -- C  6         +13.6% ( 55.5%)     74.8%
 T-DIPOLE    0.1594         C  1 -- C  5         +11.5% ( 51.1%)     47.3%
 TRAVEL      0.0739         C  1 -- H 11         +11.5% ( 51.0%)      0.2%
 RED. MASS   1.5732         C  1 -- H 12         +11.5% ( 51.0%)      0.2%
 EFF. MASS   8.7870

 VIBRATION   39   39A         ATOM PAIR      ENERGY CONTRIBUTION    RADIAL
 FREQ.      1480.20         C  1 -- C  5         +11.8% ( 53.7%)     90.2%
 T-DIPOLE    0.3179         C  1 -- C  6         +11.7% ( 53.5%)     82.8%
 TRAVEL      0.0644         C  2 -- C  9         +10.1% ( 49.6%)    100.0%
 RED. MASS   1.4489         C  3 -- C  7          +8.4% ( 45.3%)     89.4%
 EFF. MASS  10.9725

 VIBRATION   40   40A         ATOM PAIR      ENERGY CONTRIBUTION    RADIAL
 FREQ.      1578.47         C  3 -- C  4         +24.0% ( 73.8%)     75.1%
 T-DIPOLE    0.7202         C  4 -- C 10         +20.2% ( 67.7%)     81.3%
 TRAVEL      0.0605         C  4 -- C  5         +12.4% ( 53.1%)      3.7%
 RED. MASS   2.8630         C  2 -- C  9         +11.2% ( 50.4%)    100.0%
 EFF. MASS  11.6654

 VIBRATION   41   41A         ATOM PAIR      ENERGY CONTRIBUTION    RADIAL
 FREQ.      1842.16         C  3 -- C  8         +32.5% ( 84.2%)     99.9%
 T-DIPOLE    0.3403         C  3 -- C  4         +12.7% ( 52.7%)     62.0%
 TRAVEL      0.0554         C  3 -- C  7         +12.2% ( 51.6%)     20.4%
 RED. MASS   3.0209         C  8 -- H 20          +7.8% ( 41.2%)     11.5%
 EFF. MASS  11.9058

 VIBRATION   42   42A         ATOM PAIR      ENERGY CONTRIBUTION    RADIAL
 FREQ.      1860.95         C  4 -- C  5         +26.5% ( 76.6%)     98.4%
 T-DIPOLE    0.1363         C  6 -- C  7         +16.7% ( 60.8%)    100.0%
 TRAVEL      0.0551         C  3 -- C  4          +9.5% ( 45.8%)     36.4%
 RED. MASS   2.8775         C  4 -- C 10          +9.2% ( 45.2%)     34.4%
 EFF. MASS  11.9411

 VIBRATION   43   43A         ATOM PAIR      ENERGY CONTRIBUTION    RADIAL
 FREQ.      1889.32         C  6 -- C  7         +19.7% ( 65.9%)     99.9%
 T-DIPOLE    0.5736         C  3 -- C  7         +14.4% ( 56.3%)     41.1%
 TRAVEL      0.0548         C  3 -- C  8         +12.3% ( 51.9%)     99.8%
 RED. MASS   2.1199         C  4 -- C  5         +10.9% ( 49.0%)     99.3%
 EFF. MASS  11.8843         C  3 -- C  4         +10.8% ( 48.8%)     24.6%

 VIBRATION   44   44A         ATOM PAIR      ENERGY CONTRIBUTION    RADIAL
 FREQ.      2457.51         C  9 -- C 10         +59.2% ( 97.0%)    100.0%
 T-DIPOLE    0.7411         C  4 -- C 10         +20.5% ( 57.1%)    100.0%
 TRAVEL      0.0478         C  2 -- C  9         +18.9% ( 54.8%)    100.0%
 RED. MASS   5.6078         C  3 -- C  4          +0.4% (  7.8%)     21.2%
 EFF. MASS  12.0084

 VIBRATION   45   45A         ATOM PAIR      ENERGY CONTRIBUTION    RADIAL
 FREQ.      2925.61         C  1 -- H 12         +49.0% ( 72.6%)     96.6%
 T-DIPOLE    0.0714         C  1 -- H 11         +48.9% ( 72.5%)     96.6%
 TRAVEL      0.1226         C  1 -- C  6          +1.1% ( 10.7%)      0.0%
 RED. MASS   0.5172         C  1 -- C  5          +1.1% ( 10.7%)      0.0%
 EFF. MASS   1.5329

 VIBRATION   46   46A         ATOM PAIR      ENERGY CONTRIBUTION    RADIAL
 FREQ.      3004.88         C  1 -- H 11         +48.7% ( 68.8%)     97.8%
 T-DIPOLE    0.1604         C  1 -- H 12         +48.7% ( 68.8%)     97.7%
 TRAVEL      0.1323         C  1 -- C  6          +0.7% (  8.1%)     21.8%
 RED. MASS   0.4729         C  1 -- C  5          +0.7% (  8.1%)     20.9%
 EFF. MASS   1.2820

 VIBRATION   47   47A         ATOM PAIR      ENERGY CONTRIBUTION    RADIAL
 FREQ.      3041.28         C  7 -- H 18         +72.5% ( 86.5%)    100.0%
 T-DIPOLE    0.2692         C  6 -- H 17         +24.8% ( 50.6%)     99.9%
 TRAVEL      0.1227         C  6 -- C  7          +1.2% ( 11.1%)      4.0%
 RED. MASS   0.5761         C  3 -- C  7          +1.0% ( 10.3%)     19.3%
 EFF. MASS   1.4720

 VIBRATION   48   48A         ATOM PAIR      ENERGY CONTRIBUTION    RADIAL
 FREQ.      3056.66         C  5 -- H 16         +93.8% ( 98.2%)    100.0%
 T-DIPOLE    0.3658         C  6 -- H 17          +1.9% ( 13.9%)     99.9%
 TRAVEL      0.1207         C  4 -- C  5          +1.5% ( 12.2%)     37.7%
 RED. MASS   0.8678         C  1 -- C  5          +1.4% ( 11.8%)     18.5%
 EFF. MASS   1.5135

 VIBRATION   49   49A         ATOM PAIR      ENERGY CONTRIBUTION    RADIAL
 FREQ.      3063.86         C  6 -- H 17         +69.8% ( 84.7%)    100.0%
 T-DIPOLE    0.3218         C  7 -- H 18         +23.4% ( 49.1%)     99.8%
 TRAVEL      0.1180         C  5 -- H 16          +2.7% ( 16.5%)    100.0%
 RED. MASS   0.5415         C  6 -- C  7          +1.9% ( 14.0%)     89.9%
 EFF. MASS   1.5817

 VIBRATION   50   50A         ATOM PAIR      ENERGY CONTRIBUTION    RADIAL
 FREQ.      3065.29         C  2 -- H 14         +49.1% ( 72.3%)     97.0%
 T-DIPOLE    0.0605         C  2 -- H 13         +48.9% ( 72.1%)     97.0%
 TRAVEL      0.1207         C  2 -- C  9          +1.0% ( 10.3%)      0.0%
 RED. MASS   0.5114         C  2 -- H 15          +0.9% ( 10.0%)      0.0%
 EFF. MASS   1.5111

 VIBRATION   51   51A         ATOM PAIR      ENERGY CONTRIBUTION    RADIAL
 FREQ.      3066.43         C  2 -- H 15         +64.6% ( 82.9%)     98.8%
 T-DIPOLE    0.0581         C  2 -- H 13         +17.3% ( 42.9%)     84.5%
 TRAVEL      0.1206         C  2 -- H 14         +17.1% ( 42.6%)     84.3%
 RED. MASS   0.5076         C  2 -- C  9          +1.0% ( 10.3%)      0.0%
 EFF. MASS   1.5118

 VIBRATION   52   52A         ATOM PAIR      ENERGY CONTRIBUTION    RADIAL
 FREQ.      3133.31         C  8 -- H 20         +83.8% ( 91.9%)     99.1%
 T-DIPOLE    0.3575         C  8 -- H 19         +14.7% ( 38.4%)     74.1%
 TRAVEL      0.1234         C  3 -- C  8          +1.4% ( 12.0%)     80.3%
 RED. MASS   0.7012
 EFF. MASS   1.4136

 VIBRATION   53   53A         ATOM PAIR      ENERGY CONTRIBUTION    RADIAL
 FREQ.      3140.24         C  8 -- H 19         +82.7% ( 92.9%)     99.5%
 T-DIPOLE    0.2337         C  8 -- H 20         +15.9% ( 40.8%)     86.7%
 TRAVEL      0.1168         C  3 -- C  8          +1.3% ( 11.8%)     10.6%
 RED. MASS   0.7361
 EFF. MASS   1.5744

 VIBRATION   54   54A         ATOM PAIR      ENERGY CONTRIBUTION    RADIAL
 FREQ.      3152.01         C  2 -- H 15         +33.7% ( 56.0%)     97.2%
 T-DIPOLE    0.1131         C  2 -- H 13         +33.0% ( 55.4%)     97.1%
 TRAVEL      0.1370         C  2 -- H 14         +33.0% ( 55.4%)     97.1%
 RED. MASS   0.3271         C  2 -- C  9          +0.3% (  5.7%)    100.0%
 EFF. MASS   1.1395

      SYMMETRY NUMBER FOR POINT-GROUP C1  =  1


          SYSTEM IS A GROUND STATE



 InChI=1S/C10H10/c1-3-6-10-8-5-4-7-9(10)2/h4,7-8H,2,5H2,1H3


          MOLECULE IS NOT LINEAR

          THERE ARE 54 GENUINE VIBRATIONS IN THIS SYSTEM
          THIS THERMODYNAMICS CALCULATION IS LIMITED TO
          MOLECULES WHICH HAVE NO INTERNAL ROTATIONS




                    CALCULATED THERMODYNAMIC PROPERTIES
                                          *
   TEMP. (K)   PARTITION FUNCTION   H.O.F.    ENTHALPY  HEAT CAPACITY ENTROPY
                                   KCAL/MOL   CAL/MOLE    CAL/K/MOL  CAL/K/MOL


 298.00  VIB.     0.4534D+03                  4276.7012    30.1510    26.5069
         ROT.     0.7115D+06                   888.2813     2.9808    29.7586
         INT.     0.3226D+09                  5164.9825    33.1319    56.2654
         TRA.     0.1436D+28                  1480.4688     4.9680    40.5022
         TOT.                       81.089    6645.4513    38.0999    96.7676

 200.00  VIB.     0.4390D+02                  1862.4873    19.2146    16.8280
         ROT.     0.3912D+06                   596.1620     2.9808    28.5699
         INT.     0.1717D+08                  2458.6493    22.1954    45.3979
         TRA.     0.7896D+27                   993.6033     4.9680    38.5210
         TOT.                       77.895    3452.2525    27.1635    83.9189

 210.00  VIB.     0.5552D+02                  2060.0048    20.2914    17.7915
         ROT.     0.4209D+06                   625.9700     2.9808    28.7153
         INT.     0.2336D+08                  2685.9749    23.2722    46.5068
         TRA.     0.8496D+27                  1043.2834     4.9680    38.7634
         TOT.                       78.172    3729.2583    28.2402    85.2702

 220.00  VIB.     0.7025D+02                  2268.3636    21.3826    18.7606
         ROT.     0.4513D+06                   655.7781     2.9808    28.8540
         INT.     0.3170D+08                  2924.1417    24.3634    47.6145
         TRA.     0.9110D+27                  1092.9636     4.9680    38.9945
         TOT.                       78.460    4017.1053    29.3314    86.6091

 230.00  VIB.     0.8897D+02                  2487.6987    22.4864    19.7354
         ROT.     0.4824D+06                   685.5862     2.9808    28.9865
         INT.     0.4292D+08                  3173.2850    25.4672    48.7218
         TRA.     0.9738D+27                  1142.6437     4.9680    39.2154
         TOT.                       78.759    4315.9287    30.4352    87.9372

 240.00  VIB.     0.1128D+03                  2718.1260    23.6006    20.7159
         ROT.     0.5142D+06                   715.3943     2.9808    29.1134
         INT.     0.5799D+08                  3433.5204    26.5815    49.8292
         TRA.     0.1038D+28                  1192.3239     4.9680    39.4268
         TOT.                       79.069    4625.8443    31.5495    89.2560

 250.00  VIB.     0.1431D+03                  2959.7392    24.7232    21.7020
         ROT.     0.5467D+06                   745.2024     2.9808    29.2350
         INT.     0.7821D+08                  3704.9416    27.7040    50.9371
         TRA.     0.1103D+28                  1242.0041     4.9680    39.6296
         TOT.                       79.390    4946.9457    32.6720    90.5667

 260.00  VIB.     0.1816D+03                  3212.6087    25.8515    22.6937
         ROT.     0.5798D+06                   775.0105     2.9808    29.3519
         INT.     0.1053D+09                  3987.6193    28.8323    52.0456
         TRA.     0.1170D+28                  1291.6842     4.9680    39.8245
         TOT.                       79.722    5279.3035    33.8004    91.8701

 270.00  VIB.     0.2308D+03                  3476.7813    26.9834    23.6905
         ROT.     0.6136D+06                   804.8186     2.9808    29.4644
         INT.     0.1416D+09                  4281.6000    29.9642    53.1550
         TRA.     0.1239D+28                  1341.3644     4.9680    40.0120
         TOT.                       80.066    5622.9644    34.9322    93.1669

 280.00  VIB.     0.2935D+03                  3752.2797    28.1163    24.6923
         ROT.     0.6480D+06                   834.6267     2.9808    29.5728
         INT.     0.1902D+09                  4586.9064    31.0971    54.2652
         TRA.     0.1308D+28                  1391.0445     4.9680    40.1926
         TOT.                       80.421    5977.9510    36.0651    94.4578

 290.00  VIB.     0.3736D+03                  4039.1031    29.2480    25.6987
         ROT.     0.6830D+06                   864.4348     2.9808    29.6774
         INT.     0.2552D+09                  4903.5380    32.2288    55.3762
         TRA.     0.1379D+28                  1440.7247     4.9680    40.3670
         TOT.                       80.787    6344.2627    37.1968    95.7431

 300.00  VIB.     0.4760D+03                  4337.2286    30.3763    26.7093
         ROT.     0.7186D+06                   894.2429     2.9808    29.7785
         INT.     0.3421D+09                  5231.4715    33.3572    56.4878
         TRA.     0.1451D+28                  1490.4049     4.9680    40.5354
         TOT.                       81.165    6721.8764    38.3252    97.0232

 310.00  VIB.     0.6069D+03                  4646.6119    31.4993    27.7237
         ROT.     0.7549D+06                   924.0510     2.9808    29.8762
         INT.     0.4581D+09                  5570.6629    34.4801    57.5999
         TRA.     0.1524D+28                  1540.0850     4.9680    40.6983
         TOT.                       81.554    7110.7479    39.4481    98.2982

 320.00  VIB.     0.7743D+03                  4967.1893    32.6149    28.7414
         ROT.     0.7917D+06                   953.8591     2.9808    29.9709
         INT.     0.6130D+09                  5921.0484    35.5957    58.7122
         TRA.     0.1598D+28                  1589.7652     4.9680    40.8560
         TOT.                       81.954    7510.8136    40.5637    99.5683

 330.00  VIB.     0.9888D+03                  5298.8792    33.7215    29.7619
         ROT.     0.8291D+06                   983.6672     2.9808    30.0626
         INT.     0.8198D+09                  6282.5464    36.7023    59.8245
         TRA.     0.1674D+28                  1639.4454     4.9680    41.0089
         TOT.                       82.365    7921.9918    41.6703   100.8334

 340.00  VIB.     0.1264D+04                  5641.5838    34.8176    30.7849
         ROT.     0.8671D+06                  1013.4753     2.9808    30.1516
         INT.     0.1096D+10                  6655.0591    37.7984    60.9365
         TRA.     0.1750D+28                  1689.1255     4.9680    41.1572
         TOT.                       82.787    8344.1847    42.7664   102.0937

 350.00  VIB.     0.1616D+04                  5995.1911    35.9018    31.8099
         ROT.     0.9056D+06                  1043.2834     2.9808    30.2380
         INT.     0.1463D+10                  7038.4745    38.8826    62.0479
         TRA.     0.1828D+28                  1738.8057     4.9680    41.3012
         TOT.                       83.220    8777.2802    43.8506   103.3491

 360.00  VIB.     0.2068D+04                  6359.5764    36.9730    32.8363
         ROT.     0.9447D+06                  1073.0915     2.9808    30.3220
         INT.     0.1953D+10                  7432.6679    39.9538    63.1583
         TRA.     0.1907D+28                  1788.4859     4.9680    41.4412
         TOT.                       83.664    9221.1538    44.9218   104.5994

 370.00  VIB.     0.2648D+04                  6734.6043    38.0302    33.8638
         ROT.     0.9843D+06                  1102.8996     2.9808    30.4036
         INT.     0.2606D+10                  7837.5040    41.0110    64.2674
         TRA.     0.1987D+28                  1838.1660     4.9680    41.5773
         TOT.                       84.119    9675.6700    45.9790   105.8447

 380.00  VIB.     0.3393D+04                  7120.1303    39.0725    34.8918
         ROT.     0.1024D+07                  1132.7077     2.9808    30.4831
         INT.     0.3476D+10                  8252.8380    42.0533    65.3750
         TRA.     0.2068D+28                  1887.8462     4.9680    41.7098
         TOT.                       84.584   10140.6842    47.0213   107.0848

 390.00  VIB.     0.4349D+04                  7516.0020    40.0992    35.9201
         ROT.     0.1065D+07                  1162.5158     2.9808    30.5606
         INT.     0.4633D+10                  8678.5178    43.0800    66.4806
         TRA.     0.2150D+28                  1937.5263     4.9680    41.8388
         TOT.                       85.059   10616.0441    48.0481   108.3195

 400.00  VIB.     0.5578D+04                  7922.0612    41.1099    36.9481
         ROT.     0.1106D+07                  1192.3239     2.9808    30.6360
         INT.     0.6172D+10                  9114.3851    44.0907    67.5841
         TRA.     0.2233D+28                  1987.2065     4.9680    41.9646
         TOT.                       85.545   11101.5916    49.0587   109.5487

   *: NOTE: HEATS OF FORMATION ARE RELATIVE TO THE
            ELEMENTS IN THEIR STANDARD STATE AT 298K
              (=  Standard Enthalpy of Formation).

            Hvib:  Zero-point energy is not included.
                   frequencies of less than zero cm-1 are not included.
            Hrot = (3/2)RT
            Htra = (3/2)RT + pV = (5/2)RT

            Heat capacity is Cp, not Cv

          For more information, see: HTTP://OpenMOPAC.net/Manual/thermochemistry.html


           FORCE CONSTANT IN CARTESIAN COORDINATES (Millidynes/A)

    ATOM   CHEMICAL       X               Y               Z
   NUMBER   SYMBOL  FORCE CONSTANT  FORCE CONSTANT  FORCE CONSTANT

      1       C        9.270771        9.236100        7.590756
      2       C       10.028553        8.097255        7.993910
      3       C       12.752552       13.539761        2.447380
      4       C       14.125908       12.858370        2.452080
      5       C       12.069392       12.701868        2.348699
      6       C       12.270178       12.591106        2.371988
      7       C       12.391723       13.152820        2.222470
      8       C       11.676054       12.674825        1.932244
      9       C       23.667806        2.613312        1.644724
     10       C       24.254878        2.998988        1.467677
     11       H        1.264224        1.452476        3.433706
     12       H        1.255597        1.462029        3.432834
     13       H        0.877884        1.956232        3.746457
     14       H        0.875025        1.932629        3.773024
     15       H        1.871561        4.079153        0.634852
     16       H        1.205883        4.705791        0.348563
     17       H        4.990035        0.914453        0.350049
     18       H        1.216564        4.675207        0.349202
     19       H        1.142669        4.988460        0.326711
     20       H        5.327320        0.787316        0.331847

 **********************
 *                    *
 * JOB ENDED NORMALLY *
 *                    *
 **********************



 TOTAL JOB TIME:             1.64 SECONDS

 == MOPAC DONE ==
