 *******************************************************************************
 ** Site#: 14399        For non-commercial use only    Version 18.184L 64BITS **
 *******************************************************************************
 ** Cite this program as: MOPAC2016, Version: 18.184L, James J. P. Stewart,   **
 ** Stewart Computational Chemistry, web: HTTP://OpenMOPAC.net. Days left:  18**
 *******************************************************************************
 **                                                                           **
 **                                MOPAC2016                                  **
 **                                                                           **
 *******************************************************************************

                              PM3 CALCULATION RESULTS

 *******************************************************************************
 *  CALCULATION DONE:                                Sat Jun 15 10:12:04 2019  *
 *  PM3        - The PM3 Hamiltonian to be used
 *  PRECISE    - CRITERIA TO BE INCREASED BY 100 TIMES
 *  NOSYM      - POINT-GROUP SYMMETRY SET TO C1
 *  THREADS=1  - MULTI-THREADING NOT USED
 *  T=         - A TIME OF 172800.0 SECONDS REQUESTED
 *  DUMP=N     - RESTART FILE WRITTEN EVERY  7200.000 SECONDS
 *******************************************************************************
pm3  precise nosym THREADS=1
 InChI=1S/C8H8/c1-2-8-6-4-3-5-7-8/h2-7H,1H2

   ATOM   CHEMICAL          X               Y               Z
  NUMBER   SYMBOL      (ANGSTROMS)     (ANGSTROMS)     (ANGSTROMS)
 
     1       C          0.42090000  *  -0.22020000  *  -0.36540000  *
     2       C         -0.43350000  *  -1.33670000  *  -0.35330000  *
     3       C         -0.14780000  *   1.07080000  *  -0.34040000  *
     4       C          1.88560000  *  -0.45020000  *  -0.43460000  *
     5       C         -1.82060000  *  -1.17060000  *  -0.29600000  *
     6       C         -2.37140000  *   0.11170000  *  -0.25880000  *
     7       C         -1.53630000  *   1.23030000  *  -0.28390000  *
     8       C          2.80510000  *   0.47260000  *  -0.14840000  *
     9       H          2.23660000  *  -1.44050000  *  -0.70060000  *
    10       H         -0.02630000  *  -2.34020000  *  -0.38130000  *
    11       H         -2.46870000  *  -2.03740000  *  -0.28150000  *
    12       H         -3.44540000  *   0.23860000  *  -0.21590000  *
    13       H         -1.96550000  *   2.22390000  *  -0.26570000  *
    14       H          0.46520000  *   1.95940000  *  -0.38470000  *
    15       H          2.54700000  *   1.47020000  *   0.17520000  *
    16       H          3.85520000  *   0.21820000  *  -0.21180000  *
 


          CARTESIAN COORDINATES 

    NO.       ATOM           X           Y           Z

     1         C          0.4209     -0.2202     -0.3654
     2         C         -0.4335     -1.3367     -0.3533
     3         C         -0.1478      1.0708     -0.3404
     4         C          1.8856     -0.4502     -0.4346
     5         C         -1.8206     -1.1706     -0.2960
     6         C         -2.3714      0.1117     -0.2588
     7         C         -1.5363      1.2303     -0.2839
     8         C          2.8051      0.4726     -0.1484
     9         H          2.2366     -1.4405     -0.7006
    10         H         -0.0263     -2.3402     -0.3813
    11         H         -2.4687     -2.0374     -0.2815
    12         H         -3.4454      0.2386     -0.2159
    13         H         -1.9655      2.2239     -0.2657
    14         H          0.4652      1.9594     -0.3847
    15         H          2.5470      1.4702      0.1752
    16         H          3.8552      0.2182     -0.2118

  H: (PM3): J. J. P. STEWART, J. COMP. CHEM. 10, 209 (1989).
  C: (PM3): J. J. P. STEWART, J. COMP. CHEM. 10, 209 (1989).

           Empirical Formula: C8 H8  =    16 atoms



      MOLECULAR POINT GROUP   :   C1  


      RHF CALCULATION, NO. OF DOUBLY OCCUPIED LEVELS = 20


          Geometry optimization using EF

          DIAGONAL MATRIX USED AS START HESSIAN

 CYCLE:     1 TIME:   0.004 TIME LEFT:  2.00D  GRAD.:    63.344 HEAT:  41.04212
 CYCLE:     2 TIME:   0.008 TIME LEFT:  2.00D  GRAD.:    21.699 HEAT:  40.15308
 CYCLE:     3 TIME:   0.004 TIME LEFT:  2.00D  GRAD.:    27.208 HEAT:  40.04196
 CYCLE:     4 TIME:   0.004 TIME LEFT:  2.00D  GRAD.:    17.735 HEAT:  39.86955
 CYCLE:     5 TIME:   0.004 TIME LEFT:  2.00D  GRAD.:    21.440 HEAT:  39.75303
 CYCLE:     6 TIME:   0.004 TIME LEFT:  2.00D  GRAD.:    20.163 HEAT:  39.61586
 CYCLE:     7 TIME:   0.004 TIME LEFT:  2.00D  GRAD.:    23.728 HEAT:  39.60233
 CYCLE:     8 TIME:   0.004 TIME LEFT:  2.00D  GRAD.:    20.004 HEAT:  39.55162
 CYCLE:     9 TIME:   0.004 TIME LEFT:  2.00D  GRAD.:     9.962 HEAT:  39.48962
 CYCLE:    10 TIME:   0.004 TIME LEFT:  2.00D  GRAD.:     7.201 HEAT:  39.47406
 CYCLE:    11 TIME:   0.004 TIME LEFT:  2.00D  GRAD.:     6.299 HEAT:  39.45627
 CYCLE:    12 TIME:   0.000 TIME LEFT:  2.00D  GRAD.:     7.131 HEAT:  39.45231
 CYCLE:    13 TIME:   0.004 TIME LEFT:  2.00D  GRAD.:     3.556 HEAT:  39.43880
 CYCLE:    14 TIME:   0.004 TIME LEFT:  2.00D  GRAD.:     6.000 HEAT:  39.43937
 CYCLE:    15 TIME:   0.000 TIME LEFT:  2.00D  GRAD.:     3.699 HEAT:  39.43261
 CYCLE:    16 TIME:   0.004 TIME LEFT:  2.00D  GRAD.:     3.310 HEAT:  39.42967
 CYCLE:    17 TIME:   0.004 TIME LEFT:  2.00D  GRAD.:     1.477 HEAT:  39.42475
 CYCLE:    18 TIME:   0.004 TIME LEFT:  2.00D  GRAD.:     2.519 HEAT:  39.42062
 CYCLE:    19 TIME:   0.000 TIME LEFT:  2.00D  GRAD.:     3.618 HEAT:  39.41422
 CYCLE:    20 TIME:   0.004 TIME LEFT:  2.00D  GRAD.:     3.076 HEAT:  39.40620
 CYCLE:    21 TIME:   0.004 TIME LEFT:  2.00D  GRAD.:     1.919 HEAT:  39.39785
 CYCLE:    22 TIME:   0.000 TIME LEFT:  2.00D  GRAD.:     3.120 HEAT:  39.39172
 CYCLE:    23 TIME:   0.004 TIME LEFT:  2.00D  GRAD.:     2.919 HEAT:  39.38229
 CYCLE:    24 TIME:   0.004 TIME LEFT:  2.00D  GRAD.:     3.294 HEAT:  39.36301
 CYCLE:    25 TIME:   0.004 TIME LEFT:  2.00D  GRAD.:     3.889 HEAT:  39.34526
 CYCLE:    26 TIME:   0.004 TIME LEFT:  2.00D  GRAD.:     3.601 HEAT:  39.32799
 CYCLE:    27 TIME:   0.000 TIME LEFT:  2.00D  GRAD.:     3.372 HEAT:  39.29903
 CYCLE:    28 TIME:   0.004 TIME LEFT:  2.00D  GRAD.:     4.972 HEAT:  39.27888
 CYCLE:    29 TIME:   0.004 TIME LEFT:  2.00D  GRAD.:     3.894 HEAT:  39.26110
 CYCLE:    30 TIME:   0.000 TIME LEFT:  2.00D  GRAD.:     3.199 HEAT:  39.24514
 CYCLE:    31 TIME:   0.004 TIME LEFT:  2.00D  GRAD.:     1.916 HEAT:  39.23324
 CYCLE:    32 TIME:   0.004 TIME LEFT:  2.00D  GRAD.:     1.781 HEAT:  39.22548
 CYCLE:    33 TIME:   0.004 TIME LEFT:  2.00D  GRAD.:     2.396 HEAT:  39.20936
 CYCLE:    34 TIME:   0.000 TIME LEFT:  2.00D  GRAD.:     2.538 HEAT:  39.19864
 CYCLE:    35 TIME:   0.004 TIME LEFT:  2.00D  GRAD.:     2.698 HEAT:  39.18162
 CYCLE:    36 TIME:   0.004 TIME LEFT:  2.00D  GRAD.:     2.907 HEAT:  39.16373
 CYCLE:    37 TIME:   0.004 TIME LEFT:  2.00D  GRAD.:     3.136 HEAT:  39.14859
 CYCLE:    38 TIME:   0.004 TIME LEFT:  2.00D  GRAD.:     2.185 HEAT:  39.13663
 CYCLE:    39 TIME:   0.000 TIME LEFT:  2.00D  GRAD.:     1.704 HEAT:  39.12754
 CYCLE:    40 TIME:   0.004 TIME LEFT:  2.00D  GRAD.:     1.645 HEAT:  39.11827
 CYCLE:    41 TIME:   0.004 TIME LEFT:  2.00D  GRAD.:     2.617 HEAT:  39.11494
 CYCLE:    42 TIME:   0.000 TIME LEFT:  2.00D  GRAD.:     1.309 HEAT:  39.10791
 CYCLE:    43 TIME:   0.004 TIME LEFT:  2.00D  GRAD.:     1.238 HEAT:  39.10410
 CYCLE:    44 TIME:   0.004 TIME LEFT:  2.00D  GRAD.:     1.455 HEAT:  39.09999
 CYCLE:    45 TIME:   0.004 TIME LEFT:  2.00D  GRAD.:     1.036 HEAT:  39.09724
 CYCLE:    46 TIME:   0.000 TIME LEFT:  2.00D  GRAD.:     0.716 HEAT:  39.09446
 CYCLE:    47 TIME:   0.004 TIME LEFT:  2.00D  GRAD.:     0.789 HEAT:  39.09310
 CYCLE:    48 TIME:   0.004 TIME LEFT:  2.00D  GRAD.:     0.600 HEAT:  39.09225
 CYCLE:    49 TIME:   0.004 TIME LEFT:  2.00D  GRAD.:     0.464 HEAT:  39.09174
 CYCLE:    50 TIME:   0.000 TIME LEFT:  2.00D  GRAD.:     0.169 HEAT:  39.09157
 CYCLE:    51 TIME:   0.004 TIME LEFT:  2.00D  GRAD.:     0.132 HEAT:  39.09150
 CYCLE:    52 TIME:   0.004 TIME LEFT:  2.00D  GRAD.:     0.123 HEAT:  39.09146
 CYCLE:    53 TIME:   0.004 TIME LEFT:  2.00D  GRAD.:     0.081 HEAT:  39.09145
 CYCLE:    54 TIME:   0.000 TIME LEFT:  2.00D  GRAD.:     0.035 HEAT:  39.09144

     GRADIENT =  0.03531  IS LESS THAN CUTOFF =  0.05000



 -------------------------------------------------------------------------------
 pm3  precise nosym THREADS=1
 InChI=1S/C8H8/c1-2-8-6-4-3-5-7-8/h2-7H,1H2



     GEOMETRY OPTIMISED USING EIGENVECTOR FOLLOWING (EF).     
     SCF FIELD WAS ACHIEVED                                   


                              PM3 CALCULATION
                                                       MOPAC2016 (Version: 18.184L)
                                                       Sat Jun 15 10:12:04 2019
                                                       No. of days remaining =  18




          FINAL HEAT OF FORMATION =         39.09144 KCAL/MOL =     163.55858 KJ/MOL


          TOTAL ENERGY            =      -1070.08959 EV
          ELECTRONIC ENERGY       =      -4883.02466 EV  POINT GROUP:     C1  
          CORE-CORE REPULSION     =       3812.93507 EV
          COSMO AREA              =        150.35 SQUARE ANGSTROMS
          COSMO VOLUME            =        143.37 CUBIC ANGSTROMS

          GRADIENT NORM           =          0.03531 = 0.00883 PER ATOM
          IONIZATION POTENTIAL    =          9.130522 EV
          HOMO LUMO ENERGIES (EV) =         -9.131 -0.122
          NO. OF FILLED LEVELS    =         20
          MOLECULAR WEIGHT        =        104.1512

          MOLECULAR DIMENSIONS (Angstroms)

            Atom       Atom       Distance
            H    16    H    12     7.24838
            H    13    H    10     4.63903
            H    15    H     9     0.00072


          SCF CALCULATIONS        =         60
 
          WALL-CLOCK TIME         =          0.176 SECONDS
          COMPUTATION TIME        =          0.157 SECONDS




   ATOM   CHEMICAL          X               Y               Z
  NUMBER   SYMBOL      (ANGSTROMS)     (ANGSTROMS)     (ANGSTROMS)
 
     1       C          0.41969085  *  -0.25822279  *  -0.31657312  *
     2       C         -0.44565338  *  -1.35544220  *  -0.37214189  *
     3       C         -0.11434375  *   1.03235631  *  -0.25023791  *
     4       C          1.86537147  *  -0.47201137  *  -0.32837977  *
     5       C         -1.82129327  *  -1.15927011  *  -0.36128050  *
     6       C         -2.34528650  *   0.12798188  *  -0.29502234  *
     7       C         -1.48980752  *   1.22361974  *  -0.23944309  *
     8       C          2.74447178  *   0.52691458  *  -0.27805325  *
     9       H          2.19912968  *  -1.51601730  *  -0.38183244  *
    10       H         -0.03802064  *  -2.37143955  *  -0.42428388  *
    11       H         -2.49485908  *  -2.02135607  *  -0.40500009  *
    12       H         -3.42959746  *   0.27826306  *  -0.28661781  *
    13       H         -1.89955849  *   2.23745480  *  -0.18705906  *
    14       H          0.57874769  *   1.88666657  *  -0.20709592  *
    15       H          2.42561231  *   1.56931850  *  -0.22473434  *
    16       H          3.81815641  *   0.37351702  *  -0.28661398  *

                             CARTESIAN COORDINATES

   1    C        0.419690850    -0.258222790    -0.316573124
   2    C       -0.445653385    -1.355442201    -0.372141891
   3    C       -0.114343753     1.032356311    -0.250237907
   4    C        1.865371475    -0.472011367    -0.328379771
   5    C       -1.821293267    -1.159270105    -0.361280502
   6    C       -2.345286496     0.127981880    -0.295022343
   7    C       -1.489807523     1.223619738    -0.239443093
   8    C        2.744471778     0.526914583    -0.278053248
   9    H        2.199129684    -1.516017301    -0.381832445
  10    H       -0.038020643    -2.371439545    -0.424283884
  11    H       -2.494859080    -2.021356072    -0.405000086
  12    H       -3.429597464     0.278263058    -0.286617809
  13    H       -1.899558489     2.237454802    -0.187059064
  14    H        0.578747693     1.886666571    -0.207095917
  15    H        2.425612309     1.569318499    -0.224734342
  16    H        3.818156406     0.373517016    -0.286613980


           Empirical Formula: C8 H8  =    16 atoms



      MOLECULAR POINT GROUP   :   C1  


                  EIGENVALUES  
 -40.03236 -33.80032 -29.74508 -27.78329 -22.60869 -21.48680 -19.49590 -18.09150
 -16.79107 -15.57376 -15.01169 -14.78456 -14.55754 -13.49464 -12.89626 -12.48346
 -12.04372 -11.23451  -9.78065  -9.13052  -0.12204   0.40249   1.53065   2.99143
   3.09966   3.32688   3.43163   3.51807   3.68579   3.85091   4.03888   4.08054
   4.82732   4.90009   5.02064   5.21597   5.55887   5.70164   6.20852   6.37205


              NET ATOMIC CHARGES AND DIPOLE CONTRIBUTIONS

  ATOM NO.   TYPE          CHARGE      No. of ELECS.   s-Pop       p-Pop       
    1          C          -0.051181        4.0512     1.16844     2.88274
    2          C          -0.089849        4.0898     1.17926     2.91059
    3          C          -0.098814        4.0988     1.18016     2.91866
    4          C          -0.090715        4.0907     1.17887     2.91184
    5          C          -0.103344        4.1033     1.17907     2.92428
    6          C          -0.100338        4.1003     1.17951     2.92083
    7          C          -0.099268        4.0993     1.17799     2.92128
    8          C          -0.158113        4.1581     1.18490     2.97321
    9          H           0.099169        0.9008     0.90083
   10          H           0.104777        0.8952     0.89522
   11          H           0.102532        0.8975     0.89747
   12          H           0.102519        0.8975     0.89748
   13          H           0.102646        0.8974     0.89735
   14          H           0.110879        0.8891     0.88912
   15          H           0.085269        0.9147     0.91473
   16          H           0.083832        0.9162     0.91617
 DIPOLE           X         Y         Z       TOTAL
 POINT-CHG.     0.004     0.021     0.001     0.022
 HYBRID         0.007    -0.003    -0.000     0.008
 SUM            0.011     0.018     0.001     0.021


          ATOMIC ORBITAL ELECTRON POPULATIONS

     Atom    s        px        py        pz   
    1  C   1.16844   0.93649   0.94460   1.00165
    2  C   1.17926   0.94285   0.97084   0.99690
    3  C   1.18016   0.95629   0.96441   0.99796
    4  C   1.17887   0.92718   0.98523   0.99943
    5  C   1.17907   0.95531   0.96696   1.00200
    6  C   1.17951   0.98130   0.94098   0.99855
    7  C   1.17799   0.94381   0.97651   1.00096
    8  C   1.18490   0.98548   0.98588   1.00186
    9  H   0.90083
   10  H   0.89522
   11  H   0.89747
   12  H   0.89748
   13  H   0.89735
   14  H   0.88912
   15  H   0.91473
   16  H   0.91617
 *******************************************************************************
 ** Site#: 14399        For non-commercial use only    Version 18.184L 64BITS **
 *******************************************************************************
 ** Cite this program as: MOPAC2016, Version: 18.184L, James J. P. Stewart,   **
 ** Stewart Computational Chemistry, web: HTTP://OpenMOPAC.net. Days left:  18**
 *******************************************************************************
 **                                                                           **
 **                                MOPAC2016                                  **
 **                                                                           **
 *******************************************************************************

                              PM3 CALCULATION RESULTS

 *******************************************************************************
 *  CALCULATION DONE:                                Sat Jun 15 10:12:04 2019  *
 *  PM3        - The PM3 Hamiltonian to be used
 *  OLDGEO     - PREVIOUS GEOMETRY TO BE USED
 *  PRECISE    - CRITERIA TO BE INCREASED BY 100 TIMES
 *  NOSYM      - POINT-GROUP SYMMETRY SET TO C1
 *  THREADS=1  - MULTI-THREADING NOT USED
 *  T=         - A TIME OF 172800.0 SECONDS REQUESTED
 *  DUMP=N     - RESTART FILE WRITTEN EVERY  7200.000 SECONDS
 *  THERMO     - THERMODYNAMIC QUANTITIES TO BE CALCULATED
 *******************************************************************************
oldgeo thermo nosym precise THREADS=1  pm3
 InChI=1S/C8H8/c1-2-8-6-4-3-5-7-8/h2-7H,1H2

   ATOM   CHEMICAL          X               Y               Z
  NUMBER   SYMBOL      (ANGSTROMS)     (ANGSTROMS)     (ANGSTROMS)
 
     1       C          0.41969085  *  -0.25822279  *  -0.31657312  *
     2       C         -0.44565338  *  -1.35544220  *  -0.37214189  *
     3       C         -0.11434375  *   1.03235631  *  -0.25023791  *
     4       C          1.86537147  *  -0.47201137  *  -0.32837977  *
     5       C         -1.82129327  *  -1.15927011  *  -0.36128050  *
     6       C         -2.34528650  *   0.12798188  *  -0.29502234  *
     7       C         -1.48980752  *   1.22361974  *  -0.23944309  *
     8       C          2.74447178  *   0.52691458  *  -0.27805325  *
     9       H          2.19912968  *  -1.51601730  *  -0.38183244  *
    10       H         -0.03802064  *  -2.37143955  *  -0.42428388  *
    11       H         -2.49485908  *  -2.02135607  *  -0.40500009  *
    12       H         -3.42959746  *   0.27826306  *  -0.28661781  *
    13       H         -1.89955849  *   2.23745480  *  -0.18705906  *
    14       H          0.57874769  *   1.88666657  *  -0.20709592  *
    15       H          2.42561231  *   1.56931850  *  -0.22473434  *
    16       H          3.81815641  *   0.37351702  *  -0.28661398  *
 


          CARTESIAN COORDINATES 

    NO.       ATOM           X           Y           Z

     1         C          0.4197     -0.2582     -0.3166
     2         C         -0.4457     -1.3554     -0.3721
     3         C         -0.1143      1.0324     -0.2502
     4         C          1.8654     -0.4720     -0.3284
     5         C         -1.8213     -1.1593     -0.3613
     6         C         -2.3453      0.1280     -0.2950
     7         C         -1.4898      1.2236     -0.2394
     8         C          2.7445      0.5269     -0.2781
     9         H          2.1991     -1.5160     -0.3818
    10         H         -0.0380     -2.3714     -0.4243
    11         H         -2.4949     -2.0214     -0.4050
    12         H         -3.4296      0.2783     -0.2866
    13         H         -1.8996      2.2375     -0.1871
    14         H          0.5787      1.8867     -0.2071
    15         H          2.4256      1.5693     -0.2247
    16         H          3.8182      0.3735     -0.2866

  H: (PM3): J. J. P. STEWART, J. COMP. CHEM. 10, 209 (1989).
  C: (PM3): J. J. P. STEWART, J. COMP. CHEM. 10, 209 (1989).

           Empirical Formula: C8 H8  =    16 atoms



      MOLECULAR POINT GROUP   :   C1  


      RHF CALCULATION, NO. OF DOUBLY OCCUPIED LEVELS = 20



          HEAT OF FORMATION =      39.091439 KCALS/MOLE


          CARTESIAN COORDINATE DERIVATIVES

   NUMBER  ATOM         X            Y            Z

     1       C      0.015779    -0.004121    -0.000997
     2       C     -0.011163    -0.008068     0.005189
     3       C     -0.001499     0.018439     0.000966
     4       C     -0.003727     0.008410    -0.007058
     5       C     -0.005088     0.004259     0.002925
     6       C      0.012427     0.004260    -0.005692
     7       C     -0.005057    -0.004061     0.009706
     8       C      0.010428     0.005038    -0.004676
     9       H     -0.003420    -0.004106     0.002279
    10       H     -0.003933    -0.008635    -0.004267
    11       H     -0.002374    -0.003269     0.000605
    12       H      0.001216     0.001164     0.001544
    13       H     -0.008470     0.001743    -0.009338
    14       H     -0.003431    -0.006088     0.003678
    15       H      0.006153    -0.000423     0.002377
    16       H      0.002159    -0.004540     0.002757
 


          GRADIENT NORM =   0.04445


          TIME FOR SCF CALCULATION =    0.00

          TIME FOR DERIVATIVES     =    0.00

          MOLECULAR WEIGHT =  104.15



          ROTATIONAL CONSTANTS IN CM(-1)

          A =    0.17077939   B =    0.05329492   C =    0.04061900



           PRINCIPAL MOMENTS OF INERTIA IN UNITS OF 10**(-40)*GRAM-CM**2

          A =      163.9119   B =      525.2428   C =      689.1547


          ORIENTATION OF MOLECULE IN FORCE CALCULATION

    NO.       ATOM         X         Y         Z

     1          C      -0.1613   -0.5672    0.0000
     2          C       1.2372   -0.5672    0.0000
     3          C      -0.8460    0.6520    0.0000
     4          C      -0.8876   -1.8353   -0.0000
     5          C       1.9341    0.6351    0.0000
     6          C       1.2457    1.8443   -0.0001
     7          C      -0.1454    1.8511   -0.0001
     8          C      -2.2173   -1.9070    0.0002
     9          H      -0.2729   -2.7444   -0.0002
    10          H       1.7842   -1.5169   -0.0001
    11          H       3.0290    0.6301    0.0001
    12          H       1.7984    2.7892   -0.0002
    13          H      -0.6894    2.8011   -0.0004
    14          H      -1.9469    0.6368    0.0001
    15          H      -2.8400   -1.0107    0.0004
    16          H      -2.7610   -2.8456    0.0002


    FIRST DERIVATIVES WILL BE USED IN THE CALCULATION OF SECOND DERIVATIVES

          ESTIMATED TIME TO COMPLETE CALCULATION =        0.75 SECONDS

    FOR POINT-GROUP C1   THERE ARE   1 UNIQUE SYMMETRY FUNCTIONS.

 STEP:   1 TIME =     0.02 SECS, INTEGRAL =      0.02 TIME LEFT: 172799.98
 STEP:   2 TIME =     0.01 SECS, INTEGRAL =      0.03 TIME LEFT: 172799.97
 STEP:   3 TIME =     0.01 SECS, INTEGRAL =      0.04 TIME LEFT: 172799.96
 STEP:   4 TIME =     0.02 SECS, INTEGRAL =      0.05 TIME LEFT: 172799.94
 STEP:   5 TIME =     0.01 SECS, INTEGRAL =      0.07 TIME LEFT: 172799.93
 STEP:   6 TIME =     0.01 SECS, INTEGRAL =      0.08 TIME LEFT: 172799.92
 STEP:   7 TIME =     0.01 SECS, INTEGRAL =      0.09 TIME LEFT: 172799.91
 STEP:   8 TIME =     0.01 SECS, INTEGRAL =      0.10 TIME LEFT: 172799.89
 STEP:   9 TIME =     0.01 SECS, INTEGRAL =      0.11 TIME LEFT: 172799.88
 STEP:  10 TIME =     0.01 SECS, INTEGRAL =      0.12 TIME LEFT: 172799.87
 STEP:  11 TIME =     0.01 SECS, INTEGRAL =      0.14 TIME LEFT: 172799.86
 STEP:  12 TIME =     0.01 SECS, INTEGRAL =      0.15 TIME LEFT: 172799.85
 STEP:  13 TIME =     0.01 SECS, INTEGRAL =      0.16 TIME LEFT: 172799.84
 STEP:  14 TIME =     0.01 SECS, INTEGRAL =      0.17 TIME LEFT: 172799.82
 STEP:  15 TIME =     0.01 SECS, INTEGRAL =      0.18 TIME LEFT: 172799.81
 STEP:  16 TIME =     0.02 SECS, INTEGRAL =      0.20 TIME LEFT: 172799.80
 STEP:  17 TIME =     0.01 SECS, INTEGRAL =      0.21 TIME LEFT: 172799.79
 STEP:  18 TIME =     0.01 SECS, INTEGRAL =      0.22 TIME LEFT: 172799.77
 STEP:  19 TIME =     0.01 SECS, INTEGRAL =      0.23 TIME LEFT: 172799.76
 STEP:  20 TIME =     0.01 SECS, INTEGRAL =      0.25 TIME LEFT: 172799.75
 STEP:  21 TIME =     0.01 SECS, INTEGRAL =      0.26 TIME LEFT: 172799.74
 STEP:  22 TIME =     0.01 SECS, INTEGRAL =      0.27 TIME LEFT: 172799.73
 STEP:  23 TIME =     0.01 SECS, INTEGRAL =      0.28 TIME LEFT: 172799.71
 STEP:  24 TIME =     0.01 SECS, INTEGRAL =      0.29 TIME LEFT: 172799.70
 STEP:  25 TIME =     0.01 SECS, INTEGRAL =      0.30 TIME LEFT: 172799.69
 STEP:  26 TIME =     0.01 SECS, INTEGRAL =      0.31 TIME LEFT: 172799.68
 STEP:  27 TIME =     0.01 SECS, INTEGRAL =      0.32 TIME LEFT: 172799.67
 STEP:  28 TIME =     0.01 SECS, INTEGRAL =      0.34 TIME LEFT: 172799.66
 STEP:  29 TIME =     0.01 SECS, INTEGRAL =      0.35 TIME LEFT: 172799.65
 STEP:  30 TIME =     0.01 SECS, INTEGRAL =      0.36 TIME LEFT: 172799.64
 STEP:  31 TIME =     0.01 SECS, INTEGRAL =      0.37 TIME LEFT: 172799.62
 STEP:  32 TIME =     0.01 SECS, INTEGRAL =      0.38 TIME LEFT: 172799.61
 STEP:  33 TIME =     0.01 SECS, INTEGRAL =      0.39 TIME LEFT: 172799.60
 STEP:  34 TIME =     0.01 SECS, INTEGRAL =      0.41 TIME LEFT: 172799.59
 STEP:  35 TIME =     0.01 SECS, INTEGRAL =      0.42 TIME LEFT: 172799.58
 STEP:  36 TIME =     0.01 SECS, INTEGRAL =      0.43 TIME LEFT: 172799.57
 STEP:  37 TIME =     0.01 SECS, INTEGRAL =      0.44 TIME LEFT: 172799.55
 STEP:  38 TIME =     0.01 SECS, INTEGRAL =      0.45 TIME LEFT: 172799.54
 STEP:  39 TIME =     0.02 SECS, INTEGRAL =      0.47 TIME LEFT: 172799.53
 STEP:  40 TIME =     0.01 SECS, INTEGRAL =      0.48 TIME LEFT: 172799.52
 STEP:  41 TIME =     0.01 SECS, INTEGRAL =      0.49 TIME LEFT: 172799.50
 STEP:  42 TIME =     0.01 SECS, INTEGRAL =      0.50 TIME LEFT: 172799.49
 STEP:  43 TIME =     0.01 SECS, INTEGRAL =      0.52 TIME LEFT: 172799.48
 STEP:  44 TIME =     0.01 SECS, INTEGRAL =      0.53 TIME LEFT: 172799.47
 STEP:  45 TIME =     0.02 SECS, INTEGRAL =      0.54 TIME LEFT: 172799.45
 STEP:  46 TIME =     0.01 SECS, INTEGRAL =      0.55 TIME LEFT: 172799.44
 STEP:  47 TIME =     0.01 SECS, INTEGRAL =      0.57 TIME LEFT: 172799.43
 STEP:  48 TIME =     0.01 SECS, INTEGRAL =      0.58 TIME LEFT: 172799.42

(To convert to Hartree/Bohr^2, multiply by (10^(-21) x N x a0^2)/(4.184 x 627.51) =  0.0642)


           FORCE MATRIX IN MILLIDYNES/ANGSTROM


                  C  1       C  2       C  3       C  4       C  5       C  6
 ------------------------------------------------------------------------------
     C    1  18.178197
     C    2   6.728714  17.450376
     C    3   6.756633   2.247288  17.438875
     C    4   5.317603   0.893815   0.807616  18.443491
     C    5   2.341840   7.114556   1.715367   0.120513  17.335495
     C    6   1.664660   2.376243   2.377789   0.027774   7.057515  17.393756
     C    7   2.286454   1.689904   7.185285   0.101578   2.424859   7.060117
     C    8   1.017794   0.075452   0.124418  10.773143   0.028954   0.011493
     H    9   0.442101   0.047990   0.041804   4.774560   0.002190   0.001397
     H   10   0.447051   4.826703   0.081872   0.053252   0.435783   0.089519
     H   11   0.090717   0.436321   0.010077   0.008138   4.861602   0.437183
     H   12   0.007599   0.087722   0.087715   0.009601   0.437438   4.869162
     H   13   0.090715   0.009933   0.435059   0.008437   0.088761   0.437185
     H   14   0.450202   0.082343   4.660081   0.051521   0.009840   0.088564
     H   15   0.102883   0.003902   0.091459   0.492268   0.003651   0.000748
     H   16   0.138189   0.007660   0.010024   0.460038   0.006801   0.000922


                  C  7       C  8       H  9       H 10       H 11       H 12
 ------------------------------------------------------------------------------
     C    7  17.443359
     C    8   0.012967  17.843714
     H    9   0.008099   0.453532   5.139320
     H   10   0.009949   0.003984   0.029338   5.199761
     H   11   0.088161   0.001623   0.000682   0.042422   5.226875
     H   12   0.436503   0.000912   0.000385   0.006774   0.041216   5.233398
     H   13   4.866071   0.000939   0.001303   0.007813   0.006936   0.040965
     H   14   0.434243   0.094704   0.002068   0.006721   0.007716   0.006767
     H   15   0.004429   4.911765   0.118048   0.001600   0.000343   0.000420
     H   16   0.002958   5.143934   0.077740   0.002620   0.000587   0.000388


                  H 13       H 14       H 15       H 16
 ------------------------------------------------------
     H   13   5.229830
     H   14   0.040785   5.047415
     H   15   0.000528   0.064255   5.292449
     H   16   0.000499   0.004748   0.390624   5.507657


          HEAT OF FORMATION =      39.091439 KCALS/MOLE

          ZERO POINT ENERGY      82.937 KCAL/MOL


           NORMAL COORDINATE ANALYSIS (Total motion = 1 Angstrom)


   Root No.       1         2         3         4         5         6         7         8

                 1 A       2 A       3 A       4 A       5 A       6 A       7 A       8 A   

                  95.0     197.2     275.1     364.6     435.9     472.8     578.1     606.2
  
           1   -0.0000    0.0000    0.0377    0.0000    0.0000   -0.0153    0.0410    0.0000
           2    0.0000   -0.0000   -0.0339   -0.0000   -0.0000    0.0364    0.0348    0.0000
           3   -0.0417   -0.0340   -0.0000   -0.0053    0.0646    0.0000   -0.0000   -0.0166
           4   -0.0000    0.0000    0.0365    0.0000    0.0000   -0.0237    0.0499    0.0000
           5   -0.0000    0.0000   -0.0038    0.0000   -0.0000   -0.0283   -0.0185   -0.0000
           6   -0.0042   -0.0539    0.0000    0.0669   -0.0037    0.0000   -0.0000    0.0264
           7   -0.0000   -0.0000    0.0110    0.0000    0.0000   -0.0476   -0.0205    0.0000
           8    0.0000   -0.0000   -0.0479   -0.0000   -0.0000    0.0210   -0.0072    0.0000
           9   -0.0495   -0.0486    0.0000   -0.0651   -0.0116    0.0000   -0.0000    0.0305
          10   -0.0000    0.0000   -0.0041   -0.0000    0.0000    0.0687   -0.0215   -0.0000
          11    0.0000   -0.0000   -0.0104   -0.0000   -0.0000    0.0073    0.0882    0.0000
          12   -0.0535    0.0590   -0.0000   -0.0048    0.0085   -0.0000    0.0000   -0.0334
          13   -0.0000    0.0000    0.0003    0.0000    0.0000   -0.0140    0.0356   -0.0000
          14   -0.0000   -0.0000    0.0206   -0.0000    0.0000   -0.0459   -0.0138   -0.0000
          15    0.0370   -0.0034    0.0000   -0.0617   -0.0362   -0.0000    0.0000   -0.0261
          16    0.0000   -0.0000   -0.0297   -0.0000   -0.0000   -0.0243   -0.0307   -0.0000
          17   -0.0000    0.0000    0.0037    0.0000    0.0000   -0.0517   -0.0474    0.0000
          18    0.0320    0.0563   -0.0000   -0.0027    0.0455   -0.0000    0.0000    0.0274
          19   -0.0000   -0.0000   -0.0292    0.0000   -0.0000   -0.0258   -0.0315   -0.0000
          20    0.0000    0.0000   -0.0297    0.0000   -0.0000    0.0045   -0.0119    0.0000
          21   -0.0156    0.0069    0.0000    0.0659   -0.0329    0.0000    0.0000   -0.0263
          22    0.0000   -0.0000   -0.0115   -0.0000   -0.0000    0.0728   -0.0174   -0.0000
          23    0.0000    0.0000    0.0857    0.0000    0.0000    0.0514   -0.0089   -0.0000
          24    0.0826    0.0059   -0.0000    0.0039   -0.0059   -0.0000    0.0000    0.0024
          25   -0.0000    0.0000   -0.0526   -0.0000   -0.0000    0.0832   -0.0187    0.0000
          26    0.0000   -0.0000   -0.0413   -0.0000    0.0000    0.0181    0.0883    0.0000
          27   -0.1696    0.1934   -0.0000   -0.0044   -0.0893    0.0000   -0.0000    0.0358
          28   -0.0000   -0.0000    0.0606    0.0000    0.0000   -0.0602    0.0300    0.0000
          29   -0.0000   -0.0000    0.0107   -0.0000    0.0000   -0.0497   -0.0298   -0.0000
          30   -0.0021   -0.0889    0.0000    0.1853   -0.0501    0.0000   -0.0000    0.0913
          31   -0.0000    0.0000    0.0005    0.0000    0.0000   -0.0146    0.0358   -0.0000
          32   -0.0000    0.0000    0.0535    0.0000    0.0000   -0.0483    0.0388    0.0000
          33    0.0735   -0.0001    0.0000   -0.1680   -0.1188   -0.0000    0.0000   -0.0970
          34    0.0000   -0.0000   -0.0547    0.0000   -0.0000   -0.0056   -0.0491    0.0000
          35   -0.0000    0.0000    0.0182    0.0000    0.0000   -0.0626   -0.0364    0.0000
          36    0.0646    0.1309   -0.0000   -0.0071    0.1289   -0.0000   -0.0000    0.0984
          37    0.0000   -0.0000   -0.0579   -0.0000    0.0000    0.0108   -0.0167   -0.0000
          38    0.0000    0.0000   -0.0463    0.0000   -0.0000    0.0252   -0.0040   -0.0000
          39   -0.0227    0.0207    0.0000    0.1820   -0.1068    0.0000    0.0000   -0.1014
          40   -0.0000   -0.0000    0.0095   -0.0000   -0.0000   -0.0477   -0.0196    0.0000
          41    0.0000   -0.0000   -0.0661   -0.0000   -0.0000    0.0184   -0.0555   -0.0000
          42   -0.0708   -0.0814    0.0000   -0.1650   -0.0630   -0.0000   -0.0000    0.0863
          43    0.0001   -0.0000    0.0487   -0.0000    0.0000    0.1152   -0.1357   -0.0000
          44    0.0000    0.0000    0.1300   -0.0000    0.0000    0.0833   -0.0955    0.0000
          45    0.1929   -0.1257   -0.0000   -0.0006    0.0986   -0.0000    0.0000   -0.1138
          46    0.0000   -0.0000   -0.0851   -0.0000   -0.0000    0.0280    0.1145    0.0000
          47    0.0000    0.0000    0.1289   -0.0000    0.0000    0.0798   -0.0876   -0.0000
          48    0.0876    0.0909    0.0000    0.0113   -0.1356    0.0000   -0.0001    0.1869


   Root No.       9        10        11        12        13        14        15        16

                 9 A      10 A      11 A      12 A      13 A      14 A      15 A      16 A   

                 631.5     684.6     787.0     846.1     853.3     928.0     954.2     982.8
  
           1    0.0356    0.0000    0.0000    0.0032   -0.0000   -0.0000   -0.0000    0.0000
           2   -0.0159    0.0000    0.0000    0.0063   -0.0000   -0.0000   -0.0000    0.0000
           3    0.0000    0.0499    0.0466   -0.0000   -0.0018   -0.0109    0.0339   -0.0001
           4    0.0265    0.0000    0.0000    0.0250   -0.0000   -0.0000    0.0000    0.0000
           5   -0.0942   -0.0000   -0.0000    0.0187   -0.0000    0.0000    0.0000   -0.0000
           6   -0.0000   -0.0027   -0.0111    0.0000    0.0325    0.0253   -0.0256    0.0411
           7    0.0916    0.0000   -0.0000    0.0027   -0.0000    0.0000   -0.0000   -0.0000
           8    0.0265    0.0000   -0.0000    0.0333   -0.0000    0.0000   -0.0000   -0.0000
           9   -0.0000   -0.0047   -0.0079   -0.0000   -0.0248    0.0205   -0.0241   -0.0428
          10   -0.0006   -0.0000   -0.0000   -0.0122    0.0000   -0.0000   -0.0000   -0.0000
          11    0.0068    0.0000    0.0000   -0.0499    0.0000   -0.0000   -0.0000    0.0000
          12    0.0000   -0.0314   -0.0130    0.0000   -0.0024   -0.0313   -0.0286    0.0060
          13   -0.0966    0.0000   -0.0000    0.0671   -0.0000    0.0000   -0.0000   -0.0000
          14   -0.0269   -0.0000   -0.0000   -0.0005   -0.0000   -0.0000    0.0000    0.0000
          15    0.0000    0.0171   -0.0183    0.0000    0.0294   -0.0067   -0.0067   -0.0436
          16   -0.0364   -0.0000    0.0000   -0.0296    0.0000   -0.0000    0.0000    0.0000
          17    0.0189   -0.0000    0.0000   -0.0516    0.0000   -0.0000    0.0000    0.0000
          18   -0.0000   -0.0038   -0.0300    0.0000   -0.0032   -0.0246    0.0306    0.0064
          19   -0.0267   -0.0000   -0.0000   -0.0335    0.0000   -0.0000    0.0000    0.0000
          20    0.0998    0.0000   -0.0000    0.0606   -0.0000    0.0000   -0.0000   -0.0000
          21   -0.0000    0.0174   -0.0171   -0.0000   -0.0331    0.0072   -0.0088    0.0369
          22    0.0023   -0.0000    0.0000   -0.0217    0.0000   -0.0000   -0.0000   -0.0000
          23   -0.0093   -0.0000   -0.0000   -0.0338    0.0000    0.0000    0.0000   -0.0000
          24   -0.0000    0.0015   -0.0024   -0.0000   -0.0019   -0.0013   -0.0149   -0.0039
          25   -0.0084   -0.0000    0.0000   -0.0119    0.0000    0.0000    0.0000    0.0001
          26    0.0003    0.0000    0.0000   -0.0491    0.0000   -0.0001   -0.0000    0.0001
          27   -0.0000   -0.0110   -0.0466   -0.0000    0.0226    0.2508    0.1713   -0.0355
          28    0.0601   -0.0000    0.0000    0.0100   -0.0000   -0.0000    0.0000    0.0000
          29   -0.0745    0.0000   -0.0000    0.0100    0.0000    0.0000   -0.0000   -0.0000
          30   -0.0000   -0.1755    0.0249   -0.0001   -0.2072   -0.1151    0.1094   -0.1758
          31   -0.0960    0.0000   -0.0000    0.0690   -0.0000    0.0000   -0.0000   -0.0000
          32    0.0153    0.0000    0.0000    0.0657   -0.0000    0.0000    0.0000    0.0000
          33    0.0001   -0.0522    0.2030   -0.0001   -0.1971    0.0301    0.0392    0.1867
          34    0.0503    0.0000   -0.0000   -0.0277    0.0000   -0.0000    0.0000   -0.0000
          35   -0.0317   -0.0000    0.0000   -0.0525    0.0000    0.0000   -0.0000    0.0000
          36   -0.0000   -0.1279    0.2141    0.0000    0.0239    0.1329   -0.1505   -0.0260
          37   -0.0591   -0.0000   -0.0000    0.0272   -0.0000   -0.0000    0.0000    0.0001
          38    0.0809   -0.0000    0.0000    0.0973    0.0000   -0.0000    0.0000   -0.0000
          39    0.0001   -0.0472    0.1926    0.0002    0.2130   -0.0400    0.0484   -0.1629
          40    0.0918   -0.0000   -0.0000    0.0022    0.0000   -0.0000    0.0000   -0.0000
          41   -0.0177   -0.0000   -0.0000    0.0134    0.0000    0.0000    0.0000    0.0000
          42    0.0000   -0.1699    0.0082    0.0002    0.1883   -0.1105    0.1063    0.2022
          43   -0.0089    0.0000    0.0000    0.1020   -0.0000   -0.0000   -0.0000    0.0001
          44   -0.0185    0.0000    0.0000    0.0580   -0.0000   -0.0000   -0.0000    0.0001
          45    0.0001   -0.1102   -0.0632    0.0000    0.0139    0.1520    0.1384   -0.0086
          46    0.0232    0.0000    0.0000   -0.1805    0.0001    0.0000    0.0000   -0.0002
          47   -0.0219   -0.0000    0.0000    0.0588   -0.0000   -0.0000   -0.0000    0.0001
          48   -0.0002    0.1775    0.1011    0.0000    0.0048   -0.0409    0.0632    0.0216


   Root No.      17        18        19        20        21        22        23        24

                17 A      18 A      19 A      20 A      21 A      22 A      23 A      24 A   

                 998.7    1016.3    1038.6    1054.5    1109.4    1122.0    1154.8    1163.4
  
           1   -0.0114    0.0000   -0.0000    0.0028    0.0076   -0.0190   -0.0111   -0.0074
           2   -0.0268    0.0000   -0.0000   -0.0031   -0.0053   -0.0157    0.0063   -0.0008
           3   -0.0000   -0.0143   -0.0246   -0.0000    0.0000   -0.0000    0.0000    0.0000
           4   -0.0277    0.0000   -0.0000    0.0271   -0.0038   -0.0226    0.0008    0.0166
           5    0.0325   -0.0000    0.0000   -0.0233    0.0285    0.0226    0.0005   -0.0097
           6    0.0000    0.0242    0.0166    0.0000    0.0000    0.0000   -0.0000   -0.0000
           7    0.0306   -0.0000    0.0001   -0.0447   -0.0125    0.0429   -0.0005   -0.0123
           8   -0.0015    0.0000   -0.0000    0.0148   -0.0129   -0.0079   -0.0042    0.0158
           9   -0.0000    0.0269    0.0223    0.0000    0.0000    0.0000   -0.0000   -0.0000
          10    0.0081   -0.0000    0.0000    0.0028   -0.0012   -0.0041    0.0005   -0.0007
          11   -0.0277    0.0000    0.0000   -0.0274    0.0067    0.0182   -0.0023   -0.0106
          12   -0.0000   -0.0099    0.0416    0.0000   -0.0000   -0.0000    0.0000    0.0000
          13    0.0250   -0.0000    0.0000   -0.0167   -0.0168   -0.0165    0.0041    0.0107
          14   -0.0010   -0.0000   -0.0000    0.0090    0.0030   -0.0013    0.0001   -0.0097
          15   -0.0001   -0.0368   -0.0138   -0.0000   -0.0000   -0.0000   -0.0000    0.0000
          16   -0.0124    0.0000   -0.0000    0.0042    0.0050   -0.0246    0.0047    0.0030
          17   -0.0245    0.0000   -0.0000    0.0030   -0.0101   -0.0405   -0.0007    0.0012
          18    0.0001    0.0416    0.0134    0.0000    0.0000    0.0000    0.0000   -0.0000
          19   -0.0164    0.0000   -0.0000    0.0121   -0.0122    0.0169    0.0049   -0.0054
          20    0.0273   -0.0000    0.0000   -0.0042    0.0082   -0.0178   -0.0021    0.0038
          21   -0.0000   -0.0387   -0.0173   -0.0000   -0.0000    0.0000    0.0000    0.0000
          22    0.0075   -0.0000   -0.0000   -0.0024   -0.0032    0.0004    0.0010   -0.0036
          23    0.0454   -0.0000    0.0000    0.0140   -0.0010    0.0006    0.0013    0.0037
          24    0.0001    0.0255   -0.0565   -0.0000    0.0000    0.0000    0.0000   -0.0000
          25   -0.0816    0.0001    0.0000   -0.0699    0.0352    0.1321   -0.0045    0.0201
          26   -0.0897    0.0001    0.0000   -0.0770    0.0320    0.1104   -0.0060    0.0033
          27   -0.0001    0.0237   -0.1080   -0.0001    0.0000    0.0000   -0.0000   -0.0000
          28   -0.0516    0.0000   -0.0001    0.1144    0.1581    0.1046   -0.1116    0.1981
          29    0.0205   -0.0000    0.0000    0.0262    0.1241    0.0992   -0.0632    0.0934
          30   -0.0002   -0.0729   -0.0518   -0.0001   -0.0000    0.0000    0.0000    0.0000
          31    0.0252   -0.0000    0.0000   -0.0160   -0.0168   -0.0176    0.0065    0.0122
          32   -0.0409    0.0000   -0.0001    0.1427   -0.1141    0.1511    0.2975   -0.1274
          33    0.0003    0.1246    0.0394    0.0000    0.0000   -0.0000    0.0000    0.0000
          34   -0.0011   -0.0000    0.0000    0.0273    0.2512   -0.0663    0.2365    0.0019
          35   -0.0322    0.0000   -0.0000   -0.0088   -0.1549   -0.0196   -0.1356    0.0005
          36   -0.0002   -0.1422   -0.0389   -0.0000    0.0000    0.0000    0.0000    0.0000
          37   -0.0200   -0.0000   -0.0001    0.1692    0.0473    0.0829   -0.1834   -0.2306
          38    0.0263   -0.0000   -0.0000    0.0861    0.0413    0.0174   -0.1114   -0.1232
          39    0.0000    0.1323    0.0541    0.0001   -0.0000    0.0000   -0.0000   -0.0000
          40    0.0327   -0.0000    0.0000   -0.0456   -0.0134    0.0461   -0.0016   -0.0141
          41   -0.0045    0.0000   -0.0001    0.0975   -0.1423    0.1206    0.0346    0.2448
          42    0.0001   -0.0862   -0.0897   -0.0001   -0.0000   -0.0000    0.0000    0.0000
          43   -0.1626    0.0001    0.0000   -0.0672    0.0005    0.0280   -0.0013   -0.0155
          44   -0.0818    0.0001   -0.0000   -0.0346    0.0036    0.0197   -0.0008   -0.0068
          45   -0.0003   -0.0936    0.2050    0.0001   -0.0000   -0.0000   -0.0000    0.0000
          46    0.2189   -0.0002    0.0001    0.0623   -0.0206    0.0062    0.0069    0.0179
          47   -0.0802    0.0001   -0.0000   -0.0257    0.0093   -0.0007   -0.0021   -0.0094
          48   -0.0002   -0.1067    0.2070    0.0001   -0.0000   -0.0000   -0.0000    0.0000


   Root No.      25        26        27        28        29        30        31        32

                25 A      26 A      27 A      28 A      29 A      30 A      31 A      32 A   

                1212.9    1238.4    1310.7    1393.1    1396.3    1543.3    1608.2    1778.9
  
           1   -0.0196    0.0087   -0.0140    0.0325    0.0992    0.0681    0.0502   -0.1156
           2   -0.0018   -0.0125   -0.0247    0.0540   -0.0555   -0.0395    0.0931    0.0704
           3   -0.0000   -0.0000    0.0000    0.0000   -0.0000    0.0000   -0.0000    0.0000
           4    0.0048    0.0222   -0.0014    0.0284   -0.0958    0.0029   -0.0505    0.0869
           5   -0.0225    0.0029   -0.0161    0.0280   -0.0584    0.0641    0.0052    0.0041
           6   -0.0000   -0.0000   -0.0000   -0.0000    0.0000   -0.0000    0.0000   -0.0000
           7   -0.0154   -0.0030   -0.0114    0.0079    0.0046   -0.0520    0.0336    0.0428
           8    0.0055   -0.0202   -0.0072    0.0379    0.1081   -0.0411   -0.0362   -0.0660
           9    0.0000    0.0000    0.0000   -0.0000   -0.0000    0.0000    0.0000    0.0000
          10   -0.0025   -0.0032   -0.0328   -0.0098   -0.0026    0.0010    0.0102   -0.0172
          11   -0.0333   -0.0101    0.0115   -0.0518    0.0007    0.0086   -0.0341   -0.0105
          12   -0.0000   -0.0000    0.0000   -0.0000    0.0000   -0.0000   -0.0000    0.0000
          13    0.0182    0.0050    0.0218   -0.0457   -0.0009   -0.0494    0.0135   -0.0475
          14   -0.0107    0.0125    0.0017    0.0155    0.1165   -0.0457   -0.0706    0.0585
          15    0.0000   -0.0000    0.0000   -0.0000   -0.0000   -0.0000    0.0000    0.0000
          16    0.0176   -0.0173    0.0095   -0.0196    0.0995    0.0650    0.0214    0.1208
          17    0.0151    0.0163    0.0160   -0.0366   -0.0596   -0.0331    0.0462   -0.0668
          18   -0.0000   -0.0000   -0.0000    0.0000    0.0000    0.0000   -0.0000    0.0000
          19    0.0015   -0.0138   -0.0157    0.0376   -0.1000    0.0060   -0.0667   -0.0854
          20    0.0193   -0.0017    0.0120   -0.0283   -0.0563    0.0655   -0.0282    0.0031
          21   -0.0000   -0.0000   -0.0000    0.0000    0.0000   -0.0000    0.0000   -0.0000
          22   -0.0176   -0.0118   -0.0089   -0.0353   -0.0059   -0.0115   -0.0328    0.0221
          23    0.0235    0.0069   -0.0039    0.0063   -0.0020   -0.0036   -0.0000    0.0044
          24    0.0000    0.0000    0.0000    0.0000   -0.0000    0.0000    0.0000   -0.0000
          25    0.2457    0.1473   -0.0116    0.0545    0.0945    0.0295    0.0092   -0.0315
          26    0.1306    0.0889    0.0285   -0.0128    0.0613    0.0266   -0.0401   -0.0133
          27   -0.0000   -0.0000    0.0000   -0.0000    0.0000   -0.0000   -0.0000   -0.0000
          28    0.0549   -0.1403    0.0225   -0.0625   -0.0293   -0.0884    0.0575   -0.0014
          29    0.0034   -0.0935   -0.0047   -0.0212   -0.0216    0.0214    0.0761   -0.0535
          30   -0.0000    0.0000    0.0000    0.0000   -0.0000    0.0000    0.0000   -0.0000
          31    0.0208    0.0049    0.0249   -0.0531   -0.0014   -0.0580    0.0169   -0.0568
          32    0.0674   -0.1033    0.0134   -0.0673    0.0245    0.0724    0.0816   -0.0227
          33   -0.0000    0.0000   -0.0000    0.0000   -0.0001   -0.0000    0.0000   -0.0000
          34   -0.0494    0.0918    0.0222   -0.0295    0.0159   -0.1078    0.0348   -0.0480
          35    0.0573   -0.0467    0.0119   -0.0392   -0.0111    0.0689    0.0492    0.0327
          36   -0.0000    0.0000    0.0000    0.0000   -0.0000   -0.0000   -0.0000   -0.0000
          37   -0.0426    0.0848    0.0164   -0.0395   -0.0189   -0.0826    0.0691   -0.0014
          38   -0.0041    0.0560    0.0332   -0.0802   -0.0103    0.0263    0.0516    0.0609
          39   -0.0000   -0.0000   -0.0000    0.0000    0.0001   -0.0000   -0.0000   -0.0000
          40   -0.0171   -0.0031   -0.0155    0.0108    0.0072   -0.0613    0.0410    0.0484
          41   -0.1663    0.1792   -0.0087   -0.0644    0.0450    0.0751    0.0877    0.0283
          42    0.0000   -0.0000    0.0000    0.0000   -0.0000    0.0000    0.0000   -0.0000
          43   -0.0895   -0.0319    0.3014    0.0526   -0.0231    0.0131    0.0007   -0.0019
          44   -0.0247   -0.0075    0.2054    0.0660   -0.0142    0.0140    0.0244   -0.0151
          45    0.0000   -0.0000   -0.0000   -0.0000    0.0000   -0.0000   -0.0000    0.0000
          46    0.0316    0.0048    0.2703    0.1124   -0.0219   -0.0025    0.0224    0.0084
          47   -0.0057   -0.0032   -0.1526   -0.0787    0.0056   -0.0097   -0.0364    0.0164
          48    0.0000   -0.0000   -0.0001   -0.0000    0.0000   -0.0000   -0.0000   -0.0000


   Root No.      33        34        35        36        37        38        39        40

                33 A      34 A      35 A      36 A      37 A      38 A      39 A      40 A   

                1800.1    1849.8    3003.4    3035.8    3051.8    3059.1    3067.1    3078.9
  
           1   -0.0312   -0.0541    0.0008    0.0005   -0.0014   -0.0007    0.0009    0.0006
           2   -0.0734   -0.0387   -0.0020    0.0002   -0.0001   -0.0005   -0.0001    0.0005
           3   -0.0000    0.0000    0.0000   -0.0000    0.0000    0.0000    0.0000   -0.0000
           4    0.0875    0.0205   -0.0002    0.0015    0.0198    0.0077   -0.0070   -0.0038
           5    0.0809   -0.0008    0.0007   -0.0037   -0.0329   -0.0138    0.0143    0.0084
           6    0.0000    0.0000    0.0000   -0.0000   -0.0000   -0.0000    0.0000    0.0000
           7    0.0222    0.0083   -0.0593    0.0012   -0.0007   -0.0027   -0.0028    0.0023
           8    0.1267    0.0123   -0.0008    0.0007    0.0003   -0.0006   -0.0012    0.0009
           9   -0.0000    0.0000    0.0000   -0.0000   -0.0000    0.0000    0.0000   -0.0000
          10   -0.0193    0.2140    0.0014    0.0406   -0.0012   -0.0002    0.0003   -0.0004
          11    0.0091    0.0578   -0.0005   -0.0535    0.0020    0.0007   -0.0004   -0.0002
          12    0.0000   -0.0000   -0.0000   -0.0000    0.0000    0.0000   -0.0000    0.0000
          13   -0.0229   -0.0035   -0.0002   -0.0009   -0.0240    0.0095   -0.0269   -0.0214
          14   -0.1136    0.0068    0.0001    0.0002    0.0012    0.0015   -0.0008    0.0008
          15    0.0000   -0.0000    0.0000   -0.0000   -0.0000    0.0000   -0.0000   -0.0000
          16    0.0173    0.0122    0.0002   -0.0001    0.0054   -0.0139    0.0043   -0.0136
          17    0.0435   -0.0055   -0.0001    0.0000    0.0081   -0.0245    0.0031   -0.0235
          18   -0.0000   -0.0000   -0.0000    0.0000   -0.0000    0.0000   -0.0000    0.0000
          19   -0.0800   -0.0139    0.0046   -0.0002    0.0019   -0.0098   -0.0141    0.0106
          20   -0.0781   -0.0056   -0.0034    0.0002   -0.0036    0.0194    0.0249   -0.0166
          21    0.0000    0.0000    0.0000   -0.0000    0.0000   -0.0000   -0.0000    0.0000
          22    0.0253   -0.1805   -0.0072   -0.0016   -0.0000   -0.0009   -0.0014    0.0032
          23    0.0010   -0.0133    0.0084    0.0037   -0.0001    0.0010    0.0016   -0.0035
          24   -0.0000    0.0000    0.0000    0.0000   -0.0000    0.0000    0.0000   -0.0000
          25   -0.0024   -0.0007   -0.0075   -0.4255    0.0170    0.0055   -0.0033   -0.0013
          26    0.0251   -0.1253    0.0131    0.6383   -0.0231   -0.0072    0.0042    0.0011
          27   -0.0000   -0.0000    0.0000    0.0001   -0.0000   -0.0000    0.0000    0.0000
          28   -0.0617   -0.0059    0.0076   -0.0240   -0.2221   -0.0890    0.0862    0.0465
          29   -0.0001   -0.0218   -0.0129    0.0367    0.3793    0.1548   -0.1521   -0.0827
          30   -0.0000   -0.0000   -0.0000    0.0000    0.0000    0.0000   -0.0000   -0.0000
          31   -0.0264   -0.0036    0.0020    0.0109    0.2833   -0.1083    0.3040    0.2315
          32    0.0425   -0.0046    0.0000   -0.0003   -0.0032   -0.0025   -0.0001   -0.0022
          33    0.0000   -0.0000    0.0000    0.0000    0.0000   -0.0000    0.0000    0.0000
          34    0.0304   -0.0014    0.0033    0.0002   -0.0580    0.1646   -0.0310    0.1493
          35    0.0458    0.0027    0.0045    0.0004   -0.0963    0.2831   -0.0460    0.2556
          36   -0.0000    0.0000    0.0000   -0.0000    0.0000   -0.0000    0.0000   -0.0000
          37    0.0506    0.0029   -0.0409    0.0016   -0.0225    0.1229    0.1614   -0.1068
          38   -0.0095    0.0049    0.0635   -0.0027    0.0407   -0.2187   -0.2812    0.1834
          39    0.0000   -0.0000   -0.0000    0.0000   -0.0000    0.0001    0.0001   -0.0000
          40    0.0284    0.0087    0.6725   -0.0132    0.0044    0.0258    0.0260   -0.0170
          41   -0.0577   -0.0157   -0.0015    0.0005   -0.0003    0.0013    0.0016   -0.0008
          42   -0.0000    0.0000   -0.0001    0.0000   -0.0000   -0.0000   -0.0000    0.0000
          43   -0.0010   -0.0090    0.0767   -0.0109    0.0009    0.0097    0.0148   -0.0326
          44   -0.0212    0.1413   -0.1021    0.0113   -0.0011   -0.0135   -0.0208    0.0460
          45   -0.0000    0.0000   -0.0000    0.0000   -0.0000   -0.0000   -0.0000    0.0000
          46   -0.0035   -0.0254    0.0001   -0.0296    0.0013    0.0007    0.0001   -0.0010
          47    0.0221   -0.1352    0.0059   -0.0603    0.0026    0.0020    0.0012   -0.0041
          48   -0.0000   -0.0000    0.0000    0.0000   -0.0000    0.0000   -0.0000   -0.0000


   Root No.      41        42

                41 A      42 A   

                3085.5    3152.1
  
           1    0.0004    0.0008
           2   -0.0006    0.0003
           3   -0.0000   -0.0000
           4    0.0006   -0.0002
           5   -0.0010    0.0000
           6   -0.0000    0.0000
           7   -0.0107   -0.0003
           8   -0.0003    0.0001
           9    0.0000    0.0000
          10   -0.0049    0.0086
          11    0.0002   -0.0043
          12    0.0000   -0.0000
          13    0.0023    0.0000
          14   -0.0002   -0.0000
          15    0.0000   -0.0000
          16    0.0021    0.0000
          17    0.0032    0.0001
          18   -0.0000    0.0000
          19   -0.0026   -0.0000
          20    0.0050    0.0001
          21   -0.0000   -0.0000
          22    0.0344   -0.0361
          23   -0.0370   -0.0610
          24   -0.0000    0.0000
          25    0.0028   -0.0381
          26   -0.0084    0.0498
          27   -0.0000    0.0000
          28   -0.0058    0.0001
          29    0.0104   -0.0005
          30    0.0000    0.0000
          31   -0.0245   -0.0004
          32    0.0003    0.0000
          33   -0.0000   -0.0000
          34   -0.0204   -0.0004
          35   -0.0345   -0.0007
          36    0.0000    0.0000
          37    0.0293    0.0004
          38   -0.0522   -0.0008
          39    0.0000    0.0000
          40    0.1215    0.0053
          41    0.0037    0.0015
          42   -0.0000   -0.0000
          43   -0.3461   -0.0390
          44    0.4932    0.0286
          45    0.0001    0.0000
          46   -0.0141    0.3973
          47   -0.0487    0.6930
          48   -0.0000   -0.0000


           MASS-WEIGHTED COORDINATE ANALYSIS (NORMAL COORDINATES)


   Root No.       1         2         3         4         5         6         7         8

                 1 A       2 A       3 A       4 A       5 A       6 A       7 A       8 A   

                  95.0     197.2     275.1     364.6     435.9     472.8     578.1     606.2
  
           1   -0.0000    0.0000    0.2502    0.0000    0.0000   -0.0898    0.2527    0.0001
           2    0.0000   -0.0000   -0.2253   -0.0000   -0.0001    0.2140    0.2143    0.0000
           3   -0.2696   -0.2345   -0.0001   -0.0322    0.5107    0.0000   -0.0000   -0.1455
           4   -0.0000    0.0000    0.2427    0.0001    0.0000   -0.1396    0.3076    0.0001
           5   -0.0000    0.0000   -0.0252    0.0000   -0.0000   -0.1666   -0.1141   -0.0002
           6   -0.0273   -0.3716    0.0000    0.4052   -0.0292    0.0001   -0.0001    0.2314
           7   -0.0000   -0.0000    0.0731    0.0000    0.0000   -0.2804   -0.1262    0.0001
           8    0.0000   -0.0001   -0.3184   -0.0001   -0.0001    0.1236   -0.0446    0.0001
           9   -0.3197   -0.3350    0.0001   -0.3940   -0.0914    0.0000   -0.0001    0.2666
          10   -0.0000    0.0001   -0.0269   -0.0000    0.0000    0.4046   -0.1325   -0.0001
          11    0.0000   -0.0001   -0.0689   -0.0000   -0.0000    0.0432    0.5431    0.0002
          12   -0.3453    0.4071   -0.0001   -0.0288    0.0669   -0.0000    0.0001   -0.2919
          13   -0.0000    0.0000    0.0017    0.0000    0.0000   -0.0824    0.2194   -0.0001
          14   -0.0000   -0.0000    0.1366   -0.0000    0.0000   -0.2704   -0.0850   -0.0001
          15    0.2391   -0.0237    0.0001   -0.3737   -0.2863   -0.0001    0.0000   -0.2282
          16    0.0000   -0.0000   -0.1973   -0.0000   -0.0000   -0.1430   -0.1894   -0.0001
          17   -0.0000    0.0000    0.0243    0.0001    0.0001   -0.3045   -0.2918    0.0000
          18    0.2066    0.3886   -0.0001   -0.0163    0.3595   -0.0000    0.0000    0.2397
          19   -0.0000   -0.0000   -0.1938    0.0000   -0.0000   -0.1519   -0.1938   -0.0001
          20    0.0000    0.0000   -0.1971    0.0001   -0.0001    0.0264   -0.0732    0.0001
          21   -0.1005    0.0476    0.0000    0.3992   -0.2603    0.0001    0.0000   -0.2302
          22    0.0001   -0.0000   -0.0767   -0.0001   -0.0000    0.4288   -0.1070   -0.0000
          23    0.0000    0.0001    0.5694    0.0000    0.0001    0.3027   -0.0549   -0.0001
          24    0.5335    0.0405   -0.0000    0.0236   -0.0469   -0.0001    0.0000    0.0212
          25   -0.0000    0.0000   -0.1013   -0.0000   -0.0000    0.1419   -0.0333    0.0000
          26    0.0000   -0.0001   -0.0795   -0.0000    0.0000    0.0308    0.1575    0.0000
          27   -0.3172    0.3864   -0.0000   -0.0077   -0.2045    0.0000   -0.0000    0.0907
          28   -0.0000   -0.0000    0.1167    0.0000    0.0000   -0.1027    0.0535    0.0000
          29   -0.0000   -0.0000    0.0207   -0.0000    0.0000   -0.0848   -0.0532   -0.0001
          30   -0.0040   -0.1776    0.0000    0.3250   -0.1148    0.0000   -0.0000    0.2315
          31   -0.0000    0.0000    0.0009    0.0000    0.0000   -0.0250    0.0639   -0.0000
          32   -0.0000    0.0000    0.1030    0.0000    0.0000   -0.0824    0.0693    0.0000
          33    0.1374   -0.0003    0.0001   -0.2947   -0.2722   -0.0001    0.0000   -0.2459
          34    0.0000   -0.0000   -0.1052    0.0000   -0.0000   -0.0096   -0.0877    0.0000
          35   -0.0000    0.0000    0.0350    0.0000    0.0000   -0.1068   -0.0649    0.0000
          36    0.1208    0.2616   -0.0001   -0.0124    0.2952   -0.0000   -0.0000    0.2494
          37    0.0000   -0.0000   -0.1115   -0.0000    0.0000    0.0184   -0.0299   -0.0000
          38    0.0000    0.0000   -0.0890    0.0001   -0.0001    0.0430   -0.0071   -0.0000
          39   -0.0425    0.0413    0.0000    0.3193   -0.2447    0.0000    0.0000   -0.2570
          40   -0.0000   -0.0000    0.0182   -0.0000   -0.0000   -0.0814   -0.0350    0.0000
          41    0.0000   -0.0000   -0.1272   -0.0000   -0.0000    0.0315   -0.0991   -0.0000
          42   -0.1324   -0.1626    0.0001   -0.2895   -0.1443   -0.0000   -0.0000    0.2186
          43    0.0001   -0.0000    0.0938   -0.0000    0.0000    0.1964   -0.2423   -0.0001
          44    0.0000    0.0001    0.2503   -0.0000    0.0000    0.1421   -0.1704    0.0000
          45    0.3609   -0.2511   -0.0000   -0.0010    0.2259   -0.0001    0.0001   -0.2884
          46    0.0000   -0.0000   -0.1638   -0.0000   -0.0001    0.0478    0.2043    0.0001
          47    0.0000    0.0000    0.2480   -0.0000    0.0001    0.1360   -0.1564   -0.0001
          48    0.1638    0.1817    0.0000    0.0198   -0.3105    0.0000   -0.0002    0.4738


   Root No.       9        10        11        12        13        14        15        16

                 9 A      10 A      11 A      12 A      13 A      14 A      15 A      16 A   

                 631.5     684.6     787.0     846.1     853.3     928.0     954.2     982.8
  
           1    0.1654    0.0001    0.0000    0.0198   -0.0000   -0.0000   -0.0000    0.0001
           2   -0.0737    0.0000    0.0000    0.0391   -0.0000   -0.0000   -0.0000    0.0001
           3    0.0000    0.4134    0.3693   -0.0000   -0.0137   -0.0920    0.2969   -0.0010
           4    0.1231    0.0001    0.0000    0.1563   -0.0001   -0.0000    0.0000    0.0002
           5   -0.4378   -0.0000   -0.0000    0.1168   -0.0000    0.0000    0.0000   -0.0003
           6   -0.0001   -0.0227   -0.0882    0.0002    0.2467    0.2133   -0.2240    0.3042
           7    0.4256    0.0001   -0.0000    0.0166   -0.0000    0.0001   -0.0000   -0.0002
           8    0.1232    0.0000   -0.0000    0.2084   -0.0002    0.0001   -0.0000   -0.0000
           9   -0.0001   -0.0386   -0.0629   -0.0001   -0.1879    0.1733   -0.2110   -0.3168
          10   -0.0030   -0.0001   -0.0000   -0.0765    0.0000   -0.0000   -0.0000   -0.0000
          11    0.0317    0.0000    0.0001   -0.3122    0.0002   -0.0001   -0.0000    0.0002
          12    0.0001   -0.2602   -0.1032    0.0001   -0.0180   -0.2641   -0.2499    0.0443
          13   -0.4491    0.0000   -0.0000    0.4194   -0.0002    0.0001   -0.0000   -0.0002
          14   -0.1251   -0.0000   -0.0000   -0.0029   -0.0000   -0.0000    0.0000    0.0000
          15    0.0001    0.1419   -0.1447    0.0000    0.2230   -0.0565   -0.0584   -0.3230
          16   -0.1690   -0.0001    0.0000   -0.1853    0.0001   -0.0001    0.0000    0.0001
          17    0.0877   -0.0000    0.0000   -0.3228    0.0002   -0.0001    0.0000    0.0002
          18   -0.0001   -0.0312   -0.2376    0.0001   -0.0245   -0.2077    0.2674    0.0471
          19   -0.1241   -0.0001   -0.0000   -0.2092    0.0001   -0.0001    0.0000    0.0001
          20    0.4639    0.0001   -0.0001    0.3791   -0.0002    0.0001   -0.0000   -0.0002
          21   -0.0000    0.1437   -0.1356   -0.0002   -0.2507    0.0608   -0.0767    0.2730
          22    0.0105   -0.0000    0.0000   -0.1360    0.0001   -0.0000   -0.0000   -0.0000
          23   -0.0433   -0.0001   -0.0000   -0.2114    0.0001    0.0001    0.0001   -0.0002
          24   -0.0000    0.0126   -0.0189   -0.0001   -0.0145   -0.0109   -0.1303   -0.0288
          25   -0.0113   -0.0000    0.0000   -0.0216    0.0000    0.0000    0.0000    0.0001
          26    0.0004    0.0000    0.0001   -0.0890    0.0000   -0.0001   -0.0001    0.0002
          27   -0.0000   -0.0263   -0.1071   -0.0001    0.0497    0.6130    0.4341   -0.0762
          28    0.0809   -0.0000    0.0000    0.0181   -0.0000   -0.0001    0.0000    0.0001
          29   -0.1004    0.0000   -0.0000    0.0181    0.0000    0.0000   -0.0000   -0.0000
          30   -0.0000   -0.4208    0.0572   -0.0002   -0.4549   -0.2812    0.2772   -0.3768
          31   -0.1293    0.0000   -0.0000    0.1249   -0.0000    0.0000   -0.0000   -0.0001
          32    0.0206    0.0000    0.0000    0.1190   -0.0001    0.0000    0.0001    0.0001
          33    0.0001   -0.1252    0.4662   -0.0001   -0.4328    0.0736    0.0994    0.4002
          34    0.0677    0.0000   -0.0000   -0.0502    0.0001   -0.0000    0.0000   -0.0000
          35   -0.0427   -0.0001    0.0001   -0.0951    0.0000    0.0000   -0.0000    0.0001
          36   -0.0000   -0.3068    0.4919    0.0000    0.0524    0.3248   -0.3814   -0.0558
          37   -0.0796   -0.0000   -0.0001    0.0493   -0.0001   -0.0001    0.0000    0.0001
          38    0.1089   -0.0000    0.0001    0.1762    0.0000   -0.0000    0.0001   -0.0001
          39    0.0001   -0.1133    0.4424    0.0003    0.4675   -0.0977    0.1228   -0.3491
          40    0.1235   -0.0000   -0.0000    0.0041    0.0000   -0.0000    0.0000   -0.0000
          41   -0.0238   -0.0000   -0.0000    0.0242    0.0000    0.0000    0.0000    0.0000
          42    0.0000   -0.4075    0.0187    0.0004    0.4135   -0.2700    0.2694    0.4334
          43   -0.0120    0.0000    0.0000    0.1848   -0.0001   -0.0001   -0.0000    0.0003
          44   -0.0249    0.0001    0.0000    0.1051   -0.0001   -0.0001   -0.0001    0.0001
          45    0.0001   -0.2643   -0.1451    0.0001    0.0306    0.3714    0.3507   -0.0184
          46    0.0312    0.0000    0.0000   -0.3269    0.0002    0.0001    0.0001   -0.0003
          47   -0.0294   -0.0000    0.0000    0.1065   -0.0001   -0.0001   -0.0001    0.0001
          48   -0.0002    0.4257    0.2322    0.0000    0.0106   -0.0999    0.1602    0.0463


   Root No.      17        18        19        20        21        22        23        24

                17 A      18 A      19 A      20 A      21 A      22 A      23 A      24 A   

                 998.7    1016.3    1038.6    1054.5    1109.4    1122.0    1154.8    1163.4
  
           1   -0.0845    0.0001   -0.0001    0.0239    0.0604   -0.1514   -0.0797   -0.0563
           2   -0.1983    0.0002   -0.0001   -0.0266   -0.0419   -0.1254    0.0451   -0.0057
           3   -0.0000   -0.1200   -0.1918   -0.0001    0.0000   -0.0000    0.0000    0.0000
           4   -0.2050    0.0002   -0.0003    0.2315   -0.0301   -0.1803    0.0054    0.1254
           5    0.2408   -0.0003    0.0003   -0.1989    0.2249    0.1801    0.0037   -0.0731
           6    0.0004    0.2035    0.1290    0.0001    0.0000    0.0000   -0.0000   -0.0000
           7    0.2267   -0.0002    0.0004   -0.3811   -0.0985    0.3430   -0.0039   -0.0929
           8   -0.0114    0.0000   -0.0001    0.1261   -0.1023   -0.0628   -0.0302    0.1193
           9   -0.0001    0.2265    0.1739    0.0002    0.0000    0.0000   -0.0000   -0.0000
          10    0.0600   -0.0001    0.0001    0.0241   -0.0091   -0.0329    0.0037   -0.0052
          11   -0.2049    0.0002    0.0001   -0.2335    0.0527    0.1455   -0.0166   -0.0803
          12   -0.0002   -0.0830    0.3242    0.0002   -0.0001   -0.0000    0.0000    0.0000
          13    0.1852   -0.0002    0.0001   -0.1425   -0.1329   -0.1317    0.0297    0.0806
          14   -0.0078   -0.0000   -0.0001    0.0766    0.0234   -0.0105    0.0004   -0.0735
          15   -0.0005   -0.3098   -0.1073   -0.0001   -0.0001   -0.0000   -0.0000    0.0000
          16   -0.0916    0.0001   -0.0001    0.0361    0.0391   -0.1968    0.0337    0.0230
          17   -0.1810    0.0003   -0.0001    0.0256   -0.0798   -0.3231   -0.0047    0.0089
          18    0.0004    0.3499    0.1046    0.0001    0.0000    0.0000    0.0000   -0.0000
          19   -0.1217    0.0001   -0.0001    0.1035   -0.0965    0.1353    0.0355   -0.0407
          20    0.2022   -0.0002    0.0001   -0.0362    0.0644   -0.1422   -0.0152    0.0289
          21   -0.0001   -0.3258   -0.1346   -0.0001   -0.0000    0.0000    0.0000    0.0000
          22    0.0557   -0.0000   -0.0000   -0.0204   -0.0251    0.0030    0.0074   -0.0275
          23    0.3358   -0.0004    0.0001    0.1191   -0.0082    0.0046    0.0095    0.0277
          24    0.0005    0.2148   -0.4399   -0.0003    0.0001    0.0001    0.0000   -0.0000
          25   -0.1748    0.0002    0.0000   -0.1728    0.0805    0.3056   -0.0094    0.0441
          26   -0.1923    0.0002    0.0001   -0.1902    0.0731    0.2554   -0.0124    0.0073
          27   -0.0001    0.0578   -0.2438   -0.0002    0.0001    0.0000   -0.0000   -0.0000
          28   -0.1105    0.0001   -0.0002    0.2826    0.3618    0.2420   -0.2328    0.4337
          29    0.0439   -0.0001    0.0000    0.0648    0.2840    0.2295   -0.1319    0.2044
          30   -0.0004   -0.1778   -0.1169   -0.0001   -0.0000    0.0000    0.0000    0.0000
          31    0.0541   -0.0001    0.0000   -0.0395   -0.0385   -0.0408    0.0135    0.0267
          32   -0.0877    0.0000   -0.0003    0.3526   -0.2611    0.3495    0.6208   -0.2790
          33    0.0006    0.3037    0.0890    0.0001    0.0000   -0.0000    0.0000    0.0000
          34   -0.0023   -0.0000    0.0000    0.0675    0.5750   -0.1535    0.4933    0.0042
          35   -0.0691    0.0001   -0.0001   -0.0217   -0.3546   -0.0454   -0.2829    0.0011
          36   -0.0004   -0.3468   -0.0878   -0.0001    0.0000    0.0000    0.0000    0.0000
          37   -0.0429   -0.0001   -0.0003    0.4181    0.1083    0.1919   -0.3826   -0.5049
          38    0.0564   -0.0000   -0.0001    0.2128    0.0944    0.0402   -0.2325   -0.2698
          39    0.0000    0.3225    0.1222    0.0001   -0.0000    0.0000   -0.0000   -0.0000
          40    0.0701   -0.0001    0.0001   -0.1128   -0.0307    0.1067   -0.0032   -0.0310
          41   -0.0096    0.0000   -0.0002    0.2409   -0.3257    0.2791    0.0723    0.5361
          42    0.0003   -0.2101   -0.2025   -0.0003   -0.0000   -0.0000    0.0000    0.0000
          43   -0.3486    0.0003    0.0001   -0.1661    0.0012    0.0648   -0.0028   -0.0340
          44   -0.1755    0.0002   -0.0000   -0.0856    0.0081    0.0456   -0.0016   -0.0149
          45   -0.0007   -0.2281    0.4628    0.0002   -0.0000   -0.0001   -0.0000    0.0000
          46    0.4694   -0.0006    0.0002    0.1540   -0.0472    0.0143    0.0145    0.0392
          47   -0.1719    0.0002   -0.0001   -0.0635    0.0213   -0.0016   -0.0043   -0.0206
          48   -0.0004   -0.2600    0.4672    0.0003   -0.0001   -0.0001   -0.0000    0.0000


   Root No.      25        26        27        28        29        30        31        32

                25 A      26 A      27 A      28 A      29 A      30 A      31 A      32 A   

                1212.9    1238.4    1310.7    1393.1    1396.3    1543.3    1608.2    1778.9
  
           1   -0.1572    0.0773   -0.0916    0.2192    0.3529    0.3721    0.2687   -0.4479
           2   -0.0141   -0.1110   -0.1617    0.3638   -0.1975   -0.2160    0.4978    0.2729
           3   -0.0000   -0.0000    0.0000    0.0000   -0.0000    0.0000   -0.0000    0.0000
           4    0.0385    0.1967   -0.0092    0.1911   -0.3407    0.0158   -0.2700    0.3368
           5   -0.1806    0.0261   -0.1049    0.1883   -0.2079    0.3506    0.0276    0.0158
           6   -0.0000   -0.0000   -0.0000   -0.0000    0.0000   -0.0000    0.0000   -0.0000
           7   -0.1238   -0.0270   -0.0747    0.0533    0.0164   -0.2842    0.1796    0.1659
           8    0.0439   -0.1795   -0.0472    0.2554    0.3844   -0.2247   -0.1938   -0.2556
           9    0.0000    0.0000    0.0000   -0.0000   -0.0000    0.0000    0.0000    0.0000
          10   -0.0199   -0.0288   -0.2144   -0.0657   -0.0093    0.0056    0.0543   -0.0667
          11   -0.2675   -0.0898    0.0754   -0.3488    0.0024    0.0473   -0.1822   -0.0408
          12   -0.0000   -0.0000    0.0000   -0.0000    0.0000   -0.0000   -0.0000    0.0000
          13    0.1467    0.0446    0.1424   -0.3075   -0.0032   -0.2701    0.0723   -0.1839
          14   -0.0861    0.1106    0.0112    0.1043    0.4144   -0.2498   -0.3776    0.2268
          15    0.0000   -0.0000    0.0000   -0.0000   -0.0000   -0.0000    0.0000    0.0000
          16    0.1416   -0.1534    0.0622   -0.1319    0.3539    0.3550    0.1146    0.4683
          17    0.1213    0.1447    0.1049   -0.2464   -0.2119   -0.1808    0.2472   -0.2589
          18   -0.0000   -0.0000   -0.0000    0.0000    0.0000    0.0000   -0.0000    0.0000
          19    0.0118   -0.1227   -0.1026    0.2535   -0.3558    0.0325   -0.3568   -0.3309
          20    0.1550   -0.0148    0.0785   -0.1907   -0.2003    0.3578   -0.1508    0.0119
          21   -0.0000   -0.0000   -0.0000    0.0000    0.0000   -0.0000    0.0000   -0.0000
          22   -0.1418   -0.1047   -0.0580   -0.2380   -0.0210   -0.0626   -0.1755    0.0858
          23    0.1892    0.0617   -0.0255    0.0422   -0.0072   -0.0196   -0.0002    0.0169
          24    0.0000    0.0000    0.0000    0.0000   -0.0000    0.0000    0.0000   -0.0000
          25    0.5721    0.3786   -0.0220    0.1064    0.0974    0.0467    0.0143   -0.0353
          26    0.3041    0.2284    0.0540   -0.0250    0.0632    0.0421   -0.0621   -0.0149
          27   -0.0001   -0.0000    0.0000   -0.0000    0.0000   -0.0000   -0.0000   -0.0000
          28    0.1278   -0.3606    0.0426   -0.1219   -0.0302   -0.1400    0.0891   -0.0015
          29    0.0078   -0.2403   -0.0088   -0.0413   -0.0223    0.0339    0.1180   -0.0600
          30   -0.0000    0.0000    0.0000    0.0000   -0.0000    0.0000    0.0000   -0.0000
          31    0.0484    0.0125    0.0471   -0.1035   -0.0015   -0.0918    0.0262   -0.0637
          32    0.1569   -0.2656    0.0254   -0.1312    0.0252    0.1145    0.1263   -0.0255
          33   -0.0000    0.0000   -0.0000    0.0000   -0.0001   -0.0000    0.0000   -0.0000
          34   -0.1150    0.2360    0.0421   -0.0575    0.0164   -0.1707    0.0540   -0.0539
          35    0.1334   -0.1201    0.0226   -0.0764   -0.0114    0.1091    0.0763    0.0367
          36   -0.0000    0.0000    0.0000    0.0000   -0.0000   -0.0000   -0.0000   -0.0000
          37   -0.0992    0.2180    0.0310   -0.0770   -0.0195   -0.1308    0.1071   -0.0016
          38   -0.0095    0.1438    0.0629   -0.1564   -0.0106    0.0417    0.0800    0.0684
          39   -0.0000   -0.0000   -0.0000    0.0000    0.0001   -0.0000   -0.0000   -0.0000
          40   -0.0399   -0.0079   -0.0294    0.0211    0.0074   -0.0970    0.0635    0.0543
          41   -0.3872    0.4606   -0.0165   -0.1257    0.0464    0.1189    0.1358    0.0318
          42    0.0000   -0.0000    0.0000    0.0000   -0.0000    0.0000    0.0000   -0.0000
          43   -0.2084   -0.0820    0.5707    0.1026   -0.0238    0.0208    0.0011   -0.0021
          44   -0.0576   -0.0193    0.3889    0.1288   -0.0146    0.0221    0.0378   -0.0169
          45    0.0000   -0.0000   -0.0001   -0.0000    0.0000   -0.0000   -0.0000    0.0000
          46    0.0736    0.0123    0.5118    0.2193   -0.0225   -0.0039    0.0347    0.0094
          47   -0.0132   -0.0082   -0.2890   -0.1535    0.0057   -0.0153   -0.0563    0.0185
          48    0.0000   -0.0000   -0.0002   -0.0000    0.0000   -0.0000   -0.0000   -0.0000


   Root No.      33        34        35        36        37        38        39        40

                33 A      34 A      35 A      36 A      37 A      38 A      39 A      40 A   

                1800.1    1849.8    3003.4    3035.8    3051.8    3059.1    3067.1    3078.9
  
           1   -0.1200   -0.1782    0.0038    0.0022   -0.0084   -0.0052    0.0059    0.0045
           2   -0.2820   -0.1275   -0.0095    0.0007   -0.0006   -0.0035   -0.0008    0.0037
           3   -0.0000    0.0000    0.0000   -0.0000    0.0000    0.0000    0.0000   -0.0000
           4    0.3360    0.0676   -0.0010    0.0066    0.1219    0.0547   -0.0482   -0.0279
           5    0.3108   -0.0028    0.0034   -0.0158   -0.2021   -0.0983    0.0981    0.0618
           6    0.0000    0.0000    0.0000   -0.0000   -0.0000   -0.0000    0.0000    0.0000
           7    0.0851    0.0273   -0.2843    0.0054   -0.0045   -0.0191   -0.0193    0.0171
           8    0.4864    0.0404   -0.0037    0.0030    0.0015   -0.0046   -0.0085    0.0064
           9   -0.0000    0.0000    0.0000   -0.0000   -0.0000    0.0000    0.0000   -0.0000
          10   -0.0743    0.7051    0.0068    0.1739   -0.0076   -0.0016    0.0024   -0.0030
          11    0.0348    0.1905   -0.0025   -0.2292    0.0126    0.0052   -0.0025   -0.0018
          12    0.0000   -0.0001   -0.0000   -0.0000    0.0000    0.0000   -0.0000    0.0000
          13   -0.0880   -0.0115   -0.0009   -0.0037   -0.1476    0.0680   -0.1838   -0.1581
          14   -0.4361    0.0224    0.0007    0.0007    0.0075    0.0106   -0.0055    0.0062
          15    0.0000   -0.0000    0.0000   -0.0000   -0.0000    0.0000   -0.0000   -0.0000
          16    0.0665    0.0400    0.0008   -0.0002    0.0329   -0.0989    0.0292   -0.1006
          17    0.1672   -0.0182   -0.0007    0.0000    0.0497   -0.1745    0.0212   -0.1735
          18   -0.0000   -0.0000   -0.0000    0.0000   -0.0000    0.0000   -0.0000    0.0000
          19   -0.3072   -0.0459    0.0221   -0.0007    0.0114   -0.0701   -0.0968    0.0782
          20   -0.3000   -0.0184   -0.0161    0.0007   -0.0223    0.1386    0.1701   -0.1223
          21    0.0000    0.0000    0.0000   -0.0000    0.0000   -0.0000   -0.0000    0.0000
          22    0.0972   -0.5950   -0.0345   -0.0070   -0.0002   -0.0067   -0.0099    0.0235
          23    0.0038   -0.0438    0.0402    0.0158   -0.0005    0.0071    0.0112   -0.0259
          24   -0.0000    0.0001    0.0000    0.0000   -0.0000    0.0000    0.0000   -0.0000
          25   -0.0026   -0.0007   -0.0104   -0.5279    0.0303    0.0115   -0.0065   -0.0029
          26    0.0279   -0.1196    0.0182    0.7919   -0.0411   -0.0149    0.0084    0.0023
          27   -0.0000   -0.0000    0.0000    0.0001   -0.0000   -0.0000    0.0000    0.0000
          28   -0.0687   -0.0056    0.0105   -0.0297   -0.3958   -0.1840    0.1709    0.0995
          29   -0.0001   -0.0209   -0.0180    0.0455    0.6759    0.3199   -0.3015   -0.1768
          30   -0.0000   -0.0000   -0.0000    0.0000    0.0000    0.0000   -0.0000   -0.0000
          31   -0.0294   -0.0034    0.0027    0.0136    0.5048   -0.2238    0.6027    0.4946
          32    0.0473   -0.0044    0.0001   -0.0004   -0.0057   -0.0051   -0.0003   -0.0047
          33    0.0000   -0.0000    0.0000    0.0000    0.0000   -0.0000    0.0000    0.0000
          34    0.0338   -0.0014    0.0045    0.0002   -0.1033    0.3401   -0.0615    0.3190
          35    0.0510    0.0026    0.0062    0.0005   -0.1715    0.5852   -0.0912    0.5462
          36   -0.0000    0.0000    0.0000   -0.0000    0.0000   -0.0000    0.0000   -0.0000
          37    0.0563    0.0028   -0.0567    0.0020   -0.0402    0.2541    0.3199   -0.2283
          38   -0.0105    0.0047    0.0881   -0.0034    0.0725   -0.4521   -0.5575    0.3920
          39    0.0000   -0.0000   -0.0000    0.0000   -0.0000    0.0001    0.0002   -0.0001
          40    0.0316    0.0083    0.9338   -0.0164    0.0078    0.0534    0.0515   -0.0363
          41   -0.0642   -0.0150   -0.0021    0.0007   -0.0005    0.0028    0.0032   -0.0017
          42   -0.0000    0.0000   -0.0001    0.0000   -0.0000   -0.0000   -0.0000    0.0000
          43   -0.0012   -0.0086    0.1065   -0.0135    0.0016    0.0201    0.0294   -0.0696
          44   -0.0235    0.1349   -0.1417    0.0140   -0.0020   -0.0278   -0.0412    0.0983
          45   -0.0000    0.0000   -0.0000    0.0000   -0.0000   -0.0000   -0.0000    0.0000
          46   -0.0039   -0.0242    0.0001   -0.0368    0.0023    0.0014    0.0002   -0.0022
          47    0.0245   -0.1291    0.0081   -0.0748    0.0047    0.0042    0.0024   -0.0088
          48   -0.0000   -0.0000    0.0000    0.0000   -0.0000    0.0000   -0.0000   -0.0000


   Root No.      41        42

                41 A      42 A   

                3085.5    3152.1
  
           1    0.0023    0.0032
           2   -0.0030    0.0013
           3   -0.0000   -0.0000
           4    0.0034   -0.0009
           5   -0.0055    0.0000
           6   -0.0000    0.0000
           7   -0.0573   -0.0014
           8   -0.0016    0.0005
           9    0.0000    0.0000
          10   -0.0264    0.0352
          11    0.0013   -0.0175
          12    0.0000   -0.0000
          13    0.0125    0.0001
          14   -0.0009   -0.0000
          15    0.0000   -0.0000
          16    0.0111    0.0001
          17    0.0172    0.0003
          18   -0.0000    0.0000
          19   -0.0138   -0.0001
          20    0.0268    0.0003
          21   -0.0000   -0.0000
          22    0.1834   -0.1485
          23   -0.1971   -0.2507
          24   -0.0000    0.0000
          25    0.0043   -0.0454
          26   -0.0130    0.0593
          27   -0.0000    0.0000
          28   -0.0090    0.0001
          29    0.0161   -0.0006
          30    0.0000    0.0000
          31   -0.0378   -0.0005
          32    0.0004    0.0000
          33   -0.0000   -0.0000
          34   -0.0315   -0.0005
          35   -0.0533   -0.0008
          36    0.0000    0.0000
          37    0.0453    0.0005
          38   -0.0806   -0.0009
          39    0.0000    0.0000
          40    0.1877    0.0063
          41    0.0057    0.0018
          42   -0.0000   -0.0000
          43   -0.5346   -0.0465
          44    0.7619    0.0340
          45    0.0002    0.0000
          46   -0.0218    0.4731
          47   -0.0753    0.8251
          48   -0.0000   -0.0000


          DESCRIPTION OF VIBRATIONS


 VIBRATION    1    1A         ATOM PAIR      ENERGY CONTRIBUTION    RADIAL
 FREQ.        94.96         C  4 -- C  8         +34.7% (434.5%)      0.0%
 T-DIPOLE    0.0426         C  8 -- H 16          +8.7% (217.8%)      0.0%
 TRAVEL      0.0751         C  8 -- H 15          +7.2% (197.5%)      0.0%
 RED. MASS   1.4242         C  1 -- C  4          +7.2% (197.4%)      0.0%
 EFF. MASS 126.0157

 VIBRATION    2    2A         ATOM PAIR      ENERGY CONTRIBUTION    RADIAL
 FREQ.       197.20         C  1 -- C  4         +18.0% (162.8%)      0.0%
 T-DIPOLE    0.0914         C  5 -- C  6          +9.3% (116.9%)      0.0%
 TRAVEL      0.1086         C  4 -- C  8          +8.5% (111.5%)      0.0%
 RED. MASS   1.0546         C  8 -- H 15          +7.9% (107.7%)      0.0%
 EFF. MASS  28.9975

 VIBRATION    3    3A         ATOM PAIR      ENERGY CONTRIBUTION    RADIAL
 FREQ.       275.15         C  4 -- C  8         +16.1% (242.4%)      0.1%
[...]
 FREQ.      1109.43         C  6 -- H 12         +33.4% ( 67.8%)      0.3%
 T-DIPOLE    0.0350         C  2 -- H 10         +18.5% ( 50.4%)     13.3%
 TRAVEL      0.1448         C  3 -- H 14          +9.3% ( 35.7%)      7.7%
 RED. MASS   0.3161         C  2 -- C  5          +7.9% ( 33.1%)     99.7%
 EFF. MASS   2.8986

 VIBRATION   22   22A         ATOM PAIR      ENERGY CONTRIBUTION    RADIAL
 FREQ.      1122.01         C  6 -- C  7         +13.0% ( 53.2%)     76.7%
 T-DIPOLE    0.0973         C  5 -- C  6         +10.4% ( 47.6%)     56.2%
 TRAVEL      0.0907         C  1 -- C  3         +10.0% ( 46.6%)     14.2%
 RED. MASS   0.5831         C  3 -- C  7          +9.4% ( 45.4%)     60.8%
 EFF. MASS   7.3134

 VIBRATION   23   23A         ATOM PAIR      ENERGY CONTRIBUTION    RADIAL
 FREQ.      1154.78         C  5 -- H 11         +37.1% ( 60.9%)      0.1%
 T-DIPOLE    0.0064         C  6 -- H 12         +30.4% ( 55.1%)      0.0%
 TRAVEL      0.2223         C  7 -- H 13         +19.8% ( 44.5%)      0.2%
 RED. MASS   0.3018         C  2 -- H 10          +7.2% ( 26.8%)      0.0%
 EFF. MASS   1.1815

 VIBRATION   24   24A         ATOM PAIR      ENERGY CONTRIBUTION    RADIAL
 FREQ.      1163.39         C  7 -- H 13         +28.3% ( 55.3%)      0.3%
 T-DIPOLE    0.0328         C  3 -- H 14         +26.6% ( 53.7%)      2.6%
 TRAVEL      0.1729         C  2 -- H 10         +20.9% ( 47.6%)      4.4%
 RED. MASS   0.2656         C  5 -- H 11          +7.1% ( 27.7%)      6.2%
 EFF. MASS   1.9380

 VIBRATION   25   25A         ATOM PAIR      ENERGY CONTRIBUTION    RADIAL
 FREQ.      1212.91         C  4 -- H  9         +30.3% ( 68.6%)      3.0%
 T-DIPOLE    0.0508         C  3 -- H 14         +10.4% ( 40.1%)      3.2%
 TRAVEL      0.1123         C  4 -- C  8          +8.6% ( 36.4%)      4.2%
 RED. MASS   0.3614         C  1 -- C  2          +5.3% ( 28.7%)     58.0%
 EFF. MASS   4.4084

 VIBRATION   26   26A         ATOM PAIR      ENERGY CONTRIBUTION    RADIAL
 FREQ.      1238.35         C  3 -- H 14         +19.2% ( 51.0%)      0.2%
 T-DIPOLE    0.0281         C  2 -- H 10         +17.3% ( 48.4%)      0.6%
 TRAVEL      0.1497         C  4 -- H  9         +14.0% ( 43.6%)      0.5%
 RED. MASS   0.2024         C  6 -- H 12          +9.5% ( 35.9%)      0.5%
 EFF. MASS   2.4306

 VIBRATION   27   27A         ATOM PAIR      ENERGY CONTRIBUTION    RADIAL
 FREQ.      1310.72         C  8 -- H 15         +33.8% ( 60.4%)      0.1%
 T-DIPOLE    0.1430         C  8 -- H 16         +22.4% ( 49.2%)      0.8%
 TRAVEL      0.1345         C  1 -- C  4          +8.7% ( 30.7%)     29.4%
 RED. MASS   0.4094         C  4 -- H  9          +4.7% ( 22.5%)     42.0%
 EFF. MASS   2.8436

 VIBRATION   28   28A         ATOM PAIR      ENERGY CONTRIBUTION    RADIAL
 FREQ.      1393.06         C  1 -- C  4         +16.3% ( 60.8%)     98.1%
 T-DIPOLE    0.3119         C  5 -- C  6          +8.6% ( 44.2%)     99.7%
 TRAVEL      0.0687         C  2 -- C  5          +8.4% ( 43.7%)     40.7%
 RED. MASS   1.0772         C  6 -- C  7          +8.4% ( 43.5%)     97.8%
 EFF. MASS  10.2700

 VIBRATION   29   29A         ATOM PAIR      ENERGY CONTRIBUTION    RADIAL
 FREQ.      1396.30         C  5 -- C  6         +12.5% ( 62.8%)    100.0%
 T-DIPOLE    0.0520         C  6 -- C  7         +12.3% ( 62.3%)    100.0%
 TRAVEL      0.0641         C  2 -- C  5         +12.2% ( 62.1%)     99.9%
 RED. MASS   1.9252         C  1 -- C  2         +11.9% ( 61.2%)    100.0%
 EFF. MASS  11.7616         C  3 -- C  7         +11.8% ( 61.0%)     99.9%
                            C  1 -- C  3         +11.4% ( 59.9%)    100.0%

 VIBRATION   30   30A         ATOM PAIR      ENERGY CONTRIBUTION    RADIAL
 FREQ.      1543.31         C  3 -- C  7         +13.0% ( 53.4%)     99.9%
 T-DIPOLE    0.5302         C  2 -- C  5         +12.8% ( 53.0%)     99.3%
 TRAVEL      0.0633         C  1 -- C  2         +11.7% ( 50.5%)     28.3%
 RED. MASS   1.5269         C  1 -- C  3         +11.5% ( 50.2%)     22.8%
 EFF. MASS  10.9202         C  6 -- C  7         +10.5% ( 47.8%)     26.8%
                            C  5 -- C  6         +10.2% ( 47.3%)     15.7%

 VIBRATION   31   31A         ATOM PAIR      ENERGY CONTRIBUTION    RADIAL
 FREQ.      1608.17         C  1 -- C  2         +15.5% ( 57.6%)     56.8%
 T-DIPOLE    0.4156         C  1 -- C  3         +15.4% ( 57.4%)     64.3%
 TRAVEL      0.0617         C  1 -- C  4         +13.5% ( 53.7%)     95.5%
 RED. MASS   1.9815         C  5 -- C  6          +9.4% ( 44.9%)     69.5%
 EFF. MASS  11.0310

 VIBRATION   32   32A         ATOM PAIR      ENERGY CONTRIBUTION    RADIAL
 FREQ.      1778.88         C  6 -- C  7         +15.5% ( 54.9%)     90.0%
 T-DIPOLE    0.0633         C  1 -- C  2         +15.2% ( 54.2%)     90.3%
 TRAVEL      0.0565         C  1 -- C  3         +14.4% ( 52.8%)     88.4%
 RED. MASS   2.3853         C  5 -- C  6         +14.3% ( 52.6%)     83.9%
 EFF. MASS  11.8640

 VIBRATION   33   33A         ATOM PAIR      ENERGY CONTRIBUTION    RADIAL
 FREQ.      1800.07         C  3 -- C  7         +17.1% ( 57.7%)     99.6%
 T-DIPOLE    0.1250         C  2 -- C  5         +16.1% ( 55.9%)    100.0%
 TRAVEL      0.0563         C  1 -- C  3         +12.3% ( 48.9%)     51.3%
 RED. MASS   2.2402         C  1 -- C  2         +10.5% ( 45.2%)     37.2%
 EFF. MASS  11.8230

 VIBRATION   34   34A         ATOM PAIR      ENERGY CONTRIBUTION    RADIAL
 FREQ.      1849.83         C  4 -- C  8         +42.7% ( 96.5%)     98.5%
 T-DIPOLE    0.0554         C  1 -- C  4         +18.6% ( 63.7%)     58.0%
 TRAVEL      0.0555         C  4 -- H  9         +15.5% ( 58.2%)      3.2%
 RED. MASS   4.9683         C  8 -- H 15         +10.0% ( 46.6%)      9.4%
 EFF. MASS  11.8137

 VIBRATION   35   35A         ATOM PAIR      ENERGY CONTRIBUTION    RADIAL
 FREQ.      3003.39         C  3 -- H 14         +92.2% ( 97.7%)    100.0%
 T-DIPOLE    0.3549         C  8 -- H 15          +3.5% ( 19.0%)     99.7%
 TRAVEL      0.1214         C  1 -- C  3          +1.5% ( 12.4%)     25.7%
 RED. MASS   0.8461         C  3 -- C  7          +1.5% ( 12.4%)     22.0%
 EFF. MASS   1.5242

 VIBRATION   36   36A         ATOM PAIR      ENERGY CONTRIBUTION    RADIAL
 FREQ.      3035.84         C  4 -- H  9         +96.0% ( 99.4%)    100.0%
 T-DIPOLE    0.2647         C  4 -- C  8          +1.5% ( 12.3%)     30.2%
 TRAVEL      0.1212         C  1 -- C  4          +1.4% ( 12.1%)     15.8%
 RED. MASS   0.9094         C  8 -- H 16          +0.7% (  8.6%)     95.7%
 EFF. MASS   1.5126

 VIBRATION   37   37A         ATOM PAIR      ENERGY CONTRIBUTION    RADIAL
 FREQ.      3051.84         C  2 -- H 10         +64.9% ( 81.9%)    100.0%
 T-DIPOLE    0.1817         C  5 -- H 11         +27.0% ( 52.8%)    100.0%
 TRAVEL      0.1213         C  6 -- H 12          +4.3% ( 21.0%)     99.9%
 RED. MASS   0.4896         C  2 -- C  5          +1.3% ( 11.5%)      1.8%
 EFF. MASS   1.5011

 VIBRATION   38   38A         ATOM PAIR      ENERGY CONTRIBUTION    RADIAL
 FREQ.      3059.11         C  6 -- H 12         +48.5% ( 70.8%)    100.0%
 T-DIPOLE    0.1857         C  7 -- H 13         +28.5% ( 54.3%)    100.0%
 TRAVEL      0.1211         C  2 -- H 10         +14.4% ( 38.5%)    100.0%
 RED. MASS   0.3343         C  5 -- H 11          +5.3% ( 23.4%)     99.7%
 EFF. MASS   1.5023

 VIBRATION   39   39A         ATOM PAIR      ENERGY CONTRIBUTION    RADIAL
 FREQ.      3067.07         C  7 -- H 13         +43.8% ( 67.2%)    100.0%
 T-DIPOLE    0.5257         C  5 -- H 11         +38.5% ( 63.0%)    100.0%
 TRAVEL      0.1197         C  2 -- H 10         +12.7% ( 36.2%)    100.0%
 RED. MASS   0.3528         C  6 -- H 12          +1.3% ( 11.5%)     97.8%
 EFF. MASS   1.5345

 VIBRATION   40   40A         ATOM PAIR      ENERGY CONTRIBUTION    RADIAL
 FREQ.      3078.88         C  6 -- H 12         +42.5% ( 66.1%)    100.0%
 T-DIPOLE    0.3930         C  5 -- H 11         +26.0% ( 51.7%)    100.0%
 TRAVEL      0.1173         C  7 -- H 13         +21.9% ( 47.4%)    100.0%
 RED. MASS   0.2988         C  2 -- H 10          +4.4% ( 21.2%)     99.9%
 EFF. MASS   1.5913

 VIBRATION   41   41A         ATOM PAIR      ENERGY CONTRIBUTION    RADIAL
 FREQ.      3085.47         C  8 -- H 15         +91.9% ( 96.7%)     99.9%
 T-DIPOLE    0.1725         C  3 -- H 14          +3.6% ( 19.1%)    100.0%
 TRAVEL      0.1214         C  8 -- H 16          +1.4% ( 11.9%)      0.0%
 RED. MASS   0.8209         C  4 -- C  8          +1.3% ( 11.7%)     47.4%
 EFF. MASS   1.4831

 VIBRATION   42   42A         ATOM PAIR      ENERGY CONTRIBUTION    RADIAL
 FREQ.      3152.06         C  8 -- H 16         +96.0% ( 99.4%)    100.0%
 T-DIPOLE    0.3055         C  8 -- H 15          +1.9% ( 13.9%)     33.7%
 TRAVEL      0.1183         C  4 -- C  8          +1.5% ( 12.5%)     43.6%
 RED. MASS   0.9114         C  4 -- H  9          +0.6% (  7.9%)     95.4%
 EFF. MASS   1.5294

      SYMMETRY NUMBER FOR POINT-GROUP C1  =  1


          SYSTEM IS A GROUND STATE



 InChI=1S/C8H8/c1-2-8-6-4-3-5-7-8/h2-7H,1H2


          MOLECULE IS NOT LINEAR

          THERE ARE 42 GENUINE VIBRATIONS IN THIS SYSTEM
          THIS THERMODYNAMICS CALCULATION IS LIMITED TO
          MOLECULES WHICH HAVE NO INTERNAL ROTATIONS




                    CALCULATED THERMODYNAMIC PROPERTIES
                                          *
   TEMP. (K)   PARTITION FUNCTION   H.O.F.    ENTHALPY  HEAT CAPACITY ENTROPY
                                   KCAL/MOL   CAL/MOLE    CAL/K/MOL  CAL/K/MOL


 298.00  VIB.     0.1305D+02                  2413.5793    20.1009    13.2035
         ROT.     0.2748D+06                   888.2813     2.9808    27.8680
         INT.     0.3585D+07                  3301.8606    23.0817    41.0716
         TRA.     0.1028D+28                  1480.4688     4.9680    39.8370
         TOT.                       39.091    4782.3294    28.0497    80.9086

 200.00  VIB.     0.3837D+01                   890.5056    11.1518     7.1246
         ROT.     0.1511D+06                   596.1620     2.9808    26.6794
         INT.     0.5796D+06                  1486.6675    14.1326    33.8039
         TRA.     0.5650D+27                   993.6033     4.9680    37.8559
         TOT.                       36.789    2480.2708    19.1006    71.6598

 210.00  VIB.     0.4298D+01                  1006.2649    12.0037     7.6892
         ROT.     0.1626D+06                   625.9700     2.9808    26.8248
         INT.     0.6986D+06                  1632.2349    14.9845    34.5140
         TRA.     0.6079D+27                  1043.2834     4.9680    38.0983
         TOT.                       36.985    2675.5183    19.9525    72.6122

 220.00  VIB.     0.4827D+01                  1130.6473    12.8760     8.2676
         ROT.     0.1743D+06                   655.7781     2.9808    26.9635
         INT.     0.8414D+06                  1786.4255    15.8568    35.2311
         TRA.     0.6518D+27                  1092.9636     4.9680    38.3294
         TOT.                       37.188    2879.3891    20.8249    73.5605

 230.00  VIB.     0.5437D+01                  1263.8459    13.7665     8.8596
         ROT.     0.1863D+06                   685.5862     2.9808    27.0960
         INT.     0.1013D+07                  1949.4322    16.7473    35.9556
         TRA.     0.6968D+27                  1142.6437     4.9680    38.5502
         TOT.                       37.401    3092.0759    21.7153    74.5058

 240.00  VIB.     0.6139D+01                  1406.0293    14.6726     9.4646
         ROT.     0.1986D+06                   715.3943     2.9808    27.2228
         INT.     0.1219D+07                  2121.4236    17.6534    36.6874
         TRA.     0.7427D+27                  1192.3239     4.9680    38.7617
         TOT.                       37.623    3313.7475    22.6214    75.4491

 250.00  VIB.     0.6950D+01                  1557.3404    15.5916    10.0821
         ROT.     0.2111D+06                   745.2024     2.9808    27.3445
         INT.     0.1467D+07                  2302.5429    18.5724    37.4266
         TRA.     0.7896D+27                  1242.0041     4.9680    38.9645
         TOT.                       37.854    3544.5469    23.5404    76.3911

 260.00  VIB.     0.7889D+01                  1717.8959    16.5210    10.7117
         ROT.     0.2239D+06                   775.0105     2.9808    27.4614
         INT.     0.1767D+07                  2492.9064    19.5018    38.1731
         TRA.     0.8374D+27                  1291.6842     4.9680    39.1593
         TOT.                       38.094    3784.5906    24.4698    77.3325

 270.00  VIB.     0.8976D+01                  1887.7854    17.4580    11.3528
         ROT.     0.2370D+06                   804.8186     2.9808    27.5739
         INT.     0.2127D+07                  2692.6040    20.4388    38.9267
         TRA.     0.8862D+27                  1341.3644     4.9680    39.3468
         TOT.                       38.343    4033.9684    25.4068    78.2735

 280.00  VIB.     0.1024D+02                  2067.0726    18.4001    12.0047
         ROT.     0.2503D+06                   834.6267     2.9808    27.6823
         INT.     0.2562D+07                  2901.6994    21.3809    39.6870
         TRA.     0.9359D+27                  1391.0445     4.9680    39.5275
         TOT.                       38.602    4292.7439    26.3489    79.2145

 290.00  VIB.     0.1170D+02                  2255.7960    19.3448    12.6669
         ROT.     0.2638D+06                   864.4348     2.9808    27.7869
         INT.     0.3087D+07                  3120.2309    22.3256    40.4538
         TRA.     0.9865D+27                  1440.7247     4.9680    39.7018
         TOT.                       38.870    4560.9556    27.2936    80.1556

 300.00  VIB.     0.1341D+02                  2453.9700    20.2898    13.3386
         ROT.     0.2776D+06                   894.2429     2.9808    27.8880
         INT.     0.3722D+07                  3348.2130    23.2706    41.2266
         TRA.     0.1038D+28                  1490.4049     4.9680    39.8702
         TOT.                       39.148    4838.6178    28.2387    81.0968

 310.00  VIB.     0.1540D+02                  2661.5865    21.2330    14.0193
         ROT.     0.2915D+06                   924.0510     2.9808    27.9857
         INT.     0.4489D+07                  3585.6376    24.2138    42.0050
         TRA.     0.1090D+28                  1540.0850     4.9680    40.0331
         TOT.                       39.435    5125.7226    29.1818    82.0382

 320.00  VIB.     0.1772D+02                  2878.6168    22.1723    14.7083
         ROT.     0.3058D+06                   953.8591     2.9808    28.0804
         INT.     0.5418D+07                  3832.4759    25.1531    42.7886
         TRA.     0.1143D+28                  1589.7652     4.9680    40.1909
         TOT.                       39.731    5422.2411    30.1211    82.9795

 330.00  VIB.     0.2043D+02                  3105.0131    23.1059    15.4049
         ROT.     0.3202D+06                   983.6672     2.9808    28.1721
         INT.     0.6543D+07                  4088.6803    26.0867    43.5769
         TRA.     0.1197D+28                  1639.4454     4.9680    40.3437
         TOT.                       40.037    5728.1257    31.0547    83.9207

 340.00  VIB.     0.2361D+02                  3340.7107    24.0323    16.1084
         ROT.     0.3349D+06                  1013.4753     2.9808    28.2611
         INT.     0.7906D+07                  4354.1860    27.0131    44.3695
         TRA.     0.1252D+28                  1689.1255     4.9680    40.4921
         TOT.                       40.352    6043.3115    31.9811    84.8615

 350.00  VIB.     0.2733D+02                  3585.6296    24.9500    16.8183
         ROT.     0.3498D+06                  1043.2834     2.9808    28.3475
         INT.     0.9559D+07                  4628.9131    27.9308    45.1658
         TRA.     0.1308D+28                  1738.8057     4.9680    40.6361
         TOT.                       40.677    6367.7187    32.8988    85.8018

 360.00  VIB.     0.3170D+02                  3839.6767    25.8577    17.5339
         ROT.     0.3648D+06                  1073.0915     2.9808    28.4314
         INT.     0.1156D+08                  4912.7682    28.8385    45.9654
         TRA.     0.1364D+28                  1788.4859     4.9680    40.7760
         TOT.                       41.010    6701.2541    33.8065    86.7414

 370.00  VIB.     0.3682D+02                  4102.7471    26.7544    18.2546
         ROT.     0.3802D+06                  1102.8996     2.9808    28.5131
         INT.     0.1400D+08                  5205.6467    29.7353    46.7678
         TRA.     0.1422D+28                  1838.1660     4.9680    40.9121
         TOT.                       41.353    7043.8127    34.7033    87.6799

 380.00  VIB.     0.4285D+02                  4374.7258    27.6393    18.9799
         ROT.     0.3957D+06                  1132.7077     2.9808    28.5926
         INT.     0.1696D+08                  5507.4335    30.6201    47.5725
         TRA.     0.1480D+28                  1887.8462     4.9680    41.0446
         TOT.                       41.704    7395.2797    35.5881    88.6171

 390.00  VIB.     0.4995D+02                  4655.4898    28.5114    19.7092
         ROT.     0.4114D+06                  1162.5158     2.9808    28.6700
         INT.     0.2055D+08                  5818.0056    31.4922    48.3792
         TRA.     0.1538D+28                  1937.5263     4.9680    41.1737
         TOT.                       42.065    7755.5319    36.4602    89.5529

 400.00  VIB.     0.5831D+02                  4944.9089    29.3702    20.4419
         ROT.     0.4273D+06                  1192.3239     2.9808    28.7455
         INT.     0.2492D+08                  6137.2328    32.3510    49.1874
         TRA.     0.1598D+28                  1987.2065     4.9680    41.2995
         TOT.                       42.434    8124.4393    37.3190    90.4868

   *: NOTE: HEATS OF FORMATION ARE RELATIVE TO THE
            ELEMENTS IN THEIR STANDARD STATE AT 298K
              (=  Standard Enthalpy of Formation).

            Hvib:  Zero-point energy is not included.
                   frequencies of less than zero cm-1 are not included.
            Hrot = (3/2)RT
            Htra = (3/2)RT + pV = (5/2)RT

            Heat capacity is Cp, not Cv

          For more information, see: HTTP://OpenMOPAC.net/Manual/thermochemistry.html


           FORCE CONSTANT IN CARTESIAN COORDINATES (Millidynes/A)

    ATOM   CHEMICAL       X               Y               Z
   NUMBER   SYMBOL  FORCE CONSTANT  FORCE CONSTANT  FORCE CONSTANT

      1       C       12.721066       12.720541        2.596368
      2       C       12.129663       12.318149        2.345613
      3       C       11.876178       12.540932        2.345293
      4       C       15.432351        9.827233        2.249450
      5       C       12.094802       12.196806        2.339385
      6       C       12.206388       12.168854        2.337556
      7       C       12.214636       12.231121        2.336445
      8       C       15.135826        9.190932        1.955703
      9       H        2.108649        3.749988        0.353763
     10       H        1.878978        4.032811        0.353939
     11       H        5.159010        0.759981        0.355573
     12       H        1.882549        4.043514        0.354702
     13       H        1.846239        4.074338        0.355883
     14       H        4.966563        0.816480        0.378171
     15       H        2.240179        3.724591        0.360059
     16       H        1.866817        4.269905        0.332774

 **********************
 *                    *
 * JOB ENDED NORMALLY *
 *                    *
 **********************



 TOTAL JOB TIME:             0.97 SECONDS

 == MOPAC DONE ==
