 *******************************************************************************
 ** Site#: 14399        For non-commercial use only    Version 18.184L 64BITS **
 *******************************************************************************
 ** Cite this program as: MOPAC2016, Version: 18.184L, James J. P. Stewart,   **
 ** Stewart Computational Chemistry, web: HTTP://OpenMOPAC.net. Days left:  18**
 *******************************************************************************
 **                                                                           **
 **                                MOPAC2016                                  **
 **                                                                           **
 *******************************************************************************

                              PM3 CALCULATION RESULTS

 *******************************************************************************
 *  CALCULATION DONE:                                Sat Jun 15 10:16:05 2019  *
 *  PM3        - The PM3 Hamiltonian to be used
 *  PRECISE    - CRITERIA TO BE INCREASED BY 100 TIMES
 *  NOSYM      - POINT-GROUP SYMMETRY SET TO C1
 *  THREADS=1  - MULTI-THREADING NOT USED
 *  T=         - A TIME OF 172800.0 SECONDS REQUESTED
 *  DUMP=N     - RESTART FILE WRITTEN EVERY  7200.000 SECONDS
 *******************************************************************************
pm3  precise nosym THREADS=1
 InChI=1S/C10H10/c1-2-5-9(6-3-1)10-7-4-8-10/h1-7,10H,8H2

   ATOM   CHEMICAL          X               Y               Z
  NUMBER   SYMBOL      (ANGSTROMS)     (ANGSTROMS)     (ANGSTROMS)
 
     1       C         -1.27580000  *   0.69970000  *   0.02030000  *
     2       C         -2.15200000  *  -0.22190000  *  -0.65250000  *
     3       C          0.19320000  *   0.31480000  *   0.00500000  *
     4       C         -1.96350000  *   0.37970000  *   1.31020000  *
     5       C         -2.82040000  *  -0.50530000  *   0.65530000  *
     6       C          0.64590000  *  -0.91690000  *   0.52260000  *
     7       C          1.13030000  *   1.20330000  *  -0.55030000  *
     8       C          2.00500000  *  -1.24250000  *   0.48710000  *
     9       C          2.92550000  *  -0.34870000  *  -0.06450000  *
    10       C          2.48860000  *   0.87240000  *  -0.58300000  *
    11       H         -1.45900000  *   1.75760000  *  -0.27690000  *
    12       H         -1.66550000  *  -1.13150000  *  -1.07020000  *
    13       H         -2.84740000  *   0.27260000  *  -1.36600000  *
    14       H         -1.84890000  *   0.71040000  *   2.33680000  *
    15       H         -3.63970000  *  -1.14330000  *   0.96790000  *
    16       H         -0.05140000  *  -1.62530000  *   0.95150000  *
    17       H          2.34450000  *  -2.18930000  *   0.88690000  *
    18       H          3.97730000  *  -0.60270000  *  -0.09130000  *
    19       H          3.20280000  *   1.56340000  *  -1.01180000  *
    20       H          0.81050000  *   2.15360000  *  -0.95960000  *
 


          CARTESIAN COORDINATES 

    NO.       ATOM           X           Y           Z

     1         C         -1.2758      0.6997      0.0203
     2         C         -2.1520     -0.2219     -0.6525
     3         C          0.1932      0.3148      0.0050
     4         C         -1.9635      0.3797      1.3102
     5         C         -2.8204     -0.5053      0.6553
     6         C          0.6459     -0.9169      0.5226
     7         C          1.1303      1.2033     -0.5503
     8         C          2.0050     -1.2425      0.4871
     9         C          2.9255     -0.3487     -0.0645
    10         C          2.4886      0.8724     -0.5830
    11         H         -1.4590      1.7576     -0.2769
    12         H         -1.6655     -1.1315     -1.0702
    13         H         -2.8474      0.2726     -1.3660
    14         H         -1.8489      0.7104      2.3368
    15         H         -3.6397     -1.1433      0.9679
    16         H         -0.0514     -1.6253      0.9515
    17         H          2.3445     -2.1893      0.8869
    18         H          3.9773     -0.6027     -0.0913
    19         H          3.2028      1.5634     -1.0118
    20         H          0.8105      2.1536     -0.9596

  H: (PM3): J. J. P. STEWART, J. COMP. CHEM. 10, 209 (1989).
  C: (PM3): J. J. P. STEWART, J. COMP. CHEM. 10, 209 (1989).

           Empirical Formula: C10 H10  =    20 atoms



      MOLECULAR POINT GROUP   :   C1  


      RHF CALCULATION, NO. OF DOUBLY OCCUPIED LEVELS = 25


          Geometry optimization using EF

          DIAGONAL MATRIX USED AS START HESSIAN

 CYCLE:     1 TIME:   0.008 TIME LEFT:  2.00D  GRAD.:   220.375 HEAT:  77.77375
 CYCLE:     2 TIME:   0.008 TIME LEFT:  2.00D  GRAD.:    58.844 HEAT:  68.18721
 CYCLE:     3 TIME:   0.008 TIME LEFT:  2.00D  GRAD.:    71.713 HEAT:  67.55925
 CYCLE:     4 TIME:   0.008 TIME LEFT:  2.00D  GRAD.:    44.351 HEAT:  66.72792
 CYCLE:     5 TIME:   0.004 TIME LEFT:  2.00D  GRAD.:    51.121 HEAT:  66.68834
 CYCLE:     6 TIME:   0.004 TIME LEFT:  2.00D  GRAD.:    39.768 HEAT:  66.07895
 CYCLE:     7 TIME:   0.008 TIME LEFT:  2.00D  GRAD.:    31.042 HEAT:  65.73463
 CYCLE:     8 TIME:   0.008 TIME LEFT:  2.00D  GRAD.:    18.049 HEAT:  65.51300
 CYCLE:     9 TIME:   0.008 TIME LEFT:  2.00D  GRAD.:    15.666 HEAT:  65.44273
 CYCLE:    10 TIME:   0.004 TIME LEFT:  2.00D  GRAD.:    10.879 HEAT:  65.35876
 CYCLE:    11 TIME:   0.004 TIME LEFT:  2.00D  GRAD.:    12.131 HEAT:  65.28542
 CYCLE:    12 TIME:   0.008 TIME LEFT:  2.00D  GRAD.:    10.506 HEAT:  65.20913
 CYCLE:    13 TIME:   0.008 TIME LEFT:  2.00D  GRAD.:    12.497 HEAT:  65.18378
 CYCLE:    14 TIME:   0.004 TIME LEFT:  2.00D  GRAD.:    13.524 HEAT:  65.17930
 CYCLE:    15 TIME:   0.004 TIME LEFT:  2.00D  GRAD.:    12.375 HEAT:  65.16264
 CYCLE:    16 TIME:   0.008 TIME LEFT:  2.00D  GRAD.:     5.800 HEAT:  65.13704
 CYCLE:    17 TIME:   0.004 TIME LEFT:  2.00D  GRAD.:     4.811 HEAT:  65.13187
 CYCLE:    18 TIME:   0.008 TIME LEFT:  2.00D  GRAD.:     3.733 HEAT:  65.12701
 CYCLE:    19 TIME:   0.004 TIME LEFT:  2.00D  GRAD.:     5.159 HEAT:  65.12817
 CYCLE:    20 TIME:   0.004 TIME LEFT:  2.00D  GRAD.:     3.590 HEAT:  65.11925
 CYCLE:    21 TIME:   0.004 TIME LEFT:  2.00D  GRAD.:     5.028 HEAT:  65.12004
 CYCLE:    22 TIME:   0.004 TIME LEFT:  2.00D  GRAD.:     2.505 HEAT:  65.10975
 CYCLE:    23 TIME:   0.004 TIME LEFT:  2.00D  GRAD.:     2.992 HEAT:  65.10560
 CYCLE:    24 TIME:   0.004 TIME LEFT:  2.00D  GRAD.:     2.623 HEAT:  65.10021
 CYCLE:    25 TIME:   0.004 TIME LEFT:  2.00D  GRAD.:     3.962 HEAT:  65.09791
 CYCLE:    26 TIME:   0.004 TIME LEFT:  2.00D  GRAD.:     1.896 HEAT:  65.09341
 CYCLE:    27 TIME:   0.004 TIME LEFT:  2.00D  GRAD.:     2.038 HEAT:  65.09256
 CYCLE:    28 TIME:   0.004 TIME LEFT:  2.00D  GRAD.:     0.885 HEAT:  65.09055
 CYCLE:    29 TIME:   0.004 TIME LEFT:  2.00D  GRAD.:     1.153 HEAT:  65.08985
 CYCLE:    30 TIME:   0.004 TIME LEFT:  2.00D  GRAD.:     0.757 HEAT:  65.08890
 CYCLE:    31 TIME:   0.004 TIME LEFT:  2.00D  GRAD.:     0.701 HEAT:  65.08821
 CYCLE:    32 TIME:   0.004 TIME LEFT:  2.00D  GRAD.:     0.905 HEAT:  65.08733
 CYCLE:    33 TIME:   0.008 TIME LEFT:  2.00D  GRAD.:     0.909 HEAT:  65.08607
 CYCLE:    34 TIME:   0.004 TIME LEFT:  2.00D  GRAD.:     0.794 HEAT:  65.08447
 CYCLE:    35 TIME:   0.004 TIME LEFT:  2.00D  GRAD.:     0.731 HEAT:  65.08322
 CYCLE:    36 TIME:   0.004 TIME LEFT:  2.00D  GRAD.:     0.901 HEAT:  65.08231
 CYCLE:    37 TIME:   0.004 TIME LEFT:  2.00D  GRAD.:     0.758 HEAT:  65.08147
 CYCLE:    38 TIME:   0.004 TIME LEFT:  2.00D  GRAD.:     0.511 HEAT:  65.08085
 CYCLE:    39 TIME:   0.004 TIME LEFT:  2.00D  GRAD.:     0.446 HEAT:  65.08036
 CYCLE:    40 TIME:   0.004 TIME LEFT:  2.00D  GRAD.:     0.428 HEAT:  65.08005
 CYCLE:    41 TIME:   0.004 TIME LEFT:  2.00D  GRAD.:     0.377 HEAT:  65.07963
 CYCLE:    42 TIME:   0.004 TIME LEFT:  2.00D  GRAD.:     0.342 HEAT:  65.07935
 CYCLE:    43 TIME:   0.004 TIME LEFT:  2.00D  GRAD.:     0.355 HEAT:  65.07909
 CYCLE:    44 TIME:   0.004 TIME LEFT:  2.00D  GRAD.:     0.359 HEAT:  65.07880
 CYCLE:    45 TIME:   0.004 TIME LEFT:  2.00D  GRAD.:     0.267 HEAT:  65.07857
 CYCLE:    46 TIME:   0.004 TIME LEFT:  2.00D  GRAD.:     0.166 HEAT:  65.07845
 CYCLE:    47 TIME:   0.004 TIME LEFT:  2.00D  GRAD.:     0.140 HEAT:  65.07839
 CYCLE:    48 TIME:   0.004 TIME LEFT:  2.00D  GRAD.:     0.136 HEAT:  65.07835
 CYCLE:    49 TIME:   0.004 TIME LEFT:  2.00D  GRAD.:     0.110 HEAT:  65.07831
 CYCLE:    50 TIME:   0.004 TIME LEFT:  2.00D  GRAD.:     0.079 HEAT:  65.07828
 CYCLE:    51 TIME:   0.004 TIME LEFT:  2.00D  GRAD.:     0.089 HEAT:  65.07826
 CYCLE:    52 TIME:   0.004 TIME LEFT:  2.00D  GRAD.:     0.117 HEAT:  65.07824
 CYCLE:    53 TIME:   0.004 TIME LEFT:  2.00D  GRAD.:     0.133 HEAT:  65.07819
 CYCLE:    54 TIME:   0.004 TIME LEFT:  2.00D  GRAD.:     0.276 HEAT:  65.07818
 CYCLE:    55 TIME:   0.004 TIME LEFT:  2.00D  GRAD.:     0.163 HEAT:  65.07808
 CYCLE:    56 TIME:   0.008 TIME LEFT:  2.00D  GRAD.:     0.124 HEAT:  65.07801
 CYCLE:    57 TIME:   0.004 TIME LEFT:  2.00D  GRAD.:     0.177 HEAT:  65.07786
 CYCLE:    58 TIME:   0.004 TIME LEFT:  2.00D  GRAD.:     0.338 HEAT:  65.07758
 CYCLE:    59 TIME:   0.004 TIME LEFT:  2.00D  GRAD.:     0.666 HEAT:  65.07690
 CYCLE:    60 TIME:   0.004 TIME LEFT:  2.00D  GRAD.:     1.060 HEAT:  65.07532
 CYCLE:    61 TIME:   0.004 TIME LEFT:  2.00D  GRAD.:     1.761 HEAT:  65.07318
 CYCLE:    62 TIME:   0.004 TIME LEFT:  2.00D  GRAD.:     1.422 HEAT:  65.06946
 CYCLE:    63 TIME:   0.004 TIME LEFT:  2.00D  GRAD.:     1.356 HEAT:  65.06430
 CYCLE:    64 TIME:   0.004 TIME LEFT:  2.00D  GRAD.:     3.019 HEAT:  65.06273
 CYCLE:    65 TIME:   0.004 TIME LEFT:  2.00D  GRAD.:     1.408 HEAT:  65.05528
 CYCLE:    66 TIME:   0.004 TIME LEFT:  2.00D  GRAD.:     2.140 HEAT:  65.04798
 CYCLE:    67 TIME:   0.004 TIME LEFT:  2.00D  GRAD.:     1.750 HEAT:  65.04298
 CYCLE:    68 TIME:   0.004 TIME LEFT:  2.00D  GRAD.:     1.479 HEAT:  65.03655
 CYCLE:    69 TIME:   0.008 TIME LEFT:  2.00D  GRAD.:     1.914 HEAT:  65.02799
 CYCLE:    70 TIME:   0.016 TIME LEFT:  2.00D  GRAD.:     3.467 HEAT:  65.02621
 CYCLE:    71 TIME:   0.004 TIME LEFT:  2.00D  GRAD.:     1.112 HEAT:  65.01544
 CYCLE:    72 TIME:   0.004 TIME LEFT:  2.00D  GRAD.:     3.111 HEAT:  65.01115
 CYCLE:    73 TIME:   0.004 TIME LEFT:  2.00D  GRAD.:     1.771 HEAT:  65.00675
 CYCLE:    74 TIME:   0.008 TIME LEFT:  2.00D  GRAD.:     1.542 HEAT:  65.00020
 CYCLE:    75 TIME:   0.004 TIME LEFT:  2.00D  GRAD.:     2.073 HEAT:  64.99354
 CYCLE:    76 TIME:   0.004 TIME LEFT:  2.00D  GRAD.:     2.725 HEAT:  64.98250
 CYCLE:    77 TIME:   0.004 TIME LEFT:  2.00D  GRAD.:     3.089 HEAT:  64.98028
 CYCLE:    78 TIME:   0.004 TIME LEFT:  2.00D  GRAD.:     2.096 HEAT:  64.97419
 CYCLE:    79 TIME:   0.004 TIME LEFT:  2.00D  GRAD.:     1.690 HEAT:  64.97118
 CYCLE:    80 TIME:   0.004 TIME LEFT:  2.00D  GRAD.:     0.802 HEAT:  64.96869
 CYCLE:    81 TIME:   0.004 TIME LEFT:  2.00D  GRAD.:     0.871 HEAT:  64.96595
 CYCLE:    82 TIME:   0.004 TIME LEFT:  2.00D  GRAD.:     0.526 HEAT:  64.96531
 CYCLE:    83 TIME:   0.004 TIME LEFT:  2.00D  GRAD.:     0.502 HEAT:  64.96478
 CYCLE:    84 TIME:   0.004 TIME LEFT:  2.00D  GRAD.:     0.368 HEAT:  64.96442
 CYCLE:    85 TIME:   0.004 TIME LEFT:  2.00D  GRAD.:     0.375 HEAT:  64.96411
 CYCLE:    86 TIME:   0.004 TIME LEFT:  2.00D  GRAD.:     0.267 HEAT:  64.96399
 CYCLE:    87 TIME:   0.008 TIME LEFT:  2.00D  GRAD.:     0.163 HEAT:  64.96392
 CYCLE:    88 TIME:   0.004 TIME LEFT:  2.00D  GRAD.:     0.171 HEAT:  64.96387
 CYCLE:    89 TIME:   0.004 TIME LEFT:  2.00D  GRAD.:     0.182 HEAT:  64.96384
 CYCLE:    90 TIME:   0.004 TIME LEFT:  2.00D  GRAD.:     0.149 HEAT:  64.96381
 CYCLE:    91 TIME:   0.004 TIME LEFT:  2.00D  GRAD.:     0.092 HEAT:  64.96379
 CYCLE:    92 TIME:   0.004 TIME LEFT:  2.00D  GRAD.:     0.067 HEAT:  64.96379
 CYCLE:    93 TIME:   0.004 TIME LEFT:  2.00D  GRAD.:     0.038 HEAT:  64.96378

     GRADIENT =  0.03828  IS LESS THAN CUTOFF =  0.05000



 -------------------------------------------------------------------------------
 pm3  precise nosym THREADS=1
 InChI=1S/C10H10/c1-2-5-9(6-3-1)10-7-4-8-10/h1-7,10H,8H2



     GEOMETRY OPTIMISED USING EIGENVECTOR FOLLOWING (EF).     
     SCF FIELD WAS ACHIEVED                                   


                              PM3 CALCULATION
                                                       MOPAC2016 (Version: 18.184L)
                                                       Sat Jun 15 10:16:06 2019
                                                       No. of days remaining =  18




          FINAL HEAT OF FORMATION =         64.96378 KCAL/MOL =     271.80847 KJ/MOL


          TOTAL ENERGY            =      -1336.91384 EV
          ELECTRONIC ENERGY       =      -6969.19184 EV  POINT GROUP:     C1  
          CORE-CORE REPULSION     =       5632.27800 EV
          COSMO AREA              =        175.27 SQUARE ANGSTROMS
          COSMO VOLUME            =        176.74 CUBIC ANGSTROMS

          GRADIENT NORM           =          0.03828 = 0.00856 PER ATOM
          IONIZATION POTENTIAL    =          9.452463 EV
          HOMO LUMO ENERGIES (EV) =         -9.452  0.337
          NO. OF FILLED LEVELS    =         25
          MOLECULAR WEIGHT        =        130.1890

          MOLECULAR DIMENSIONS (Angstroms)

            Atom       Atom       Distance
            H    18    H    15     7.79381
            H    20    H    17     4.77995
            H    12    H    14     3.52719


          SCF CALCULATIONS        =        107
 
          WALL-CLOCK TIME         =          0.445 SECONDS
          COMPUTATION TIME        =          0.415 SECONDS




   ATOM   CHEMICAL          X               Y               Z
  NUMBER   SYMBOL      (ANGSTROMS)     (ANGSTROMS)     (ANGSTROMS)
 
     1       C         -1.19542147  *   0.72155975  *   0.27730343  *
     2       C         -2.17129290  *   0.06694604  *  -0.77865429  *
     3       C          0.23230919  *   0.32863552  *   0.14730003  *
     4       C         -2.04416523  *   0.00186008  *   1.32257547  *
     5       C         -2.88701319  *  -0.53212568  *   0.41661362  *
     6       C          0.76539428  *  -0.74337584  *   0.86338444  *
     7       C          1.05695361  *   1.05287654  *  -0.71814171  *
     8       C          2.10483801  *  -1.08706119  *   0.71545498  *
     9       C          2.92021684  *  -0.36555318  *  -0.14898844  *
    10       C          2.39382792  *   0.70447053  *  -0.86580248  *
    11       H         -1.28440299  *   1.82689199  *   0.33592575  *
    12       H         -1.70474433  *  -0.65932309  *  -1.45912381  *
    13       H         -2.75885322  *   0.77595766  *  -1.37810023  *
    14       H         -1.94909252  *  -0.01590437  *   2.39988668  *
    15       H         -3.76889782  *  -1.15695617  *   0.45594404  *
    16       H          0.12242029  *  -1.31380978  *   1.54438176  *
    17       H          2.51632871  *  -1.92890097  *   1.28166116  *
    18       H          3.97409468  *  -0.63773020  *  -0.26509094  *
    19       H          3.03408026  *   1.27467830  *  -1.54662508  *
    20       H          0.64624694  *   1.89874388  *  -1.28064294  *

                             CARTESIAN COORDINATES

   1    C       -1.195421470     0.721559750     0.277303428
   2    C       -2.171292900     0.066946040    -0.778654287
   3    C        0.232309189     0.328635520     0.147300030
   4    C       -2.044165229     0.001860077     1.322575473
   5    C       -2.887013185    -0.532125676     0.416613618
   6    C        0.765394283    -0.743375837     0.863384439
   7    C        1.056953611     1.052876540    -0.718141711
   8    C        2.104838009    -1.087061187     0.715454978
   9    C        2.920216845    -0.365553185    -0.148988436
  10    C        2.393827919     0.704470533    -0.865802483
  11    H       -1.284402986     1.826891992     0.335925747
  12    H       -1.704744331    -0.659323091    -1.459123808
  13    H       -2.758853217     0.775957663    -1.378100225
  14    H       -1.949092523    -0.015904373     2.399886684
  15    H       -3.768897815    -1.156956171     0.455944044
  16    H        0.122420289    -1.313809781     1.544381764
  17    H        2.516328706    -1.928900967     1.281661157
  18    H        3.974094681    -0.637730202    -0.265090943
  19    H        3.034080259     1.274678301    -1.546625083
  20    H        0.646246938     1.898743885    -1.280642939


           Empirical Formula: C10 H10  =    20 atoms



      MOLECULAR POINT GROUP   :   C1  


                  EIGENVALUES  
 -41.08433 -37.43941 -29.82126 -29.48036 -24.91353 -23.95995 -21.47523 -20.61221
 -18.39189 -17.69148 -17.15624 -16.26486 -15.66192 -14.84799 -14.59593 -14.26005
 -13.45070 -13.21861 -12.47448 -12.37666 -12.21609 -11.76135  -9.98563  -9.72123
  -9.45246   0.33745   0.44526   0.93318   2.75511   3.08884   3.26602   3.30879
   3.40935   3.57152   3.62782   3.69180   3.94446   3.98843   4.08263   4.32988
   4.47670   4.75899   4.86421   5.07264   5.19485   5.31643   5.35302   6.03879
   6.20812   6.39040


              NET ATOMIC CHARGES AND DIPOLE CONTRIBUTIONS

  ATOM NO.   TYPE          CHARGE      No. of ELECS.   s-Pop       p-Pop       
    1          C          -0.023805        4.0238     1.17405     2.84975
    2          C          -0.079949        4.0799     1.17223     2.90772
    3          C          -0.064408        4.0644     1.17785     2.88656
    4          C          -0.162587        4.1626     1.21960     2.94299
    5          C          -0.153713        4.1537     1.21783     2.93588
    6          C          -0.095049        4.0950     1.17875     2.91630
    7          C          -0.101198        4.1012     1.17886     2.92234
    8          C          -0.100695        4.1007     1.17887     2.92182
    9          C          -0.105262        4.1053     1.17923     2.92603
   10          C          -0.100981        4.1010     1.17865     2.92234
   11          H           0.081615        0.9184     0.91838
   12          H           0.070055        0.9299     0.92995
   13          H           0.061496        0.9385     0.93850
   14          H           0.127517        0.8725     0.87248
   15          H           0.125031        0.8750     0.87497
   16          H           0.110972        0.8890     0.88903
   17          H           0.102047        0.8980     0.89795
   18          H           0.102366        0.8976     0.89763
   19          H           0.101969        0.8980     0.89803
   20          H           0.104580        0.8954     0.89542
 DIPOLE           X         Y         Z       TOTAL
 POINT-CHG.    -0.178     0.016    -0.117     0.214
 HYBRID        -0.016    -0.005     0.004     0.017
 SUM           -0.194     0.011    -0.113     0.225


          ATOMIC ORBITAL ELECTRON POPULATIONS

     Atom    s        px        py        pz   
    1  C   1.17405   0.90906   0.98751   0.95318
    2  C   1.17223   0.96676   0.99152   0.94944
    3  C   1.17785   0.94525   0.96531   0.97600
    4  C   1.21960   0.97635   0.99328   0.97336
    5  C   1.21783   0.98367   0.99039   0.96182
    6  C   1.17875   0.95713   0.96795   0.99122
    7  C   1.17886   0.94726   0.99012   0.98497
    8  C   1.17887   0.94890   0.98806   0.98487
    9  C   1.17923   0.98280   0.96721   0.97603
   10  C   1.17865   0.95669   0.97515   0.99050
   11  H   0.91838
   12  H   0.92995
   13  H   0.93850
   14  H   0.87248
   15  H   0.87497
   16  H   0.88903
   17  H   0.89795
   18  H   0.89763
   19  H   0.89803
   20  H   0.89542
 *******************************************************************************
 ** Site#: 14399        For non-commercial use only    Version 18.184L 64BITS **
 *******************************************************************************
 ** Cite this program as: MOPAC2016, Version: 18.184L, James J. P. Stewart,   **
 ** Stewart Computational Chemistry, web: HTTP://OpenMOPAC.net. Days left:  18**
 *******************************************************************************
 **                                                                           **
 **                                MOPAC2016                                  **
 **                                                                           **
 *******************************************************************************

                              PM3 CALCULATION RESULTS

 *******************************************************************************
 *  CALCULATION DONE:                                Sat Jun 15 10:16:06 2019  *
 *  PM3        - The PM3 Hamiltonian to be used
 *  OLDGEO     - PREVIOUS GEOMETRY TO BE USED
 *  PRECISE    - CRITERIA TO BE INCREASED BY 100 TIMES
 *  NOSYM      - POINT-GROUP SYMMETRY SET TO C1
 *  THREADS=1  - MULTI-THREADING NOT USED
 *  T=         - A TIME OF 172800.0 SECONDS REQUESTED
 *  DUMP=N     - RESTART FILE WRITTEN EVERY  7200.000 SECONDS
 *  THERMO     - THERMODYNAMIC QUANTITIES TO BE CALCULATED
 *******************************************************************************
oldgeo thermo nosym precise THREADS=1  pm3
 InChI=1S/C10H10/c1-2-5-9(6-3-1)10-7-4-8-10/h1-7,10H,8H2

   ATOM   CHEMICAL          X               Y               Z
  NUMBER   SYMBOL      (ANGSTROMS)     (ANGSTROMS)     (ANGSTROMS)
 
     1       C         -1.19542147  *   0.72155975  *   0.27730343  *
     2       C         -2.17129290  *   0.06694604  *  -0.77865429  *
     3       C          0.23230919  *   0.32863552  *   0.14730003  *
     4       C         -2.04416523  *   0.00186008  *   1.32257547  *
     5       C         -2.88701319  *  -0.53212568  *   0.41661362  *
     6       C          0.76539428  *  -0.74337584  *   0.86338444  *
     7       C          1.05695361  *   1.05287654  *  -0.71814171  *
     8       C          2.10483801  *  -1.08706119  *   0.71545498  *
     9       C          2.92021684  *  -0.36555318  *  -0.14898844  *
    10       C          2.39382792  *   0.70447053  *  -0.86580248  *
    11       H         -1.28440299  *   1.82689199  *   0.33592575  *
    12       H         -1.70474433  *  -0.65932309  *  -1.45912381  *
    13       H         -2.75885322  *   0.77595766  *  -1.37810023  *
    14       H         -1.94909252  *  -0.01590437  *   2.39988668  *
    15       H         -3.76889782  *  -1.15695617  *   0.45594404  *
    16       H          0.12242029  *  -1.31380978  *   1.54438176  *
    17       H          2.51632871  *  -1.92890097  *   1.28166116  *
    18       H          3.97409468  *  -0.63773020  *  -0.26509094  *
    19       H          3.03408026  *   1.27467830  *  -1.54662508  *
    20       H          0.64624694  *   1.89874388  *  -1.28064294  *
 


          CARTESIAN COORDINATES 

    NO.       ATOM           X           Y           Z

     1         C         -1.1954      0.7216      0.2773
     2         C         -2.1713      0.0669     -0.7787
     3         C          0.2323      0.3286      0.1473
     4         C         -2.0442      0.0019      1.3226
     5         C         -2.8870     -0.5321      0.4166
     6         C          0.7654     -0.7434      0.8634
     7         C          1.0570      1.0529     -0.7181
     8         C          2.1048     -1.0871      0.7155
     9         C          2.9202     -0.3656     -0.1490
    10         C          2.3938      0.7045     -0.8658
    11         H         -1.2844      1.8269      0.3359
    12         H         -1.7047     -0.6593     -1.4591
    13         H         -2.7589      0.7760     -1.3781
    14         H         -1.9491     -0.0159      2.3999
    15         H         -3.7689     -1.1570      0.4559
    16         H          0.1224     -1.3138      1.5444
    17         H          2.5163     -1.9289      1.2817
    18         H          3.9741     -0.6377     -0.2651
    19         H          3.0341      1.2747     -1.5466
    20         H          0.6462      1.8987     -1.2806

  H: (PM3): J. J. P. STEWART, J. COMP. CHEM. 10, 209 (1989).
  C: (PM3): J. J. P. STEWART, J. COMP. CHEM. 10, 209 (1989).

           Empirical Formula: C10 H10  =    20 atoms



      MOLECULAR POINT GROUP   :   C1  


      RHF CALCULATION, NO. OF DOUBLY OCCUPIED LEVELS = 25



          HEAT OF FORMATION =      64.963783 KCALS/MOLE


          CARTESIAN COORDINATE DERIVATIVES

   NUMBER  ATOM         X            Y            Z

     1       C      0.003826    -0.000076     0.003765
     2       C     -0.009437    -0.005976     0.001223
     3       C      0.003801     0.003302    -0.007942
     4       C      0.000738     0.007712     0.003036
     5       C     -0.009653     0.001216    -0.008749
     6       C     -0.001275     0.006577    -0.003625
     7       C      0.002235    -0.009898     0.010274
     8       C      0.001216    -0.005795     0.007997
     9       C     -0.003821     0.002126    -0.000481
    10       C     -0.006324     0.009284     0.003942
    11       H      0.000244    -0.002644    -0.000829
    12       H      0.006389    -0.006200     0.001827
    13       H      0.012363    -0.006451     0.002816
    14       H      0.008370     0.011836    -0.006138
    15       H     -0.008631     0.001596    -0.008703
    16       H     -0.000963     0.000610     0.000934
    17       H     -0.002450    -0.000044    -0.006006
    18       H     -0.000000    -0.003542     0.000625
    19       H     -0.001870    -0.006430     0.003180
    20       H      0.005244     0.002798     0.002852
 


          GRADIENT NORM =   0.04312


          TIME FOR SCF CALCULATION =    0.00

          TIME FOR DERIVATIVES     =    0.00

          MOLECULAR WEIGHT =  130.19



          ROTATIONAL CONSTANTS IN CM(-1)

          A =    0.11768925   B =    0.02984674   C =    0.02591854



           PRINCIPAL MOMENTS OF INERTIA IN UNITS OF 10**(-40)*GRAM-CM**2

          A =      237.8533   B =      937.8838   C =     1080.0290


          ORIENTATION OF MOLECULE IN FORCE CALCULATION

    NO.       ATOM         X         Y         Z

     1          C       0.3977   -1.4095   -0.2420
     2          C       1.9776   -1.4095   -0.2420
     3          C      -0.2345   -0.0642   -0.2420
     4          C       0.5215   -2.1429    1.0914
     5          C       1.8690   -2.1606    1.0710
     6          C      -0.5982    0.5745    0.9438
     7          C      -0.4655    0.5745   -1.4635
     8          C      -1.1843    1.8352    0.9085
     9          C      -1.4091    2.4677   -0.3089
    10          C      -1.0482    1.8354   -1.4946
    11          H      -0.0445   -2.0403   -1.0418
    12          H       2.4451   -0.4168   -0.1778
    13          H       2.4474   -1.9614   -1.0678
    14          H      -0.2499   -2.5034    1.7584
    15          H       2.6463   -2.5525    1.7127
    16          H      -0.4199    0.0768    1.9045
    17          H      -1.4681    2.3297    1.8431
    18          H      -1.8697    3.4603   -0.3352
    19          H      -1.2249    2.3311   -2.4547
    20          H      -0.1863    0.0772   -2.3991


    FIRST DERIVATIVES WILL BE USED IN THE CALCULATION OF SECOND DERIVATIVES

          ESTIMATED TIME TO COMPLETE CALCULATION =        0.94 SECONDS

    FOR POINT-GROUP C1   THERE ARE   1 UNIQUE SYMMETRY FUNCTIONS.

 STEP:   1 TIME =     0.02 SECS, INTEGRAL =      0.02 TIME LEFT: 172799.98
 STEP:   2 TIME =     0.02 SECS, INTEGRAL =      0.04 TIME LEFT: 172799.96
 STEP:   3 TIME =     0.02 SECS, INTEGRAL =      0.05 TIME LEFT: 172799.94
 STEP:   4 TIME =     0.02 SECS, INTEGRAL =      0.07 TIME LEFT: 172799.92
 STEP:   5 TIME =     0.02 SECS, INTEGRAL =      0.09 TIME LEFT: 172799.91
 STEP:   6 TIME =     0.02 SECS, INTEGRAL =      0.11 TIME LEFT: 172799.89
 STEP:   7 TIME =     0.02 SECS, INTEGRAL =      0.12 TIME LEFT: 172799.87
 STEP:   8 TIME =     0.02 SECS, INTEGRAL =      0.14 TIME LEFT: 172799.85
 STEP:   9 TIME =     0.02 SECS, INTEGRAL =      0.16 TIME LEFT: 172799.83
 STEP:  10 TIME =     0.02 SECS, INTEGRAL =      0.18 TIME LEFT: 172799.81
 STEP:  11 TIME =     0.02 SECS, INTEGRAL =      0.20 TIME LEFT: 172799.80
 STEP:  12 TIME =     0.02 SECS, INTEGRAL =      0.21 TIME LEFT: 172799.78
 STEP:  13 TIME =     0.02 SECS, INTEGRAL =      0.23 TIME LEFT: 172799.76
 STEP:  14 TIME =     0.02 SECS, INTEGRAL =      0.25 TIME LEFT: 172799.74
 STEP:  15 TIME =     0.02 SECS, INTEGRAL =      0.27 TIME LEFT: 172799.72
 STEP:  16 TIME =     0.02 SECS, INTEGRAL =      0.29 TIME LEFT: 172799.70
 STEP:  17 TIME =     0.02 SECS, INTEGRAL =      0.31 TIME LEFT: 172799.68
 STEP:  18 TIME =     0.02 SECS, INTEGRAL =      0.33 TIME LEFT: 172799.67
 STEP:  19 TIME =     0.02 SECS, INTEGRAL =      0.35 TIME LEFT: 172799.65
 STEP:  20 TIME =     0.02 SECS, INTEGRAL =      0.37 TIME LEFT: 172799.63
 STEP:  21 TIME =     0.02 SECS, INTEGRAL =      0.39 TIME LEFT: 172799.61
 STEP:  22 TIME =     0.02 SECS, INTEGRAL =      0.40 TIME LEFT: 172799.59
 STEP:  23 TIME =     0.02 SECS, INTEGRAL =      0.42 TIME LEFT: 172799.57
 STEP:  24 TIME =     0.02 SECS, INTEGRAL =      0.44 TIME LEFT: 172799.56
 STEP:  25 TIME =     0.02 SECS, INTEGRAL =      0.45 TIME LEFT: 172799.54
 STEP:  26 TIME =     0.02 SECS, INTEGRAL =      0.47 TIME LEFT: 172799.53
 STEP:  27 TIME =     0.02 SECS, INTEGRAL =      0.49 TIME LEFT: 172799.51
 STEP:  28 TIME =     0.02 SECS, INTEGRAL =      0.51 TIME LEFT: 172799.49
 STEP:  29 TIME =     0.02 SECS, INTEGRAL =      0.53 TIME LEFT: 172799.47
 STEP:  30 TIME =     0.02 SECS, INTEGRAL =      0.55 TIME LEFT: 172799.45
 STEP:  31 TIME =     0.02 SECS, INTEGRAL =      0.57 TIME LEFT: 172799.43
 STEP:  32 TIME =     0.02 SECS, INTEGRAL =      0.59 TIME LEFT: 172799.41
 STEP:  33 TIME =     0.02 SECS, INTEGRAL =      0.61 TIME LEFT: 172799.39
 STEP:  34 TIME =     0.02 SECS, INTEGRAL =      0.62 TIME LEFT: 172799.37
 STEP:  35 TIME =     0.02 SECS, INTEGRAL =      0.64 TIME LEFT: 172799.36
 STEP:  36 TIME =     0.02 SECS, INTEGRAL =      0.66 TIME LEFT: 172799.34
 STEP:  37 TIME =     0.02 SECS, INTEGRAL =      0.68 TIME LEFT: 172799.32
 STEP:  38 TIME =     0.02 SECS, INTEGRAL =      0.70 TIME LEFT: 172799.30
 STEP:  39 TIME =     0.02 SECS, INTEGRAL =      0.72 TIME LEFT: 172799.28
 STEP:  40 TIME =     0.02 SECS, INTEGRAL =      0.73 TIME LEFT: 172799.26
 STEP:  41 TIME =     0.02 SECS, INTEGRAL =      0.75 TIME LEFT: 172799.25
 STEP:  42 TIME =     0.02 SECS, INTEGRAL =      0.77 TIME LEFT: 172799.23
 STEP:  43 TIME =     0.02 SECS, INTEGRAL =      0.79 TIME LEFT: 172799.21
 STEP:  44 TIME =     0.02 SECS, INTEGRAL =      0.81 TIME LEFT: 172799.19
 STEP:  45 TIME =     0.02 SECS, INTEGRAL =      0.83 TIME LEFT: 172799.17
 STEP:  46 TIME =     0.02 SECS, INTEGRAL =      0.84 TIME LEFT: 172799.15
 STEP:  47 TIME =     0.02 SECS, INTEGRAL =      0.86 TIME LEFT: 172799.14
 STEP:  48 TIME =     0.02 SECS, INTEGRAL =      0.88 TIME LEFT: 172799.12
 STEP:  49 TIME =     0.02 SECS, INTEGRAL =      0.89 TIME LEFT: 172799.10
 STEP:  50 TIME =     0.02 SECS, INTEGRAL =      0.91 TIME LEFT: 172799.08
 STEP:  51 TIME =     0.02 SECS, INTEGRAL =      0.93 TIME LEFT: 172799.06
 STEP:  52 TIME =     0.02 SECS, INTEGRAL =      0.95 TIME LEFT: 172799.05
 STEP:  53 TIME =     0.02 SECS, INTEGRAL =      0.96 TIME LEFT: 172799.03
 STEP:  54 TIME =     0.02 SECS, INTEGRAL =      0.98 TIME LEFT: 172799.01
 STEP:  55 TIME =     0.02 SECS, INTEGRAL =      1.00 TIME LEFT: 172798.99
 STEP:  56 TIME =     0.02 SECS, INTEGRAL =      1.02 TIME LEFT: 172798.97
 STEP:  57 TIME =     0.02 SECS, INTEGRAL =      1.04 TIME LEFT: 172798.96
 STEP:  58 TIME =     0.02 SECS, INTEGRAL =      1.06 TIME LEFT: 172798.94
 STEP:  59 TIME =     0.02 SECS, INTEGRAL =      1.07 TIME LEFT: 172798.92
 STEP:  60 TIME =     0.02 SECS, INTEGRAL =      1.09 TIME LEFT: 172798.90

(To convert to Hartree/Bohr^2, multiply by (10^(-21) x N x a0^2)/(4.184 x 627.51) =  0.0642)


           FORCE MATRIX IN MILLIDYNES/ANGSTROM


                  C  1       C  2       C  3       C  4       C  5       C  6
 ------------------------------------------------------------------------------
     C    1  14.772683
     C    2   2.720057  14.223325
     C    3   4.914177   0.527998  17.814344
     C    4   3.860890   2.262110   0.535214  18.305144
     C    5   2.231157   4.181009   0.048754  10.340560  18.426852
     C    6   0.692218   0.027436   6.910100   0.064138   0.010837  17.504651
     C    7   0.746361   0.021171   6.791415   0.042597   0.008351   2.284267
     C    8   0.098874   0.013921   2.376222   0.008283   0.003575   7.072978
     C    9   0.013861   0.003113   1.785109   0.002634   0.002877   2.427815
     C   10   0.094897   0.010463   2.367853   0.006592   0.004676   1.697916
     H   11   4.405820   0.418087   0.425056   0.410942   0.044080   0.031255
     H   12   0.432582   4.717231   0.019311   0.040672   0.434905   0.002836
     H   13   0.423712   4.721912   0.024796   0.039521   0.434268   0.002851
     H   14   0.339719   0.112639   0.011562   5.275780   0.422500   0.010814
     H   15   0.113427   0.341888   0.017506   0.424265   5.280971   0.001364
     H   16   0.046999   0.005949   0.447942   0.033707   0.008211   4.807663
     H   17   0.007838   0.000987   0.089990   0.000783   0.000803   0.433412
     H   18   0.008399   0.001133   0.008030   0.000688   0.000380   0.085953
     H   19   0.007697   0.000598   0.090365   0.001392   0.000247   0.009310
     H   20   0.048043   0.005234   0.447379   0.002886   0.001192   0.082141


                  C  7       C  8       C  9       C 10       H 11       H 12
 ------------------------------------------------------------------------------
     C    7  17.518355
     C    8   1.703182  17.449757
     C    9   2.420319   7.109168  17.341024
     C   10   7.139607   2.388039   7.085113  17.479749
     H   11   0.047859   0.010432   0.003498   0.007957   4.901650
     H   12   0.002690   0.001485   0.000396   0.001396   0.024759   5.329693
     H   13   0.001180   0.002021   0.000641   0.001111   0.025560   0.527819
     H   14   0.002339   0.002284   0.001315   0.001068   0.005676   0.014917
     H   15   0.001297   0.000978   0.000646   0.001348   0.013750   0.005744
     H   16   0.082576   0.430992   0.087628   0.009742   0.003699   0.000783
     H   17   0.010804   4.865494   0.437551   0.087341   0.001043   0.000246
     H   18   0.085674   0.435855   4.869359   0.435966   0.000739   0.000262
     H   19   0.433748   0.087248   0.436846   4.865710   0.000519   0.000274
     H   20   4.836282   0.010211   0.089527   0.434991   0.023406   0.000618


                  H 13       H 14       H 15       H 16       H 17       H 18
 ------------------------------------------------------------------------------
     H   13   5.337262
     H   14   0.014569   5.663168
     H   15   0.005637   0.029790   5.664496
     H   16   0.001012   0.020004   0.001964   5.179529
     H   17   0.000216   0.000498   0.000329   0.041540   5.228481
     H   18   0.000227   0.000401   0.000266   0.006543   0.040863   5.236545
     H   19   0.000159   0.000421   0.000276   0.007696   0.006741   0.040567
     H   20   0.000907   0.000917   0.000505   0.006757   0.007636   0.006724


                  H 19       H 20
 ------------------------------
     H   19   5.229093
     H   20   0.042226   5.208305


          HEAT OF FORMATION =      64.963783 KCALS/MOLE

          ZERO POINT ENERGY     105.159 KCAL/MOL


           NORMAL COORDINATE ANALYSIS (Total motion = 1 Angstrom)


   Root No.       1         2         3         4         5         6         7         8

                 1 A       2 A       3 A       4 A       5 A       6 A       7 A       8 A   

                  54.8     127.8     177.2     275.3     355.7     368.3     411.2     496.3
  
           1    0.0198   -0.0137   -0.0024   -0.0305   -0.0179   -0.0010    0.0062   -0.0128
           2    0.0080   -0.0190   -0.0123   -0.0153   -0.0048   -0.0009    0.0317    0.0038
           3   -0.0186   -0.0109   -0.0218   -0.0030    0.0205    0.0023   -0.0187    0.0185
           4    0.0198   -0.0127   -0.0032   -0.0346   -0.0219   -0.0013    0.0022   -0.0261
           5    0.0174    0.0456   -0.0347    0.0287    0.0305    0.0008    0.0247    0.0102
           6    0.0403    0.0063   -0.0154   -0.0105    0.0174    0.0016   -0.0127    0.0005
           7    0.0104   -0.0355    0.0168    0.0082   -0.0096   -0.0008    0.0069    0.0557
           8    0.0037   -0.0296   -0.0027    0.0004   -0.0059   -0.0005    0.0120    0.0327
           9   -0.0123   -0.0084   -0.0266    0.0218   -0.0323   -0.0037    0.0237   -0.0069
          10   -0.0254    0.0022   -0.0181   -0.0124    0.0037    0.0013   -0.0291   -0.0018
          11   -0.0168   -0.0111    0.0406   -0.0342    0.0180    0.0001    0.0686   -0.0220
          12   -0.0279   -0.0080    0.0102   -0.0173    0.0373    0.0035   -0.0102    0.0107
          13   -0.0246    0.0034   -0.0180   -0.0109    0.0026    0.0012   -0.0305   -0.0011
          14   -0.0098    0.0533    0.0506    0.0319   -0.0256   -0.0019   -0.0027    0.0057
          15    0.0211    0.0116    0.0326   -0.0071   -0.0133    0.0001   -0.0287   -0.0000
          16    0.0416   -0.0224    0.0241    0.0363    0.0221   -0.0569   -0.0024    0.0154
          17    0.0098   -0.0300   -0.0203    0.0188   -0.0118   -0.0279   -0.0137   -0.0010
          18   -0.0057   -0.0041   -0.0140    0.0192   -0.0214   -0.0060    0.0343   -0.0042
          19   -0.0301   -0.0273    0.0118    0.0446    0.0073    0.0576    0.0118    0.0114
          20   -0.0062   -0.0214    0.0158   -0.0006    0.0117    0.0284   -0.0317    0.0071
          21   -0.0095   -0.0053   -0.0148    0.0149   -0.0266    0.0003    0.0062   -0.0137
          22    0.0332    0.0248    0.0084    0.0111    0.0153    0.0588   -0.0000   -0.0295
          23    0.0059   -0.0083   -0.0285    0.0075   -0.0183    0.0254   -0.0158   -0.0243
          24    0.0032    0.0044    0.0118    0.0002    0.0021    0.0030    0.0149    0.0001
          25   -0.0072    0.0542   -0.0113   -0.0283   -0.0115   -0.0011    0.0286    0.0448
          26   -0.0038    0.0104   -0.0155   -0.0268   -0.0149    0.0004   -0.0365    0.0103
          27    0.0055    0.0087    0.0224   -0.0104    0.0090    0.0010   -0.0018    0.0044
          28   -0.0390    0.0199   -0.0042    0.0180    0.0067   -0.0582    0.0101   -0.0339
          29   -0.0098    0.0006    0.0100   -0.0157    0.0144   -0.0243   -0.0403   -0.0134
          30   -0.0007    0.0035    0.0110   -0.0025   -0.0014   -0.0029   -0.0058   -0.0076
          31    0.0542    0.0129   -0.0162   -0.0383   -0.0116   -0.0014    0.0087   -0.0449
          32    0.0199   -0.0294   -0.0206    0.0028   -0.0382   -0.0028    0.0324    0.0159
          33   -0.0471   -0.0164   -0.0061   -0.0120    0.0438    0.0041   -0.0212    0.0271
          34    0.0114   -0.0543    0.0139   -0.0639   -0.0595   -0.0030    0.0040   -0.0340
          35    0.0190    0.0656   -0.0386    0.0436    0.0458    0.0015    0.0219    0.0151
          36    0.0785    0.0016   -0.0853   -0.0205    0.0828    0.0043    0.0323   -0.0056
          37    0.0540    0.0188   -0.0111   -0.0215    0.0015   -0.0007    0.0125   -0.0333
          38    0.0375    0.0570   -0.1022    0.0372    0.1029    0.0042    0.0560    0.0170
          39    0.0463    0.0167    0.0248   -0.0086   -0.0159   -0.0003   -0.0267   -0.0081
          40   -0.0484    0.0099   -0.0261   -0.0017    0.0184    0.0032   -0.0474    0.0105
          41   -0.0319   -0.0457    0.0664   -0.0808    0.0453   -0.0008    0.1429   -0.0655
          42   -0.0626   -0.0178    0.0151   -0.0305    0.0691    0.0053    0.0090    0.0011
          43   -0.0462    0.0128   -0.0253    0.0037    0.0151    0.0024   -0.0479    0.0153
          44   -0.0181    0.0963    0.0962    0.0740   -0.0751   -0.0044   -0.0568    0.0188
          45    0.0422    0.0265    0.0692    0.0008   -0.0587   -0.0028   -0.0415   -0.0119
          46    0.0727   -0.0400    0.0380    0.0635    0.0509   -0.1558   -0.0144   -0.0132
          47    0.0166   -0.0432   -0.0283    0.0375   -0.0163   -0.0747   -0.0172   -0.0273
          48   -0.0079   -0.0076   -0.0203    0.0235   -0.0287   -0.0119    0.0346   -0.0125
          49    0.0581    0.0420    0.0103    0.0140    0.0303    0.1612   -0.0189   -0.1234
          50    0.0106   -0.0045   -0.0467    0.0224   -0.0283    0.0709   -0.0002   -0.0715
          51    0.0083    0.0077    0.0220   -0.0068    0.0118    0.0100    0.0007   -0.0036
          52   -0.0138    0.0996   -0.0296   -0.0829   -0.0380   -0.0018    0.0469    0.1163
          53   -0.0067    0.0316   -0.0235   -0.0524   -0.0267    0.0001   -0.0283    0.0438
          54    0.0126    0.0161    0.0404   -0.0254    0.0250    0.0033   -0.0149    0.0156
          55   -0.0709    0.0332   -0.0135    0.0270    0.0157   -0.1580   -0.0036   -0.1338
          56   -0.0177    0.0117    0.0254   -0.0224    0.0392   -0.0686   -0.0494   -0.0483
          57    0.0011    0.0068    0.0206   -0.0075    0.0096   -0.0074   -0.0075   -0.0072
          58   -0.0553   -0.0494    0.0147    0.0818    0.0160    0.1586    0.0148   -0.0239
          59   -0.0102   -0.0277    0.0348    0.0023    0.0290    0.0766   -0.0581   -0.0082
          60   -0.0150   -0.0085   -0.0238    0.0242   -0.0327    0.0050    0.0208   -0.0159


   Root No.       9        10        11        12        13        14        15        16

                 9 A      10 A      11 A      12 A      13 A      14 A      15 A      16 A   

                 592.6     632.5     661.4     758.1     779.9     826.2     851.4     896.9
  
           1   -0.0002    0.0012    0.0009   -0.0142    0.0076    0.0184    0.0002   -0.0005
           2    0.0509    0.0015   -0.0130   -0.0082    0.0032    0.0297   -0.0002   -0.0200
           3    0.0319    0.0022   -0.0041   -0.0162    0.0042    0.0299    0.0000    0.0272
           4   -0.0035    0.0030   -0.0092   -0.0009   -0.0087   -0.0003   -0.0004    0.0663
           5   -0.0007    0.0007    0.0032   -0.0210    0.0003    0.0139    0.0004   -0.0073
           6    0.0027   -0.0022   -0.0035    0.0063   -0.0049   -0.0090    0.0002   -0.0291
           7   -0.0135   -0.0006    0.0662   -0.0116    0.0347   -0.0096   -0.0001    0.0009
           8    0.0355    0.0001    0.0171    0.0188    0.0123   -0.0118   -0.0002   -0.0057
           9   -0.0087   -0.0381    0.0035   -0.0005    0.0014   -0.0019    0.0003   -0.0006
          10    0.0028   -0.0016   -0.0041    0.0152   -0.0039   -0.0143    0.0002   -0.0338
          11   -0.0158   -0.0029   -0.0017   -0.0173   -0.0088   -0.0207   -0.0008   -0.0041
          12   -0.0012   -0.0059    0.0048   -0.0145    0.0029    0.0029   -0.0006    0.0352
          13    0.0033   -0.0010   -0.0040    0.0149   -0.0037   -0.0140    0.0003   -0.0366
          14    0.0061    0.0021    0.0004   -0.0208   -0.0033   -0.0111    0.0003    0.0197
          15    0.0074   -0.0018   -0.0039    0.0026   -0.0036   -0.0184    0.0006   -0.0440
          16   -0.0103   -0.0246   -0.0161   -0.0048   -0.0097    0.0042   -0.0283   -0.0018
          17   -0.0113    0.0632   -0.0084    0.0113   -0.0073   -0.0115   -0.0132    0.0088
          18    0.0145   -0.0676   -0.0092    0.0156   -0.0049   -0.0117   -0.0014   -0.0014
          19   -0.0126    0.0331   -0.0153   -0.0019   -0.0108    0.0029    0.0292   -0.0021
          20   -0.0024   -0.0620   -0.0107    0.0101   -0.0071   -0.0092    0.0136    0.0093
          21   -0.0342   -0.0656    0.0067   -0.0171    0.0011    0.0029    0.0019    0.0020
          22    0.0170   -0.0356    0.0238   -0.0054   -0.0133    0.0117   -0.0292   -0.0057
          23   -0.0056    0.0658    0.0116    0.0115   -0.0093   -0.0117   -0.0133    0.0077
          24    0.0201    0.0710   -0.0059    0.0266   -0.0059   -0.0227   -0.0017    0.0162
          25    0.0033   -0.0016   -0.0221    0.0146   -0.0247   -0.0021   -0.0008    0.0053
          26   -0.0438   -0.0002    0.0036   -0.0270   -0.0055    0.0239   -0.0003   -0.0158
          27    0.0014    0.0412   -0.0006    0.0012   -0.0011    0.0011   -0.0003    0.0001
          28    0.0136    0.0256    0.0245   -0.0011   -0.0144    0.0072    0.0287   -0.0044
          29    0.0067   -0.0657    0.0085    0.0092   -0.0087   -0.0068    0.0133    0.0121
          30   -0.0249    0.0729    0.0114   -0.0253    0.0040    0.0209    0.0015   -0.0184
          31   -0.0146    0.0069   -0.0215   -0.0224   -0.0149    0.0390   -0.0000   -0.0077
          32    0.0631   -0.0089   -0.0033    0.0149    0.0201    0.0438    0.0000   -0.0807
          33    0.0279    0.0059    0.0017   -0.0282    0.0034    0.0049   -0.0002    0.0818
          34    0.0725    0.0088   -0.0427   -0.0424   -0.0162    0.0936   -0.0014    0.0588
          35   -0.0352   -0.0019    0.0192   -0.0050    0.0036   -0.0324    0.0011   -0.0071
          36   -0.0616   -0.0100    0.0226    0.0972    0.0203    0.0084   -0.0034    0.0673
          37   -0.0813   -0.0029    0.0187    0.0442   -0.0059   -0.0961   -0.0004    0.1372
          38   -0.0728   -0.0073    0.0383    0.0577    0.0290    0.0157   -0.0013    0.0625
          39    0.0032   -0.0006   -0.0095   -0.0166   -0.0217   -0.0675    0.0012   -0.0326
          40    0.0051   -0.0037   -0.0013    0.0274   -0.0050   -0.0175   -0.0018    0.0249
          41   -0.1175   -0.0193    0.0202    0.1459    0.0287    0.0780    0.0038   -0.1480
          42   -0.0537   -0.0173    0.0200    0.0879    0.0219    0.0531   -0.0004    0.0272
          43    0.0067   -0.0031    0.0025    0.0186    0.0062    0.0001    0.0003   -0.0463
          44   -0.0124   -0.0012    0.0213    0.1739    0.0625    0.1707   -0.0040    0.0799
          45   -0.0078   -0.0015    0.0007    0.1179    0.0242    0.0747   -0.0019    0.0036
          46   -0.0176   -0.0025   -0.1940   -0.0089    0.0382    0.0209    0.1919   -0.0075
          47   -0.0496    0.0319   -0.0808   -0.0028    0.0169    0.0037    0.0871   -0.0002
          48   -0.0038   -0.0877   -0.0137    0.0089   -0.0013   -0.0072    0.0097   -0.0047
          49    0.0487   -0.0209    0.0194   -0.0329    0.1709   -0.0168    0.1943   -0.0065
          50    0.0258    0.0368   -0.0001    0.0294    0.0689   -0.0566    0.0912    0.0232
          51    0.0128    0.0904   -0.0011    0.0094    0.0084   -0.0084    0.0108    0.0084
          52   -0.0282    0.0082   -0.1382   -0.0026    0.1713   -0.0608    0.0046    0.0170
          53   -0.0581    0.0017   -0.0505   -0.0348    0.0855   -0.0034    0.0022   -0.0102
          54    0.0088   -0.0585   -0.0097   -0.0022    0.0109    0.0045   -0.0006    0.0065
          55    0.0375    0.0110    0.0198   -0.0324    0.1727   -0.0268   -0.1907   -0.0142
          56    0.0512   -0.0343   -0.0035    0.0261    0.0728   -0.0414   -0.0883    0.0257
          57   -0.0063    0.0915    0.0062   -0.0113    0.0117    0.0098   -0.0106   -0.0103
          58   -0.0291    0.0241   -0.1938   -0.0068    0.0397    0.0149   -0.1940   -0.0094
          59   -0.0283   -0.0294   -0.0837   -0.0064    0.0193    0.0069   -0.0870   -0.0008
          60   -0.0253   -0.0853   -0.0078   -0.0100    0.0021   -0.0021   -0.0113    0.0057


   Root No.      17        18        19        20        21        22        23        24

                17 A      18 A      19 A      20 A      21 A      22 A      23 A      24 A   

                 902.3     930.8     950.1     980.0     981.6    1006.6    1021.2    1026.3
  
           1    0.0133   -0.0373    0.0386   -0.0042    0.0069   -0.0233   -0.0064   -0.0124
           2   -0.0119    0.0027   -0.0033    0.0037   -0.0092   -0.0177   -0.0040   -0.0060
           3   -0.0001    0.0066   -0.0087   -0.0102    0.0252   -0.0133   -0.0021   -0.0082
           4    0.0043    0.0235   -0.0292   -0.0042    0.0112    0.0008    0.0017   -0.0024
           5    0.0245    0.0066   -0.0003   -0.0073    0.0206    0.0159   -0.0065    0.0219
           6    0.0057    0.0160   -0.0129    0.0070   -0.0151    0.0208   -0.0015    0.0262
           7    0.0040   -0.0242   -0.0128   -0.0017    0.0058    0.0136    0.0151    0.0174
           8   -0.0044   -0.0035   -0.0193    0.0035   -0.0094   -0.0101    0.0001    0.0005
           9    0.0002   -0.0013   -0.0012   -0.0000   -0.0001   -0.0001    0.0012   -0.0000
          10   -0.0150    0.0060   -0.0020   -0.0007    0.0030    0.0050    0.0009    0.0020
          11   -0.0422    0.0047    0.0100    0.0025   -0.0046    0.0153   -0.0094    0.0245
          12    0.0116   -0.0216    0.0227    0.0077   -0.0220   -0.0075   -0.0094    0.0029
          13   -0.0141    0.0053   -0.0010   -0.0011    0.0036    0.0044    0.0012    0.0015
          14    0.0141    0.0008   -0.0130    0.0041   -0.0111    0.0007    0.0257   -0.0334
          15   -0.0110   -0.0076    0.0093   -0.0057    0.0139   -0.0048    0.0126   -0.0266
          16    0.0006    0.0294    0.0138    0.0308    0.0080    0.0025   -0.0183   -0.0159
          17    0.0080    0.0071    0.0150    0.0117    0.0099    0.0085   -0.0050   -0.0033
          18   -0.0024    0.0053   -0.0053    0.0053   -0.0120   -0.0173   -0.0129   -0.0135
          19    0.0000    0.0302    0.0124   -0.0293   -0.0132    0.0017   -0.0188   -0.0164
          20    0.0078    0.0073    0.0142   -0.0157    0.0002    0.0095   -0.0046   -0.0025
          21    0.0014   -0.0041    0.0118   -0.0046    0.0087    0.0214    0.0096    0.0147
          22   -0.0045    0.0047   -0.0018   -0.0290   -0.0120   -0.0217    0.0219    0.0144
          23    0.0073   -0.0073    0.0104   -0.0154   -0.0014   -0.0024    0.0128    0.0102
          24    0.0131   -0.0118    0.0151   -0.0053    0.0083    0.0120    0.0066    0.0086
          25    0.0027   -0.0320   -0.0117   -0.0022    0.0052    0.0301   -0.0220   -0.0132
          26   -0.0143   -0.0022   -0.0223    0.0036   -0.0099   -0.0016   -0.0170   -0.0135
          27    0.0003   -0.0014   -0.0015   -0.0001    0.0011    0.0010   -0.0010   -0.0012
          28   -0.0037    0.0015    0.0010    0.0317    0.0068   -0.0207    0.0219    0.0149
          29    0.0072   -0.0060    0.0091    0.0110    0.0121   -0.0040    0.0121    0.0090
          30   -0.0137    0.0109   -0.0133    0.0061   -0.0112   -0.0126   -0.0045   -0.0054
          31    0.1053   -0.0487    0.1237    0.0232   -0.0645    0.0163   -0.0284   -0.0184
          32    0.0039   -0.0060   -0.0278    0.0285   -0.0693   -0.0360    0.0163   -0.0283
          33   -0.0639    0.0205   -0.0400   -0.0445    0.1114   -0.0230   -0.0063    0.0127
          34    0.0342    0.0734   -0.0072    0.0174   -0.0338    0.1592    0.0747    0.0195
          35    0.0161   -0.0190   -0.0110   -0.0196    0.0467   -0.0649   -0.0469    0.0151
          36   -0.1290    0.0028    0.0089    0.0407   -0.1034    0.0546    0.0953   -0.0811
          37   -0.0041   -0.0144   -0.0779    0.0095   -0.0345   -0.1500   -0.0704    0.0062
          38   -0.0940   -0.0375    0.0419   -0.0087    0.0166   -0.0111    0.0535   -0.1052
          39    0.0737    0.0238   -0.0711    0.0158   -0.0388   -0.0497   -0.0815    0.1132
          40    0.0208    0.0401   -0.0605    0.0328   -0.0733    0.0431    0.0220    0.0023
          41    0.1456    0.0245   -0.0526   -0.0347    0.0885   -0.0300    0.0279   -0.0499
          42    0.1553    0.0286   -0.0791    0.0260   -0.0588    0.0115    0.0352   -0.0375
          43    0.0176   -0.0343    0.0391    0.0335   -0.0912   -0.0155   -0.0178    0.0399
          44   -0.0631   -0.0103    0.0511    0.0199   -0.0530   -0.0038   -0.0803    0.1232
          45   -0.0967    0.0341   -0.0007   -0.0378    0.1027    0.0166   -0.0292    0.0226
          46   -0.0233   -0.1199   -0.0759   -0.1300   -0.0482   -0.0065    0.0573    0.0540
          47    0.0010   -0.0585   -0.0251   -0.0625   -0.0105   -0.0054    0.0207    0.0123
          48   -0.0019   -0.0009   -0.0096   -0.0032   -0.0127   -0.0235   -0.0141   -0.0187
          49   -0.0064   -0.0047   -0.0299    0.1308    0.0444    0.0670   -0.0721   -0.0465
          50    0.0192   -0.0226    0.0113    0.0590    0.0174    0.0278   -0.0481   -0.0368
          51    0.0068   -0.0071    0.0068    0.0037    0.0159    0.0233    0.0103    0.0151
          52    0.0245    0.1455    0.0993    0.0003    0.0012   -0.0841    0.0857    0.0549
          53   -0.0042    0.0805    0.0289    0.0048   -0.0117   -0.0555    0.0326    0.0176
          54    0.0021    0.0125    0.0002   -0.0039    0.0128   -0.0111    0.0054   -0.0017
          55   -0.0029   -0.0024   -0.0257   -0.1299   -0.0463    0.0777   -0.0687   -0.0380
          56    0.0223   -0.0136    0.0002   -0.0662   -0.0077    0.0188   -0.0441   -0.0439
          57   -0.0066    0.0081   -0.0134   -0.0038   -0.0120   -0.0192   -0.0169   -0.0230
          58   -0.0183   -0.1197   -0.0722    0.1319    0.0470   -0.0155    0.0522    0.0470
          59    0.0012   -0.0598   -0.0234    0.0592    0.0164   -0.0083    0.0191    0.0087
          60   -0.0006   -0.0133    0.0070    0.0035    0.0187    0.0265    0.0185    0.0282


   Root No.      25        26        27        28        29        30        31        32

                25 A      26 A      27 A      28 A      29 A      30 A      31 A      32 A   

                1033.7    1055.7    1105.4    1113.3    1138.2    1154.6    1159.7    1175.7
  
           1    0.0007   -0.0027   -0.0068   -0.0053    0.0464   -0.0039   -0.0104   -0.0053
           2   -0.0018   -0.0237   -0.0053    0.0095    0.0227   -0.0011    0.0013    0.0221
           3   -0.0118   -0.0074    0.0038    0.0153   -0.0353    0.0025    0.0121    0.0397
           4   -0.0022    0.0037    0.0002    0.0026   -0.0321    0.0040    0.0049   -0.0246
           5    0.0093    0.0141   -0.0035   -0.0049    0.0107   -0.0004   -0.0066   -0.0311
           6   -0.0113    0.0053    0.0022    0.0034   -0.0051    0.0000    0.0033    0.0126
           7    0.0035    0.0122    0.0026    0.0039   -0.0085    0.0010    0.0008    0.0075
           8    0.0052    0.0045    0.0018   -0.0259   -0.0077    0.0009    0.0017    0.0047
           9    0.0001   -0.0014    0.0094    0.0058   -0.0039   -0.0114   -0.0033   -0.0066
          10    0.0053   -0.0002    0.0004   -0.0000    0.0003   -0.0001   -0.0007   -0.0016
          11    0.0108    0.0020    0.0056    0.0074   -0.0085   -0.0011    0.0031    0.0109
          12    0.0120    0.0024   -0.0025   -0.0032   -0.0044    0.0016   -0.0049   -0.0506
          13   -0.0029    0.0007    0.0021    0.0017   -0.0117    0.0008    0.0028    0.0049
          14   -0.0152   -0.0045    0.0003    0.0014   -0.0016   -0.0001    0.0027    0.0200
          15    0.0017   -0.0010   -0.0028   -0.0048    0.0056    0.0004   -0.0027   -0.0205
          16   -0.0036   -0.0052   -0.0087   -0.0011    0.0027   -0.0023    0.0027   -0.0031
          17   -0.0045   -0.0093    0.0157    0.0109    0.0046    0.0040   -0.0046    0.0029
          18    0.0085    0.0358   -0.0098   -0.0335   -0.0068    0.0044   -0.0132   -0.0093
          19   -0.0029   -0.0023    0.0082   -0.0034    0.0039   -0.0000    0.0002   -0.0052
          20   -0.0029   -0.0089   -0.0183    0.0089    0.0007   -0.0012   -0.0026    0.0055
          21   -0.0061   -0.0309   -0.0140    0.0256    0.0089   -0.0015    0.0139    0.0147
          22    0.0039    0.0041    0.0027    0.0028   -0.0004   -0.0002   -0.0005    0.0045
          23    0.0024    0.0020   -0.0029   -0.0050   -0.0003   -0.0004    0.0016   -0.0078
          24   -0.0020   -0.0122   -0.0142   -0.0170   -0.0049    0.0061   -0.0064   -0.0038
          25   -0.0051   -0.0042   -0.0017    0.0182    0.0037    0.0001    0.0003    0.0059
          26    0.0014    0.0012    0.0022   -0.0382   -0.0071   -0.0007   -0.0008   -0.0132
          27   -0.0012   -0.0010    0.0091    0.0013    0.0020    0.0033    0.0009   -0.0007
          28    0.0046    0.0034   -0.0011    0.0013   -0.0007    0.0013   -0.0018    0.0001
          29   -0.0006    0.0019    0.0047   -0.0065   -0.0012   -0.0022    0.0024   -0.0001
          30    0.0047    0.0152   -0.0154    0.0119    0.0050    0.0019    0.0100    0.0102
          31    0.0864    0.0311    0.0546   -0.0717   -0.1506    0.0046    0.0398    0.2310
          32    0.0385   -0.0995    0.0036    0.1564   -0.0830    0.0065    0.0206   -0.1914
          33   -0.0915    0.0322   -0.0386   -0.0609    0.1566   -0.0077   -0.0314    0.0717
          34   -0.0499    0.0738   -0.0089   -0.0308    0.0453   -0.0034   -0.0251   -0.0864
          35    0.0362   -0.0202    0.0007    0.0116   -0.0294    0.0037    0.0082   -0.0067
          36   -0.0834   -0.0053   -0.0014    0.0009    0.0615   -0.0085   -0.0082    0.0656
          37   -0.0350   -0.0693   -0.0061    0.0216    0.0261   -0.0023   -0.0025    0.0196
          38    0.0201   -0.0048    0.0015   -0.0034   -0.0438    0.0060    0.0071   -0.0344
          39   -0.0388   -0.0261   -0.0048    0.0150    0.0646   -0.0079   -0.0096    0.0428
          40    0.1607   -0.0393    0.0029    0.0062    0.1100   -0.0123   -0.0133    0.0737
          41   -0.1185    0.0107   -0.0120   -0.0103   -0.0399    0.0059    0.0145    0.0018
          42    0.1212   -0.0378   -0.0098   -0.0062    0.1028   -0.0082   -0.0124    0.0273
          43   -0.1803    0.0133   -0.0016    0.0006   -0.0176    0.0026    0.0045   -0.0243
          44   -0.0634    0.0123    0.0014    0.0043   -0.0066    0.0004    0.0024    0.0002
          45    0.1867   -0.0058    0.0022   -0.0018    0.0074   -0.0011   -0.0048   -0.0007
          46    0.0188   -0.0122   -0.0549   -0.0563   -0.0214    0.0075    0.0863   -0.0185
          47    0.0005    0.0716    0.1295    0.1080    0.0173   -0.0143   -0.1758    0.0547
          48    0.0075    0.0800    0.0560    0.0233    0.0029   -0.0074   -0.1183    0.0190
          49   -0.0197   -0.0562    0.0304   -0.0225   -0.0263   -0.0616   -0.0788   -0.0015
          50    0.0117    0.1081   -0.0706    0.0559    0.0631    0.1431    0.1861    0.0044
          51   -0.0141   -0.0864    0.0308   -0.0589   -0.0465   -0.0868   -0.1293   -0.0131
          52    0.0108    0.0063   -0.0169    0.0172   -0.0004   -0.0143   -0.0024    0.0086
          53    0.0087    0.0071    0.0024   -0.0412   -0.0077   -0.0011    0.0004   -0.0145
          54   -0.0141   -0.0073    0.2750    0.0145    0.0594    0.2602    0.0406   -0.0363
          55   -0.0131   -0.0594   -0.0394   -0.0449   -0.0113    0.1173   -0.0419    0.0096
          56   -0.0017    0.0918    0.0825    0.0912    0.0241   -0.2389    0.0843   -0.0211
          57    0.0074    0.0730    0.0324    0.0722    0.0212   -0.1408    0.0615   -0.0014
          58    0.0063   -0.0003    0.0647   -0.0648    0.0033   -0.0464    0.0527   -0.0110
          59    0.0195    0.0694   -0.1445    0.1330   -0.0434    0.1166   -0.1265    0.0418
          60   -0.0157   -0.0726    0.0678   -0.0556    0.0330   -0.0790    0.0963   -0.0040


   Root No.      33        34        35        36        37        38        39        40

                33 A      34 A      35 A      36 A      37 A      38 A      39 A      40 A   

                1205.6    1224.9    1264.4    1297.9    1387.5    1400.5    1433.2    1543.4
  
           1   -0.0071   -0.0093   -0.0366   -0.0101   -0.0028   -0.0033   -0.0482   -0.0021
           2   -0.0036    0.0039    0.0193   -0.0150    0.0050    0.0161    0.0736    0.0061
           3    0.0071   -0.0021   -0.0306    0.0419   -0.0095   -0.0038   -0.0317   -0.0163
           4   -0.0356    0.0033    0.0138   -0.0156    0.0027   -0.0409    0.0211    0.0013
           5    0.0149    0.0020    0.0130    0.0271   -0.0022   -0.0284   -0.0006   -0.0010
           6   -0.0285   -0.0049   -0.0301   -0.0512    0.0023    0.0469   -0.0131    0.0016
           7    0.0022   -0.0007   -0.0111    0.0118   -0.0065    0.0052    0.0206   -0.0036
           8    0.0014    0.0046    0.0414   -0.0198    0.0045   -0.0132   -0.0364    0.0004
           9    0.0041   -0.0199   -0.0019    0.0035    0.1179    0.0007   -0.0039    0.0779
          10    0.0217    0.0038    0.0045   -0.0087    0.0013    0.0006    0.0122    0.0034
          11   -0.0117   -0.0071   -0.0156    0.0263    0.0005   -0.0006   -0.0194   -0.0008
          12    0.0234    0.0122    0.0200   -0.0434    0.0021   -0.0021    0.0233    0.0045
          13    0.0143    0.0028   -0.0044   -0.0117   -0.0024    0.0100   -0.0035   -0.0030
          14    0.0111   -0.0003   -0.0224   -0.0317   -0.0000    0.0111   -0.0047   -0.0002
          15   -0.0202    0.0007    0.0418    0.0561   -0.0003   -0.0186    0.0134    0.0001
          16   -0.0011    0.0065   -0.0110    0.0051    0.0430    0.0047    0.0160   -0.0236
          17    0.0011   -0.0132    0.0214   -0.0126   -0.0869   -0.0094   -0.0344    0.0540
          18   -0.0000   -0.0142   -0.0140    0.0011   -0.0536   -0.0029   -0.0153   -0.0297
          19    0.0002   -0.0081   -0.0082    0.0029   -0.0397    0.0035    0.0129    0.0267
          20   -0.0021    0.0184    0.0111   -0.0064    0.0929   -0.0077   -0.0319   -0.0557
          21    0.0001   -0.0058    0.0252   -0.0105   -0.0571    0.0035    0.0237   -0.0237
          22   -0.0006    0.0063    0.0072   -0.0025   -0.0382   -0.0019   -0.0041    0.0282
          23    0.0017   -0.0138   -0.0119    0.0039    0.0914    0.0029    0.0037   -0.0586
          24   -0.0015    0.0045   -0.0297    0.0144   -0.0665    0.0110    0.0439   -0.0203
          25   -0.0001    0.0013    0.0134   -0.0064   -0.0046   -0.0043   -0.0159   -0.0050
          26    0.0004   -0.0054   -0.0278    0.0130   -0.0044    0.0092    0.0349    0.0021
          27   -0.0021    0.0221   -0.0077    0.0060    0.1176    0.0002   -0.0060    0.0733
          28    0.0009   -0.0049    0.0062   -0.0032    0.0447    0.0006    0.0041   -0.0240
          29   -0.0014    0.0086   -0.0169    0.0088   -0.0919    0.0000   -0.0041    0.0554
          30   -0.0017    0.0136    0.0302   -0.0159   -0.0531   -0.0119   -0.0414   -0.0276
          31    0.0470    0.0001    0.0824    0.0354    0.0422   -0.0058    0.0476    0.0104
          32    0.0193    0.0257   -0.1202    0.0528   -0.0836   -0.0118   -0.0659   -0.0384
          33   -0.0411   -0.0245    0.0117   -0.0387    0.0373    0.0191    0.0243    0.0114
          34    0.1149    0.0121    0.0666    0.1115   -0.0142    0.1831   -0.0639   -0.0042
          35   -0.0669   -0.0019   -0.0080   -0.0363    0.0049   -0.0944    0.0332    0.0017
          36    0.1284   -0.0034   -0.0599    0.0143    0.0027   -0.2580    0.0311   -0.0023
          37    0.1224    0.0174    0.0772    0.1269   -0.0125    0.1952   -0.0167   -0.0047
          38   -0.0790    0.0047    0.0561    0.0071   -0.0046    0.2721   -0.0377    0.0009
          39    0.1245    0.0010   -0.0265    0.0426   -0.0043   -0.0433   -0.0039   -0.0031
          40   -0.1004   -0.0296   -0.0183    0.0997   -0.0006   -0.0058   -0.0267   -0.0014
          41    0.0493    0.0057    0.0012   -0.0328   -0.0006    0.0069    0.0097   -0.0005
          42   -0.0858   -0.0191    0.0064    0.0507   -0.0008   -0.0081   -0.0041   -0.0013
          43   -0.1279   -0.0122    0.0591    0.1058   -0.0001   -0.0264    0.0075   -0.0020
          44   -0.0595   -0.0087    0.0052    0.0263    0.0008   -0.0065   -0.0010    0.0000
          45    0.1081    0.0148   -0.0131   -0.0504   -0.0028    0.0143    0.0062   -0.0012
          46    0.0153   -0.0757    0.0109   -0.0017    0.0166   -0.0061   -0.0234    0.0158
          47   -0.0285    0.1585   -0.0074    0.0072   -0.0330    0.0101    0.0519   -0.0235
          48   -0.0183    0.0876   -0.0368    0.0143   -0.0212    0.0100    0.0385   -0.0873
          49    0.0038   -0.0376    0.0272   -0.0159   -0.0029   -0.0090   -0.0326   -0.0075
          50   -0.0080    0.0878   -0.0563    0.0348    0.0078    0.0186    0.0695    0.0278
          51    0.0048   -0.0628   -0.0050   -0.0037   -0.0130    0.0025    0.0082   -0.0879
          52   -0.0012    0.0094    0.0130   -0.0057    0.0013   -0.0051   -0.0195    0.0061
          53    0.0005   -0.0061   -0.0318    0.0150   -0.0050    0.0109    0.0413    0.0023
          54    0.0169   -0.1162    0.0275   -0.0190    0.0288    0.0018    0.0109   -0.1288
          55   -0.0061    0.0481    0.0029   -0.0018    0.0119   -0.0093   -0.0364    0.0140
          56    0.0125   -0.0977   -0.0100    0.0069   -0.0211    0.0203    0.0793   -0.0203
          57    0.0067   -0.0497    0.0395   -0.0200   -0.0103   -0.0014    0.0028   -0.0849
          58   -0.0062    0.0571   -0.0098    0.0048   -0.0129   -0.0050   -0.0185   -0.0081
          59    0.0197   -0.1389    0.0321   -0.0054    0.0288    0.0115    0.0500    0.0305
          60   -0.0134    0.0966    0.0185   -0.0128   -0.0142   -0.0098   -0.0304   -0.0898


   Root No.      41        42        43        44        45        46        47        48

                41 A      42 A      43 A      44 A      45 A      46 A      47 A      48 A   

                1617.4    1773.4    1783.5    1803.9    2948.1    3046.9    3051.6    3053.8
  
           1    0.0296   -0.0040    0.0010   -0.0094   -0.0279    0.0001   -0.0009   -0.0000
           2   -0.0541    0.0120   -0.0045    0.0204   -0.0392   -0.0002   -0.0015    0.0002
           3    0.0108   -0.0101    0.0114   -0.0030   -0.0508   -0.0003   -0.0017   -0.0001
           4   -0.0028    0.0009   -0.0004   -0.0005   -0.0011   -0.0000   -0.0005   -0.0000
           5    0.0028    0.0072   -0.0022    0.0002    0.0035    0.0004   -0.0505    0.0009
           6    0.0017   -0.0128    0.0040   -0.0019    0.0015    0.0002   -0.0285    0.0005
           7   -0.0494    0.0026    0.0055    0.0382    0.0001   -0.0005   -0.0004    0.0002
           8    0.1037   -0.0023    0.0005   -0.0808   -0.0003    0.0009    0.0001   -0.0005
           9   -0.0037   -0.0428   -0.1095   -0.0053   -0.0003    0.0018    0.0000    0.0010
          10   -0.0111   -0.1453    0.0557   -0.0147   -0.0009    0.0003   -0.0001   -0.0000
          11    0.0058    0.0009   -0.0022   -0.0009    0.0002   -0.0000   -0.0003    0.0000
          12   -0.0061    0.0029   -0.0019    0.0010   -0.0007   -0.0002   -0.0002    0.0000
          13    0.0071    0.1462   -0.0551    0.0156    0.0007   -0.0001   -0.0000    0.0000
          14    0.0011   -0.0025    0.0010   -0.0005   -0.0005   -0.0000   -0.0003    0.0000
          15   -0.0049   -0.0011    0.0007    0.0010    0.0001   -0.0000   -0.0002   -0.0000
          16    0.0096   -0.0027   -0.0161   -0.0531   -0.0003   -0.0079   -0.0001    0.0000
          17   -0.0145    0.0032    0.0279    0.1088    0.0004    0.0222    0.0002   -0.0002
          18   -0.0473    0.0219    0.0571    0.0432    0.0004   -0.0442   -0.0003    0.0010
          19    0.0034    0.0094    0.0102   -0.0471    0.0001    0.0013    0.0003    0.0082
          20   -0.0124   -0.0232   -0.0285    0.1069   -0.0004   -0.0024   -0.0005   -0.0146
          21    0.0491    0.0263    0.0578   -0.0414   -0.0001   -0.0042   -0.0009   -0.0290
          22    0.0223   -0.0085   -0.0091    0.0427   -0.0000   -0.0043   -0.0000    0.0017
          23   -0.0537    0.0221    0.0267   -0.0962   -0.0001    0.0071    0.0000   -0.0031
          24    0.0461   -0.0306   -0.0596    0.0333   -0.0000    0.0169    0.0001   -0.0053
          25   -0.0223   -0.0001   -0.0058   -0.0197    0.0000    0.0015   -0.0001   -0.0052
          26    0.0480   -0.0056   -0.0007    0.0422   -0.0000   -0.0033    0.0001    0.0112
          27    0.0022    0.0486    0.1099    0.0043    0.0001   -0.0003   -0.0000   -0.0008
          28    0.0290    0.0004    0.0146    0.0483   -0.0000    0.0000    0.0001    0.0037
          29   -0.0571    0.0016   -0.0249   -0.1007   -0.0000   -0.0001   -0.0002   -0.0107
          30   -0.0470   -0.0210   -0.0569   -0.0342   -0.0000    0.0006    0.0005    0.0224
          31   -0.0134   -0.0165   -0.0044   -0.0005    0.3468    0.0006    0.0157   -0.0009
          32    0.0077   -0.0087    0.0306   -0.0010    0.4778    0.0006    0.0153   -0.0003
          33   -0.0127    0.0061   -0.0122    0.0063    0.6133    0.0008    0.0196   -0.0018
          34    0.0136    0.0099   -0.0030   -0.0019   -0.0089   -0.0014    0.1980   -0.0033
          35   -0.0057    0.0038   -0.0013    0.0014   -0.0273   -0.0028    0.4025   -0.0067
          36    0.0051    0.0261   -0.0091    0.0018   -0.0014   -0.0002    0.0185   -0.0003
          37   -0.0126    0.0118   -0.0031    0.0056    0.0074    0.0015   -0.1915    0.0033
          38   -0.0056   -0.0248    0.0090   -0.0011   -0.0138   -0.0017    0.2083   -0.0036
          39    0.0000    0.0109   -0.0034    0.0027   -0.0220   -0.0027    0.3260   -0.0056
          40    0.0022   -0.0772    0.0290   -0.0083   -0.0004   -0.0023    0.0000   -0.0000
          41   -0.0071   -0.0567    0.0233   -0.0057   -0.0010   -0.0007   -0.0004    0.0000
          42    0.0034    0.1046   -0.0396    0.0119   -0.0001    0.0020   -0.0002    0.0000
          43    0.0001    0.0778   -0.0294    0.0093    0.0052   -0.0000    0.0006    0.0000
          44   -0.0025   -0.0596    0.0232   -0.0064   -0.0031    0.0001   -0.0011   -0.0000
          45    0.0013    0.1031   -0.0385    0.0119    0.0041    0.0000    0.0000    0.0000
          46   -0.0408    0.0060    0.0150    0.0193   -0.0004    0.0914    0.0004   -0.0010
          47    0.0860   -0.0153   -0.0351   -0.0349    0.0016   -0.2560   -0.0015    0.0029
          48    0.0041    0.0150    0.0252   -0.0475   -0.0021    0.5022    0.0030   -0.0064
          49   -0.0314    0.0092    0.0186   -0.0049   -0.0001    0.0572    0.0003   -0.0191
          50    0.0720   -0.0190   -0.0368    0.0166    0.0001   -0.0991   -0.0005    0.0334
          51   -0.0343   -0.0065   -0.0257   -0.0464    0.0002   -0.1935   -0.0010    0.0615
          52   -0.0261    0.0042    0.0029   -0.0228   -0.0002   -0.0172    0.0007    0.0605
          53    0.0568   -0.0067   -0.0011    0.0501    0.0004    0.0370   -0.0014   -0.1308
          54   -0.0024   -0.0205   -0.0446   -0.0028   -0.0000    0.0005    0.0001    0.0048
          55   -0.0358   -0.0045   -0.0147   -0.0116   -0.0000   -0.0010   -0.0010   -0.0469
          56    0.0739    0.0119    0.0356    0.0205    0.0001    0.0031    0.0027    0.1320
          57    0.0301   -0.0189   -0.0280    0.0445   -0.0002   -0.0073   -0.0054   -0.2585
          58   -0.0405   -0.0071   -0.0169    0.0117   -0.0003   -0.0159   -0.0031   -0.0970
          59    0.0871    0.0150    0.0340   -0.0322   -0.0006    0.0282    0.0055    0.1721
          60   -0.0063    0.0023    0.0229    0.0545    0.0033    0.0538    0.0106    0.3299


   Root No.      49        50        51        52        53        54

                49 A      50 A      51 A      52 A      53 A      54 A   

                3060.8    3068.2    3080.1    3106.0    3193.6    3213.8
  
           1   -0.0000   -0.0000    0.0000   -0.0011    0.0005    0.0014
           2    0.0002    0.0001   -0.0001   -0.0001   -0.0001   -0.0006
           3    0.0000   -0.0001    0.0000    0.0003    0.0005    0.0014
           4   -0.0000   -0.0000    0.0000   -0.0306    0.0009   -0.0018
           5    0.0002    0.0000   -0.0000   -0.0136    0.0005   -0.0010
           6    0.0001    0.0000   -0.0001    0.0258   -0.0008    0.0018
           7    0.0004    0.0000   -0.0004   -0.0000   -0.0000   -0.0000
           8   -0.0009   -0.0002    0.0008   -0.0000    0.0000    0.0001
           9    0.0002    0.0011   -0.0001    0.0000    0.0000   -0.0000
          10   -0.0001    0.0001    0.0000   -0.0001   -0.0276    0.0344
          11    0.0000   -0.0000   -0.0000   -0.0001   -0.0128    0.0128
          12    0.0001   -0.0000   -0.0000    0.0002    0.0237   -0.0239
          13    0.0000   -0.0000    0.0000   -0.0006   -0.0270   -0.0353
          14    0.0000   -0.0000   -0.0000   -0.0003    0.0136    0.0145
          15    0.0000   -0.0000    0.0000    0.0005   -0.0223   -0.0235
          16    0.0020   -0.0019   -0.0015   -0.0000   -0.0000    0.0000
          17   -0.0055    0.0049    0.0038   -0.0000    0.0001   -0.0001
          18    0.0097   -0.0073   -0.0058    0.0000   -0.0002    0.0002
          19    0.0046    0.0045   -0.0029   -0.0000   -0.0000   -0.0000
          20   -0.0083   -0.0083    0.0053    0.0000    0.0000    0.0000
          21   -0.0154   -0.0136    0.0082    0.0000    0.0000    0.0000
          22   -0.0051    0.0069    0.0048    0.0000    0.0000    0.0000
          23    0.0092   -0.0121   -0.0083   -0.0000   -0.0000   -0.0000
          24    0.0146   -0.0224   -0.0173   -0.0000   -0.0000   -0.0000
          25    0.0112    0.0018    0.0113    0.0000    0.0000    0.0000
          26   -0.0241   -0.0042   -0.0244   -0.0001   -0.0000   -0.0000
          27    0.0002    0.0022    0.0006   -0.0000    0.0000   -0.0000
          28   -0.0016   -0.0044    0.0032    0.0000    0.0000    0.0000
          29    0.0040    0.0121   -0.0092   -0.0000   -0.0000   -0.0000
          30   -0.0046   -0.0218    0.0191    0.0001    0.0000    0.0000
          31   -0.0006   -0.0002    0.0001   -0.0005   -0.0013   -0.0006
          32   -0.0003    0.0000   -0.0000   -0.0001   -0.0015   -0.0014
          33   -0.0011   -0.0006    0.0003    0.0003   -0.0018   -0.0018
          34   -0.0007   -0.0001   -0.0000    0.1827   -0.0037    0.0027
          35   -0.0014   -0.0003   -0.0002    0.4168   -0.0075    0.0071
          36   -0.0001    0.0000   -0.0000    0.0434   -0.0008    0.0007
          37    0.0007    0.0002   -0.0005    0.1911   -0.0035    0.0031
          38   -0.0008   -0.0003    0.0005   -0.2545    0.0043   -0.0044
          39   -0.0012   -0.0004    0.0007   -0.3520    0.0057   -0.0065
          40    0.0006   -0.0004   -0.0002    0.0135    0.3242   -0.3112
          41    0.0002   -0.0001   -0.0001    0.0063    0.1523   -0.1459
          42   -0.0004    0.0004    0.0001   -0.0117   -0.2807    0.2691
          43    0.0000    0.0000   -0.0003   -0.0009    0.3192    0.3217
          44   -0.0000    0.0000    0.0001    0.0004   -0.1610   -0.1621
          45    0.0000    0.0000   -0.0002   -0.0006    0.2639    0.2655
          46   -0.0204    0.0161    0.0118    0.0000    0.0005   -0.0006
          47    0.0567   -0.0446   -0.0327    0.0000   -0.0018    0.0018
          48   -0.1082    0.0837    0.0613   -0.0001    0.0020   -0.0018
          49    0.0543   -0.0770   -0.0547   -0.0001   -0.0000   -0.0001
          50   -0.0951    0.1343    0.0951    0.0002    0.0001    0.0001
          51   -0.1748    0.2535    0.1823    0.0005    0.0001    0.0002
          52   -0.1301   -0.0217   -0.1226   -0.0003   -0.0000   -0.0002
          53    0.2809    0.0473    0.2648    0.0007    0.0001    0.0003
          54   -0.0066   -0.0045   -0.0069   -0.0000   -0.0000   -0.0000
          55    0.0123    0.0466   -0.0368   -0.0001   -0.0000   -0.0000
          56   -0.0334   -0.1303    0.1036    0.0003    0.0000    0.0001
          57    0.0588    0.2500   -0.2028   -0.0006   -0.0001   -0.0002
          58   -0.0520   -0.0470    0.0272    0.0001    0.0000    0.0000
          59    0.0926    0.0839   -0.0485   -0.0002   -0.0000   -0.0001
          60    0.1747    0.1558   -0.0895   -0.0005   -0.0001   -0.0002


           MASS-WEIGHTED COORDINATE ANALYSIS (NORMAL COORDINATES)


   Root No.       1         2         3         4         5         6         7         8

                 1 A       2 A       3 A       4 A       5 A       6 A       7 A       8 A   

                  54.8     127.8     177.2     275.3     355.7     368.3     411.2     496.3
  
           1    0.1560   -0.0995   -0.0184   -0.2317   -0.1502   -0.0064    0.0424   -0.0963
           2    0.0629   -0.1373   -0.0931   -0.1161   -0.0405   -0.0053    0.2164    0.0289
           3   -0.1468   -0.0787   -0.1652   -0.0225    0.1722    0.0139   -0.1280    0.1396
           4    0.1565   -0.0921   -0.0244   -0.2625   -0.1843   -0.0077    0.0151   -0.1969
           5    0.1375    0.3300   -0.2626    0.2181    0.2568    0.0050    0.1691    0.0771
           6    0.3176    0.0456   -0.1169   -0.0798    0.1463    0.0099   -0.0868    0.0034
           7    0.0821   -0.2570    0.1269    0.0625   -0.0810   -0.0050    0.0472    0.4198
           8    0.0288   -0.2143   -0.0205    0.0028   -0.0494   -0.0030    0.0823    0.2466
           9   -0.0971   -0.0605   -0.2011    0.1652   -0.2719   -0.0226    0.1619   -0.0519
          10   -0.2006    0.0158   -0.1370   -0.0939    0.0308    0.0080   -0.1989   -0.0134
          11   -0.1328   -0.0802    0.3074   -0.2598    0.1516    0.0008    0.4694   -0.1657
          12   -0.2202   -0.0580    0.0773   -0.1312    0.3134    0.0216   -0.0699    0.0808
          13   -0.1939    0.0246   -0.1365   -0.0825    0.0216    0.0075   -0.2086   -0.0080
          14   -0.0774    0.3856    0.3834    0.2421   -0.2151   -0.0116   -0.0182    0.0431
          15    0.1665    0.0839    0.2465   -0.0539   -0.1120    0.0007   -0.1960   -0.0001
          16    0.3283   -0.1620    0.1824    0.2753    0.1858   -0.3491   -0.0164    0.1165
          17    0.0773   -0.2172   -0.1536    0.1427   -0.0994   -0.1710   -0.0939   -0.0076
          18   -0.0452   -0.0298   -0.1057    0.1454   -0.1801   -0.0370    0.2347   -0.0320
          19   -0.2371   -0.1975    0.0896    0.3385    0.0611    0.3532    0.0807    0.0863
          20   -0.0485   -0.1545    0.1194   -0.0046    0.0988    0.1746   -0.2170    0.0536
          21   -0.0751   -0.0383   -0.1123    0.1129   -0.2241    0.0019    0.0423   -0.1032
          22    0.2622    0.1794    0.0633    0.0841    0.1289    0.3606   -0.0000   -0.2226
          23    0.0464   -0.0598   -0.2156    0.0567   -0.1539    0.1560   -0.1082   -0.1831
          24    0.0255    0.0322    0.0892    0.0015    0.0179    0.0182    0.1020    0.0005
          25   -0.0567    0.3924   -0.0855   -0.2152   -0.0965   -0.0065    0.1957    0.3377
          26   -0.0298    0.0756   -0.1170   -0.2036   -0.1251    0.0026   -0.2495    0.0778
          27    0.0433    0.0630    0.1693   -0.0788    0.0755    0.0062   -0.0126    0.0333
          28   -0.3073    0.1439   -0.0320    0.1370    0.0563   -0.3571    0.0687   -0.2559
          29   -0.0771    0.0043    0.0760   -0.1191    0.1214   -0.1492   -0.2753   -0.1010
          30   -0.0058    0.0255    0.0831   -0.0190   -0.0121   -0.0178   -0.0394   -0.0571
          31    0.1239    0.0270   -0.0356   -0.0841   -0.0282   -0.0024    0.0173   -0.0981
          32    0.0454   -0.0616   -0.0451    0.0062   -0.0931   -0.0049    0.0641    0.0348
          33   -0.1075   -0.0343   -0.0135   -0.0263    0.1067    0.0073   -0.0421    0.0592
          34    0.0260   -0.1138    0.0305   -0.1404   -0.1451   -0.0053    0.0080   -0.0743
          35    0.0433    0.1376   -0.0847    0.0960    0.1116    0.0027    0.0434    0.0331
          36    0.1794    0.0034   -0.1872   -0.0450    0.2018    0.0077    0.0640   -0.0123
          37    0.1234    0.0395   -0.0243   -0.0472    0.0036   -0.0012    0.0248   -0.0727
          38    0.0857    0.1196   -0.2243    0.0818    0.2507    0.0075    0.1110    0.0372
          39    0.1059    0.0351    0.0544   -0.0189   -0.0387   -0.0005   -0.0528   -0.0177
          40   -0.1105    0.0208   -0.0573   -0.0037    0.0448    0.0057   -0.0940    0.0229
          41   -0.0728   -0.0958    0.1456   -0.1777    0.1104   -0.0015    0.2830   -0.1431
          42   -0.1432   -0.0373    0.0331   -0.0670    0.1685    0.0094    0.0178    0.0025
          43   -0.1055    0.0269   -0.0555    0.0081    0.0369    0.0042   -0.0948    0.0335
          44   -0.0413    0.2019    0.2110    0.1628   -0.1829   -0.0078   -0.1125    0.0411
          45    0.0964    0.0555    0.1517    0.0018   -0.1431   -0.0049   -0.0822   -0.0260
[...]
 EFF. MASS   3.0713

 VIBRATION   34   34A         ATOM PAIR      ENERGY CONTRIBUTION    RADIAL
 FREQ.      1224.94         C  6 -- H 16         +21.1% ( 55.4%)      0.2%
 T-DIPOLE    0.0503         C  7 -- H 20         +18.1% ( 51.4%)      0.3%
 TRAVEL      0.1437         C  9 -- H 18         +10.3% ( 38.7%)      0.5%
 RED. MASS   0.2231         C 10 -- H 19          +8.6% ( 35.3%)      0.9%
 EFF. MASS   2.6654

 VIBRATION   35   35A         ATOM PAIR      ENERGY CONTRIBUTION    RADIAL
 FREQ.      1264.36         C  1 -- C  5          +9.2% ( 51.2%)     84.6%
 T-DIPOLE    0.0233         C  1 -- H 11          +8.1% ( 47.9%)      4.1%
 TRAVEL      0.0723         C  2 -- C  5          +7.7% ( 46.8%)     97.4%
 RED. MASS   0.8388         C  1 -- C  2          +7.0% ( 44.5%)     98.5%
 EFF. MASS  10.1999

 VIBRATION   36   36A         ATOM PAIR      ENERGY CONTRIBUTION    RADIAL
 FREQ.      1297.94         C  2 -- C  5         +15.0% ( 61.4%)     98.9%
 T-DIPOLE    0.2001         C  4 -- C  5         +10.4% ( 51.2%)      0.1%
 TRAVEL      0.0766         C  1 -- C  4          +8.8% ( 47.1%)     98.8%
 RED. MASS   1.3068         C  1 -- C  5          +8.1% ( 45.2%)     38.5%
 EFF. MASS   8.8559

 VIBRATION   37   37A         ATOM PAIR      ENERGY CONTRIBUTION    RADIAL
 FREQ.      1387.51         C  8 -- C  9         +12.7% ( 63.7%)    100.0%
 T-DIPOLE    0.1466         C  7 -- C 10         +12.2% ( 62.4%)    100.0%
 TRAVEL      0.0641         C  3 -- C  7         +12.0% ( 61.8%)    100.0%
 RED. MASS   1.9368         C  9 -- C 10         +11.8% ( 61.4%)    100.0%
 EFF. MASS  11.8107         C  3 -- C  6         +11.8% ( 61.3%)    100.0%
                            C  6 -- C  8         +11.7% ( 61.2%)     99.8%

 VIBRATION   38   38A         ATOM PAIR      ENERGY CONTRIBUTION    RADIAL
 FREQ.      1400.52         C  2 -- H 13         +28.6% ( 63.8%)      4.3%
 T-DIPOLE    0.0739         C  2 -- H 12         +27.6% ( 62.7%)      4.9%
 TRAVEL      0.1155         C  2 -- C  5         +12.5% ( 42.2%)     75.6%
 RED. MASS   0.6964         C  1 -- C  2         +10.1% ( 38.0%)     23.7%
 EFF. MASS   3.6107

 VIBRATION   39   39A         ATOM PAIR      ENERGY CONTRIBUTION    RADIAL
 FREQ.      1433.24         C  1 -- C  3         +14.6% ( 64.1%)     94.3%
 T-DIPOLE    0.4958         C  1 -- C  4         +11.4% ( 56.7%)     62.2%
 TRAVEL      0.0664         C  1 -- H 11         +10.5% ( 54.3%)      0.0%
 RED. MASS   1.9390         C  1 -- C  2         +10.1% ( 53.3%)     45.1%
 EFF. MASS  10.6863

 VIBRATION   40   40A         ATOM PAIR      ENERGY CONTRIBUTION    RADIAL
 FREQ.      1543.39         C  6 -- C  8         +13.1% ( 53.6%)     99.7%
 T-DIPOLE    0.5167         C  7 -- C 10         +12.8% ( 53.0%)    100.0%
 TRAVEL      0.0632         C  3 -- C  6         +11.4% ( 50.0%)     25.6%
 RED. MASS   1.5137         C  3 -- C  7         +11.2% ( 49.6%)     23.6%
 EFF. MASS  10.9443         C  9 -- C 10         +10.4% ( 47.6%)     24.1%
                            C  8 -- C  9         +10.3% ( 47.6%)     17.7%

 VIBRATION   41   41A         ATOM PAIR      ENERGY CONTRIBUTION    RADIAL
 FREQ.      1617.43         C  1 -- C  3         +16.0% ( 60.1%)     99.3%
 T-DIPOLE    0.4290         C  3 -- C  6         +14.1% ( 56.4%)     58.6%
 TRAVEL      0.0611         C  3 -- C  7         +14.1% ( 56.3%)     61.1%
 RED. MASS   2.0741         C  9 -- C 10          +8.9% ( 44.8%)     65.9%
 EFF. MASS  11.1722

 VIBRATION   42   42A         ATOM PAIR      ENERGY CONTRIBUTION    RADIAL
 FREQ.      1773.42         C  4 -- C  5         +32.5% ( 94.3%)    100.0%
 T-DIPOLE    0.0837         C  1 -- C  5         +10.0% ( 52.4%)     58.3%
 TRAVEL      0.0563         C  2 -- C  4          +9.9% ( 52.0%)     59.2%
 RED. MASS   3.6795         C  2 -- C  5          +9.8% ( 51.8%)      0.1%
 EFF. MASS  11.9751

 VIBRATION   43   43A         ATOM PAIR      ENERGY CONTRIBUTION    RADIAL
 FREQ.      1783.52         C  8 -- C  9         +12.3% ( 50.3%)     88.4%
 T-DIPOLE    0.0366         C  3 -- C  6         +12.2% ( 50.0%)     88.1%
 TRAVEL      0.0564         C  3 -- C  7         +12.1% ( 49.9%)     89.0%
 RED. MASS   1.9181         C  9 -- C 10         +12.0% ( 49.7%)     87.1%
 EFF. MASS  11.8792

 VIBRATION   44   44A         ATOM PAIR      ENERGY CONTRIBUTION    RADIAL
 FREQ.      1803.94         C  7 -- C 10         +16.2% ( 56.4%)    100.0%
 T-DIPOLE    0.2502         C  6 -- C  8         +15.9% ( 55.7%)     99.5%
 TRAVEL      0.0562         C  3 -- C  6         +12.5% ( 49.6%)     49.4%
 RED. MASS   2.2198         C  3 -- C  7         +11.6% ( 47.6%)     39.4%
 EFF. MASS  11.8307

 VIBRATION   45   45A         ATOM PAIR      ENERGY CONTRIBUTION    RADIAL
 FREQ.      2948.07         C  1 -- H 11         +95.6% ( 99.9%)    100.0%
 T-DIPOLE    0.1343         C  1 -- C  2          +1.0% ( 10.4%)     13.7%
 TRAVEL      0.1259         C  1 -- C  5          +1.0% ( 10.4%)     29.3%
 RED. MASS   0.9256         C  1 -- C  3          +1.0% ( 10.4%)     11.2%
 EFF. MASS   1.4424

 VIBRATION   46   46A         ATOM PAIR      ENERGY CONTRIBUTION    RADIAL
 FREQ.      3046.92         C  6 -- H 16         +82.8% ( 92.5%)    100.0%
 T-DIPOLE    0.2969         C  8 -- H 17         +12.8% ( 36.4%)     99.9%
 TRAVEL      0.1211         C  6 -- C  8          +1.4% ( 12.0%)      7.1%
 RED. MASS   0.6944         C  3 -- C  6          +1.3% ( 11.6%)     28.6%
 EFF. MASS   1.5093

 VIBRATION   47   47A         ATOM PAIR      ENERGY CONTRIBUTION    RADIAL
 FREQ.      3051.59         C  2 -- H 12         +50.0% ( 73.6%)     97.2%
 T-DIPOLE    0.0995         C  2 -- H 13         +46.5% ( 70.9%)     96.8%
 TRAVEL      0.1197         C  2 -- C  4          +1.1% ( 10.9%)      0.0%
 RED. MASS   0.5170         C  2 -- C  5          +1.1% ( 10.9%)      0.0%
 EFF. MASS   1.5413

 VIBRATION   48   48A         ATOM PAIR      ENERGY CONTRIBUTION    RADIAL
 FREQ.      3053.83         C  7 -- H 20         +55.1% ( 75.5%)    100.0%
 T-DIPOLE    0.1688         C 10 -- H 19         +32.3% ( 57.8%)    100.0%
 TRAVEL      0.1214         C  9 -- H 18          +7.8% ( 28.4%)    100.0%
 RED. MASS   0.4086         C  8 -- H 17          +2.0% ( 14.3%)    100.0%
 EFF. MASS   1.4994

 VIBRATION   49   49A         ATOM PAIR      ENERGY CONTRIBUTION    RADIAL
 FREQ.      3060.76         C  9 -- H 18         +46.4% ( 69.3%)    100.0%
 T-DIPOLE    0.2651         C  8 -- H 17         +20.6% ( 46.2%)     99.9%
 TRAVEL      0.1208         C  7 -- H 20         +20.2% ( 45.7%)    100.0%
 RED. MASS   0.3007         C  6 -- H 16          +7.4% ( 27.7%)    100.0%
 EFF. MASS   1.5104

 VIBRATION   50   50A         ATOM PAIR      ENERGY CONTRIBUTION    RADIAL
 FREQ.      3068.25         C  8 -- H 17         +39.6% ( 63.9%)    100.0%
 T-DIPOLE    0.5513         C 10 -- H 19         +36.7% ( 61.5%)    100.0%
 TRAVEL      0.1194         C  7 -- H 20         +15.0% ( 39.4%)    100.0%
 RED. MASS   0.3138         C  6 -- H 16          +4.1% ( 20.7%)     99.9%
 EFF. MASS   1.5406

 VIBRATION   51   51A         ATOM PAIR      ENERGY CONTRIBUTION    RADIAL
 FREQ.      3080.07         C  9 -- H 18         +41.1% ( 65.0%)    100.0%
 T-DIPOLE    0.3530         C 10 -- H 19         +25.7% ( 51.4%)    100.0%
 TRAVEL      0.1170         C  8 -- H 17         +21.9% ( 47.4%)    100.0%
 RED. MASS   0.2867         C  7 -- H 20          +5.4% ( 23.5%)     99.9%
 EFF. MASS   1.5993

 VIBRATION   52   52A         ATOM PAIR      ENERGY CONTRIBUTION    RADIAL
 FREQ.      3106.03         C  2 -- H 13         +50.8% ( 70.8%)     97.2%
 T-DIPOLE    0.1431         C  2 -- H 12         +47.0% ( 68.1%)     96.7%
 TRAVEL      0.1302         C  2 -- C  4          +0.7% (  8.3%)     99.7%
 RED. MASS   0.4840         C  1 -- C  2          +0.7% (  8.3%)     51.1%
 EFF. MASS   1.2797

 VIBRATION   53   53A         ATOM PAIR      ENERGY CONTRIBUTION    RADIAL
 FREQ.      3193.61         C  4 -- H 14         +49.0% ( 71.7%)    100.0%
 T-DIPOLE    0.4849         C  5 -- H 15         +46.7% ( 70.0%)    100.0%
 TRAVEL      0.1201         C  4 -- C  5          +1.1% ( 10.6%)      0.0%
 RED. MASS   0.4648         C  2 -- C  4          +0.8% (  9.3%)     99.9%
 EFF. MASS   1.4644

 VIBRATION   54   54A         ATOM PAIR      ENERGY CONTRIBUTION    RADIAL
 FREQ.      3213.83         C  5 -- H 15         +47.4% ( 71.3%)     99.9%
 T-DIPOLE    0.4016         C  4 -- H 14         +45.1% ( 69.5%)     99.9%
 TRAVEL      0.1099         C  4 -- C  5          +3.0% ( 17.9%)    100.0%
 RED. MASS   0.4703         C  2 -- C  5          +1.1% ( 11.0%)     36.8%
 EFF. MASS   1.7365

      SYMMETRY NUMBER FOR POINT-GROUP C1  =  1


          SYSTEM IS A GROUND STATE



 InChI=1S/C10H10/c1-2-5-9(6-3-1)10-7-4-8-10/h1-7,10H,8H2


          MOLECULE IS NOT LINEAR

          THERE ARE 54 GENUINE VIBRATIONS IN THIS SYSTEM
          THIS THERMODYNAMICS CALCULATION IS LIMITED TO
          MOLECULES WHICH HAVE NO INTERNAL ROTATIONS




                    CALCULATED THERMODYNAMIC PROPERTIES
                                          *
   TEMP. (K)   PARTITION FUNCTION   H.O.F.    ENTHALPY  HEAT CAPACITY ENTROPY
                                   KCAL/MOL   CAL/MOLE    CAL/K/MOL  CAL/K/MOL


 298.00  VIB.     0.6007D+02                  3252.2832    25.9023    19.0524
         ROT.     0.5537D+06                   888.2813     2.9808    29.2604
         INT.     0.3326D+08                  4140.5645    28.8831    48.3128
         TRA.     0.1436D+28                  1480.4688     4.9680    40.5022
         TOT.                       64.964    5621.0333    33.8511    88.8150

 200.00  VIB.     0.1104D+02                  1284.9274    14.5897    11.1969
         ROT.     0.3044D+06                   596.1620     2.9808    28.0718
         INT.     0.3361D+07                  1881.0894    17.5706    39.2686
         TRA.     0.7896D+27                   993.6033     4.9680    38.5210
         TOT.                       62.217    2874.6926    22.5386    77.7897

 210.00  VIB.     0.1299D+02                  1435.9878    15.6284    11.9337
         ROT.     0.3276D+06                   625.9700     2.9808    28.2172
         INT.     0.4255D+07                  2061.9578    18.6093    40.1509
         TRA.     0.8496D+27                  1043.2834     4.9680    38.7634
         TOT.                       62.448    3105.2412    23.5773    78.9143

 220.00  VIB.     0.1532D+02                  1597.6147    16.7026    12.6854
         ROT.     0.3512D+06                   655.7781     2.9808    28.3559
         INT.     0.5381D+07                  2253.3928    19.6834    41.0413
         TRA.     0.9110D+27                  1092.9636     4.9680    38.9945
         TOT.                       62.689    3346.3564    24.6515    80.0358

 230.00  VIB.     0.1811D+02                  1770.1489    17.8094    13.4522
         ROT.     0.3755D+06                   685.5862     2.9808    28.4884
         INT.     0.6799D+07                  2455.7352    20.7902    41.9405
         TRA.     0.9738D+27                  1142.6437     4.9680    39.2154
         TOT.                       62.941    3598.3789    25.7582    81.1559

 240.00  VIB.     0.2146D+02                  1953.8989    18.9452    14.2340
         ROT.     0.4002D+06                   715.3943     2.9808    28.6152
         INT.     0.8587D+07                  2669.2932    21.9260    42.8492
         TRA.     0.1038D+28                  1192.3239     4.9680    39.4268
         TOT.                       63.204    3861.6171    26.8940    82.2761

 250.00  VIB.     0.2548D+02                  2149.1363    20.1062    15.0309
         ROT.     0.4255D+06                   745.2024     2.9808    28.7369
         INT.     0.1084D+08                  2894.3388    23.0870    43.7678
         TRA.     0.1103D+28                  1242.0041     4.9680    39.6296
         TOT.                       63.479    4136.3428    28.0550    83.3974

 260.00  VIB.     0.3033D+02                  2356.0934    21.2884    15.8424
         ROT.     0.4513D+06                   775.0105     2.9808    28.8538
         INT.     0.1369D+08                  3131.1039    24.2692    44.6962
         TRA.     0.1170D+28                  1291.6842     4.9680    39.8245
         TOT.                       63.766    4422.7881    29.2372    84.5207

 270.00  VIB.     0.3619D+02                  2574.9613    22.4877    16.6683
         ROT.     0.4775D+06                   804.8186     2.9808    28.9663
         INT.     0.1728D+08                  3379.7799    25.4685    45.6346
         TRA.     0.1239D+28                  1341.3644     4.9680    40.0120
         TOT.                       64.064    4721.1443    30.4365    85.6466

 280.00  VIB.     0.4327D+02                  2805.8903    23.7000    17.5080
         ROT.     0.5043D+06                   834.6267     2.9808    29.0747
         INT.     0.2182D+08                  3640.5170    26.6808    46.5827
         TRA.     0.1308D+28                  1391.0445     4.9680    40.1926
         TOT.                       64.374    5031.5616    31.6488    86.7753

 290.00  VIB.     0.5188D+02                  3048.9905    24.9213    18.3609
         ROT.     0.5316D+06                   864.4348     2.9808    29.1793
         INT.     0.2758D+08                  3913.4253    27.9021    47.5402
         TRA.     0.1379D+28                  1440.7247     4.9680    40.3670
         TOT.                       64.697    5354.1500    32.8701    87.9072

 300.00  VIB.     0.6233D+02                  3304.3334    26.1479    19.2265
         ROT.     0.5593D+06                   894.2429     2.9808    29.2804
         INT.     0.3486D+08                  4198.5763    29.1287    48.5068
         TRA.     0.1451D+28                  1490.4049     4.9680    40.5354
         TOT.                       65.032    5688.9812    34.0967    89.0422

 310.00  VIB.     0.7506D+02                  3571.9541    27.3763    20.1039
         ROT.     0.5875D+06                   924.0510     2.9808    29.3781
         INT.     0.4410D+08                  4496.0052    30.3571    49.4820
         TRA.     0.1524D+28                  1540.0850     4.9680    40.6983
         TOT.                       65.379    6036.0902    35.3251    90.1803

 320.00  VIB.     0.9061D+02                  3851.8542    28.6032    20.9924
         ROT.     0.6162D+06                   953.8591     2.9808    29.4728
         INT.     0.5583D+08                  4805.7133    31.5840    50.4652
         TRA.     0.1598D+28                  1589.7652     4.9680    40.8560
         TOT.                       65.738    6395.4785    36.5521    91.3212

 330.00  VIB.     0.1096D+03                  4144.0039    29.8258    21.8913
         ROT.     0.6453D+06                   983.6672     2.9808    29.5645
         INT.     0.7073D+08                  5127.6711    32.8066    51.4558
         TRA.     0.1674D+28                  1639.4454     4.9680    41.0089
         TOT.                       66.110    6767.1165    37.7746    92.4647

 340.00  VIB.     0.1329D+03                  4448.3457    31.0412    22.7998
         ROT.     0.6748D+06                  1013.4753     2.9808    29.6535
         INT.     0.8967D+08                  5461.8210    34.0220    52.4532
         TRA.     0.1750D+28                  1689.1255     4.9680    41.1572
         TOT.                       66.494    7150.9465    38.9900    93.6104

 350.00  VIB.     0.1614D+03                  4764.7967    32.2472    23.7170
         ROT.     0.7048D+06                  1043.2834     2.9808    29.7399
         INT.     0.1138D+09                  5808.0802    35.2281    53.4569
         TRA.     0.1828D+28                  1738.8057     4.9680    41.3012
         TOT.                       66.890    7546.8858    40.1961    94.7581

 360.00  VIB.     0.1966D+03                  5093.2522    33.4418    24.6422
         ROT.     0.7352D+06                  1073.0915     2.9808    29.8238
         INT.     0.1445D+09                  6166.3437    36.4226    54.4661
         TRA.     0.1907D+28                  1788.4859     4.9680    41.4412
         TOT.                       67.298    7954.8296    41.3906    95.9072

 370.00  VIB.     0.2398D+03                  5433.5877    34.6230    25.5746
         ROT.     0.7661D+06                  1102.8996     2.9808    29.9055
         INT.     0.1837D+09                  6536.4873    37.6038    55.4801
         TRA.     0.1987D+28                  1838.1660     4.9680    41.5773
         TOT.                       67.717    8374.6533    42.5718    97.0574

 380.00  VIB.     0.2931D+03                  5785.6623    35.7893    26.5135
         ROT.     0.7973D+06                  1132.7077     2.9808    29.9850
         INT.     0.2337D+09                  6918.3700    38.7702    56.4985
         TRA.     0.2068D+28                  1887.8462     4.9680    41.7098
         TOT.                       68.149    8806.2162    43.7382    98.2083

 390.00  VIB.     0.3588D+03                  6149.3207    36.9396    27.4580
         ROT.     0.8290D+06                  1162.5158     2.9808    30.0624
         INT.     0.2975D+09                  7311.8365    39.9204    57.5205
         TRA.     0.2150D+28                  1937.5263     4.9680    41.8388
         TOT.                       68.592    9249.3629    44.8884    99.3593

 400.00  VIB.     0.4402D+03                  6524.3960    38.0725    28.4076
         ROT.     0.8611D+06                  1192.3239     2.9808    30.1379
         INT.     0.3791D+09                  7716.7199    41.0533    58.5455
         TRA.     0.2233D+28                  1987.2065     4.9680    41.9646
         TOT.                       69.047    9703.9264    46.0214   100.5101

   *: NOTE: HEATS OF FORMATION ARE RELATIVE TO THE
            ELEMENTS IN THEIR STANDARD STATE AT 298K
              (=  Standard Enthalpy of Formation).

            Hvib:  Zero-point energy is not included.
                   frequencies of less than zero cm-1 are not included.
            Hrot = (3/2)RT
            Htra = (3/2)RT + pV = (5/2)RT

            Heat capacity is Cp, not Cv

          For more information, see: HTTP://OpenMOPAC.net/Manual/thermochemistry.html


           FORCE CONSTANT IN CARTESIAN COORDINATES (Millidynes/A)

    ATOM   CHEMICAL       X               Y               Z
   NUMBER   SYMBOL  FORCE CONSTANT  FORCE CONSTANT  FORCE CONSTANT

      1       C        7.260227        9.106505        8.458916
      2       C        7.181064        8.386819        8.335663
      3       C        4.669716       10.695343       12.353970
      4       C       15.157282        3.908319        7.415168
      5       C       15.210867        4.021181        7.454564
      6       C        4.204593       10.692091       12.009535
      7       C        4.169059       10.776318       11.972421
      8       C        4.128320       10.494087       12.200943
      9       C        4.112972       10.413625       12.122115
     10       C        4.129959       10.550751       12.185269
     11       H        1.354180        2.011344        2.794417
     12       H        1.490145        4.405350        0.670146
     13       H        1.498873        1.861036        3.217439
     14       H        3.165027        0.971764        2.457363
     15       H        3.209150        1.070814        2.317261
     16       H        0.544526        1.593615        4.118414
     17       H        0.724806        1.585370        3.967308
     18       H        1.210515        4.317621        0.760465
     19       H        0.542372        1.590743        4.144797
     20       H        0.708856        1.594317        3.968663

 **********************
 *                    *
 * JOB ENDED NORMALLY *
 *                    *
 **********************



 TOTAL JOB TIME:             2.05 SECONDS

 == MOPAC DONE ==
