 *******************************************************************************
 ** Site#: 14399        For non-commercial use only    Version 18.184L 64BITS **
 *******************************************************************************
 ** Cite this program as: MOPAC2016, Version: 18.184L, James J. P. Stewart,   **
 ** Stewart Computational Chemistry, web: HTTP://OpenMOPAC.net. Days left:  18**
 *******************************************************************************
 **                                                                           **
 **                                MOPAC2016                                  **
 **                                                                           **
 *******************************************************************************

                              PM3 CALCULATION RESULTS

 *******************************************************************************
 *  CALCULATION DONE:                                Sat Jun 15 10:13:01 2019  *
 *  PM3        - The PM3 Hamiltonian to be used
 *  PRECISE    - CRITERIA TO BE INCREASED BY 100 TIMES
 *  NOSYM      - POINT-GROUP SYMMETRY SET TO C1
 *  THREADS=1  - MULTI-THREADING NOT USED
 *  T=         - A TIME OF 172800.0 SECONDS REQUESTED
 *  DUMP=N     - RESTART FILE WRITTEN EVERY  7200.000 SECONDS
 *******************************************************************************
pm3  precise nosym THREADS=1
 InChI=1S/C10H10/c1-2-3-7-10-8-5-4-6-9-10/h3,5-9H,1,4H2

   ATOM   CHEMICAL          X               Y               Z
  NUMBER   SYMBOL      (ANGSTROMS)     (ANGSTROMS)     (ANGSTROMS)
 
     1       C         -3.16320000  *   0.02210000  *   0.17430000  *
     2       C         -0.26330000  *  -0.23910000  *  -0.02700000  *
     3       C         -2.24000000  *   1.20970000  *   0.07290000  *
     4       C         -2.46040000  *  -1.31100000  *   0.16290000  *
     5       C         -0.91250000  *   1.09430000  *  -0.01940000  *
     6       C         -1.13420000  *  -1.42940000  *   0.07080000  *
     7       C          1.06940000  *  -0.41760000  *  -0.11780000  *
     8       C          2.06630000  *   0.66670000  *  -0.22160000  *
     9       C          4.60270000  *   0.08640000  *  -0.38730000  *
    10       C          3.33560000  *   0.37660000  *  -0.30450000  *
    11       H         -3.87450000  *   0.05380000  *  -0.67730000  *
    12       H         -3.74520000  *   0.10650000  *   1.11580000  *
    13       H         -2.68050000  *   2.19910000  *   0.07550000  *
    14       H         -3.06300000  *  -2.20810000  *   0.23270000  *
    15       H          1.45390000  *  -1.43310000  *  -0.11570000  *
    16       H         -0.33770000  *   2.00510000  *  -0.08770000  *
    17       H         -0.70010000  *  -2.42280000  *   0.06870000  *
    18       H          1.78970000  *   1.70900000  *  -0.23230000  *
    19       H          5.33500000  *   0.87850000  *  -0.46340000  *
    20       H          4.92200000  *  -0.94670000  *  -0.38000000  *
 


          CARTESIAN COORDINATES 

    NO.       ATOM           X           Y           Z

     1         C         -3.1632      0.0221      0.1743
     2         C         -0.2633     -0.2391     -0.0270
     3         C         -2.2400      1.2097      0.0729
     4         C         -2.4604     -1.3110      0.1629
     5         C         -0.9125      1.0943     -0.0194
     6         C         -1.1342     -1.4294      0.0708
     7         C          1.0694     -0.4176     -0.1178
     8         C          2.0663      0.6667     -0.2216
     9         C          4.6027      0.0864     -0.3873
    10         C          3.3356      0.3766     -0.3045
    11         H         -3.8745      0.0538     -0.6773
    12         H         -3.7452      0.1065      1.1158
    13         H         -2.6805      2.1991      0.0755
    14         H         -3.0630     -2.2081      0.2327
    15         H          1.4539     -1.4331     -0.1157
    16         H         -0.3377      2.0051     -0.0877
    17         H         -0.7001     -2.4228      0.0687
    18         H          1.7897      1.7090     -0.2323
    19         H          5.3350      0.8785     -0.4634
    20         H          4.9220     -0.9467     -0.3800

  H: (PM3): J. J. P. STEWART, J. COMP. CHEM. 10, 209 (1989).
  C: (PM3): J. J. P. STEWART, J. COMP. CHEM. 10, 209 (1989).

           Empirical Formula: C10 H10  =    20 atoms



      MOLECULAR POINT GROUP   :   C1  


      RHF CALCULATION, NO. OF DOUBLY OCCUPIED LEVELS = 25


          Geometry optimization using EF

          DIAGONAL MATRIX USED AS START HESSIAN

 CYCLE:     1 TIME:   0.004 TIME LEFT:  2.00D  GRAD.:   104.717 HEAT:  142.2067
 CYCLE:     2 TIME:   0.012 TIME LEFT:  2.00D  GRAD.:   135.405 HEAT:  136.2863
 CYCLE:     3 TIME:   0.004 TIME LEFT:  2.00D  GRAD.:   113.761 HEAT:  129.8431
 CYCLE:     4 TIME:   0.004 TIME LEFT:  2.00D  GRAD.:   100.040 HEAT:  121.6825
 CYCLE:     5 TIME:   0.004 TIME LEFT:  2.00D  GRAD.:    82.147 HEAT:  112.3662
 CYCLE:     6 TIME:   0.008 TIME LEFT:  2.00D  GRAD.:    96.826 HEAT:  103.9618
 CYCLE:     7 TIME:   0.004 TIME LEFT:  2.00D  GRAD.:   110.042 HEAT:  96.99525
 CYCLE:     8 TIME:   0.008 TIME LEFT:  2.00D  GRAD.:   132.822 HEAT:  95.84674
 CYCLE:     9 TIME:   0.004 TIME LEFT:  2.00D  GRAD.:    84.388 HEAT:  92.75211
 CYCLE:    10 TIME:   0.008 TIME LEFT:  2.00D  GRAD.:    91.633 HEAT:  91.88131
 CYCLE:    11 TIME:   0.004 TIME LEFT:  2.00D  GRAD.:    54.202 HEAT:  90.81532
 CYCLE:    12 TIME:   0.004 TIME LEFT:  2.00D  GRAD.:    75.651 HEAT:  90.70717
 CYCLE:    13 TIME:   0.008 TIME LEFT:  2.00D  GRAD.:    60.079 HEAT:  90.24906
 CYCLE:    14 TIME:   0.008 TIME LEFT:  2.00D  GRAD.:    27.965 HEAT:  89.33153
 CYCLE:    15 TIME:   0.008 TIME LEFT:  2.00D  GRAD.:    24.626 HEAT:  89.12908
 CYCLE:    16 TIME:   0.004 TIME LEFT:  2.00D  GRAD.:    18.745 HEAT:  88.90367
 CYCLE:    17 TIME:   0.004 TIME LEFT:  2.00D  GRAD.:    27.616 HEAT:  88.70247
 CYCLE:    18 TIME:   0.004 TIME LEFT:  2.00D  GRAD.:    21.453 HEAT:  88.31692
 CYCLE:    19 TIME:   0.004 TIME LEFT:  2.00D  GRAD.:    32.289 HEAT:  87.99623
 CYCLE:    20 TIME:   0.004 TIME LEFT:  2.00D  GRAD.:    24.490 HEAT:  87.52505
 CYCLE:    21 TIME:   0.004 TIME LEFT:  2.00D  GRAD.:    25.729 HEAT:  87.20855
 CYCLE:    22 TIME:   0.008 TIME LEFT:  2.00D  GRAD.:    25.203 HEAT:  87.01115
 CYCLE:    23 TIME:   0.004 TIME LEFT:  2.00D  GRAD.:    37.943 HEAT:  87.00973
 CYCLE:    24 TIME:   0.004 TIME LEFT:  2.00D  GRAD.:    27.391 HEAT:  86.62071
 CYCLE:    25 TIME:   0.008 TIME LEFT:  2.00D  GRAD.:    32.627 HEAT:  86.49075
 CYCLE:    26 TIME:   0.004 TIME LEFT:  2.00D  GRAD.:    14.924 HEAT:  86.14114
 CYCLE:    27 TIME:   0.004 TIME LEFT:  2.00D  GRAD.:    20.929 HEAT:  86.01245
 CYCLE:    28 TIME:   0.004 TIME LEFT:  2.00D  GRAD.:    20.024 HEAT:  85.87120
 CYCLE:    29 TIME:   0.004 TIME LEFT:  2.00D  GRAD.:    12.963 HEAT:  85.71881
 CYCLE:    30 TIME:   0.004 TIME LEFT:  2.00D  GRAD.:    14.411 HEAT:  85.65129
 CYCLE:    31 TIME:   0.004 TIME LEFT:  2.00D  GRAD.:    13.543 HEAT:  85.59370
 CYCLE:    32 TIME:   0.004 TIME LEFT:  2.00D  GRAD.:    11.748 HEAT:  85.53617
 CYCLE:    33 TIME:   0.004 TIME LEFT:  2.00D  GRAD.:     8.526 HEAT:  85.47758
 CYCLE:    34 TIME:   0.008 TIME LEFT:  2.00D  GRAD.:     6.278 HEAT:  85.41632
 CYCLE:    35 TIME:   0.004 TIME LEFT:  2.00D  GRAD.:     8.035 HEAT:  85.37049
 CYCLE:    36 TIME:   0.004 TIME LEFT:  2.00D  GRAD.:     8.190 HEAT:  85.32785
 CYCLE:    37 TIME:   0.004 TIME LEFT:  2.00D  GRAD.:     4.907 HEAT:  85.29118
 CYCLE:    38 TIME:   0.004 TIME LEFT:  2.00D  GRAD.:     3.239 HEAT:  85.26396
 CYCLE:    39 TIME:   0.004 TIME LEFT:  2.00D  GRAD.:     2.953 HEAT:  85.23827
 CYCLE:    40 TIME:   0.004 TIME LEFT:  2.00D  GRAD.:     2.533 HEAT:  85.22494
 CYCLE:    41 TIME:   0.004 TIME LEFT:  2.00D  GRAD.:     2.620 HEAT:  85.21493
 CYCLE:    42 TIME:   0.004 TIME LEFT:  2.00D  GRAD.:     2.525 HEAT:  85.20217
 CYCLE:    43 TIME:   0.004 TIME LEFT:  2.00D  GRAD.:     2.315 HEAT:  85.18834
 CYCLE:    44 TIME:   0.004 TIME LEFT:  2.00D  GRAD.:     2.346 HEAT:  85.17447
 CYCLE:    45 TIME:   0.004 TIME LEFT:  2.00D  GRAD.:     2.431 HEAT:  85.16440
 CYCLE:    46 TIME:   0.004 TIME LEFT:  2.00D  GRAD.:     2.632 HEAT:  85.15207
 CYCLE:    47 TIME:   0.004 TIME LEFT:  2.00D  GRAD.:     2.075 HEAT:  85.13986
 CYCLE:    48 TIME:   0.004 TIME LEFT:  2.00D  GRAD.:     1.867 HEAT:  85.12951
 CYCLE:    49 TIME:   0.004 TIME LEFT:  2.00D  GRAD.:     1.884 HEAT:  85.12143
 CYCLE:    50 TIME:   0.004 TIME LEFT:  2.00D  GRAD.:     1.816 HEAT:  85.11505
 CYCLE:    51 TIME:   0.008 TIME LEFT:  2.00D  GRAD.:     1.569 HEAT:  85.10966
 CYCLE:    52 TIME:   0.004 TIME LEFT:  2.00D  GRAD.:     1.387 HEAT:  85.10513
 CYCLE:    53 TIME:   0.004 TIME LEFT:  2.00D  GRAD.:     1.324 HEAT:  85.10145
 CYCLE:    54 TIME:   0.004 TIME LEFT:  2.00D  GRAD.:     1.210 HEAT:  85.09840
 CYCLE:    55 TIME:   0.004 TIME LEFT:  2.00D  GRAD.:     1.127 HEAT:  85.09580
 CYCLE:    56 TIME:   0.004 TIME LEFT:  2.00D  GRAD.:     1.009 HEAT:  85.09309
 CYCLE:    57 TIME:   0.004 TIME LEFT:  2.00D  GRAD.:     0.828 HEAT:  85.09078
 CYCLE:    58 TIME:   0.004 TIME LEFT:  2.00D  GRAD.:     0.499 HEAT:  85.08957
 CYCLE:    59 TIME:   0.004 TIME LEFT:  2.00D  GRAD.:     0.292 HEAT:  85.08922
 CYCLE:    60 TIME:   0.004 TIME LEFT:  2.00D  GRAD.:     0.235 HEAT:  85.08909
 CYCLE:    61 TIME:   0.004 TIME LEFT:  2.00D  GRAD.:     0.225 HEAT:  85.08898
 CYCLE:    62 TIME:   0.004 TIME LEFT:  2.00D  GRAD.:     0.165 HEAT:  85.08890
 CYCLE:    63 TIME:   0.004 TIME LEFT:  2.00D  GRAD.:     0.109 HEAT:  85.08885
 CYCLE:    64 TIME:   0.008 TIME LEFT:  2.00D  GRAD.:     0.092 HEAT:  85.08883
 CYCLE:    65 TIME:   0.004 TIME LEFT:  2.00D  GRAD.:     0.145 HEAT:  85.08880
 CYCLE:    66 TIME:   0.004 TIME LEFT:  2.00D  GRAD.:     0.114 HEAT:  85.08877
 CYCLE:    67 TIME:   0.004 TIME LEFT:  2.00D  GRAD.:     0.135 HEAT:  85.08872
 CYCLE:    68 TIME:   0.004 TIME LEFT:  2.00D  GRAD.:     0.112 HEAT:  85.08869
 CYCLE:    69 TIME:   0.004 TIME LEFT:  2.00D  GRAD.:     0.099 HEAT:  85.08865
 CYCLE:    70 TIME:   0.004 TIME LEFT:  2.00D  GRAD.:     0.138 HEAT:  85.08855
 CYCLE:    71 TIME:   0.004 TIME LEFT:  2.00D  GRAD.:     0.242 HEAT:  85.08843
 CYCLE:    72 TIME:   0.004 TIME LEFT:  2.00D  GRAD.:     0.206 HEAT:  85.08835
 CYCLE:    73 TIME:   0.004 TIME LEFT:  2.00D  GRAD.:     0.170 HEAT:  85.08826
 CYCLE:    74 TIME:   0.004 TIME LEFT:  2.00D  GRAD.:     0.127 HEAT:  85.08816
 CYCLE:    75 TIME:   0.004 TIME LEFT:  2.00D  GRAD.:     0.125 HEAT:  85.08810
 CYCLE:    76 TIME:   0.004 TIME LEFT:  2.00D  GRAD.:     0.105 HEAT:  85.08804
 CYCLE:    77 TIME:   0.004 TIME LEFT:  2.00D  GRAD.:     0.089 HEAT:  85.08798
 CYCLE:    78 TIME:   0.004 TIME LEFT:  2.00D  GRAD.:     0.051 HEAT:  85.08797
 CYCLE:    79 TIME:   0.004 TIME LEFT:  2.00D  GRAD.:     0.093 HEAT:  85.08797
 CYCLE:    80 TIME:   0.004 TIME LEFT:  2.00D  GRAD.:     0.051 HEAT:  85.08796
 CYCLE:    81 TIME:   0.004 TIME LEFT:  2.00D  GRAD.:     0.057 HEAT:  85.08795
 CYCLE:    82 TIME:   0.004 TIME LEFT:  2.00D  GRAD.:     0.096 HEAT:  85.08793
 CYCLE:    83 TIME:   0.004 TIME LEFT:  2.00D  GRAD.:     0.124 HEAT:  85.08789
 CYCLE:    84 TIME:   0.004 TIME LEFT:  2.00D  GRAD.:     0.129 HEAT:  85.08783
 CYCLE:    85 TIME:   0.008 TIME LEFT:  2.00D  GRAD.:     0.126 HEAT:  85.08779
 CYCLE:    86 TIME:   0.004 TIME LEFT:  2.00D  GRAD.:     0.118 HEAT:  85.08773
 CYCLE:    87 TIME:   0.004 TIME LEFT:  2.00D  GRAD.:     0.146 HEAT:  85.08767
 CYCLE:    88 TIME:   0.004 TIME LEFT:  2.00D  GRAD.:     0.167 HEAT:  85.08760
 CYCLE:    89 TIME:   0.004 TIME LEFT:  2.00D  GRAD.:     0.120 HEAT:  85.08755
 CYCLE:    90 TIME:   0.004 TIME LEFT:  2.00D  GRAD.:     0.122 HEAT:  85.08749
 CYCLE:    91 TIME:   0.004 TIME LEFT:  2.00D  GRAD.:     0.083 HEAT:  85.08747
 CYCLE:    92 TIME:   0.004 TIME LEFT:  2.00D  GRAD.:     0.162 HEAT:  85.08751
 CYCLE:    93 TIME:   0.004 TIME LEFT:  2.00D  GRAD.:     0.044 HEAT:  85.08745

     GRADIENT =  0.04363  IS LESS THAN CUTOFF =  0.05000



 -------------------------------------------------------------------------------
 pm3  precise nosym THREADS=1
 InChI=1S/C10H10/c1-2-3-7-10-8-5-4-6-9-10/h3,5-9H,1,4H2



     GEOMETRY OPTIMISED USING EIGENVECTOR FOLLOWING (EF).     
     SCF FIELD WAS ACHIEVED                                   


                              PM3 CALCULATION
                                                       MOPAC2016 (Version: 18.184L)
                                                       Sat Jun 15 10:13:01 2019
                                                       No. of days remaining =  18




          FINAL HEAT OF FORMATION =         85.08745 KCAL/MOL =     356.00590 KJ/MOL


          TOTAL ENERGY            =      -1336.04120 EV
          ELECTRONIC ENERGY       =      -6645.18175 EV  POINT GROUP:     C1  
          CORE-CORE REPULSION     =       5309.14055 EV
          COSMO AREA              =        185.72 SQUARE ANGSTROMS
          COSMO VOLUME            =        179.28 CUBIC ANGSTROMS

          GRADIENT NORM           =          0.04363 = 0.00976 PER ATOM
          IONIZATION POTENTIAL    =          8.191268 EV
          HOMO LUMO ENERGIES (EV) =         -8.191 -0.507
          NO. OF FILLED LEVELS    =         25
          MOLECULAR WEIGHT        =        130.1890

          MOLECULAR DIMENSIONS (Angstroms)

            Atom       Atom       Distance
            H    19    H    12     9.17449
            H    17    H    13     4.65706
            H    20    H    11     3.52564


          SCF CALCULATIONS        =        100
 
          WALL-CLOCK TIME         =          0.430 SECONDS
          COMPUTATION TIME        =          0.396 SECONDS




   ATOM   CHEMICAL          X               Y               Z
  NUMBER   SYMBOL      (ANGSTROMS)     (ANGSTROMS)     (ANGSTROMS)
 
     1       C         -3.14198880  *   0.07246169  *   0.17400240  *
     2       C         -0.26104448  *  -0.30192274  *  -0.03927376  *
     3       C         -2.18060243  *   1.20310972  *   0.12939425  *
     4       C         -2.50250480  *  -1.26563815  *   0.10156837  *
     5       C         -0.85844025  *   1.02593457  *   0.03159373  *
     6       C         -1.17867069  *  -1.43521080  *   0.00367945  *
     7       C          1.07284165  *  -0.49877451  *  -0.14026354  *
     8       C          2.02790207  *   0.59149741  *  -0.18667813  *
     9       C          4.59411464  *   0.20562451  *  -0.38342685  *
    10       C          3.31686503  *   0.39267207  *  -0.28551460  *
    11       H         -3.86564031  *   0.17624204  *  -0.66107648  *
    12       H         -3.74099543  *   0.14012828  *   1.10587718  *
    13       H         -2.61119330  *   2.20919487  *   0.18129041  *
    14       H         -3.17866290  *  -2.12722193  *   0.13261325  *
    15       H          1.47477240  *  -1.51865039  *  -0.19093052  *
    16       H         -0.16035868  *   1.87722941  *   0.00001109  *
    17       H         -0.74073845  *  -2.43919900  *  -0.04754056  *
    18       H          1.62756548  *   1.61815281  *  -0.13512418  *
    19       H          5.10064617  *   0.14167158  *  -1.34291524  *
    20       H          5.23538163  *   0.10176027  *   0.48794580  *

                             CARTESIAN COORDINATES

   1    C       -3.141988800     0.072461695     0.174002397
   2    C       -0.261044479    -0.301922743    -0.039273757
   3    C       -2.180602430     1.203109720     0.129394248
   4    C       -2.502504799    -1.265638153     0.101568367
   5    C       -0.858440247     1.025934571     0.031593734
   6    C       -1.178670695    -1.435210804     0.003679446
   7    C        1.072841650    -0.498774513    -0.140263541
   8    C        2.027902068     0.591497409    -0.186678128
   9    C        4.594114644     0.205624506    -0.383426848
  10    C        3.316865030     0.392672072    -0.285514601
  11    H       -3.865640313     0.176242043    -0.661076476
  12    H       -3.740995435     0.140128278     1.105877180
  13    H       -2.611193295     2.209194868     0.181290407
  14    H       -3.178662901    -2.127221928     0.132613253
  15    H        1.474772401    -1.518650392    -0.190930521
  16    H       -0.160358676     1.877229407     0.000011087
  17    H       -0.740738449    -2.439199003    -0.047540555
  18    H        1.627565477     1.618152812    -0.135124183
  19    H        5.100646171     0.141671585    -1.342915235
  20    H        5.235381632     0.101760267     0.487945797


           Empirical Formula: C10 H10  =    20 atoms



      MOLECULAR POINT GROUP   :   C1  


                  EIGENVALUES  
 -39.92545 -35.25092 -31.48056 -30.07833 -27.37669 -24.12610 -21.32486 -20.12654
 -17.98517 -17.68704 -16.60923 -15.83039 -15.41572 -15.19096 -14.96239 -14.71036
 -14.30075 -13.35100 -13.01137 -12.40760 -11.71778 -10.46064 -10.40502 -10.30684
  -8.19127  -0.50717   1.02559   1.09466   1.36368   2.69214   2.93072   3.21351
   3.34560   3.42104   3.56817   3.73441   3.80731   4.12315   4.23479   4.35941
   4.42181   4.67954   4.91558   5.05516   5.20942   5.40535   5.55446   6.20244
   6.29750   6.55598


              NET ATOMIC CHARGES AND DIPOLE CONTRIBUTIONS

  ATOM NO.   TYPE          CHARGE      No. of ELECS.   s-Pop       p-Pop       
    1          C          -0.027743        4.0277     1.13219     2.89556
    2          C          -0.041459        4.0415     1.16648     2.87497
    3          C          -0.128096        4.1281     1.19434     2.93375
    4          C          -0.133464        4.1335     1.19513     2.93834
    5          C          -0.109431        4.1094     1.17870     2.93073
    6          C          -0.102127        4.1021     1.17922     2.92291
    7          C          -0.091171        4.0912     1.17720     2.91397
    8          C          -0.055754        4.0558     1.14575     2.91000
    9          C          -0.095492        4.0955     1.14687     2.94862
   10          C          -0.166986        4.1670     1.21526     2.95172
   11          H           0.065390        0.9346     0.93461
   12          H           0.065354        0.9346     0.93465
   13          H           0.098492        0.9015     0.90151
   14          H           0.098619        0.9014     0.90138
   15          H           0.104727        0.8953     0.89527
   16          H           0.107645        0.8924     0.89235
   17          H           0.102539        0.8975     0.89746
   18          H           0.116987        0.8830     0.88301
   19          H           0.095977        0.9040     0.90402
   20          H           0.095995        0.9040     0.90401
 DIPOLE           X         Y         Z       TOTAL
 POINT-CHG.    -0.490     0.101     0.036     0.501
 HYBRID         0.020     0.000    -0.002     0.020
 SUM           -0.470     0.101     0.035     0.482


          ATOMIC ORBITAL ELECTRON POPULATIONS

     Atom    s        px        py        pz   
    1  C   1.13219   0.96561   0.92317   1.00678
    2  C   1.16648   0.93822   0.93386   1.00289
    3  C   1.19434   0.95516   0.98054   0.99805
    4  C   1.19513   0.96350   0.97377   1.00108
    5  C   1.17870   0.95599   0.95949   1.01526
    6  C   1.17922   0.94364   0.96651   1.01275
    7  C   1.17720   0.92776   0.97318   1.01303
    8  C   1.14575   0.89717   0.97949   1.03334
    9  C   1.14687   0.91675   1.02595   1.00592
   10  C   1.21526   0.96625   0.99096   0.99451
   11  H   0.93461
   12  H   0.93465
   13  H   0.90151
   14  H   0.90138
   15  H   0.89527
   16  H   0.89235
   17  H   0.89746
   18  H   0.88301
   19  H   0.90402
   20  H   0.90401
 *******************************************************************************
 ** Site#: 14399        For non-commercial use only    Version 18.184L 64BITS **
 *******************************************************************************
 ** Cite this program as: MOPAC2016, Version: 18.184L, James J. P. Stewart,   **
 ** Stewart Computational Chemistry, web: HTTP://OpenMOPAC.net. Days left:  18**
 *******************************************************************************
 **                                                                           **
 **                                MOPAC2016                                  **
 **                                                                           **
 *******************************************************************************

                              PM3 CALCULATION RESULTS

 *******************************************************************************
 *  CALCULATION DONE:                                Sat Jun 15 10:13:01 2019  *
 *  PM3        - The PM3 Hamiltonian to be used
 *  OLDGEO     - PREVIOUS GEOMETRY TO BE USED
 *  PRECISE    - CRITERIA TO BE INCREASED BY 100 TIMES
 *  NOSYM      - POINT-GROUP SYMMETRY SET TO C1
 *  THREADS=1  - MULTI-THREADING NOT USED
 *  T=         - A TIME OF 172800.0 SECONDS REQUESTED
 *  DUMP=N     - RESTART FILE WRITTEN EVERY  7200.000 SECONDS
 *  THERMO     - THERMODYNAMIC QUANTITIES TO BE CALCULATED
 *******************************************************************************
oldgeo thermo nosym precise THREADS=1  pm3
 InChI=1S/C10H10/c1-2-3-7-10-8-5-4-6-9-10/h3,5-9H,1,4H2

   ATOM   CHEMICAL          X               Y               Z
  NUMBER   SYMBOL      (ANGSTROMS)     (ANGSTROMS)     (ANGSTROMS)
 
     1       C         -3.14198880  *   0.07246169  *   0.17400240  *
     2       C         -0.26104448  *  -0.30192274  *  -0.03927376  *
     3       C         -2.18060243  *   1.20310972  *   0.12939425  *
     4       C         -2.50250480  *  -1.26563815  *   0.10156837  *
     5       C         -0.85844025  *   1.02593457  *   0.03159373  *
     6       C         -1.17867069  *  -1.43521080  *   0.00367945  *
     7       C          1.07284165  *  -0.49877451  *  -0.14026354  *
     8       C          2.02790207  *   0.59149741  *  -0.18667813  *
     9       C          4.59411464  *   0.20562451  *  -0.38342685  *
    10       C          3.31686503  *   0.39267207  *  -0.28551460  *
    11       H         -3.86564031  *   0.17624204  *  -0.66107648  *
    12       H         -3.74099543  *   0.14012828  *   1.10587718  *
    13       H         -2.61119330  *   2.20919487  *   0.18129041  *
    14       H         -3.17866290  *  -2.12722193  *   0.13261325  *
    15       H          1.47477240  *  -1.51865039  *  -0.19093052  *
    16       H         -0.16035868  *   1.87722941  *   0.00001109  *
    17       H         -0.74073845  *  -2.43919900  *  -0.04754056  *
    18       H          1.62756548  *   1.61815281  *  -0.13512418  *
    19       H          5.10064617  *   0.14167158  *  -1.34291524  *
    20       H          5.23538163  *   0.10176027  *   0.48794580  *
 


          CARTESIAN COORDINATES 

    NO.       ATOM           X           Y           Z

     1         C         -3.1420      0.0725      0.1740
     2         C         -0.2610     -0.3019     -0.0393
     3         C         -2.1806      1.2031      0.1294
     4         C         -2.5025     -1.2656      0.1016
     5         C         -0.8584      1.0259      0.0316
     6         C         -1.1787     -1.4352      0.0037
     7         C          1.0728     -0.4988     -0.1403
     8         C          2.0279      0.5915     -0.1867
     9         C          4.5941      0.2056     -0.3834
    10         C          3.3169      0.3927     -0.2855
    11         H         -3.8656      0.1762     -0.6611
    12         H         -3.7410      0.1401      1.1059
    13         H         -2.6112      2.2092      0.1813
    14         H         -3.1787     -2.1272      0.1326
    15         H          1.4748     -1.5187     -0.1909
    16         H         -0.1604      1.8772      0.0000
    17         H         -0.7407     -2.4392     -0.0475
    18         H          1.6276      1.6182     -0.1351
    19         H          5.1006      0.1417     -1.3429
    20         H          5.2354      0.1018      0.4879

  H: (PM3): J. J. P. STEWART, J. COMP. CHEM. 10, 209 (1989).
  C: (PM3): J. J. P. STEWART, J. COMP. CHEM. 10, 209 (1989).

           Empirical Formula: C10 H10  =    20 atoms



      MOLECULAR POINT GROUP   :   C1  


      RHF CALCULATION, NO. OF DOUBLY OCCUPIED LEVELS = 25



          HEAT OF FORMATION =      85.087452 KCALS/MOLE


          CARTESIAN COORDINATE DERIVATIVES

   NUMBER  ATOM         X            Y            Z

     1       C      0.002482    -0.001361    -0.001337
     2       C     -0.009872    -0.005507     0.002893
     3       C     -0.006680     0.002315    -0.009643
     4       C      0.006385     0.000253     0.002709
     5       C      0.000768    -0.002581     0.007278
     6       C      0.009003     0.001192     0.000080
     7       C      0.006665     0.008832    -0.006226
     8       C     -0.011443    -0.013191     0.003248
     9       C     -0.004835     0.000890    -0.000932
    10       C      0.000433     0.002241    -0.001992
    11       H     -0.006508    -0.002917    -0.000828
    12       H      0.001843     0.001269    -0.001046
    13       H      0.005837     0.010886    -0.000683
    14       H      0.006281     0.004371    -0.000894
    15       H     -0.019718    -0.006264    -0.005773
    16       H      0.005600    -0.003637     0.004613
    17       H      0.016796     0.005124     0.005569
    18       H     -0.009144     0.000680    -0.000603
    19       H     -0.004783     0.001800    -0.005049
    20       H      0.010888    -0.004394     0.008618
 


          GRADIENT NORM =   0.04975


          TIME FOR SCF CALCULATION =    0.00

          TIME FOR DERIVATIVES     =    0.00

          MOLECULAR WEIGHT =  130.19



          ROTATIONAL CONSTANTS IN CM(-1)

          A =    0.15557996   B =    0.02001794   C =    0.01785923



           PRINCIPAL MOMENTS OF INERTIA IN UNITS OF 10**(-40)*GRAM-CM**2

          A =      179.9253   B =     1398.3843   C =     1567.4121


          ORIENTATION OF MOLECULE IN FORCE CALCULATION

    NO.       ATOM         X         Y         Z

     1          C      -3.2082   -0.3432    0.0017
     2          C      -0.2952   -0.3432    0.0017
     3          C      -2.3994    0.9020    0.0017
     4          C      -2.3985   -1.5878    0.0031
     5          C      -1.0619    0.8967    0.0019
     6          C      -1.0602   -1.5854    0.0032
     7          C       1.0567   -0.3665   -0.0001
     8          C       1.8645    0.8378   -0.0015
     9          C       4.4665    0.7858   -0.0071
    10          C       3.1721    0.8067   -0.0042
    11          H      -3.8761   -0.3440   -0.8847
    12          H      -3.8775   -0.3429    0.8870
    13          H      -2.9584    1.8443    0.0016
    14          H      -2.9587   -2.5294    0.0042
    15          H       1.5890   -1.3262   -0.0005
    16          H      -0.4786    1.8309    0.0020
    17          H      -0.4943   -2.5246    0.0044
    18          H       1.3329    1.8044   -0.0002
    19          H       5.0459    0.7768   -0.9266
    20          H       5.0503    0.7762    0.9096


    FIRST DERIVATIVES WILL BE USED IN THE CALCULATION OF SECOND DERIVATIVES

          ESTIMATED TIME TO COMPLETE CALCULATION =        0.94 SECONDS

    FOR POINT-GROUP C1   THERE ARE   1 UNIQUE SYMMETRY FUNCTIONS.

 STEP:   1 TIME =     0.02 SECS, INTEGRAL =      0.02 TIME LEFT: 172799.98
 STEP:   2 TIME =     0.02 SECS, INTEGRAL =      0.04 TIME LEFT: 172799.96
 STEP:   3 TIME =     0.02 SECS, INTEGRAL =      0.05 TIME LEFT: 172799.94
 STEP:   4 TIME =     0.02 SECS, INTEGRAL =      0.07 TIME LEFT: 172799.92
 STEP:   5 TIME =     0.02 SECS, INTEGRAL =      0.09 TIME LEFT: 172799.91
 STEP:   6 TIME =     0.02 SECS, INTEGRAL =      0.11 TIME LEFT: 172799.89
 STEP:   7 TIME =     0.02 SECS, INTEGRAL =      0.13 TIME LEFT: 172799.87
 STEP:   8 TIME =     0.02 SECS, INTEGRAL =      0.15 TIME LEFT: 172799.85
 STEP:   9 TIME =     0.02 SECS, INTEGRAL =      0.17 TIME LEFT: 172799.83
 STEP:  10 TIME =     0.02 SECS, INTEGRAL =      0.18 TIME LEFT: 172799.81
 STEP:  11 TIME =     0.02 SECS, INTEGRAL =      0.20 TIME LEFT: 172799.80
 STEP:  12 TIME =     0.02 SECS, INTEGRAL =      0.22 TIME LEFT: 172799.78
 STEP:  13 TIME =     0.02 SECS, INTEGRAL =      0.24 TIME LEFT: 172799.76
 STEP:  14 TIME =     0.02 SECS, INTEGRAL =      0.26 TIME LEFT: 172799.74
 STEP:  15 TIME =     0.02 SECS, INTEGRAL =      0.28 TIME LEFT: 172799.72
 STEP:  16 TIME =     0.02 SECS, INTEGRAL =      0.30 TIME LEFT: 172799.70
 STEP:  17 TIME =     0.02 SECS, INTEGRAL =      0.31 TIME LEFT: 172799.68
 STEP:  18 TIME =     0.02 SECS, INTEGRAL =      0.33 TIME LEFT: 172799.66
 STEP:  19 TIME =     0.02 SECS, INTEGRAL =      0.35 TIME LEFT: 172799.65
 STEP:  20 TIME =     0.02 SECS, INTEGRAL =      0.37 TIME LEFT: 172799.63
 STEP:  21 TIME =     0.02 SECS, INTEGRAL =      0.39 TIME LEFT: 172799.61
 STEP:  22 TIME =     0.02 SECS, INTEGRAL =      0.41 TIME LEFT: 172799.59
 STEP:  23 TIME =     0.02 SECS, INTEGRAL =      0.42 TIME LEFT: 172799.57
 STEP:  24 TIME =     0.02 SECS, INTEGRAL =      0.45 TIME LEFT: 172799.55
 STEP:  25 TIME =     0.02 SECS, INTEGRAL =      0.46 TIME LEFT: 172799.54
 STEP:  26 TIME =     0.02 SECS, INTEGRAL =      0.48 TIME LEFT: 172799.52
 STEP:  27 TIME =     0.02 SECS, INTEGRAL =      0.50 TIME LEFT: 172799.50
 STEP:  28 TIME =     0.02 SECS, INTEGRAL =      0.52 TIME LEFT: 172799.48
 STEP:  29 TIME =     0.02 SECS, INTEGRAL =      0.54 TIME LEFT: 172799.46
 STEP:  30 TIME =     0.02 SECS, INTEGRAL =      0.56 TIME LEFT: 172799.44
 STEP:  31 TIME =     0.02 SECS, INTEGRAL =      0.58 TIME LEFT: 172799.42
 STEP:  32 TIME =     0.02 SECS, INTEGRAL =      0.59 TIME LEFT: 172799.40
 STEP:  33 TIME =     0.02 SECS, INTEGRAL =      0.61 TIME LEFT: 172799.38
 STEP:  34 TIME =     0.02 SECS, INTEGRAL =      0.63 TIME LEFT: 172799.36
 STEP:  35 TIME =     0.02 SECS, INTEGRAL =      0.65 TIME LEFT: 172799.34
 STEP:  36 TIME =     0.02 SECS, INTEGRAL =      0.67 TIME LEFT: 172799.32
 STEP:  37 TIME =     0.02 SECS, INTEGRAL =      0.69 TIME LEFT: 172799.30
 STEP:  38 TIME =     0.02 SECS, INTEGRAL =      0.71 TIME LEFT: 172799.29
 STEP:  39 TIME =     0.02 SECS, INTEGRAL =      0.73 TIME LEFT: 172799.27
 STEP:  40 TIME =     0.02 SECS, INTEGRAL =      0.75 TIME LEFT: 172799.25
 STEP:  41 TIME =     0.02 SECS, INTEGRAL =      0.77 TIME LEFT: 172799.23
 STEP:  42 TIME =     0.02 SECS, INTEGRAL =      0.79 TIME LEFT: 172799.21
 STEP:  43 TIME =     0.02 SECS, INTEGRAL =      0.80 TIME LEFT: 172799.19
 STEP:  44 TIME =     0.02 SECS, INTEGRAL =      0.82 TIME LEFT: 172799.18
 STEP:  45 TIME =     0.02 SECS, INTEGRAL =      0.84 TIME LEFT: 172799.16
 STEP:  46 TIME =     0.02 SECS, INTEGRAL =      0.86 TIME LEFT: 172799.14
 STEP:  47 TIME =     0.02 SECS, INTEGRAL =      0.88 TIME LEFT: 172799.12
 STEP:  48 TIME =     0.02 SECS, INTEGRAL =      0.90 TIME LEFT: 172799.10
 STEP:  49 TIME =     0.02 SECS, INTEGRAL =      0.92 TIME LEFT: 172799.08
 STEP:  50 TIME =     0.02 SECS, INTEGRAL =      0.93 TIME LEFT: 172799.06
 STEP:  51 TIME =     0.02 SECS, INTEGRAL =      0.95 TIME LEFT: 172799.04
 STEP:  52 TIME =     0.02 SECS, INTEGRAL =      0.97 TIME LEFT: 172799.02
 STEP:  53 TIME =     0.02 SECS, INTEGRAL =      0.99 TIME LEFT: 172799.00
 STEP:  54 TIME =     0.02 SECS, INTEGRAL =      1.01 TIME LEFT: 172798.98
 STEP:  55 TIME =     0.02 SECS, INTEGRAL =      1.03 TIME LEFT: 172798.96
 STEP:  56 TIME =     0.02 SECS, INTEGRAL =      1.05 TIME LEFT: 172798.95
 STEP:  57 TIME =     0.02 SECS, INTEGRAL =      1.07 TIME LEFT: 172798.93
 STEP:  58 TIME =     0.02 SECS, INTEGRAL =      1.09 TIME LEFT: 172798.91
 STEP:  59 TIME =     0.02 SECS, INTEGRAL =      1.11 TIME LEFT: 172798.89
 STEP:  60 TIME =     0.02 SECS, INTEGRAL =      1.13 TIME LEFT: 172798.87

(To convert to Hartree/Bohr^2, multiply by (10^(-21) x N x a0^2)/(4.184 x 627.51) =  0.0642)


           FORCE MATRIX IN MILLIDYNES/ANGSTROM


                  C  1       C  2       C  3       C  4       C  5       C  6
 ------------------------------------------------------------------------------
     C    1  15.109771
     C    2   0.202769  18.989005
     C    3   5.031391   1.092438  18.108726
     C    4   5.031627   1.087192   0.735938  18.091814
     C    5   0.855548   5.415382  10.377447   0.064134  18.533276
     C    6   0.847543   5.387390   0.063098  10.357370   0.736375  18.529392
     C    7   0.039283   9.344787   0.139787   0.132385   1.002471   1.095567
     C    8   0.012195   1.113486   0.042121   0.043810   0.111691   0.148691
     C    9   0.001610   0.034514   0.001993   0.002539   0.007336   0.010178
     C   10   0.002582   0.170131   0.014581   0.015528   0.040720   0.044256
     H   11   4.370478   0.016033   0.417940   0.417956   0.038409   0.038387
     H   12   4.370425   0.016100   0.417977   0.417997   0.038485   0.038438
     H   13   0.423314   0.125859   4.832020   0.046391   0.440975   0.006207
     H   14   0.423245   0.122858   0.046588   4.830560   0.006099   0.441159
     H   15   0.003434   0.447517   0.009015   0.006540   0.107360   0.082858
     H   16   0.122573   0.443871   0.440331   0.003603   4.632361   0.042607
     H   17   0.122860   0.442711   0.003559   0.441126   0.041920   4.799865
     H   18   0.001388   0.030634   0.005803   0.002148   0.101816   0.006675
     H   19   0.000851   0.004786   0.000580   0.000626   0.003317   0.006452
     H   20   0.000823   0.004704   0.000557   0.000602   0.003339   0.006688


                  C  7       C  8       C  9       C 10       H 11       H 12
 ------------------------------------------------------------------------------
     C    7  18.121283
     C    8   5.544001  18.521603
     C    9   0.115183   0.799539  18.117084
     C   10   1.279373  11.034024  11.869730  24.638414
     H   11   0.005295   0.001813   0.000372   0.000658   4.960501
     H   12   0.005323   0.001821   0.000344   0.000644   0.565544   4.960614
     H   13   0.009579   0.005457   0.000918   0.001151   0.027500   0.027608
     H   14   0.007562   0.010068   0.000974   0.001368   0.027698   0.027788
     H   15   4.778903   0.442710   0.004822   0.029107   0.001142   0.001144
     H   16   0.036979   0.107788   0.001397   0.007717   0.015340   0.015327
     H   17   0.046055   0.003465   0.000712   0.001328   0.015540   0.015522
     H   18   0.458456   4.537675   0.043225   0.443725   0.000560   0.000559
     H   19   0.081057   0.047313   5.012005   0.480370   0.000089   0.000135
     H   20   0.081487   0.047305   5.011702   0.480139   0.000151   0.000086


                  H 13       H 14       H 15       H 16       H 17       H 18
 ------------------------------------------------------------------------------
     H   13   5.206899
     H   14   0.006421   5.205376
     H   15   0.008843   0.004945   5.150241
     H   16   0.067383   0.001211   0.002841   5.065802
     H   17   0.001305   0.067729   0.029697   0.005954   5.174373
     H   18   0.000757   0.000686   0.036530   0.120581   0.000878   4.971322
     H   19   0.000500   0.000677   0.001670   0.000504   0.000265   0.068110
     H   20   0.000516   0.000667   0.001700   0.000541   0.000272   0.068494


                  H 19       H 20
 ------------------------------
     H   19   5.392994
     H   20   0.407753   5.392779


          HEAT OF FORMATION =      85.087452 KCALS/MOLE

          ZERO POINT ENERGY     103.078 KCAL/MOL


           NORMAL COORDINATE ANALYSIS (Total motion = 1 Angstrom)


   Root No.       1         2         3         4         5         6         7         8

                 1 A       2 A       3 A       4 A       5 A       6 A       7 A       8 A   

                  44.6      97.4     123.7     200.3     273.0     299.0     353.7     387.5
  
           1   -0.0001   -0.0000   -0.0023   -0.0000   -0.0274    0.0002    0.0001   -0.0001
           2    0.0000   -0.0002    0.0298   -0.0002   -0.0262    0.0001   -0.0001    0.0000
           3    0.0539    0.0438    0.0004    0.0140   -0.0002   -0.0160    0.0022    0.0025
           4   -0.0000    0.0000    0.0008   -0.0000   -0.0167    0.0001   -0.0000    0.0000
           5   -0.0000    0.0002   -0.0304    0.0003    0.0380   -0.0001    0.0001   -0.0000
           6   -0.0345   -0.0150    0.0002    0.0345   -0.0004   -0.0377    0.0049   -0.0021
           7   -0.0000   -0.0001    0.0230   -0.0003   -0.0463    0.0002   -0.0000   -0.0000
           8    0.0000   -0.0001    0.0126   -0.0001   -0.0108    0.0001    0.0000    0.0000
           9    0.0102   -0.0224   -0.0002    0.0040    0.0004    0.0484   -0.0086    0.0382
          10   -0.0001    0.0002   -0.0261    0.0002   -0.0009    0.0000    0.0002   -0.0000
          11    0.0000   -0.0001    0.0142   -0.0001   -0.0076    0.0000   -0.0000    0.0000
          12    0.0217   -0.0039   -0.0004   -0.0477    0.0003    0.0207   -0.0061   -0.0502
          13   -0.0000   -0.0001    0.0225   -0.0002   -0.0430    0.0002   -0.0000   -0.0000
          14   -0.0000    0.0001   -0.0162    0.0002    0.0223   -0.0001    0.0001   -0.0000
          15   -0.0308   -0.0482   -0.0003    0.0086   -0.0002   -0.0316    0.0127   -0.0475
          16   -0.0000    0.0001   -0.0256    0.0002   -0.0016    0.0000    0.0002   -0.0000
          17    0.0000    0.0001   -0.0141    0.0001    0.0268   -0.0001    0.0000    0.0000
          18   -0.0206   -0.0320   -0.0003   -0.0089   -0.0002   -0.0196    0.0054    0.0626
          19   -0.0001    0.0001    0.0016   -0.0000   -0.0147    0.0001   -0.0001   -0.0000
          20   -0.0001    0.0003   -0.0475    0.0004    0.0110   -0.0000    0.0000   -0.0001
          21   -0.0431    0.0343    0.0010    0.0567    0.0002    0.0340   -0.0261   -0.0191
          22    0.0000    0.0001    0.0018    0.0000    0.0474   -0.0003   -0.0001    0.0000
          23   -0.0001    0.0003   -0.0478    0.0003   -0.0334    0.0002   -0.0000   -0.0001
          24   -0.0433    0.0518    0.0001   -0.0389    0.0002   -0.0020   -0.0304    0.0018
          25    0.0002   -0.0001    0.0036    0.0001    0.0536   -0.0003   -0.0002    0.0000
          26    0.0002   -0.0005    0.0862   -0.0006    0.0289   -0.0002   -0.0001    0.0001
          27    0.0641   -0.0273   -0.0003    0.0057   -0.0003   -0.0047   -0.0264   -0.0004
          28    0.0001   -0.0000    0.0021    0.0001    0.0501   -0.0003    0.0001    0.0001
          29   -0.0000    0.0001   -0.0071   -0.0001   -0.0516    0.0002   -0.0002    0.0001
          30    0.0086    0.0174   -0.0000   -0.0245    0.0001    0.0082    0.1093    0.0085
          31   -0.0415   -0.0648   -0.0031   -0.0460   -0.0268    0.0814   -0.0179   -0.0192
          32   -0.0041   -0.0072    0.0434    0.0206   -0.0399    0.0133   -0.0016    0.0517
          33    0.0852    0.0929    0.0010    0.0491   -0.0007   -0.0786    0.0162    0.0173
          34    0.0413    0.0647   -0.0015    0.0459   -0.0287   -0.0809    0.0182    0.0190
          35    0.0042    0.0067    0.0433   -0.0213   -0.0400   -0.0131    0.0014   -0.0516
          36    0.0853    0.0930    0.0010    0.0492   -0.0012   -0.0788    0.0162    0.0174
          37   -0.0000   -0.0003    0.0434   -0.0004   -0.0679    0.0003   -0.0001   -0.0000
          38    0.0000   -0.0002    0.0247   -0.0002   -0.0234    0.0001   -0.0000    0.0000
          39    0.0136   -0.0453   -0.0005   -0.0077    0.0012    0.1338   -0.0276    0.0997
          40   -0.0000    0.0003   -0.0454    0.0004    0.0236   -0.0000    0.0002   -0.0000
          41   -0.0000   -0.0002    0.0256   -0.0003   -0.0221    0.0001   -0.0001   -0.0001
          42    0.0346   -0.0132   -0.0010   -0.1154    0.0010    0.0663   -0.0163   -0.1269
          43   -0.0001    0.0001   -0.0051    0.0000   -0.0513    0.0004   -0.0002   -0.0000
          44   -0.0001    0.0003   -0.0506    0.0004   -0.0104    0.0001    0.0000   -0.0001
          45   -0.0445    0.0579    0.0018    0.1153    0.0006    0.1076   -0.0473   -0.0084
          46   -0.0000   -0.0002    0.0346   -0.0003   -0.0437    0.0002   -0.0000   -0.0000
          47   -0.0000    0.0002   -0.0238    0.0002    0.0233   -0.0001    0.0002   -0.0000
          48   -0.0621   -0.0880   -0.0008   -0.0061   -0.0002   -0.0447    0.0159   -0.1110
          49   -0.0000    0.0003   -0.0455    0.0003    0.0150    0.0000    0.0003   -0.0000
          50   -0.0000    0.0001   -0.0260    0.0002    0.0362   -0.0001    0.0001    0.0001
          51   -0.0438   -0.0662   -0.0007   -0.0332   -0.0001   -0.0192    0.0100    0.1571
          52   -0.0001    0.0002   -0.0021   -0.0000    0.0636   -0.0004   -0.0003    0.0001
          53   -0.0001    0.0003   -0.0492    0.0004   -0.0225    0.0002    0.0001   -0.0001
          54   -0.0820    0.0824   -0.0008   -0.1370    0.0001   -0.0584   -0.1654    0.0362
          55    0.0395   -0.0327    0.0040    0.0232    0.0554   -0.0138   -0.1465   -0.0091
          56   -0.0192    0.0208    0.1258   -0.0959    0.0645   -0.0572   -0.1093    0.0550
          57    0.0891   -0.0481   -0.0005    0.0213    0.0003   -0.0128   -0.1197   -0.0069
          58   -0.0389    0.0324    0.0046   -0.0230    0.0560    0.0131    0.1456    0.0092
          59    0.0198   -0.0225    0.1285    0.0948    0.0650    0.0565    0.1096   -0.0551
          60    0.0893   -0.0482   -0.0005    0.0215   -0.0012   -0.0127   -0.1202   -0.0069


   Root No.       9        10        11        12        13        14        15        16

                 9 A      10 A      11 A      12 A      13 A      14 A      15 A      16 A   

                 400.2     536.5     562.4     578.2     598.2     610.0     773.1     788.8
  
           1   -0.0523    0.0317   -0.0001   -0.0001   -0.0440    0.0316    0.0000   -0.0000
           2    0.0078    0.0085   -0.0000   -0.0000    0.0202    0.0265   -0.0000   -0.0000
           3   -0.0000    0.0000   -0.0047    0.0056   -0.0000    0.0000   -0.0265   -0.0189
           4    0.0156   -0.0316    0.0001    0.0002    0.0409   -0.0319   -0.0000    0.0000
           5   -0.0354   -0.0271   -0.0000    0.0001   -0.0171   -0.0257    0.0000    0.0000
           6    0.0000    0.0001   -0.0482    0.0442    0.0001   -0.0000    0.0342    0.0252
           7   -0.0080    0.0179   -0.0000   -0.0000   -0.0322   -0.0513    0.0000    0.0000
           8   -0.0235    0.0169   -0.0001   -0.0001    0.0008    0.0723   -0.0000   -0.0000
           9    0.0000    0.0001   -0.0080    0.0118    0.0000   -0.0000    0.0075   -0.0240
          10   -0.0469   -0.0139    0.0000   -0.0000    0.0421    0.0391    0.0000    0.0000
          11    0.0106   -0.0270    0.0001    0.0001    0.0712    0.0164   -0.0000    0.0000
          12    0.0001    0.0000   -0.0108    0.0044    0.0000    0.0000   -0.0150    0.0197
          13   -0.0066    0.0116   -0.0000    0.0000   -0.0288   -0.0525    0.0000    0.0000
          14   -0.0502   -0.0080   -0.0001   -0.0000   -0.0586   -0.0208    0.0000    0.0000
          15    0.0001   -0.0002    0.0127   -0.0180   -0.0000    0.0000   -0.0073   -0.0312
          16   -0.0404   -0.0122    0.0000    0.0000    0.0441    0.0370    0.0000    0.0000
          17   -0.0109   -0.0515    0.0001    0.0001    0.0026   -0.0682   -0.0001   -0.0000
          18    0.0000    0.0001    0.0146   -0.0049   -0.0001    0.0000   -0.0289    0.0140
          19    0.0245   -0.0343    0.0001    0.0001    0.0363   -0.0267   -0.0000   -0.0000
          20    0.0245    0.0718    0.0000   -0.0001    0.0060   -0.0083    0.0000    0.0000
          21    0.0000   -0.0001   -0.0076   -0.0180   -0.0000    0.0000    0.0123   -0.0043
          22    0.0343    0.0038    0.0000    0.0000   -0.0128    0.0115   -0.0000   -0.0000
          23    0.0365    0.0513    0.0001   -0.0000    0.0249   -0.0265   -0.0000   -0.0000
          24   -0.0002    0.0001    0.0368    0.0259   -0.0002    0.0002   -0.0023   -0.0030
          25    0.0438    0.0078   -0.0001   -0.0000   -0.0232    0.0226    0.0000    0.0000
          26   -0.0110    0.0128   -0.0001   -0.0001    0.0070   -0.0055   -0.0000    0.0000
          27   -0.0002   -0.0000   -0.0022   -0.0017    0.0001   -0.0001   -0.0001    0.0008
          28    0.0408    0.0053   -0.0001   -0.0001   -0.0194    0.0185    0.0000    0.0000
          29    0.0560   -0.0707   -0.0002    0.0001   -0.0707    0.0531    0.0000    0.0000
          30    0.0002   -0.0001   -0.0165   -0.0106    0.0001   -0.0001   -0.0001    0.0008
          31   -0.0539    0.0338   -0.0617    0.0591   -0.0471    0.0342   -0.0871   -0.0590
          32    0.0205    0.0214    0.0023    0.0066   -0.0079   -0.0079    0.0226   -0.0426
          33    0.0009   -0.0013    0.0438   -0.0411    0.0019   -0.0016    0.0421    0.0276
          34   -0.0540    0.0333    0.0613   -0.0593   -0.0473    0.0341    0.0871    0.0590
          35    0.0206    0.0214   -0.0023   -0.0067   -0.0080   -0.0080   -0.0224    0.0425
          36   -0.0011    0.0010    0.0439   -0.0413   -0.0021    0.0015    0.0423    0.0276
          37    0.0250    0.0215    0.0001    0.0000    0.0119   -0.0503   -0.0000    0.0000
          38   -0.0037    0.0183   -0.0000   -0.0001    0.0266    0.0723   -0.0000    0.0000
          39    0.0000   -0.0001    0.0290   -0.0333   -0.0000   -0.0002    0.0771    0.2658
          40   -0.0529   -0.0535    0.0001    0.0001    0.0568   -0.0085    0.0001   -0.0001
          41    0.0134   -0.0036    0.0001   -0.0000    0.0620    0.0442    0.0003   -0.0000
          42    0.0002   -0.0001    0.0307   -0.0384    0.0000   -0.0001    0.2424   -0.0662
          43    0.0460   -0.0041    0.0002   -0.0000    0.0707   -0.0431   -0.0002   -0.0001
          44    0.0364    0.0878    0.0001   -0.0001    0.0245   -0.0180   -0.0000    0.0000
          45    0.0002   -0.0006   -0.0195   -0.1428   -0.0000   -0.0001   -0.1062   -0.0262
          46   -0.0051    0.0455   -0.0000   -0.0001   -0.0341   -0.0093   -0.0000    0.0000
          47   -0.0501   -0.0284   -0.0001    0.0001   -0.0544   -0.0471    0.0000   -0.0000
          48    0.0002   -0.0007    0.0992   -0.1314   -0.0002    0.0000   -0.0614    0.1410
          49   -0.0724   -0.0072    0.0000   -0.0001    0.0069    0.0306   -0.0000   -0.0000
          50   -0.0298   -0.0476    0.0002    0.0000   -0.0194   -0.0716    0.0001   -0.0002
          51    0.0000   -0.0001    0.1213   -0.0781   -0.0004   -0.0001    0.1069   -0.1470
          52    0.0188    0.0772    0.0000   -0.0001    0.0003   -0.0144   -0.0000    0.0000
          53    0.0281    0.0899    0.0002   -0.0000    0.0301   -0.0390   -0.0000   -0.0000
          54   -0.0006    0.0002    0.0216    0.0226   -0.0001    0.0001   -0.0330    0.0280
          55    0.0457    0.0096    0.0259    0.0174   -0.0265    0.0262    0.0004   -0.0036
          56   -0.0442    0.0574   -0.1798   -0.1300    0.0559   -0.0429    0.0201   -0.0136
          57    0.0009    0.0005    0.0166    0.0110   -0.0019    0.0020   -0.0000   -0.0014
          58    0.0465    0.0095   -0.0260   -0.0175   -0.0263    0.0259   -0.0004    0.0036
          59   -0.0438    0.0581    0.1803    0.1301    0.0537   -0.0411   -0.0201    0.0135
          60   -0.0018   -0.0004    0.0168    0.0112    0.0020   -0.0020   -0.0000   -0.0014


   Root No.      17        18        19        20        21        22        23        24

                17 A      18 A      19 A      20 A      21 A      22 A      23 A      24 A   

                 869.0     873.1     901.8     923.9     960.0     977.7     983.4     992.1
  
           1    0.0463    0.0005   -0.0001   -0.0000    0.0000   -0.0001   -0.0093   -0.0125
           2   -0.0024   -0.0000    0.0000    0.0000   -0.0000   -0.0000   -0.0012   -0.0035
           3    0.0004   -0.0125    0.0340    0.0246   -0.0169    0.0031   -0.0000    0.0000
           4    0.0425    0.0005   -0.0000    0.0000   -0.0000    0.0000    0.0034    0.0115
           5   -0.0012   -0.0000    0.0000    0.0000   -0.0000   -0.0000   -0.0014   -0.0034
           6   -0.0003    0.0166    0.0081    0.0237   -0.0233   -0.0018   -0.0000   -0.0000
           7   -0.0406   -0.0005    0.0000    0.0000    0.0000   -0.0000   -0.0014   -0.0055
           8    0.0628    0.0007   -0.0000    0.0000   -0.0000    0.0000   -0.0067   -0.0048
           9   -0.0002    0.0080   -0.0138   -0.0119    0.0140    0.0207    0.0000   -0.0000
          10   -0.0349   -0.0004    0.0000    0.0000    0.0000   -0.0000   -0.0002   -0.0026
          11   -0.0578   -0.0007    0.0000   -0.0000    0.0000   -0.0000    0.0093    0.0120
          12    0.0001   -0.0047   -0.0100   -0.0138    0.0142   -0.0260    0.0000    0.0000
          13   -0.0337   -0.0004    0.0000    0.0000   -0.0000    0.0000    0.0041    0.0052
          14   -0.0095   -0.0001    0.0000    0.0000   -0.0000    0.0001    0.0364    0.0553
          15   -0.0002    0.0054   -0.0198   -0.0135    0.0024   -0.0333   -0.0000    0.0001
          16   -0.0327   -0.0004    0.0000    0.0000    0.0000   -0.0000    0.0032    0.0026
          17    0.0267    0.0003   -0.0000   -0.0000    0.0000   -0.0000   -0.0315   -0.0451
          18   -0.0000   -0.0008   -0.0196   -0.0154    0.0057    0.0347    0.0000   -0.0000
          19    0.0620    0.0007   -0.0001   -0.0000    0.0000    0.0000    0.0100    0.0216
          20   -0.0271   -0.0003    0.0000   -0.0000    0.0000   -0.0000   -0.0103   -0.0142
          21    0.0007   -0.0285    0.0194   -0.0222    0.0459    0.0040    0.0001   -0.0000
          22   -0.0006   -0.0001   -0.0000   -0.0000   -0.0001   -0.0000   -0.0015   -0.0008
          23    0.0251    0.0003   -0.0000    0.0000   -0.0000    0.0000    0.0086    0.0129
          24    0.0005   -0.0272   -0.0198   -0.0046   -0.0489    0.0020   -0.0001    0.0000
          25   -0.0049   -0.0000    0.0001   -0.0001   -0.0001    0.0000    0.0039    0.0014
          26   -0.0030   -0.0000    0.0000    0.0000    0.0001    0.0001   -0.0561    0.0305
          27   -0.0003    0.0147    0.0212   -0.0374   -0.0220    0.0005   -0.0000    0.0000
          28   -0.0029   -0.0000   -0.0000    0.0001    0.0001    0.0000    0.0020    0.0000
          29   -0.0189   -0.0002    0.0000   -0.0000   -0.0000   -0.0000    0.0158   -0.0171
          30    0.0000   -0.0025   -0.0126    0.0339    0.0316   -0.0011    0.0000   -0.0000
          31    0.0581   -0.0313    0.0824    0.0578   -0.0386    0.0069   -0.0147   -0.0204
          32   -0.0100    0.0122   -0.0039    0.0010    0.0023    0.0930   -0.0066   -0.0207
          33   -0.0066    0.0125   -0.0305   -0.0206    0.0131   -0.0023    0.0026    0.0038
          34    0.0564    0.0326   -0.0825   -0.0578    0.0386   -0.0070   -0.0147   -0.0204
          35   -0.0095   -0.0123    0.0039   -0.0011   -0.0023   -0.0929   -0.0067   -0.0202
          36    0.0060    0.0127   -0.0307   -0.0208    0.0132   -0.0022   -0.0026   -0.0038
          37   -0.0796   -0.0010    0.0001    0.0000   -0.0000   -0.0002   -0.0558   -0.0980
          38    0.0417    0.0005    0.0000    0.0000   -0.0000   -0.0001   -0.0378   -0.0577
          39    0.0007   -0.0201    0.0222    0.0313   -0.0526   -0.1344   -0.0002    0.0002
          40   -0.0514   -0.0006    0.0001    0.0001   -0.0000    0.0001   -0.0443   -0.0719
          41   -0.0496   -0.0005   -0.0000    0.0000   -0.0000    0.0001    0.0345    0.0513
          42   -0.0017    0.0749   -0.0036    0.0479   -0.0571    0.1480   -0.0001   -0.0003
          43    0.1211    0.0016   -0.0002    0.0001   -0.0001    0.0001    0.0283    0.0659
          44    0.0042    0.0001   -0.0000    0.0000    0.0000    0.0000   -0.0005    0.0095
          45   -0.0052    0.1973   -0.0857    0.1019   -0.1640   -0.0327   -0.0002   -0.0000
          46   -0.0374   -0.0004    0.0001    0.0000    0.0000    0.0000   -0.0293   -0.0361
          47   -0.0077   -0.0001   -0.0001    0.0000   -0.0001    0.0001    0.0575    0.0819
          48    0.0016   -0.0528    0.1242    0.0802   -0.0222    0.1765    0.0002   -0.0003
          49   -0.0265   -0.0004    0.0000   -0.0000    0.0001   -0.0000   -0.0321   -0.0585
          50    0.0310    0.0003    0.0001    0.0001    0.0001   -0.0003   -0.0532   -0.0824
          51    0.0013   -0.0392    0.1284    0.0744   -0.0205   -0.1676    0.0001    0.0004
          52   -0.0340   -0.0000    0.0002   -0.0000    0.0004   -0.0001   -0.0329   -0.0114
          53    0.0057   -0.0000   -0.0001   -0.0000   -0.0001    0.0000   -0.0082    0.0068
          54   -0.0052    0.2387    0.0973    0.0237    0.1905   -0.0189    0.0005   -0.0001
          55   -0.0059   -0.0598   -0.0845    0.1466    0.0842   -0.0021    0.0129   -0.0001
          56    0.0310   -0.0645   -0.0141   -0.0112   -0.0224    0.0032    0.2310   -0.1191
          57   -0.0009   -0.0238   -0.0341    0.0588    0.0334   -0.0009    0.0025    0.0004
          58   -0.0081    0.0595    0.0843   -0.1463   -0.0841    0.0021    0.0128   -0.0001
          59    0.0279    0.0652    0.0139    0.0111    0.0217   -0.0037    0.2303   -0.1187
          60    0.0018   -0.0240   -0.0344    0.0595    0.0338   -0.0009   -0.0023   -0.0005


   Root No.      25        26        27        28        29        30        31        32

                25 A      26 A      27 A      28 A      29 A      30 A      31 A      32 A   

                1013.2    1022.0    1052.8    1060.2    1128.5    1149.0    1164.0    1196.6
  
           1    0.0668   -0.0004    0.0019    0.0000   -0.0011    0.0023   -0.0004    0.0067
           2   -0.0026    0.0000    0.0250    0.0002   -0.0001    0.0019    0.0040    0.0012
           3   -0.0001   -0.0322    0.0000   -0.0001    0.0000   -0.0000    0.0000   -0.0000
           4   -0.0018    0.0000    0.0035    0.0000    0.0094   -0.0087   -0.0173   -0.0056
           5    0.0008    0.0000    0.0139    0.0001    0.0032   -0.0211   -0.0129   -0.0065
           6    0.0002    0.0242   -0.0000   -0.0001   -0.0000    0.0000    0.0001   -0.0000
           7   -0.0031    0.0000   -0.0048   -0.0000   -0.0076   -0.0002    0.0017    0.0019
           8   -0.0457    0.0003   -0.0310   -0.0002   -0.0025    0.0039   -0.0029   -0.0049
           9    0.0003    0.0429   -0.0002    0.0398   -0.0000    0.0000    0.0000    0.0000
          10   -0.0028    0.0000    0.0010    0.0000   -0.0024    0.0046   -0.0035   -0.0019
          11    0.0488   -0.0003   -0.0256   -0.0002   -0.0038    0.0091    0.0108    0.0065
          12    0.0002    0.0413    0.0002   -0.0394   -0.0000    0.0000   -0.0000    0.0000
          13   -0.0157    0.0001   -0.0181   -0.0002   -0.0024    0.0034    0.0057   -0.0042
          14   -0.0247    0.0001   -0.0054   -0.0001    0.0022    0.0047   -0.0013    0.0046
          15   -0.0003   -0.0366    0.0001   -0.0136   -0.0000    0.0000   -0.0000   -0.0000
          16   -0.0173    0.0001    0.0167    0.0001    0.0036   -0.0059   -0.0020   -0.0070
          17    0.0238   -0.0002   -0.0138   -0.0001   -0.0033    0.0098    0.0073   -0.0001
          18   -0.0003   -0.0339   -0.0000    0.0130    0.0000   -0.0000   -0.0000    0.0000
          19   -0.0088    0.0000    0.0051    0.0000    0.0097   -0.0086   -0.0112   -0.0066
          20    0.0073   -0.0000    0.0007    0.0000    0.0169   -0.0119   -0.0150    0.0290
          21   -0.0001   -0.0140   -0.0000    0.0009   -0.0000    0.0000   -0.0000   -0.0000
          22   -0.0012    0.0000   -0.0017   -0.0000    0.0306   -0.0104   -0.0151    0.0097
          23   -0.0009   -0.0000    0.0002   -0.0000   -0.0312    0.0088   -0.0019   -0.0381
          24    0.0001    0.0077    0.0000    0.0004   -0.0001    0.0000    0.0000   -0.0000
          25    0.0032   -0.0000    0.0034    0.0000   -0.0316    0.0084    0.0101   -0.0049
          26    0.0003    0.0000    0.0022    0.0000   -0.0035   -0.0001   -0.0005   -0.0010
          27    0.0000    0.0012   -0.0000    0.0000    0.0001   -0.0000   -0.0000    0.0000
          28    0.0011   -0.0000    0.0008    0.0000   -0.0015   -0.0004   -0.0014    0.0028
          29   -0.0005   -0.0000   -0.0048   -0.0000    0.0138    0.0003    0.0016    0.0024
          30   -0.0000   -0.0027   -0.0000   -0.0001   -0.0000    0.0000    0.0000   -0.0000
          31    0.0954   -0.0712    0.0021   -0.0001   -0.0049    0.0061   -0.0041    0.0210
          32   -0.0137    0.0052    0.2280   -0.3383    0.0466    0.0819   -0.0326   -0.0110
          33   -0.0204    0.0226   -0.0007    0.0003    0.0016   -0.0022    0.0013   -0.0085
          34    0.0962    0.0700    0.0020    0.0002   -0.0049    0.0062   -0.0041    0.0210
          35   -0.0138   -0.0049    0.2249    0.3416    0.0468    0.0823   -0.0326   -0.0110
          36    0.0208    0.0225    0.0004   -0.0001   -0.0017    0.0021   -0.0013    0.0086
          37   -0.1026    0.0006   -0.0022    0.0002   -0.0970   -0.1599   -0.0855    0.0786
          38   -0.1059    0.0006   -0.0273   -0.0001   -0.0544   -0.0886   -0.0547    0.0400
          39   -0.0011   -0.1468    0.0004   -0.0723    0.0000    0.0000    0.0000   -0.0000
          40   -0.1006    0.0005   -0.0467   -0.0004   -0.0448    0.2289   -0.0701    0.0806
          41    0.1076   -0.0007    0.0044    0.0002    0.0210   -0.1211    0.0514   -0.0419
          42   -0.0009   -0.1348   -0.0003    0.0704    0.0000   -0.0000   -0.0000   -0.0000
          43   -0.0430    0.0002    0.0001   -0.0000    0.0248    0.0346    0.1690    0.2174
          44   -0.0106    0.0001   -0.0024   -0.0000    0.0246    0.0119    0.0834    0.1546
          45    0.0003    0.0419    0.0000   -0.0094   -0.0000   -0.0000   -0.0001   -0.0003
          46   -0.0661    0.0004   -0.1028   -0.0008    0.0895    0.0496    0.0566   -0.0957
          47    0.0031   -0.0001    0.0451    0.0003   -0.0533   -0.0248   -0.0334    0.0609
          48    0.0012    0.1378   -0.0001    0.0303    0.0000   -0.0000   -0.0000    0.0000
          49   -0.1084    0.0007    0.1032    0.0009    0.0057   -0.0806    0.2001   -0.0517
          50   -0.0268    0.0003    0.0360    0.0003   -0.0022   -0.0350    0.1287   -0.0255
          51    0.0008    0.1155    0.0001   -0.0268    0.0000    0.0001   -0.0001    0.0001
          52   -0.0275    0.0001   -0.0656   -0.0006    0.1922    0.0231    0.0241   -0.0735
          53   -0.0143    0.0001   -0.0334   -0.0003    0.0530    0.0270    0.0189   -0.0844
          54   -0.0002   -0.0286    0.0001   -0.0025   -0.0003   -0.0001   -0.0001    0.0001
          55    0.0068   -0.0042    0.0082    0.0000   -0.1200    0.0384    0.0558   -0.0457
          56   -0.0013    0.0012   -0.0073    0.0002    0.0089   -0.0001   -0.0006   -0.0002
          57    0.0019   -0.0016    0.0027   -0.0000   -0.0493    0.0168    0.0258   -0.0234
          58    0.0069    0.0041    0.0082    0.0001   -0.1198    0.0383    0.0557   -0.0455
          59   -0.0013   -0.0014   -0.0073   -0.0002    0.0088   -0.0001   -0.0006   -0.0002
          60   -0.0020   -0.0016   -0.0028   -0.0001    0.0499   -0.0170   -0.0260    0.0236


   Root No.      33        34        35        36        37        38        39        40

                33 A      34 A      35 A      36 A      37 A      38 A      39 A      40 A   

                1226.6    1267.2    1307.1    1345.2    1390.6    1419.1    1525.1    1537.0
  
           1    0.0057   -0.0073   -0.0004   -0.0283    0.0421    0.0009    0.0016   -0.0089
           2   -0.0134   -0.0106   -0.0221   -0.0079   -0.0062    0.0953   -0.0634   -0.0138
           3    0.0000    0.0000    0.0000   -0.0000    0.0000   -0.0001    0.0000   -0.0000
           4   -0.0072    0.0108   -0.0176    0.0071    0.0046   -0.0047    0.0109   -0.0532
           5    0.0107    0.0083   -0.0009    0.0049    0.0043    0.0569    0.1244    0.0385
           6    0.0000   -0.0000    0.0000   -0.0000    0.0000   -0.0000   -0.0001    0.0000
           7   -0.0125    0.0034   -0.0031   -0.0102   -0.0163    0.0047    0.0300    0.0242
           8   -0.0155    0.0148    0.0016   -0.0073   -0.0220   -0.0389    0.0391    0.0152
           9   -0.0000   -0.0000   -0.0000   -0.0000   -0.0000    0.0000   -0.0000   -0.0000
          10    0.0092    0.0082    0.0127   -0.0100   -0.0177   -0.0050   -0.0360    0.0102
          11   -0.0005   -0.0168    0.0002    0.0107    0.0262   -0.0359    0.0405    0.0034
          12    0.0000    0.0000   -0.0000   -0.0000   -0.0000    0.0000   -0.0000    0.0000
          13   -0.0163    0.0085   -0.0006   -0.0048   -0.0182   -0.0160    0.0173    0.0085
          14    0.0113   -0.0078    0.0053    0.0167    0.0205   -0.0128   -0.0615   -0.0320
          15    0.0000    0.0000    0.0000    0.0000    0.0000   -0.0000   -0.0000   -0.0000
          16    0.0049    0.0136    0.0068   -0.0052   -0.0199    0.0148   -0.0186   -0.0008
          17    0.0057    0.0124    0.0153   -0.0164   -0.0226   -0.0143   -0.0656   -0.0039
          18   -0.0000   -0.0000   -0.0000    0.0000    0.0000    0.0000    0.0001   -0.0000
          19   -0.0051    0.0014   -0.0109    0.0150    0.0201   -0.0010    0.0021   -0.0207
          20   -0.0252    0.0308   -0.0192    0.0134    0.0088   -0.0136   -0.0062   -0.0546
          21    0.0000   -0.0000    0.0000   -0.0000   -0.0000    0.0000   -0.0000    0.0000
          22   -0.0129   -0.0071   -0.0035    0.0061    0.0130   -0.0086   -0.0408    0.1169
          23    0.0031   -0.0256    0.0234   -0.0041   -0.0010    0.0048   -0.0115    0.0546
          24    0.0000    0.0000    0.0000   -0.0000   -0.0000    0.0000    0.0001   -0.0002
          25    0.0011   -0.0101    0.0278   -0.0099   -0.0163    0.0104    0.0336   -0.0917
          26   -0.0008   -0.0002    0.0007    0.0005    0.0005    0.0001   -0.0007    0.0025
          27   -0.0000    0.0000   -0.0001    0.0000    0.0000   -0.0000   -0.0001    0.0002
          28   -0.0054   -0.0096    0.0132   -0.0028   -0.0024    0.0006   -0.0054    0.0162
          29    0.0049    0.0002   -0.0062   -0.0027   -0.0023   -0.0015    0.0009   -0.0045
          30    0.0000    0.0000   -0.0000    0.0000    0.0000    0.0000    0.0000   -0.0001
          31    0.0219   -0.0484   -0.0206    0.1695   -0.0902   -0.0015   -0.0003    0.0012
          32    0.0478    0.0250    0.0453    0.0118    0.0073   -0.1132    0.0401    0.0087
          33   -0.0101    0.0262    0.0128   -0.1284    0.0859    0.0017    0.0011   -0.0064
          34    0.0219   -0.0483   -0.0206    0.1692   -0.0900   -0.0015   -0.0002    0.0012
          35    0.0478    0.0250    0.0454    0.0120    0.0072   -0.1133    0.0401    0.0087
          36    0.0100   -0.0263   -0.0129    0.1287   -0.0861   -0.0015   -0.0012    0.0064
          37    0.1390   -0.0625    0.0134    0.0244    0.0731   -0.0208   -0.0547   -0.0330
          38    0.0729   -0.0234    0.0107    0.0132    0.0287   -0.0576   -0.0120   -0.0204
          39    0.0000    0.0000    0.0000    0.0000    0.0000   -0.0000   -0.0000   -0.0000
          40   -0.0337   -0.0885   -0.0527    0.0240    0.0771    0.0249    0.0606   -0.0024
          41    0.0250    0.0388    0.0396   -0.0100   -0.0280   -0.0567   -0.0185    0.0121
          42   -0.0000   -0.0000   -0.0000   -0.0000    0.0000    0.0001   -0.0000    0.0000
          43    0.0923    0.0094    0.0470   -0.0249   -0.0212    0.0575    0.0569    0.0928
          44    0.0275    0.0378    0.0129   -0.0085   -0.0148    0.0191    0.0264    0.0036
          45   -0.0001   -0.0000   -0.0001    0.0000    0.0000   -0.0001   -0.0001   -0.0001
          46    0.0406    0.0820    0.1289    0.1368    0.1191    0.0990   -0.0408   -0.0480
          47   -0.0225   -0.0535   -0.0760   -0.0701   -0.0647   -0.0870   -0.0265   -0.0011
          48    0.0000   -0.0001   -0.0001   -0.0001   -0.0001   -0.0000    0.0000    0.0000
          49   -0.0932   -0.0910   -0.0473    0.0452    0.0677   -0.0648    0.0383   -0.0274
          50   -0.0516   -0.0492   -0.0153    0.0122    0.0291   -0.0639   -0.0345   -0.0179
          51    0.0001    0.0000    0.0000   -0.0000   -0.0000    0.0001    0.0001    0.0000
          52    0.1425   -0.0720   -0.1275   -0.0763   -0.0524   -0.0255    0.0364   -0.0787
          53    0.0868   -0.0617   -0.0432   -0.0504   -0.0387   -0.0043    0.0341   -0.0584
          54   -0.0002    0.0001    0.0002    0.0001    0.0001    0.0000   -0.0000    0.0001
          55    0.0635    0.0892   -0.1057    0.0230    0.0241   -0.0118   -0.0170    0.0427
          56    0.0004   -0.0023    0.0013   -0.0009   -0.0007    0.0002   -0.0001    0.0003
          57    0.0362    0.0584   -0.0801    0.0200    0.0252   -0.0141   -0.0339    0.0910
          58    0.0634    0.0889   -0.1053    0.0229    0.0240   -0.0118   -0.0168    0.0422
          59    0.0005   -0.0022    0.0012   -0.0009   -0.0006    0.0001   -0.0001    0.0004
          60   -0.0365   -0.0588    0.0806   -0.0201   -0.0253    0.0141    0.0340   -0.0912


   Root No.      41        42        43        44        45        46        47        48

                41 A      42 A      43 A      44 A      45 A      46 A      47 A      48 A   

                1845.2    1857.2    1882.1    2247.4    2927.2    2976.5    3006.4    3007.3
  
           1   -0.0166    0.0061    0.0208   -0.0002    0.0000   -0.0001   -0.0303    0.0116
           2   -0.0063   -0.0288    0.0023    0.0000   -0.0000    0.0001    0.0000    0.0001
           3   -0.0000    0.0000    0.0000    0.0000   -0.0609    0.0000   -0.0000    0.0000
           4   -0.1534    0.0211   -0.1099    0.0114    0.0000   -0.0002   -0.0004   -0.0002
           5   -0.0066   -0.0346    0.0039    0.0028    0.0000   -0.0004    0.0001    0.0001
           6    0.0002   -0.0000    0.0001   -0.0000    0.0002   -0.0000    0.0000   -0.0000
           7    0.1014    0.1030   -0.1127    0.0006   -0.0000    0.0002    0.0009   -0.0015
           8    0.0128    0.0181   -0.0170    0.0002    0.0000    0.0017   -0.0006    0.0070
           9    0.0000    0.0000   -0.0000    0.0000   -0.0001    0.0000   -0.0000   -0.0000
          10    0.0461   -0.1575   -0.0894    0.0011   -0.0000   -0.0000    0.0014   -0.0005
          11   -0.0034    0.0253    0.0135   -0.0002   -0.0000   -0.0000    0.0030   -0.0011
          12    0.0000   -0.0000   -0.0000   -0.0000   -0.0000    0.0000   -0.0000    0.0000
          13   -0.0808   -0.1089    0.1256   -0.0013   -0.0000   -0.0098   -0.0083   -0.0209
          14    0.0015    0.0236   -0.0260    0.0011   -0.0000   -0.0139   -0.0124   -0.0303
          15   -0.0000   -0.0000    0.0000    0.0000   -0.0003   -0.0000   -0.0000   -0.0000
          16   -0.0268    0.1576    0.1004   -0.0026   -0.0000    0.0000    0.0003    0.0003
          17    0.0077    0.0278    0.0203   -0.0019    0.0000    0.0001   -0.0000   -0.0004
          18   -0.0000   -0.0000   -0.0000    0.0000   -0.0003   -0.0000    0.0000    0.0000
          19    0.1602   -0.0288    0.0738   -0.0030   -0.0000   -0.0014    0.0002    0.0004
          20    0.0303   -0.0109    0.0108    0.0029    0.0000    0.0037   -0.0002   -0.0010
          21   -0.0002    0.0000   -0.0001    0.0000   -0.0000    0.0000    0.0000   -0.0000
          22   -0.0288    0.0073   -0.0102   -0.1510    0.0000    0.0298   -0.0027   -0.0062
          23   -0.0220    0.0059   -0.0061   -0.0120    0.0000   -0.0466    0.0042    0.0098
          24    0.0000   -0.0000    0.0000    0.0003   -0.0000   -0.0001    0.0000    0.0000
          25    0.0080   -0.0034   -0.0002   -0.1431    0.0000    0.0008   -0.0001   -0.0002
          26   -0.0002    0.0001    0.0000    0.0021   -0.0000   -0.0002    0.0000    0.0000
          27   -0.0000    0.0000    0.0000    0.0003    0.0000    0.0000    0.0000    0.0000
          28   -0.0045    0.0027    0.0018    0.3032   -0.0000   -0.0060    0.0006    0.0013
          29   -0.0022    0.0004   -0.0014   -0.0036    0.0000   -0.0001   -0.0000   -0.0000
          30    0.0000   -0.0000   -0.0000   -0.0006    0.0000    0.0000   -0.0000   -0.0000
          31   -0.0076    0.0031    0.0126   -0.0000    0.2864    0.0015    0.1821   -0.0676
          32   -0.0052   -0.0248    0.0022    0.0001    0.0003    0.0001    0.0004    0.0004
          33   -0.0039    0.0009    0.0002   -0.0001    0.3686    0.0023    0.2809   -0.1044
          34   -0.0077    0.0032    0.0126   -0.0001   -0.2870    0.0015    0.1827   -0.0678
          35   -0.0052   -0.0249    0.0022    0.0000    0.0001    0.0001    0.0001    0.0005
          36    0.0039   -0.0009   -0.0002    0.0001    0.3679   -0.0023   -0.2807    0.1043
          37    0.0048    0.0168   -0.0043    0.0001    0.0000    0.0113   -0.0044    0.0464
          38   -0.0645   -0.0521    0.0675   -0.0005   -0.0000   -0.0215    0.0007   -0.0824
          39    0.0000    0.0000    0.0000    0.0000   -0.0016    0.0000   -0.0000    0.0000
          40   -0.0020   -0.0179   -0.0006    0.0005    0.0000    0.0004   -0.0204    0.0073
          41    0.0351   -0.0873   -0.0549    0.0007    0.0000    0.0006   -0.0300    0.0105
          42   -0.0000    0.0001    0.0001   -0.0000   -0.0016    0.0000    0.0000   -0.0000
          43   -0.0076   -0.0018    0.0005   -0.0130    0.0000    0.0263   -0.0008   -0.0050
          44   -0.0870    0.0039   -0.0414    0.0051   -0.0000   -0.0403    0.0008    0.0078
          45    0.0000   -0.0000    0.0000    0.0000   -0.0000   -0.0000    0.0000    0.0000
          46   -0.0453   -0.0142   -0.0105    0.0080    0.0000    0.1064    0.0920    0.2206
          47   -0.0410   -0.0545    0.0796   -0.0049    0.0000    0.1657    0.1487    0.3584
          48    0.0000   -0.0000    0.0000   -0.0000   -0.0008    0.0000    0.0000    0.0001
          49   -0.0304    0.0208   -0.0153    0.0013    0.0000   -0.0009    0.0001   -0.0052
          50    0.0173   -0.0835   -0.0638    0.0004   -0.0000    0.0013    0.0008    0.0089
          51   -0.0000    0.0001    0.0001   -0.0000   -0.0008   -0.0000   -0.0000   -0.0000
          52    0.0395    0.0007    0.0071   -0.0502    0.0000   -0.3037    0.0259    0.0607
          53    0.0136    0.0020    0.0031    0.0986   -0.0000    0.5592   -0.0501   -0.1171
          54   -0.0000    0.0000   -0.0000    0.0001   -0.0000    0.0007   -0.0001   -0.0001
          55    0.0001   -0.0004   -0.0007   -0.0630    0.0000    0.0004    0.0000   -0.0000
          56   -0.0003    0.0001   -0.0000    0.0009   -0.0000   -0.0001    0.0000    0.0000
          57   -0.0072    0.0027   -0.0007    0.1035    0.0000   -0.0002   -0.0001   -0.0000
          58    0.0001   -0.0004   -0.0007   -0.0635   -0.0000    0.0004    0.0000   -0.0000
          59   -0.0004    0.0001   -0.0000    0.0010    0.0000   -0.0001    0.0000    0.0000
          60    0.0072   -0.0027    0.0007   -0.1033    0.0000    0.0002    0.0001   -0.0000


   Root No.      49        50        51        52        53        54

                49 A      50 A      51 A      52 A      53 A      54 A   

                3039.3    3042.1    3059.7    3064.1    3116.8    3121.1
  
           1    0.0001    0.0010    0.0021   -0.0033    0.0000   -0.0000
           2    0.0000    0.0001   -0.0000    0.0000   -0.0000    0.0000
           3   -0.0000   -0.0000   -0.0000    0.0000    0.0000    0.0000
           4   -0.0034    0.0012   -0.0004    0.0010    0.0002   -0.0000
           5   -0.0003    0.0002    0.0003    0.0002    0.0000   -0.0000
           6    0.0000   -0.0000   -0.0000   -0.0000   -0.0000    0.0000
           7    0.0001   -0.0004    0.0267   -0.0078    0.0001    0.0000
           8    0.0001    0.0002   -0.0381    0.0112   -0.0001   -0.0000
           9   -0.0000    0.0000    0.0000   -0.0000   -0.0000    0.0000
          10    0.0034    0.0103   -0.0078   -0.0220    0.0001   -0.0000
          11    0.0066    0.0195   -0.0102   -0.0298    0.0001   -0.0000
          12   -0.0000   -0.0000    0.0000    0.0000    0.0000   -0.0000
          13   -0.0005    0.0007   -0.0083    0.0028   -0.0000   -0.0000
          14    0.0005    0.0010   -0.0066    0.0025    0.0000   -0.0000
          15    0.0000   -0.0000   -0.0000    0.0000   -0.0000    0.0000
          16    0.0082    0.0197    0.0056    0.0151   -0.0000   -0.0000
          17   -0.0123   -0.0318   -0.0068   -0.0181   -0.0000    0.0000
          18    0.0000    0.0000    0.0000    0.0000    0.0000   -0.0000
          19    0.0274   -0.0077    0.0000   -0.0008   -0.0003    0.0000
          20   -0.0446    0.0119    0.0001    0.0006   -0.0002    0.0000
          21   -0.0000    0.0000    0.0000    0.0000   -0.0000   -0.0000
          22    0.0028   -0.0007   -0.0005    0.0001   -0.0006    0.0000
          23   -0.0027    0.0006    0.0008   -0.0002    0.0001   -0.0000
          24   -0.0000    0.0000    0.0000   -0.0000    0.0000   -0.0002
          25    0.0001   -0.0000    0.0000   -0.0001   -0.0478    0.0000
          26   -0.0000    0.0000    0.0000   -0.0000    0.0008    0.0000
          27   -0.0000   -0.0000    0.0000   -0.0000   -0.0002   -0.0649
          28   -0.0010    0.0003    0.0001   -0.0000    0.0085   -0.0000
          29   -0.0003    0.0001   -0.0000    0.0000   -0.0001    0.0000
          30    0.0000   -0.0000   -0.0000   -0.0000   -0.0000   -0.0004
          31   -0.0011   -0.0076   -0.0118    0.0181   -0.0001    0.0000
          32    0.0005    0.0014   -0.0031   -0.0011    0.0000   -0.0000
          33   -0.0016   -0.0112   -0.0176    0.0269   -0.0002    0.0000
          34   -0.0012   -0.0076   -0.0119    0.0182   -0.0001    0.0000
          35    0.0005    0.0014   -0.0031   -0.0012    0.0000    0.0000
          36    0.0016    0.0112    0.0176   -0.0269    0.0002   -0.0000
          37    0.0013    0.0025   -0.2666    0.0760   -0.0006   -0.0000
          38   -0.0022   -0.0041    0.4548   -0.1295    0.0010    0.0000
          39   -0.0000   -0.0000   -0.0000    0.0000    0.0000    0.0000
          40   -0.0452   -0.1343    0.0744    0.2085   -0.0005    0.0000
          41   -0.0790   -0.2339    0.1258    0.3524   -0.0009    0.0000
          42    0.0001    0.0003   -0.0001   -0.0004    0.0000    0.0000
          43   -0.2909    0.0781    0.0008    0.0039    0.0002   -0.0000
          44    0.5241   -0.1437   -0.0021   -0.0086   -0.0002    0.0000
          45    0.0002   -0.0001   -0.0000   -0.0000    0.0000    0.0000
          46   -0.0017   -0.0052    0.0511   -0.0172    0.0000    0.0000
          47   -0.0017   -0.0083    0.0772   -0.0261    0.0000    0.0000
          48   -0.0000   -0.0000    0.0000   -0.0000    0.0000    0.0000
          49   -0.0851   -0.2214   -0.0493   -0.1282    0.0001    0.0000
          50    0.1477    0.3752    0.0816    0.2115   -0.0002   -0.0000
          51   -0.0002   -0.0005   -0.0001   -0.0003    0.0000   -0.0000
          52   -0.0187    0.0040    0.0044   -0.0010   -0.0009   -0.0000
          53    0.0414   -0.0090   -0.0091    0.0021    0.0013    0.0000
          54    0.0000   -0.0000   -0.0000    0.0000    0.0000   -0.0002
          55    0.0002   -0.0002   -0.0003    0.0004    0.2370   -0.2558
          56    0.0001   -0.0000    0.0000   -0.0000   -0.0036    0.0039
          57   -0.0002    0.0002    0.0004   -0.0006   -0.4023    0.3932
          58    0.0002   -0.0001   -0.0003    0.0004    0.2409    0.2556
          59    0.0001   -0.0000    0.0000   -0.0000   -0.0039   -0.0041
          60    0.0002   -0.0002   -0.0004    0.0006    0.4043    0.3885


           MASS-WEIGHTED COORDINATE ANALYSIS (NORMAL COORDINATES)


   Root No.       1         2         3         4         5         6         7         8

                 1 A       2 A       3 A       4 A       5 A       6 A       7 A       8 A   

                  44.6      97.4     123.7     200.3     273.0     299.0     353.7     387.5
  
           1   -0.0006   -0.0002   -0.0160   -0.0004   -0.1760    0.0015    0.0009   -0.0004
           2    0.0002   -0.0013    0.2042   -0.0019   -0.1684    0.0008   -0.0003    0.0002
           3    0.3968    0.3490    0.0026    0.1123   -0.0016   -0.1397    0.0138    0.0188
           4   -0.0003    0.0000    0.0057   -0.0002   -0.1076    0.0005   -0.0003    0.0000
           5   -0.0001    0.0015   -0.2079    0.0025    0.2440   -0.0012    0.0008   -0.0002
           6   -0.2536   -0.1196    0.0015    0.2764   -0.0025   -0.3286    0.0306   -0.0159
           7   -0.0003   -0.0012    0.1575   -0.0020   -0.2978    0.0017   -0.0000   -0.0003
           8    0.0000   -0.0007    0.0860   -0.0008   -0.0692    0.0005    0.0003    0.0001
           9    0.0748   -0.1785   -0.0015    0.0319    0.0029    0.4212   -0.0541    0.2923
          10   -0.0004    0.0012   -0.1789    0.0016   -0.0056    0.0004    0.0011   -0.0000
          11    0.0000   -0.0008    0.0970   -0.0011   -0.0486    0.0003   -0.0003    0.0000
          12    0.1596   -0.0308   -0.0027   -0.3815    0.0021    0.1801   -0.0386   -0.3838
          13   -0.0002   -0.0011    0.1542   -0.0020   -0.2765    0.0016   -0.0001   -0.0002
          14   -0.0001    0.0007   -0.1106    0.0014    0.1436   -0.0007    0.0009   -0.0003
          15   -0.2270   -0.3835   -0.0024    0.0690   -0.0012   -0.2748    0.0797   -0.3630
          16   -0.0003    0.0012   -0.1756    0.0015   -0.0102    0.0004    0.0010   -0.0000
          17    0.0000    0.0007   -0.0966    0.0010    0.1723   -0.0008    0.0003    0.0002
          18   -0.1515   -0.2548   -0.0018   -0.0710   -0.0011   -0.1708    0.0340    0.4785
          19   -0.0004    0.0005    0.0110   -0.0000   -0.0944    0.0011   -0.0006   -0.0001
          20   -0.0005    0.0023   -0.3250    0.0032    0.0706   -0.0003    0.0002   -0.0004
          21   -0.3173    0.2728    0.0065    0.4533    0.0013    0.2964   -0.1644   -0.1458
          22    0.0000    0.0005    0.0126    0.0002    0.3046   -0.0022   -0.0008    0.0003
          23   -0.0008    0.0025   -0.3276    0.0021   -0.2144    0.0017   -0.0001   -0.0004
          24   -0.3189    0.4127    0.0008   -0.3112    0.0013   -0.0171   -0.1912    0.0137
          25    0.0017   -0.0009    0.0248    0.0009    0.3443   -0.0027   -0.0013    0.0003
          26    0.0011   -0.0043    0.5902   -0.0046    0.1855   -0.0021   -0.0008    0.0005
          27    0.4719   -0.2170   -0.0023    0.0455   -0.0017   -0.0406   -0.1659   -0.0034
          28    0.0007   -0.0000    0.0141    0.0004    0.3218   -0.0023    0.0006    0.0005
          29   -0.0002    0.0005   -0.0485   -0.0011   -0.3318    0.0018   -0.0011    0.0005
          30    0.0635    0.1383   -0.0001   -0.1958    0.0005    0.0718    0.6874    0.0653
          31   -0.0885   -0.1494   -0.0062   -0.1066   -0.0500    0.2053   -0.0327   -0.0425
          32   -0.0088   -0.0166    0.0861    0.0478   -0.0743    0.0336   -0.0029    0.1147
          33    0.1816    0.2142    0.0019    0.1138   -0.0013   -0.1983    0.0295    0.0383
          34    0.0881    0.1491   -0.0030    0.1063   -0.0535   -0.2042    0.0332    0.0422
          35    0.0090    0.0155    0.0858   -0.0493   -0.0745   -0.0330    0.0026   -0.1145
          36    0.1818    0.2145    0.0020    0.1140   -0.0023   -0.1987    0.0296    0.0385
          37   -0.0000   -0.0006    0.0860   -0.0010   -0.1264    0.0007   -0.0002   -0.0000
          38    0.0000   -0.0004    0.0489   -0.0005   -0.0435    0.0003   -0.0000    0.0001
          39    0.0291   -0.1046   -0.0010   -0.0178    0.0023    0.3377   -0.0503    0.2209
          40   -0.0001    0.0007   -0.0900    0.0008    0.0440   -0.0001    0.0004   -0.0001
          41   -0.0000   -0.0004    0.0507   -0.0007   -0.0412    0.0003   -0.0001   -0.0002
          42    0.0738   -0.0304   -0.0019   -0.2674    0.0018    0.1674   -0.0297   -0.2812
          43   -0.0002    0.0003   -0.0102    0.0001   -0.0955    0.0010   -0.0003   -0.0001
          44   -0.0002    0.0007   -0.1003    0.0009   -0.0194    0.0002    0.0000   -0.0002
          45   -0.0949    0.1335    0.0035    0.2673    0.0011    0.2715   -0.0861   -0.0187
[...]
 FREQ.      1226.65         C  8 -- H 18         +18.4% ( 50.8%)      1.3%
 T-DIPOLE    0.0582         C  3 -- H 13         +17.9% ( 50.1%)      0.5%
 TRAVEL      0.1367         C  7 -- H 15          +9.5% ( 36.5%)      8.7%
 RED. MASS   0.2215         C  6 -- H 17          +7.1% ( 31.5%)      0.1%
 EFF. MASS   2.9397

 VIBRATION   34   34A         ATOM PAIR      ENERGY CONTRIBUTION    RADIAL
 FREQ.      1267.20         C  7 -- C  8         +15.3% ( 47.6%)     81.8%
 T-DIPOLE    0.0198         C  6 -- H 17          +9.4% ( 37.3%)      0.2%
 TRAVEL      0.1050         C  4 -- H 14          +7.5% ( 33.5%)      2.4%
 RED. MASS   0.2912         C  2 -- C  7          +7.2% ( 32.7%)     15.9%
 EFF. MASS   4.8266

 VIBRATION   35   35A         ATOM PAIR      ENERGY CONTRIBUTION    RADIAL
 FREQ.      1307.06         C  9 -- H 19         +12.7% ( 43.6%)      3.4%
 T-DIPOLE    0.0516         C  9 -- H 20         +12.7% ( 43.6%)      3.4%
 TRAVEL      0.1107         C  5 -- H 16         +10.9% ( 40.3%)      0.4%
 RED. MASS   0.2541         C  8 -- H 18          +9.8% ( 38.4%)      9.8%
 EFF. MASS   4.2074

 VIBRATION   36   36A         ATOM PAIR      ENERGY CONTRIBUTION    RADIAL
 FREQ.      1345.17         C  1 -- H 11         +21.9% ( 49.0%)      3.8%
 T-DIPOLE    0.1176         C  1 -- H 12         +21.8% ( 49.0%)      3.8%
 TRAVEL      0.1347         C  5 -- H 16         +14.3% ( 39.6%)      1.8%
 RED. MASS   0.2708         C  1 -- C  4          +4.9% ( 23.1%)      4.7%
 EFF. MASS   2.7612

 VIBRATION   37   37A         ATOM PAIR      ENERGY CONTRIBUTION    RADIAL
 FREQ.      1390.61         C  1 -- C  4         +11.8% ( 45.8%)     77.2%
 T-DIPOLE    0.1058         C  5 -- H 16         +10.0% ( 42.0%)      0.7%
 TRAVEL      0.0889         C  1 -- C  3          +9.7% ( 41.5%)     55.4%
 RED. MASS   0.5492         C  1 -- H 11          +9.4% ( 40.9%)      8.4%
 EFF. MASS   6.1393

 VIBRATION   38   38A         ATOM PAIR      ENERGY CONTRIBUTION    RADIAL
 FREQ.      1419.11         C  1 -- C  3         +18.2% ( 64.1%)     67.7%
 T-DIPOLE    0.0746         C  1 -- C  4         +17.6% ( 62.9%)     66.1%
 TRAVEL      0.0721         C  1 -- H 12         +15.3% ( 58.8%)      0.0%
 RED. MASS   2.4801         C  1 -- H 11         +15.3% ( 58.7%)      0.0%
 EFF. MASS   9.1531

 VIBRATION   39   39A         ATOM PAIR      ENERGY CONTRIBUTION    RADIAL
 FREQ.      1525.13         C  2 -- C  6         +20.4% ( 68.4%)     85.0%
 T-DIPOLE    0.1322         C  2 -- C  5         +19.2% ( 66.4%)     75.3%
 TRAVEL      0.0619         C  2 -- C  7         +11.7% ( 51.8%)      0.2%
 RED. MASS   2.5284         C  1 -- C  4          +6.8% ( 39.6%)     94.8%
 EFF. MASS  11.5298

 VIBRATION   40   40A         ATOM PAIR      ENERGY CONTRIBUTION    RADIAL
 FREQ.      1536.99         C  7 -- C  8         +21.3% ( 73.0%)     90.7%
 T-DIPOLE    0.1344         C  8 -- H 18         +16.5% ( 64.3%)      0.1%
 TRAVEL      0.0627         C  8 -- C 10         +13.2% ( 57.4%)     72.3%
 RED. MASS   2.9984         C  9 -- C 10         +10.8% ( 51.9%)     99.8%
 EFF. MASS  11.1429

 VIBRATION   41   41A         ATOM PAIR      ENERGY CONTRIBUTION    RADIAL
 FREQ.      1845.23         C  2 -- C  7         +31.1% ( 82.5%)     98.2%
 T-DIPOLE    0.4251         C  7 -- C  8         +11.7% ( 50.5%)     57.5%
 TRAVEL      0.0555         C  3 -- C  5         +11.0% ( 49.0%)     99.6%
 RED. MASS   3.1648         C  2 -- C  5         +10.8% ( 48.5%)     18.3%
 EFF. MASS  11.8831         C  7 -- H 15         +10.2% ( 47.3%)      3.1%

 VIBRATION   42   42A         ATOM PAIR      ENERGY CONTRIBUTION    RADIAL
 FREQ.      1857.23         C  4 -- C  6         +29.5% ( 80.7%)    100.0%
 T-DIPOLE    0.1168         C  3 -- C  5         +13.5% ( 54.4%)    100.0%
 TRAVEL      0.0552         C  2 -- C  6          +9.8% ( 46.4%)     69.0%
 RED. MASS   2.9768         C  1 -- C  4          +9.6% ( 46.0%)     60.9%
 EFF. MASS  11.9218

 VIBRATION   43   43A         ATOM PAIR      ENERGY CONTRIBUTION    RADIAL
 FREQ.      1882.11         C  3 -- C  5         +19.4% ( 65.5%)     99.9%
 T-DIPOLE    0.9208         C  2 -- C  5         +13.4% ( 54.3%)     39.5%
 TRAVEL      0.0550         C  4 -- C  6         +12.3% ( 52.0%)     99.9%
 RED. MASS   2.0583         C  2 -- C  7         +11.1% ( 49.4%)     99.7%
 EFF. MASS  11.8446         C  2 -- C  6         +10.4% ( 48.0%)     34.7%

 VIBRATION   44   44A         ATOM PAIR      ENERGY CONTRIBUTION    RADIAL
 FREQ.      2247.42         C  8 -- C 10         +42.1% ( 85.3%)     99.8%
 T-DIPOLE    0.9944         C  9 -- C 10         +42.0% ( 85.1%)    100.0%
 TRAVEL      0.0503         C  7 -- C  8          +4.3% ( 27.1%)     40.6%
 RED. MASS   5.8389         C  8 -- H 18          +4.2% ( 27.1%)      4.5%
 EFF. MASS  11.8507

 VIBRATION   45   45A         ATOM PAIR      ENERGY CONTRIBUTION    RADIAL
 FREQ.      2927.19         C  1 -- H 11         +48.9% ( 72.6%)     96.6%
 T-DIPOLE    0.0642         C  1 -- H 12         +48.9% ( 72.5%)     96.6%
 TRAVEL      0.1226         C  1 -- C  4          +1.1% ( 10.7%)      0.0%
 RED. MASS   0.5172         C  1 -- C  3          +1.1% ( 10.7%)      0.0%
 EFF. MASS   1.5328

 VIBRATION   46   46A         ATOM PAIR      ENERGY CONTRIBUTION    RADIAL
 FREQ.      2976.54         C  8 -- H 18         +87.7% ( 95.2%)    100.0%
 T-DIPOLE    0.2839         C  5 -- H 16          +8.5% ( 29.7%)     99.9%
 TRAVEL      0.1220         C  8 -- C 10          +1.5% ( 12.3%)     39.5%
 RED. MASS   0.7704         C  7 -- C  8          +1.3% ( 11.6%)     17.0%
 EFF. MASS   1.5224

 VIBRATION   47   47A         ATOM PAIR      ENERGY CONTRIBUTION    RADIAL
 FREQ.      3006.44         C  1 -- H 12         +42.1% ( 64.2%)     97.8%
 T-DIPOLE    0.2548         C  1 -- H 11         +42.1% ( 64.2%)     97.8%
 TRAVEL      0.1310         C  5 -- H 16         +12.4% ( 34.9%)    100.0%
 RED. MASS   0.3722         C  8 -- H 18          +1.3% ( 11.2%)    100.0%
 EFF. MASS   1.3068

 VIBRATION   48   48A         ATOM PAIR      ENERGY CONTRIBUTION    RADIAL
 FREQ.      3007.26         C  5 -- H 16         +74.2% ( 87.1%)    100.0%
 T-DIPOLE    0.2064         C  8 -- H 18          +7.2% ( 27.0%)    100.0%
 TRAVEL      0.1229         C  1 -- H 12          +6.0% ( 24.7%)     97.6%
 RED. MASS   0.5499         C  1 -- H 11          +6.0% ( 24.7%)     97.6%
 EFF. MASS   1.4839

 VIBRATION   49   49A         ATOM PAIR      ENERGY CONTRIBUTION    RADIAL
 FREQ.      3039.31         C  7 -- H 15         +87.6% ( 94.9%)    100.0%
 T-DIPOLE    0.4255         C  6 -- H 17          +7.1% ( 27.0%)    100.0%
 TRAVEL      0.1212         C  4 -- H 14          +2.0% ( 14.4%)     99.9%
 RED. MASS   0.7607         C  2 -- C  7          +1.3% ( 11.7%)     34.2%
 EFF. MASS   1.5098

 VIBRATION   50   50A         ATOM PAIR      ENERGY CONTRIBUTION    RADIAL
 FREQ.      3042.15         C  6 -- H 17         +63.9% ( 81.1%)    100.0%
 T-DIPOLE    0.1663         C  4 -- H 14         +24.4% ( 50.2%)     99.9%
 TRAVEL      0.1226         C  7 -- H 15          +9.0% ( 30.4%)    100.0%
 RED. MASS   0.4659         C  4 -- C  6          +1.1% ( 10.5%)      3.2%
 EFF. MASS   1.4738

 VIBRATION   51   51A         ATOM PAIR      ENERGY CONTRIBUTION    RADIAL
 FREQ.      3059.73         C  3 -- H 13         +84.6% ( 93.3%)    100.0%
 T-DIPOLE    0.3674         C  4 -- H 14          +6.5% ( 25.9%)     99.9%
 TRAVEL      0.1196         C  6 -- H 17          +2.8% ( 16.9%)     99.9%
 RED. MASS   0.7142         C  5 -- H 16          +2.6% ( 16.5%)     98.7%
 EFF. MASS   1.5399

 VIBRATION   52   52A         ATOM PAIR      ENERGY CONTRIBUTION    RADIAL
 FREQ.      3064.13         C  4 -- H 14         +63.5% ( 80.8%)    100.0%
 T-DIPOLE    0.3195         C  6 -- H 17         +23.2% ( 48.9%)     99.8%
 TRAVEL      0.1178         C  3 -- H 13          +8.6% ( 29.7%)    100.0%
 RED. MASS   0.4642         C  4 -- C  6          +1.8% ( 13.5%)     91.2%
 EFF. MASS   1.5848

 VIBRATION   53   53A         ATOM PAIR      ENERGY CONTRIBUTION    RADIAL
 FREQ.      3116.76         C  9 -- H 20         +49.5% ( 70.4%)     95.3%
 T-DIPOLE    0.4482         C  9 -- H 19         +48.7% ( 69.9%)     95.1%
 TRAVEL      0.1238         C  9 -- C 10          +1.8% ( 13.3%)    100.0%
 RED. MASS   0.4860
 EFF. MASS   1.4123

 VIBRATION   54   54A         ATOM PAIR      ENERGY CONTRIBUTION    RADIAL
 FREQ.      3121.15         C  9 -- H 19         +49.8% ( 72.2%)     97.2%
 T-DIPOLE    0.2444         C  9 -- H 20         +49.0% ( 71.7%)     97.1%
 TRAVEL      0.1164         C  9 -- C 10          +1.2% ( 11.2%)      0.0%
 RED. MASS   0.5332
 EFF. MASS   1.5939

      SYMMETRY NUMBER FOR POINT-GROUP C1  =  1


          SYSTEM IS A GROUND STATE



 InChI=1S/C10H10/c1-2-3-7-10-8-5-4-6-9-10/h3,5-9H,1,4H2


          MOLECULE IS NOT LINEAR

          THERE ARE 54 GENUINE VIBRATIONS IN THIS SYSTEM
          THIS THERMODYNAMICS CALCULATION IS LIMITED TO
          MOLECULES WHICH HAVE NO INTERNAL ROTATIONS




                    CALCULATED THERMODYNAMIC PROPERTIES
                                          *
   TEMP. (K)   PARTITION FUNCTION   H.O.F.    ENTHALPY  HEAT CAPACITY ENTROPY
                                   KCAL/MOL   CAL/MOLE    CAL/K/MOL  CAL/K/MOL


 298.00  VIB.     0.2489D+03                  4013.7111    29.3658    24.4321
         ROT.     0.7084D+06                   888.2813     2.9808    29.7501
         INT.     0.1763D+09                  4901.9924    32.3466    54.1822
         TRA.     0.1436D+28                  1480.4688     4.9680    40.5022
         TOT.                       85.087    6382.4613    37.3147    94.6844

 200.00  VIB.     0.2875D+02                  1690.9195    18.1716    15.1287
         ROT.     0.3895D+06                   596.1620     2.9808    28.5614
         INT.     0.1120D+08                  2287.0815    21.1525    43.6901
         TRA.     0.7896D+27                   993.6033     4.9680    38.5210
         TOT.                       81.986    3280.6847    26.1205    82.2111

 210.00  VIB.     0.3559D+02                  1878.0751    19.2626    16.0416
         ROT.     0.4191D+06                   625.9700     2.9808    28.7068
         INT.     0.1492D+08                  2504.0451    22.2434    44.7485
         TRA.     0.8496D+27                  1043.2834     4.9680    38.7634
         TOT.                       82.252    3547.3286    27.2114    83.5119

 220.00  VIB.     0.4413D+02                  2076.2308    20.3714    16.9633
         ROT.     0.4494D+06                   655.7781     2.9808    28.8455
         INT.     0.1983D+08                  2732.0090    23.3522    45.8087
         TRA.     0.9110D+27                  1092.9636     4.9680    38.9945
         TOT.                       82.530    3824.9726    28.3202    84.8033

 230.00  VIB.     0.5481D+02                  2285.5558    21.4961    17.8936
         ROT.     0.4804D+06                   685.5862     2.9808    28.9780
         INT.     0.2633D+08                  2971.1421    24.4769    46.8716
         TRA.     0.9738D+27                  1142.6437     4.9680    39.2154
         TOT.                       82.819    4113.7858    29.4449    86.0869

 240.00  VIB.     0.6817D+02                  2506.1977    22.6343    18.8324
         ROT.     0.5120D+06                   715.3943     2.9808    29.1048
         INT.     0.3490D+08                  3221.5920    25.6151    47.9373
         TRA.     0.1038D+28                  1192.3239     4.9680    39.4268
         TOT.                       83.119    4413.9159    30.5832    87.3641

 250.00  VIB.     0.8492D+02                  2738.2790    23.7835    19.7797
         ROT.     0.5443D+06                   745.2024     2.9808    29.2265
         INT.     0.4623D+08                  3483.4815    26.7644    49.0062
         TRA.     0.1103D+28                  1242.0041     4.9680    39.6296
         TOT.                       83.430    4725.4855    31.7324    88.6358

 260.00  VIB.     0.1059D+03                  2981.8960    24.9410    20.7350
         ROT.     0.5773D+06                   775.0105     2.9808    29.3434
         INT.     0.6117D+08                  3756.9065    27.9218    50.0785
         TRA.     0.1170D+28                  1291.6842     4.9680    39.8245
         TOT.                       83.754    5048.5908    32.8898    89.9029

 270.00  VIB.     0.1324D+03                  3237.1170    26.1039    21.6981
         ROT.     0.6110D+06                   804.8186     2.9808    29.4559
         INT.     0.8088D+08                  4041.9356    29.0847    51.1540
         TRA.     0.1239D+28                  1341.3644     4.9680    40.0120
         TOT.                       84.088    5383.3000    34.0527    91.1660

 280.00  VIB.     0.1656D+03                  3503.9825    27.2695    22.6685
         ROT.     0.6452D+06                   834.6267     2.9808    29.5643
         INT.     0.1069D+09                  4338.6093    30.2503    52.2328
         TRA.     0.1308D+28                  1391.0445     4.9680    40.1926
         TOT.                       84.435    5729.6538    35.2183    92.4255

 290.00  VIB.     0.2076D+03                  3782.5061    28.4350    23.6457
         ROT.     0.6801D+06                   864.4348     2.9808    29.6689
         INT.     0.1412D+09                  4646.9409    31.4159    53.3147
         TRA.     0.1379D+28                  1440.7247     4.9680    40.3670
         TOT.                       84.793    6087.6657    36.3839    93.6817

 300.00  VIB.     0.2605D+03                  4072.6751    29.5981    24.6294
         ROT.     0.7156D+06                   894.2429     2.9808    29.7700
         INT.     0.1864D+09                  4966.9180    32.5789    54.3993
         TRA.     0.1451D+28                  1490.4049     4.9680    40.5354
         TOT.                       85.162    6457.3229    37.5470    94.9347

 310.00  VIB.     0.3273D+03                  4374.4525    30.7563    25.6188
         ROT.     0.7516D+06                   924.0510     2.9808    29.8677
         INT.     0.2460D+09                  5298.5035    33.7372    55.4865
         TRA.     0.1524D+28                  1540.0850     4.9680    40.6983
         TOT.                       85.544    6838.5885    38.7052    96.1848

 320.00  VIB.     0.4118D+03                  4687.7785    31.9075    26.6134
         ROT.     0.7883D+06                   953.8591     2.9808    29.9624
         INT.     0.3246D+09                  5641.6377    34.8883    56.5758
         TRA.     0.1598D+28                  1589.7652     4.9680    40.8560
         TOT.                       85.936    7231.4029    39.8564    97.4318

 330.00  VIB.     0.5188D+03                  5012.5731    33.0497    27.6128
         ROT.     0.8255D+06                   983.6672     2.9808    30.0541
         INT.     0.4283D+09                  5996.2403    36.0305    57.6669
         TRA.     0.1674D+28                  1639.4454     4.9680    41.0089
         TOT.                       86.341    7635.6857    40.9986    98.6758

 340.00  VIB.     0.6545D+03                  5348.7374    34.1812    28.6163
         ROT.     0.8633D+06                  1013.4753     2.9808    30.1431
         INT.     0.5650D+09                  6362.2127    37.1620    58.7594
         TRA.     0.1750D+28                  1689.1255     4.9680    41.1572
         TOT.                       86.756    8051.3383    42.1300    99.9166

 350.00  VIB.     0.8265D+03                  5696.1565    35.3005    29.6233
         ROT.     0.9017D+06                  1043.2834     2.9808    30.2295
         INT.     0.7453D+09                  6739.4400    38.2813    59.8528
         TRA.     0.1828D+28                  1738.8057     4.9680    41.3012
         TOT.                       87.183    8478.2456    43.2493   101.1540

 360.00  VIB.     0.1045D+04                  6054.7013    36.4061    30.6332
         ROT.     0.9406D+06                  1073.0915     2.9808    30.3135
         INT.     0.9830D+09                  7127.7928    39.3869    60.9467
         TRA.     0.1907D+28                  1788.4859     4.9680    41.4412
         TOT.                       87.621    8916.2786    44.3550   102.3879

 370.00  VIB.     0.1323D+04                  6424.2301    37.4971    31.6457
         ROT.     0.9801D+06                  1102.8996     2.9808    30.3951
         INT.     0.1296D+10                  7527.1297    40.4779    62.0408
         TRA.     0.1987D+28                  1838.1660     4.9680    41.5773
         TOT.                       88.070    9365.2957    45.4459   103.6181

 380.00  VIB.     0.1676D+04                  6804.5915    38.5725    32.6599
         ROT.     0.1020D+07                  1132.7077     2.9808    30.4746
         INT.     0.1709D+10                  7937.2992    41.5533    63.1346
         TRA.     0.2068D+28                  1887.8462     4.9680    41.7098
         TOT.                       88.530    9825.1454    46.5213   104.8444

 390.00  VIB.     0.2125D+04                  7195.6252    39.6315    33.6756
         ROT.     0.1061D+07                  1162.5158     2.9808    30.5521
         INT.     0.2254D+10                  8358.1410    42.6123    64.2277
         TRA.     0.2150D+28                  1937.5263     4.9680    41.8388
         TOT.                       89.001   10295.6673    47.5803   106.0665

 400.00  VIB.     0.2698D+04                  7597.1643    40.6735    34.6922
         ROT.     0.1102D+07                  1192.3239     2.9808    30.6275
         INT.     0.2972D+10                  8789.4882    43.6543    65.3197
         TRA.     0.2233D+28                  1987.2065     4.9680    41.9646
         TOT.                       89.482   10776.6947    48.6223   107.2843

   *: NOTE: HEATS OF FORMATION ARE RELATIVE TO THE
            ELEMENTS IN THEIR STANDARD STATE AT 298K
              (=  Standard Enthalpy of Formation).

            Hvib:  Zero-point energy is not included.
                   frequencies of less than zero cm-1 are not included.
            Hrot = (3/2)RT
            Htra = (3/2)RT + pV = (5/2)RT

            Heat capacity is Cp, not Cv

          For more information, see: HTTP://OpenMOPAC.net/Manual/thermochemistry.html


           FORCE CONSTANT IN CARTESIAN COORDINATES (Millidynes/A)

    ATOM   CHEMICAL       X               Y               Z
   NUMBER   SYMBOL  FORCE CONSTANT  FORCE CONSTANT  FORCE CONSTANT

      1       C        9.011544        9.449182        7.603303
      2       C       15.415595       10.816235        2.439322
      3       C       15.136315        9.644105        2.379095
      4       C       15.118171        9.642180        2.377925
      5       C       15.447739        9.995977        2.220309
      6       C       15.335985       10.159677        2.218748
      7       C       14.850968       10.153937        2.123064
      8       C       15.918189        9.235099        2.060311
      9       C       15.944406        1.857946        8.393599
     10       C       24.513264        1.863487        1.613846
     11       H        2.053492        0.663062        3.440731
     12       H        2.060202        0.663331        3.433820
     13       H        1.881343        4.023928        0.348680
     14       H        1.888203        4.017286        0.348712
     15       H        1.802343        4.072649        0.338127
     16       H        2.045504        3.840917        0.366646
     17       H        1.913744        3.980216        0.348656
     18       H        1.759316        3.973693        0.339999
     19       H        1.933003        0.298756        4.025953
     20       H        1.953059        0.297359        4.005813

 **********************
 *                    *
 * JOB ENDED NORMALLY *
 *                    *
 **********************



 TOTAL JOB TIME:             2.01 SECONDS

 == MOPAC DONE ==
