 *******************************************************************************
 ** Site#: 14399        For non-commercial use only    Version 18.184L 64BITS **
 *******************************************************************************
 ** Cite this program as: MOPAC2016, Version: 18.184L, James J. P. Stewart,   **
 ** Stewart Computational Chemistry, web: HTTP://OpenMOPAC.net. Days left:  18**
 *******************************************************************************
 **                                                                           **
 **                                MOPAC2016                                  **
 **                                                                           **
 *******************************************************************************

                              PM3 CALCULATION RESULTS

 *******************************************************************************
 *  CALCULATION DONE:                                Sat Jun 15 14:04:57 2019  *
 *  PM3        - The PM3 Hamiltonian to be used
 *  PRECISE    - CRITERIA TO BE INCREASED BY 100 TIMES
 *  NOSYM      - POINT-GROUP SYMMETRY SET TO C1
 *  THREADS=1  - MULTI-THREADING NOT USED
 *  T=         - A TIME OF 172800.0 SECONDS REQUESTED
 *  DUMP=N     - RESTART FILE WRITTEN EVERY  7200.000 SECONDS
 *******************************************************************************
pm3  precise nosym THREADS=1
 InChI=1S/C7H12O2/c1-2-6-3-4-7(5-6)9-8/h2,6-8H,1,3-5H2

   ATOM   CHEMICAL          X               Y               Z
  NUMBER   SYMBOL      (ANGSTROMS)     (ANGSTROMS)     (ANGSTROMS)
 
     1       O         -2.52250000  *   0.85470000  *  -0.50460000  *
     2       O         -3.65260000  *   0.54220000  *   0.10370000  *
     3       C          0.89000000  *  -0.01520000  *   0.29980000  *
     4       C         -1.48160000  *   0.40370000  *   0.33050000  *
     5       C         -0.15700000  *   1.01040000  *  -0.10820000  *
     6       C          0.21030000  *  -1.36990000  *   0.11380000  *
     7       C         -1.29280000  *  -1.11440000  *   0.22830000  *
     8       C          2.14700000  *   0.10760000  *  -0.52760000  *
     9       C          3.33820000  *   0.34590000  *   0.02880000  *
    10       H          1.11290000  *   0.12310000  *   1.38340000  *
    11       H         -1.66190000  *   0.69400000  *   1.39400000  *
    12       H          0.43290000  *  -1.79570000  *  -0.89070000  *
    13       H          0.55330000  *  -2.09020000  *   0.88840000  *
    14       H         -1.70630000  *  -1.61260000  *   1.13240000  *
    15       H         -1.81260000  *  -1.51990000  *  -0.66820000  *
    16       H         -0.15550000  *   1.15070000  *  -1.21360000  *
    17       H          0.02280000  *   1.99050000  *   0.38530000  *
    18       H          2.08390000  *  -0.00040000  *  -1.60700000  *
    19       H          3.44510000  *   0.46030000  *   1.10310000  *
    20       H          4.22130000  *   0.42820000  *  -0.59640000  *
    21       H         -4.01480000  *   1.40700000  *   0.42650000  *
 


          CARTESIAN COORDINATES 

    NO.       ATOM           X           Y           Z

     1         O         -2.5225      0.8547     -0.5046
     2         O         -3.6526      0.5422      0.1037
     3         C          0.8900     -0.0152      0.2998
     4         C         -1.4816      0.4037      0.3305
     5         C         -0.1570      1.0104     -0.1082
     6         C          0.2103     -1.3699      0.1138
     7         C         -1.2928     -1.1144      0.2283
     8         C          2.1470      0.1076     -0.5276
     9         C          3.3382      0.3459      0.0288
    10         H          1.1129      0.1231      1.3834
    11         H         -1.6619      0.6940      1.3940
    12         H          0.4329     -1.7957     -0.8907
    13         H          0.5533     -2.0902      0.8884
    14         H         -1.7063     -1.6126      1.1324
    15         H         -1.8126     -1.5199     -0.6682
    16         H         -0.1555      1.1507     -1.2136
    17         H          0.0228      1.9905      0.3853
    18         H          2.0839     -0.0004     -1.6070
    19         H          3.4451      0.4603      1.1031
    20         H          4.2213      0.4282     -0.5964
    21         H         -4.0148      1.4070      0.4265

  H: (PM3): J. J. P. STEWART, J. COMP. CHEM. 10, 209 (1989).
  C: (PM3): J. J. P. STEWART, J. COMP. CHEM. 10, 209 (1989).
  O: (PM3): J. J. P. STEWART, J. COMP. CHEM. 10, 209 (1989).

           Empirical Formula: C7 H12 O2  =    21 atoms



      MOLECULAR POINT GROUP   :   C1  


      RHF CALCULATION, NO. OF DOUBLY OCCUPIED LEVELS = 26


          Geometry optimization using EF

          DIAGONAL MATRIX USED AS START HESSIAN

 CYCLE:     1 TIME:   0.004 TIME LEFT:  2.00D  GRAD.:   172.458 HEAT: -14.52431
 CYCLE:     2 TIME:   0.004 TIME LEFT:  2.00D  GRAD.:   207.422 HEAT: -14.67967
 CYCLE:     3 TIME:   0.008 TIME LEFT:  2.00D  GRAD.:    84.285 HEAT: -22.48258
 CYCLE:     4 TIME:   0.008 TIME LEFT:  2.00D  GRAD.:    84.482 HEAT: -23.62459
 CYCLE:     5 TIME:   0.004 TIME LEFT:  2.00D  GRAD.:    61.362 HEAT: -24.36461
 CYCLE:     6 TIME:   0.008 TIME LEFT:  2.00D  GRAD.:    29.128 HEAT: -25.29862
 CYCLE:     7 TIME:   0.008 TIME LEFT:  2.00D  GRAD.:    25.960 HEAT: -25.49537
 CYCLE:     8 TIME:   0.004 TIME LEFT:  2.00D  GRAD.:    22.140 HEAT: -25.66541
 CYCLE:     9 TIME:   0.004 TIME LEFT:  2.00D  GRAD.:    29.390 HEAT: -25.73936
 CYCLE:    10 TIME:   0.008 TIME LEFT:  2.00D  GRAD.:    31.849 HEAT: -25.75319
 CYCLE:    11 TIME:   0.008 TIME LEFT:  2.00D  GRAD.:    14.696 HEAT: -25.99602
 CYCLE:    12 TIME:   0.004 TIME LEFT:  2.00D  GRAD.:    12.340 HEAT: -26.03229
 CYCLE:    13 TIME:   0.008 TIME LEFT:  2.00D  GRAD.:     9.795 HEAT: -26.07426
 CYCLE:    14 TIME:   0.004 TIME LEFT:  2.00D  GRAD.:    14.916 HEAT: -26.08090
 CYCLE:    15 TIME:   0.004 TIME LEFT:  2.00D  GRAD.:    12.607 HEAT: -26.12649
 CYCLE:    16 TIME:   0.004 TIME LEFT:  2.00D  GRAD.:    10.122 HEAT: -26.17303
 CYCLE:    17 TIME:   0.004 TIME LEFT:  2.00D  GRAD.:    15.858 HEAT: -26.17334
 CYCLE:    18 TIME:   0.004 TIME LEFT:  2.00D  GRAD.:    13.558 HEAT: -26.21421
 CYCLE:    19 TIME:   0.004 TIME LEFT:  2.00D  GRAD.:    14.167 HEAT: -26.24336
 CYCLE:    20 TIME:   0.004 TIME LEFT:  2.00D  GRAD.:    13.528 HEAT: -26.27521
 CYCLE:    21 TIME:   0.004 TIME LEFT:  2.00D  GRAD.:    15.577 HEAT: -26.30307
 CYCLE:    22 TIME:   0.008 TIME LEFT:  2.00D  GRAD.:    14.432 HEAT: -26.33695
 CYCLE:    23 TIME:   0.004 TIME LEFT:  2.00D  GRAD.:    10.733 HEAT: -26.41030
 CYCLE:    24 TIME:   0.004 TIME LEFT:  2.00D  GRAD.:    16.313 HEAT: -26.41843
 CYCLE:    25 TIME:   0.004 TIME LEFT:  2.00D  GRAD.:    10.732 HEAT: -26.53465
 CYCLE:    26 TIME:   0.004 TIME LEFT:  2.00D  GRAD.:    11.255 HEAT: -26.61524
 CYCLE:    27 TIME:   0.004 TIME LEFT:  2.00D  GRAD.:    15.459 HEAT: -26.70115
 CYCLE:    28 TIME:   0.004 TIME LEFT:  2.00D  GRAD.:    22.325 HEAT: -26.77683
 CYCLE:    29 TIME:   0.008 TIME LEFT:  2.00D  GRAD.:    20.396 HEAT: -26.80014
 CYCLE:    30 TIME:   0.004 TIME LEFT:  2.00D  GRAD.:     8.278 HEAT: -26.90886
 CYCLE:    31 TIME:   0.008 TIME LEFT:  2.00D  GRAD.:     7.077 HEAT: -26.96146
 CYCLE:    32 TIME:   0.004 TIME LEFT:  2.00D  GRAD.:    10.310 HEAT: -27.02658
 CYCLE:    33 TIME:   0.004 TIME LEFT:  2.00D  GRAD.:    12.486 HEAT: -27.12320
 CYCLE:    34 TIME:   0.004 TIME LEFT:  2.00D  GRAD.:     9.547 HEAT: -27.24481
 CYCLE:    35 TIME:   0.004 TIME LEFT:  2.00D  GRAD.:    18.293 HEAT: -27.28925
 CYCLE:    36 TIME:   0.012 TIME LEFT:  2.00D  GRAD.:    11.284 HEAT: -27.33330
 CYCLE:    37 TIME:   0.004 TIME LEFT:  2.00D  GRAD.:     4.437 HEAT: -27.38750
 CYCLE:    38 TIME:   0.004 TIME LEFT:  2.00D  GRAD.:     3.557 HEAT: -27.41474
 CYCLE:    39 TIME:   0.004 TIME LEFT:  2.00D  GRAD.:     4.693 HEAT: -27.44417
 CYCLE:    40 TIME:   0.004 TIME LEFT:  2.00D  GRAD.:     4.470 HEAT: -27.48645
 CYCLE:    41 TIME:   0.004 TIME LEFT:  2.00D  GRAD.:     8.928 HEAT: -27.54222
 CYCLE:    42 TIME:   0.008 TIME LEFT:  2.00D  GRAD.:     4.654 HEAT: -27.56452
 CYCLE:    43 TIME:   0.004 TIME LEFT:  2.00D  GRAD.:    10.973 HEAT: -27.57573
 CYCLE:    44 TIME:   0.004 TIME LEFT:  2.00D  GRAD.:     2.632 HEAT: -27.60291
 CYCLE:    45 TIME:   0.004 TIME LEFT:  2.00D  GRAD.:     2.060 HEAT: -27.61991
 CYCLE:    46 TIME:   0.004 TIME LEFT:  2.00D  GRAD.:     8.330 HEAT: -27.63823
 CYCLE:    47 TIME:   0.004 TIME LEFT:  2.00D  GRAD.:     1.600 HEAT: -27.64858
 CYCLE:    48 TIME:   0.008 TIME LEFT:  2.00D  GRAD.:     1.519 HEAT: -27.65553
 CYCLE:    49 TIME:   0.004 TIME LEFT:  2.00D  GRAD.:     5.700 HEAT: -27.66248
 CYCLE:    50 TIME:   0.004 TIME LEFT:  2.00D  GRAD.:     1.708 HEAT: -27.66861
 CYCLE:    51 TIME:   0.004 TIME LEFT:  2.00D  GRAD.:     1.014 HEAT: -27.67335
 CYCLE:    52 TIME:   0.004 TIME LEFT:  2.00D  GRAD.:     2.126 HEAT: -27.67911
 CYCLE:    53 TIME:   0.004 TIME LEFT:  2.00D  GRAD.:     0.857 HEAT: -27.68145
 CYCLE:    54 TIME:   0.004 TIME LEFT:  2.00D  GRAD.:     0.894 HEAT: -27.68304
 CYCLE:    55 TIME:   0.004 TIME LEFT:  2.00D  GRAD.:     0.825 HEAT: -27.68538
 CYCLE:    56 TIME:   0.004 TIME LEFT:  2.00D  GRAD.:     0.750 HEAT: -27.68756
 CYCLE:    57 TIME:   0.008 TIME LEFT:  2.00D  GRAD.:     0.760 HEAT: -27.68914
 CYCLE:    58 TIME:   0.004 TIME LEFT:  2.00D  GRAD.:     0.685 HEAT: -27.69039
 CYCLE:    59 TIME:   0.004 TIME LEFT:  2.00D  GRAD.:     0.753 HEAT: -27.69153
 CYCLE:    60 TIME:   0.004 TIME LEFT:  2.00D  GRAD.:     0.719 HEAT: -27.69281
 CYCLE:    61 TIME:   0.004 TIME LEFT:  2.00D  GRAD.:     0.788 HEAT: -27.69436
 CYCLE:    62 TIME:   0.004 TIME LEFT:  2.00D  GRAD.:     0.817 HEAT: -27.69601
 CYCLE:    63 TIME:   0.004 TIME LEFT:  2.00D  GRAD.:     1.035 HEAT: -27.69738
 CYCLE:    64 TIME:   0.008 TIME LEFT:  2.00D  GRAD.:     0.992 HEAT: -27.69898
 CYCLE:    65 TIME:   0.004 TIME LEFT:  2.00D  GRAD.:     1.285 HEAT: -27.70123
 CYCLE:    66 TIME:   0.004 TIME LEFT:  2.00D  GRAD.:     1.009 HEAT: -27.70308
 CYCLE:    67 TIME:   0.004 TIME LEFT:  2.00D  GRAD.:     1.088 HEAT: -27.70758
 CYCLE:    68 TIME:   0.004 TIME LEFT:  2.00D  GRAD.:     1.414 HEAT: -27.71118
 CYCLE:    69 TIME:   0.004 TIME LEFT:  2.00D  GRAD.:     1.906 HEAT: -27.71810
 CYCLE:    70 TIME:   0.008 TIME LEFT:  2.00D  GRAD.:     2.098 HEAT: -27.72587
 CYCLE:    71 TIME:   0.004 TIME LEFT:  2.00D  GRAD.:     2.270 HEAT: -27.73603
 CYCLE:    72 TIME:   0.004 TIME LEFT:  2.00D  GRAD.:     1.925 HEAT: -27.74333
 CYCLE:    73 TIME:   0.004 TIME LEFT:  2.00D  GRAD.:     2.035 HEAT: -27.75967
 CYCLE:    74 TIME:   0.004 TIME LEFT:  2.00D  GRAD.:     1.980 HEAT: -27.77025
 CYCLE:    75 TIME:   0.004 TIME LEFT:  2.00D  GRAD.:     3.422 HEAT: -27.77522
 CYCLE:    76 TIME:   0.008 TIME LEFT:  2.00D  GRAD.:     2.067 HEAT: -27.78552
 CYCLE:    77 TIME:   0.004 TIME LEFT:  2.00D  GRAD.:     1.563 HEAT: -27.79236
 CYCLE:    78 TIME:   0.004 TIME LEFT:  2.00D  GRAD.:     1.831 HEAT: -27.80083
 CYCLE:    79 TIME:   0.004 TIME LEFT:  2.00D  GRAD.:     1.829 HEAT: -27.80473
 CYCLE:    80 TIME:   0.004 TIME LEFT:  2.00D  GRAD.:     1.197 HEAT: -27.80852
 CYCLE:    81 TIME:   0.004 TIME LEFT:  2.00D  GRAD.:     1.209 HEAT: -27.81063
 CYCLE:    82 TIME:   0.004 TIME LEFT:  2.00D  GRAD.:     0.846 HEAT: -27.81263
 CYCLE:    83 TIME:   0.004 TIME LEFT:  2.00D  GRAD.:     0.595 HEAT: -27.81423
 CYCLE:    84 TIME:   0.008 TIME LEFT:  2.00D  GRAD.:     0.507 HEAT: -27.81506
 CYCLE:    85 TIME:   0.004 TIME LEFT:  2.00D  GRAD.:     0.436 HEAT: -27.81551
 CYCLE:    86 TIME:   0.004 TIME LEFT:  2.00D  GRAD.:     0.431 HEAT: -27.81604
 CYCLE:    87 TIME:   0.004 TIME LEFT:  2.00D  GRAD.:     0.509 HEAT: -27.81657
 CYCLE:    88 TIME:   0.004 TIME LEFT:  2.00D  GRAD.:     0.599 HEAT: -27.81736
 CYCLE:    89 TIME:   0.004 TIME LEFT:  2.00D  GRAD.:     0.665 HEAT: -27.81820
 CYCLE:    90 TIME:   0.004 TIME LEFT:  2.00D  GRAD.:     0.770 HEAT: -27.81939
 CYCLE:    91 TIME:   0.008 TIME LEFT:  2.00D  GRAD.:     0.816 HEAT: -27.82031
 CYCLE:    92 TIME:   0.004 TIME LEFT:  2.00D  GRAD.:     1.279 HEAT: -27.82337
 CYCLE:    93 TIME:   0.004 TIME LEFT:  2.00D  GRAD.:     1.163 HEAT: -27.82503
 CYCLE:    94 TIME:   0.004 TIME LEFT:  2.00D  GRAD.:     1.374 HEAT: -27.82960
 CYCLE:    95 TIME:   0.004 TIME LEFT:  2.00D  GRAD.:     1.023 HEAT: -27.83138
 CYCLE:    96 TIME:   0.004 TIME LEFT:  2.00D  GRAD.:     0.792 HEAT: -27.83261
 CYCLE:    97 TIME:   0.008 TIME LEFT:  2.00D  GRAD.:     0.658 HEAT: -27.83393
 CYCLE:    98 TIME:   0.004 TIME LEFT:  2.00D  GRAD.:     0.599 HEAT: -27.83472
 CYCLE:    99 TIME:   0.004 TIME LEFT:  2.00D  GRAD.:     0.434 HEAT: -27.83522
 CYCLE:   100 TIME:   0.004 TIME LEFT:  2.00D  GRAD.:     0.390 HEAT: -27.83554
 CYCLE:   101 TIME:   0.004 TIME LEFT:  2.00D  GRAD.:     0.402 HEAT: -27.83599
 CYCLE:   102 TIME:   0.004 TIME LEFT:  2.00D  GRAD.:     0.318 HEAT: -27.83610
 CYCLE:   103 TIME:   0.004 TIME LEFT:  2.00D  GRAD.:     0.242 HEAT: -27.83626
 CYCLE:   104 TIME:   0.008 TIME LEFT:  2.00D  GRAD.:     0.236 HEAT: -27.83634
 CYCLE:   105 TIME:   0.004 TIME LEFT:  2.00D  GRAD.:     0.376 HEAT: -27.83675
 CYCLE:   106 TIME:   0.004 TIME LEFT:  2.00D  GRAD.:     0.338 HEAT: -27.83694
 CYCLE:   107 TIME:   0.004 TIME LEFT:  2.00D  GRAD.:     0.419 HEAT: -27.83734
 CYCLE:   108 TIME:   0.004 TIME LEFT:  2.00D  GRAD.:     0.302 HEAT: -27.83755
 CYCLE:   109 TIME:   0.004 TIME LEFT:  2.00D  GRAD.:     0.278 HEAT: -27.83779
 CYCLE:   110 TIME:   0.004 TIME LEFT:  2.00D  GRAD.:     0.316 HEAT: -27.83829
 CYCLE:   111 TIME:   0.008 TIME LEFT:  2.00D  GRAD.:     0.394 HEAT: -27.83868
 CYCLE:   112 TIME:   0.004 TIME LEFT:  2.00D  GRAD.:     0.840 HEAT: -27.83935
 CYCLE:   113 TIME:   0.004 TIME LEFT:  2.00D  GRAD.:     0.402 HEAT: -27.83966
 CYCLE:   114 TIME:   0.004 TIME LEFT:  2.00D  GRAD.:     0.263 HEAT: -27.83996
 CYCLE:   115 TIME:   0.004 TIME LEFT:  2.00D  GRAD.:     0.279 HEAT: -27.84019
 CYCLE:   116 TIME:   0.004 TIME LEFT:  2.00D  GRAD.:     0.331 HEAT: -27.84042
 CYCLE:   117 TIME:   0.004 TIME LEFT:  2.00D  GRAD.:     0.397 HEAT: -27.84077
 CYCLE:   118 TIME:   0.004 TIME LEFT:  2.00D  GRAD.:     0.341 HEAT: -27.84095
 CYCLE:   119 TIME:   0.004 TIME LEFT:  2.00D  GRAD.:     0.736 HEAT: -27.84034
 CYCLE:   120 TIME:   0.008 TIME LEFT:  2.00D  GRAD.:     0.265 HEAT: -27.84115
 CYCLE:   121 TIME:   0.004 TIME LEFT:  2.00D  GRAD.:     0.198 HEAT: -27.84120
 CYCLE:   122 TIME:   0.004 TIME LEFT:  2.00D  GRAD.:     0.431 HEAT: -27.84099
 CYCLE:   123 TIME:   0.004 TIME LEFT:  2.00D  GRAD.:     0.089 HEAT: -27.84136
 CYCLE:   124 TIME:   0.004 TIME LEFT:  2.00D  GRAD.:     0.109 HEAT: -27.84142
 CYCLE:   125 TIME:   0.004 TIME LEFT:  2.00D  GRAD.:     0.101 HEAT: -27.84149
 CYCLE:   126 TIME:   0.004 TIME LEFT:  2.00D  GRAD.:     0.069 HEAT: -27.84152
 CYCLE:   127 TIME:   0.004 TIME LEFT:  2.00D  GRAD.:     1.341 HEAT: -27.83740
 CYCLE:   128 TIME:   0.004 TIME LEFT:  2.00D  GRAD.:     0.038 HEAT: -27.84152

     GRADIENT =  0.03844  IS LESS THAN CUTOFF =  0.05000



 -------------------------------------------------------------------------------
 pm3  precise nosym THREADS=1
 InChI=1S/C7H12O2/c1-2-6-3-4-7(5-6)9-8/h2,6-8H,1,3-5H2



     GEOMETRY OPTIMISED USING EIGENVECTOR FOLLOWING (EF).     
     SCF FIELD WAS ACHIEVED                                   


                              PM3 CALCULATION
                                                       MOPAC2016 (Version: 18.184L)
                                                       Sat Jun 15 14:04:58 2019
                                                       No. of days remaining =  18




          FINAL HEAT OF FORMATION =        -27.84152 KCAL/MOL =    -116.48893 KJ/MOL


          TOTAL ENERGY            =      -1599.53224 EV
          ELECTRONIC ENERGY       =      -7678.21031 EV  POINT GROUP:     C1  
          CORE-CORE REPULSION     =       6078.67807 EV
          COSMO AREA              =        172.55 SQUARE ANGSTROMS
          COSMO VOLUME            =        170.05 CUBIC ANGSTROMS

          GRADIENT NORM           =          0.03844 = 0.00839 PER ATOM
          IONIZATION POTENTIAL    =         10.322598 EV
          HOMO LUMO ENERGIES (EV) =        -10.323  1.003
          NO. OF FILLED LEVELS    =         26
          MOLECULAR WEIGHT        =        128.1706

          MOLECULAR DIMENSIONS (Angstroms)

            Atom       Atom       Distance
            H    21    H    20     8.32152
            H    13    H    17     4.06305
            H    18    H    14     3.31256


          SCF CALCULATIONS        =        138
 
          WALL-CLOCK TIME         =          0.605 SECONDS
          COMPUTATION TIME        =          0.556 SECONDS




   ATOM   CHEMICAL          X               Y               Z
  NUMBER   SYMBOL      (ANGSTROMS)     (ANGSTROMS)     (ANGSTROMS)
 
     1       O         -2.33871706  *   0.79947371  *  -0.58414445  *
     2       O         -3.76498297  *   0.68650349  *  -0.08146457  *
     3       C          0.92747017  *  -0.05031228  *   0.35072427  *
     4       C         -1.49291718  *   0.38575891  *   0.47266897  *
     5       C         -0.12573765  *   1.05624227  *   0.22467654  *
     6       C          0.19154931  *  -1.35913323  *   0.04439933  *
     7       C         -1.25501929  *  -1.13816886  *   0.46638591  *
     8       C          2.06949307  *   0.17013573  *  -0.58518915  *
     9       C          3.32482968  *   0.30326276  *  -0.17414990  *
    10       H          1.30081596  *  -0.07985115  *   1.40321364  *
    11       H         -1.92592406  *   0.71011050  *   1.44828312  *
    12       H          0.25342324  *  -1.60162791  *  -1.03426518  *
    13       H          0.64967434  *  -2.21595246  *   0.57010056  *
    14       H         -1.43772114  *  -1.55173324  *   1.47572412  *
    15       H         -1.95849395  *  -1.66668045  *  -0.20334411  *
    16       H         -0.07795417  *   1.53582011  *  -0.77438295  *
    17       H          0.05594617  *   1.86982652  *   0.94983828  *
    18       H          1.81368137  *   0.21544708  *  -1.65166438  *
    19       H          3.61930026  *   0.26374039  *   0.87133792  *
    20       H          4.15068247  *   0.46187848  *  -0.86094847  *
    21       H         -4.15698350  *   0.94020547  *  -0.90063716  *

                             CARTESIAN COORDINATES

   1    O       -2.338717065     0.799473712    -0.584144446
   2    O       -3.764982973     0.686503494    -0.081464567
   3    C        0.927470168    -0.050312276     0.350724273
   4    C       -1.492917179     0.385758909     0.472668968
   5    C       -0.125737647     1.056242272     0.224676543
   6    C        0.191549307    -1.359133230     0.044399333
   7    C       -1.255019286    -1.138168860     0.466385910
   8    C        2.069493071     0.170135725    -0.585189153
   9    C        3.324829680     0.303262761    -0.174149899
  10    H        1.300815959    -0.079851151     1.403213643
  11    H       -1.925924064     0.710110499     1.448283115
  12    H        0.253423241    -1.601627906    -1.034265181
  13    H        0.649674339    -2.215952463     0.570100565
  14    H       -1.437721145    -1.551733237     1.475724122
  15    H       -1.958493955    -1.666680453    -0.203344108
  16    H       -0.077954169     1.535820106    -0.774382950
  17    H        0.055946173     1.869826519     0.949838282
  18    H        1.813681369     0.215447081    -1.651664379
  19    H        3.619300258     0.263740385     0.871337918
  20    H        4.150682473     0.461878485    -0.860948473
  21    H       -4.156983500     0.940205468    -0.900637160


           Empirical Formula: C7 H12 O2  =    21 atoms



      MOLECULAR POINT GROUP   :   C1  


                  EIGENVALUES  
 -41.22393 -35.61714 -33.71515 -31.79228 -28.34825 -26.24925 -20.85152 -20.14702
 -19.93189 -17.84766 -17.36455 -16.90801 -15.87399 -15.42285 -14.86079 -14.32737
 -14.06206 -13.36105 -13.11213 -12.77222 -12.67769 -12.25955 -11.83945 -11.42368
 -10.98254 -10.32260   1.00278   1.15556   3.19108   3.31704   3.44364   3.62255
   3.66349   3.74151   3.81740   3.92434   4.04676   4.08140   4.19692   4.26611
   4.62219   4.79107   4.83396   4.89279   5.01593   5.34095   5.57170   5.79802


              NET ATOMIC CHARGES AND DIPOLE CONTRIBUTIONS

  ATOM NO.   TYPE          CHARGE      No. of ELECS.   s-Pop       p-Pop       
    1          O          -0.149608        6.1496     1.90584     4.24376
    2          O          -0.212178        6.2122     1.86519     4.34698
    3          C          -0.048054        4.0481     1.16997     2.87809
    4          C           0.068605        3.9314     1.18253     2.74887
    5          C          -0.106823        4.1068     1.16988     2.93694
    6          C          -0.093436        4.0934     1.16467     2.92876
    7          C          -0.128384        4.1284     1.17180     2.95658
    8          C          -0.136166        4.1362     1.19747     2.93869
    9          C          -0.158335        4.1583     1.18299     2.97534
   10          H           0.067690        0.9323     0.93231
   11          H           0.073347        0.9267     0.92665
   12          H           0.055886        0.9441     0.94411
   13          H           0.053656        0.9463     0.94634
   14          H           0.054493        0.9455     0.94551
   15          H           0.069896        0.9301     0.93010
   16          H           0.069924        0.9301     0.93008
   17          H           0.058534        0.9415     0.94147
   18          H           0.101451        0.8985     0.89855
   19          H           0.081799        0.9182     0.91820
   20          H           0.079675        0.9203     0.92032
   21          H           0.198027        0.8020     0.80197
 DIPOLE           X         Y         Z       TOTAL
 POINT-CHG.     0.558    -0.129     0.182     0.601
 HYBRID        -0.154     0.067    -0.330     0.370
 SUM            0.404    -0.062    -0.148     0.435


          ATOMIC ORBITAL ELECTRON POPULATIONS

     Atom    s        px        py        pz   
    1  O   1.90584   1.04334   1.88900   1.31141
    2  O   1.86519   1.07272   1.94246   1.33181
    3  C   1.16997   0.94314   0.94935   0.98560
    4  C   1.18253   0.89406   0.93457   0.92024
    5  C   1.16988   0.93246   0.97218   1.03230
    6  C   1.16467   0.94853   0.96373   1.01651
    7  C   1.17180   0.97091   0.96293   1.02274
    8  C   1.19747   0.95275   0.99887   0.98707
    9  C   1.18299   0.96096   1.00710   1.00728
   10  H   0.93231
   11  H   0.92665
   12  H   0.94411
   13  H   0.94634
   14  H   0.94551
   15  H   0.93010
   16  H   0.93008
   17  H   0.94147
   18  H   0.89855
   19  H   0.91820
   20  H   0.92032
   21  H   0.80197
 *******************************************************************************
 ** Site#: 14399        For non-commercial use only    Version 18.184L 64BITS **
 *******************************************************************************
 ** Cite this program as: MOPAC2016, Version: 18.184L, James J. P. Stewart,   **
 ** Stewart Computational Chemistry, web: HTTP://OpenMOPAC.net. Days left:  18**
 *******************************************************************************
 **                                                                           **
 **                                MOPAC2016                                  **
 **                                                                           **
 *******************************************************************************

                              PM3 CALCULATION RESULTS

 *******************************************************************************
 *  CALCULATION DONE:                                Sat Jun 15 14:04:58 2019  *
 *  PM3        - The PM3 Hamiltonian to be used
 *  OLDGEO     - PREVIOUS GEOMETRY TO BE USED
 *  PRECISE    - CRITERIA TO BE INCREASED BY 100 TIMES
 *  NOSYM      - POINT-GROUP SYMMETRY SET TO C1
 *  THREADS=1  - MULTI-THREADING NOT USED
 *  T=         - A TIME OF 172800.0 SECONDS REQUESTED
 *  DUMP=N     - RESTART FILE WRITTEN EVERY  7200.000 SECONDS
 *  THERMO     - THERMODYNAMIC QUANTITIES TO BE CALCULATED
 *******************************************************************************
oldgeo thermo nosym precise THREADS=1  pm3
 InChI=1S/C7H12O2/c1-2-6-3-4-7(5-6)9-8/h2,6-8H,1,3-5H2

   ATOM   CHEMICAL          X               Y               Z
  NUMBER   SYMBOL      (ANGSTROMS)     (ANGSTROMS)     (ANGSTROMS)
 
     1       O         -2.33871706  *   0.79947371  *  -0.58414445  *
     2       O         -3.76498297  *   0.68650349  *  -0.08146457  *
     3       C          0.92747017  *  -0.05031228  *   0.35072427  *
     4       C         -1.49291718  *   0.38575891  *   0.47266897  *
     5       C         -0.12573765  *   1.05624227  *   0.22467654  *
     6       C          0.19154931  *  -1.35913323  *   0.04439933  *
     7       C         -1.25501929  *  -1.13816886  *   0.46638591  *
     8       C          2.06949307  *   0.17013573  *  -0.58518915  *
     9       C          3.32482968  *   0.30326276  *  -0.17414990  *
    10       H          1.30081596  *  -0.07985115  *   1.40321364  *
    11       H         -1.92592406  *   0.71011050  *   1.44828312  *
    12       H          0.25342324  *  -1.60162791  *  -1.03426518  *
    13       H          0.64967434  *  -2.21595246  *   0.57010056  *
    14       H         -1.43772114  *  -1.55173324  *   1.47572412  *
    15       H         -1.95849395  *  -1.66668045  *  -0.20334411  *
    16       H         -0.07795417  *   1.53582011  *  -0.77438295  *
    17       H          0.05594617  *   1.86982652  *   0.94983828  *
    18       H          1.81368137  *   0.21544708  *  -1.65166438  *
    19       H          3.61930026  *   0.26374039  *   0.87133792  *
    20       H          4.15068247  *   0.46187848  *  -0.86094847  *
    21       H         -4.15698350  *   0.94020547  *  -0.90063716  *
 


          CARTESIAN COORDINATES 

    NO.       ATOM           X           Y           Z

     1         O         -2.3387      0.7995     -0.5841
     2         O         -3.7650      0.6865     -0.0815
     3         C          0.9275     -0.0503      0.3507
     4         C         -1.4929      0.3858      0.4727
     5         C         -0.1257      1.0562      0.2247
     6         C          0.1915     -1.3591      0.0444
     7         C         -1.2550     -1.1382      0.4664
     8         C          2.0695      0.1701     -0.5852
     9         C          3.3248      0.3033     -0.1741
    10         H          1.3008     -0.0799      1.4032
    11         H         -1.9259      0.7101      1.4483
    12         H          0.2534     -1.6016     -1.0343
    13         H          0.6497     -2.2160      0.5701
    14         H         -1.4377     -1.5517      1.4757
    15         H         -1.9585     -1.6667     -0.2033
    16         H         -0.0780      1.5358     -0.7744
    17         H          0.0559      1.8698      0.9498
    18         H          1.8137      0.2154     -1.6517
    19         H          3.6193      0.2637      0.8713
    20         H          4.1507      0.4619     -0.8609
    21         H         -4.1570      0.9402     -0.9006

  H: (PM3): J. J. P. STEWART, J. COMP. CHEM. 10, 209 (1989).
  C: (PM3): J. J. P. STEWART, J. COMP. CHEM. 10, 209 (1989).
  O: (PM3): J. J. P. STEWART, J. COMP. CHEM. 10, 209 (1989).

           Empirical Formula: C7 H12 O2  =    21 atoms



      MOLECULAR POINT GROUP   :   C1  


      RHF CALCULATION, NO. OF DOUBLY OCCUPIED LEVELS = 26



          HEAT OF FORMATION =     -27.841522 KCALS/MOLE


          CARTESIAN COORDINATE DERIVATIVES

   NUMBER  ATOM         X            Y            Z

     1       O     -0.001872     0.001906     0.000313
     2       O      0.001707     0.000891     0.004241
     3       C     -0.000977    -0.002003     0.008505
     4       C      0.001168    -0.004340     0.005150
     5       C      0.001554    -0.001518     0.002812
     6       C     -0.002394    -0.002612     0.003587
     7       C     -0.000319    -0.004716     0.000773
     8       C      0.003800     0.002518     0.011155
     9       C      0.004920    -0.007457    -0.006952
    10       H     -0.004945    -0.003891     0.006208
    11       H     -0.001693     0.004121    -0.010026
    12       H     -0.000905    -0.003160     0.002703
    13       H      0.006572     0.001406    -0.001224
    14       H     -0.000561     0.007829    -0.003351
    15       H      0.002237     0.000284    -0.006935
    16       H      0.002852     0.013948    -0.002026
    17       H     -0.000574    -0.005560    -0.002718
    18       H     -0.003212    -0.001584    -0.006147
    19       H      0.006765     0.001850    -0.000693
    20       H     -0.005356     0.001183    -0.004196
    21       H     -0.008768     0.000904    -0.001180
 


          GRADIENT NORM =   0.03673


          TIME FOR SCF CALCULATION =    0.00

          TIME FOR DERIVATIVES     =    0.00

          MOLECULAR WEIGHT =  128.17



          ROTATIONAL CONSTANTS IN CM(-1)

          A =    0.14168618   B =    0.02678958   C =    0.02435815



           PRINCIPAL MOMENTS OF INERTIA IN UNITS OF 10**(-40)*GRAM-CM**2

          A =      197.5688   B =     1044.9126   C =     1149.2157


          ORIENTATION OF MOLECULE IN FORCE CALCULATION

    NO.       ATOM         X         Y         Z

     1          O       1.5756   -1.4331    0.1418
     2          O       3.0921   -1.4331    0.1418
     3          C      -1.1231    0.7988    0.1418
     4          C       1.1612   -0.0961    0.3522
     5          C      -0.2568   -0.1691    0.9556
     6          C      -0.4350    0.9239   -1.2217
     7          C       1.0489    0.6939   -0.9678
     8          C      -2.5239    0.3003    0.0069
     9          C      -3.5782    0.9841    0.4352
    10          H      -1.1232    1.7972    0.6430
    11          H       1.8677    0.4097    1.0519
    12          H      -0.8327    0.1740   -1.9329
    13          H      -0.6278    1.9076   -1.6858
    14          H       1.5862    1.6564   -0.8772
    15          H       1.5279    0.1643   -1.8121
    16          H      -0.6686   -1.1982    0.9150
    17          H      -0.2479    0.1015    2.0268
    18          H      -2.6402   -0.6786   -0.4757
    19          H      -3.5056    1.9557    0.9168
    20          H      -4.5944    0.6158    0.3323
    21          H       3.1703   -2.3519   -0.0551


    FIRST DERIVATIVES WILL BE USED IN THE CALCULATION OF SECOND DERIVATIVES

          ESTIMATED TIME TO COMPLETE CALCULATION =        1.97 SECONDS

    FOR POINT-GROUP C1   THERE ARE   1 UNIQUE SYMMETRY FUNCTIONS.

 STEP:   1 TIME =     0.02 SECS, INTEGRAL =      0.02 TIME LEFT: 172799.97
 STEP:   2 TIME =     0.02 SECS, INTEGRAL =      0.04 TIME LEFT: 172799.96
 STEP:   3 TIME =     0.02 SECS, INTEGRAL =      0.05 TIME LEFT: 172799.94
 STEP:   4 TIME =     0.02 SECS, INTEGRAL =      0.07 TIME LEFT: 172799.92
 STEP:   5 TIME =     0.02 SECS, INTEGRAL =      0.09 TIME LEFT: 172799.90
 STEP:   6 TIME =     0.02 SECS, INTEGRAL =      0.11 TIME LEFT: 172799.88
 STEP:   7 TIME =     0.02 SECS, INTEGRAL =      0.13 TIME LEFT: 172799.86
 STEP:   8 TIME =     0.02 SECS, INTEGRAL =      0.14 TIME LEFT: 172799.85
 STEP:   9 TIME =     0.02 SECS, INTEGRAL =      0.16 TIME LEFT: 172799.83
 STEP:  10 TIME =     0.02 SECS, INTEGRAL =      0.18 TIME LEFT: 172799.81
 STEP:  11 TIME =     0.02 SECS, INTEGRAL =      0.20 TIME LEFT: 172799.80
 STEP:  12 TIME =     0.02 SECS, INTEGRAL =      0.21 TIME LEFT: 172799.78
 STEP:  13 TIME =     0.02 SECS, INTEGRAL =      0.23 TIME LEFT: 172799.76
 STEP:  14 TIME =     0.02 SECS, INTEGRAL =      0.25 TIME LEFT: 172799.74
 STEP:  15 TIME =     0.02 SECS, INTEGRAL =      0.27 TIME LEFT: 172799.72
 STEP:  16 TIME =     0.02 SECS, INTEGRAL =      0.29 TIME LEFT: 172799.71
 STEP:  17 TIME =     0.02 SECS, INTEGRAL =      0.30 TIME LEFT: 172799.69
 STEP:  18 TIME =     0.02 SECS, INTEGRAL =      0.32 TIME LEFT: 172799.67
 STEP:  19 TIME =     0.02 SECS, INTEGRAL =      0.34 TIME LEFT: 172799.65
 STEP:  20 TIME =     0.02 SECS, INTEGRAL =      0.36 TIME LEFT: 172799.63
 STEP:  21 TIME =     0.02 SECS, INTEGRAL =      0.38 TIME LEFT: 172799.61
 STEP:  22 TIME =     0.02 SECS, INTEGRAL =      0.39 TIME LEFT: 172799.60
 STEP:  23 TIME =     0.02 SECS, INTEGRAL =      0.41 TIME LEFT: 172799.58
 STEP:  24 TIME =     0.02 SECS, INTEGRAL =      0.43 TIME LEFT: 172799.56
 STEP:  25 TIME =     0.02 SECS, INTEGRAL =      0.45 TIME LEFT: 172799.55
 STEP:  26 TIME =     0.02 SECS, INTEGRAL =      0.46 TIME LEFT: 172799.53
 STEP:  27 TIME =     0.02 SECS, INTEGRAL =      0.48 TIME LEFT: 172799.51
 STEP:  28 TIME =     0.02 SECS, INTEGRAL =      0.50 TIME LEFT: 172799.49
 STEP:  29 TIME =     0.02 SECS, INTEGRAL =      0.52 TIME LEFT: 172799.48
 STEP:  30 TIME =     0.02 SECS, INTEGRAL =      0.54 TIME LEFT: 172799.46
 STEP:  31 TIME =     0.02 SECS, INTEGRAL =      0.55 TIME LEFT: 172799.44
 STEP:  32 TIME =     0.02 SECS, INTEGRAL =      0.57 TIME LEFT: 172799.42
 STEP:  33 TIME =     0.02 SECS, INTEGRAL =      0.59 TIME LEFT: 172799.40
 STEP:  34 TIME =     0.02 SECS, INTEGRAL =      0.61 TIME LEFT: 172799.38
 STEP:  35 TIME =     0.02 SECS, INTEGRAL =      0.63 TIME LEFT: 172799.36
 STEP:  36 TIME =     0.02 SECS, INTEGRAL =      0.64 TIME LEFT: 172799.35
 STEP:  37 TIME =     0.02 SECS, INTEGRAL =      0.66 TIME LEFT: 172799.33
 STEP:  38 TIME =     0.02 SECS, INTEGRAL =      0.68 TIME LEFT: 172799.31
 STEP:  39 TIME =     0.02 SECS, INTEGRAL =      0.70 TIME LEFT: 172799.30
 STEP:  40 TIME =     0.02 SECS, INTEGRAL =      0.71 TIME LEFT: 172799.28
 STEP:  41 TIME =     0.02 SECS, INTEGRAL =      0.73 TIME LEFT: 172799.26
 STEP:  42 TIME =     0.02 SECS, INTEGRAL =      0.75 TIME LEFT: 172799.25
 STEP:  43 TIME =     0.02 SECS, INTEGRAL =      0.77 TIME LEFT: 172799.23
 STEP:  44 TIME =     0.02 SECS, INTEGRAL =      0.79 TIME LEFT: 172799.21
 STEP:  45 TIME =     0.02 SECS, INTEGRAL =      0.80 TIME LEFT: 172799.19
 STEP:  46 TIME =     0.02 SECS, INTEGRAL =      0.82 TIME LEFT: 172799.17
 STEP:  47 TIME =     0.02 SECS, INTEGRAL =      0.84 TIME LEFT: 172799.16
 STEP:  48 TIME =     0.02 SECS, INTEGRAL =      0.85 TIME LEFT: 172799.14
 STEP:  49 TIME =     0.02 SECS, INTEGRAL =      0.87 TIME LEFT: 172799.12
 STEP:  50 TIME =     0.02 SECS, INTEGRAL =      0.89 TIME LEFT: 172799.11
 STEP:  51 TIME =     0.02 SECS, INTEGRAL =      0.90 TIME LEFT: 172799.09
 STEP:  52 TIME =     0.02 SECS, INTEGRAL =      0.92 TIME LEFT: 172799.07
 STEP:  53 TIME =     0.02 SECS, INTEGRAL =      0.94 TIME LEFT: 172799.05
 STEP:  54 TIME =     0.02 SECS, INTEGRAL =      0.95 TIME LEFT: 172799.04
 STEP:  55 TIME =     0.02 SECS, INTEGRAL =      0.97 TIME LEFT: 172799.02
 STEP:  56 TIME =     0.02 SECS, INTEGRAL =      0.99 TIME LEFT: 172799.00
 STEP:  57 TIME =     0.02 SECS, INTEGRAL =      1.01 TIME LEFT: 172798.98
 STEP:  58 TIME =     0.02 SECS, INTEGRAL =      1.02 TIME LEFT: 172798.97
 STEP:  59 TIME =     0.02 SECS, INTEGRAL =      1.04 TIME LEFT: 172798.95
 STEP:  60 TIME =     0.02 SECS, INTEGRAL =      1.06 TIME LEFT: 172798.93
 STEP:  61 TIME =     0.02 SECS, INTEGRAL =      1.08 TIME LEFT: 172798.91
 STEP:  62 TIME =     0.02 SECS, INTEGRAL =      1.10 TIME LEFT: 172798.89
 STEP:  63 TIME =     0.02 SECS, INTEGRAL =      1.12 TIME LEFT: 172798.88

(To convert to Hartree/Bohr^2, multiply by (10^(-21) x N x a0^2)/(4.184 x 627.51) =  0.0642)


           FORCE MATRIX IN MILLIDYNES/ANGSTROM


                  O  1       O  2       C  3       C  4       C  5       C  6
 ------------------------------------------------------------------------------
     O    1   7.931948
     O    2   2.576147  10.104936
     C    3   0.044802   0.015126  14.797163
     C    4   4.920408   0.981987   0.733658  14.329807
     C    5   0.829505   0.107221   3.768034   3.493568  14.121965
     C    6   0.035063   0.003468   3.775595   0.734769   0.768666  14.391022
     C    7   0.819576   0.045787   0.774967   3.483164   0.673632   4.109248
     C    8   0.009790   0.003992   4.801140   0.048674   0.644484   0.646668
     C    9   0.000986   0.002008   0.820545   0.003792   0.035555   0.036404
     H   10   0.003181   0.001857   4.233837   0.016924   0.423228   0.423074
     H   11   0.453174   0.085846   0.018820   4.241773   0.416732   0.032528
     H   12   0.001429   0.000894   0.456342   0.013800   0.010395   4.488520
     H   13   0.005070   0.000616   0.441710   0.039500   0.043844   4.568766
     H   14   0.045233   0.001749   0.013683   0.426904   0.023526   0.443923
     H   15   0.070794   0.007376   0.040330   0.470177   0.027818   0.436746
     H   16   0.092400   0.006007   0.454512   0.481849   4.447688   0.011037
     H   17   0.028360   0.007964   0.440060   0.443016   4.571491   0.041684
     H   18   0.001672   0.001044   0.436306   0.002382   0.021312   0.021834
     H   19   0.000573   0.000545   0.099066   0.002051   0.011307   0.011355
     H   20   0.000801   0.000648   0.139462   0.003910   0.018509   0.018425
     H   21   1.070137   8.655698   0.003495   0.142833   0.019854   0.001048


                  C  7       C  8       C  9       H 10       H 11       H 12
 ------------------------------------------------------------------------------
     C    7  14.288356
     C    8   0.046085  18.209796
     C    9   0.007404  11.087561  18.037908
     H   10   0.012781   0.445458   0.057385   4.694976
     H   11   0.419295   0.003994   0.000701   0.000843   4.630254
     H   12   0.442043   0.057956   0.002849   0.039373   0.001064   5.106092
     H   13   0.438421   0.011682   0.001898   0.034222   0.003511   0.578064
     H   14   4.536892   0.002568   0.000634   0.001764   0.028384   0.039243
     H   15   4.554616   0.006037   0.001129   0.001003   0.020953   0.032322
     H   16   0.016708   0.064584   0.003347   0.036569   0.030487   0.001426
     H   17   0.033125   0.013975   0.002146   0.033361   0.030746   0.000993
     H   18   0.001652   4.766645   0.452928   0.037823   0.000579   0.027470
     H   19   0.002512   0.490697   5.066341   0.030126   0.000201   0.000792
     H   20   0.003152   0.461019   5.103905   0.002056   0.000325   0.000881
     H   21   0.005629   0.001110   0.000965   0.000533   0.007905   0.000379


                  H 13       H 14       H 15       H 16       H 17       H 18
 ------------------------------------------------------------------------------
     H   13   5.182885
     H   14   0.032011   5.135412
     H   15   0.016371   0.580888   5.180042
     H   16   0.001280   0.000713   0.001852   5.085713
     H   17   0.005206   0.002849   0.002296   0.582028   5.180404
     H   18   0.001451   0.000657   0.000435   0.028343   0.001497   5.141975
     H   19   0.000446   0.000181   0.000268   0.000834   0.000606   0.119674
     H   20   0.000388   0.000203   0.000423   0.000877   0.000674   0.080888
     H   21   0.000376   0.001000   0.002016   0.001220   0.001280   0.000481


                  H 19       H 20       H 21
 ------------------------------------------
     H   19   5.462077
     H   20   0.425049   5.491682
     H   21   0.000262   0.000270   8.992490


          HEAT OF FORMATION =     -27.841522 KCALS/MOLE

          ZERO POINT ENERGY     111.844 KCAL/MOL


           NORMAL COORDINATE ANALYSIS (Total motion = 1 Angstrom)


   Root No.       1         2         3         4         5         6         7         8

                 1 A       2 A       3 A       4 A       5 A       6 A       7 A       8 A   

                  27.3      47.8      60.6      98.4     177.8     275.7     314.1     337.3
  
           1    0.0274   -0.0156   -0.0013    0.0002   -0.0010   -0.0098   -0.0241   -0.0111
           2   -0.0053    0.0057   -0.0046   -0.0069    0.0025   -0.0362   -0.0069    0.0146
           3   -0.0104   -0.0370    0.0539    0.0234   -0.0067   -0.0498    0.0023   -0.0014
           4    0.0274   -0.0160   -0.0010    0.0001   -0.0012   -0.0057   -0.0314   -0.0166
           5    0.0287   -0.0325    0.0221   -0.0035    0.0011    0.0621    0.0290    0.0060
           6    0.0441    0.0692   -0.0418   -0.0039   -0.0457    0.0034    0.0046    0.0018
           7   -0.0038    0.0026   -0.0009    0.0020   -0.0004    0.0069    0.0070   -0.0041
           8   -0.0106    0.0163    0.0062    0.0158   -0.0042    0.0148   -0.0038   -0.0444
           9    0.0020   -0.0223   -0.0263    0.0159    0.0025    0.0084   -0.0255    0.0043
          10   -0.0094    0.0026   -0.0112   -0.0002    0.0021   -0.0177   -0.0147    0.0005
          11   -0.0160    0.0091   -0.0026   -0.0015    0.0030   -0.0455   -0.0054    0.0151
          12   -0.0167   -0.0209    0.0200   -0.0106   -0.0026    0.0013    0.0013    0.0021
          13   -0.0140    0.0052   -0.0248    0.0068    0.0016   -0.0034   -0.0127    0.0120
          14   -0.0471    0.0259   -0.0046    0.0106   -0.0072    0.0253   -0.0083   -0.0033
          15   -0.0316   -0.0132   -0.0133    0.0034   -0.0036    0.0381   -0.0175    0.0249
          16   -0.0131    0.0063    0.0212   -0.0021   -0.0007    0.0107    0.0196   -0.0106
          17    0.0079    0.0154   -0.0046    0.0548    0.0013   -0.0133    0.0214    0.0036
          18   -0.0010   -0.0203   -0.0158    0.0170    0.0028    0.0075   -0.0166    0.0087
          19   -0.0138    0.0060    0.0153   -0.0080    0.0011    0.0029    0.0151   -0.0120
          20   -0.0204    0.0177   -0.0186   -0.0339    0.0165   -0.0314    0.0018    0.0010
          21   -0.0196   -0.0160    0.0082   -0.0285    0.0069    0.0108    0.0025   -0.0063
          22   -0.0150    0.0076   -0.0049    0.0106   -0.0007    0.0095    0.0160   -0.0020
          23    0.0207    0.0007    0.0207   -0.0060   -0.0026    0.0155   -0.0367   -0.0327
          24    0.0038   -0.0178   -0.0371   -0.0027    0.0018   -0.0128    0.0304   -0.0365
          25    0.0024    0.0075    0.0070   -0.0077    0.0002    0.0006    0.0319    0.0471
          26    0.0366   -0.0503   -0.0153   -0.0267    0.0009   -0.0040    0.0001    0.0207
          27    0.0214    0.0633    0.0495   -0.0151   -0.0016   -0.0048    0.0094   -0.0004
          28    0.0213   -0.0073    0.0055   -0.0172    0.0008    0.0019    0.0032   -0.0240
          29   -0.0228    0.0190    0.0070    0.0050   -0.0064    0.0239   -0.0037   -0.0469
          30    0.0263   -0.0278   -0.0278    0.0370    0.0069   -0.0103   -0.0244    0.0138
          31   -0.0310    0.0128   -0.0296    0.0039    0.0025    0.0040   -0.0217    0.0096
          32    0.0046   -0.0034    0.0083    0.0175   -0.0030   -0.0702   -0.0128    0.0214
          33   -0.0096   -0.0220    0.0304   -0.0283    0.0012    0.0005    0.0149   -0.0117
          34   -0.0313    0.0100    0.0254   -0.0515    0.0085    0.0021    0.0170   -0.0123
          35    0.0296    0.0145   -0.0022    0.1187   -0.0046   -0.0177    0.0468    0.0345
          36   -0.0135   -0.0214   -0.0206   -0.0228    0.0039    0.0164   -0.0404   -0.0229
          37   -0.0021    0.0067    0.0385    0.0414   -0.0103    0.0254    0.0386   -0.0177
          38    0.0209    0.0148   -0.0038    0.0919   -0.0015   -0.0172    0.0374    0.0233
          39    0.0220   -0.0218   -0.0213    0.0767    0.0010   -0.0069    0.0091    0.0520
          40    0.0075    0.0026    0.0256    0.0602   -0.0120    0.0151    0.0274   -0.0037
          41   -0.0309    0.0187   -0.0238   -0.0670    0.0225   -0.0395   -0.0063   -0.0017
          42   -0.0341   -0.0068    0.0023   -0.0828    0.0228    0.0254    0.0155   -0.0284
          43   -0.0372    0.0111    0.0206   -0.0768    0.0135    0.0023    0.0214   -0.0263
          44   -0.0351    0.0251   -0.0356   -0.0920    0.0321   -0.0269   -0.0010   -0.0148
          45   -0.0238   -0.0177    0.0218   -0.0317    0.0042    0.0070    0.0079   -0.0048
          46   -0.0125    0.0006   -0.0286   -0.0001    0.0045   -0.0360   -0.0113    0.0294
          47   -0.0455    0.0270   -0.0023    0.0129   -0.0081    0.0373   -0.0099   -0.0114
          48   -0.0857    0.0060   -0.0350    0.0095   -0.0129    0.1145   -0.0271    0.0684
          49   -0.0259    0.0124   -0.0501    0.0212   -0.0006    0.0364   -0.0315    0.0220
          50   -0.0976    0.0429   -0.0156    0.0103   -0.0157    0.0934   -0.0156    0.0356
          51   -0.0189   -0.0175   -0.0104    0.0036   -0.0016    0.0213   -0.0153    0.0156
          52   -0.0389    0.0121   -0.0177    0.0332   -0.0018    0.0184    0.0150   -0.0349
          53    0.0306    0.0304    0.0600   -0.0063   -0.0030    0.0293   -0.0871    0.0008
          54   -0.0104   -0.0793   -0.1139   -0.0079    0.0030   -0.0435    0.1343   -0.0925
          55    0.0263    0.0031    0.0202   -0.0324    0.0018   -0.0121    0.0530    0.1325
          56    0.0278   -0.0815   -0.0553   -0.0272    0.0017   -0.0197    0.0563   -0.0143
          57    0.0357    0.1269    0.1283   -0.0106   -0.0033    0.0286   -0.1065    0.0599
          58   -0.0061    0.0118    0.0042    0.0006   -0.0007    0.0046    0.0286    0.0150
          59    0.0597   -0.0646   -0.0072   -0.0452    0.0036   -0.0075   -0.0171    0.1179
          60    0.0229    0.0718    0.0477   -0.0311   -0.0031   -0.0312    0.1076   -0.0214
          61    0.0554   -0.0244    0.0016   -0.0015   -0.0098    0.0688   -0.0010   -0.0181
          62    0.0295   -0.0314    0.0168   -0.0095   -0.1666    0.0623    0.0312    0.0060
          63    0.0517    0.0606   -0.0161    0.0236    0.7358    0.0355    0.0065    0.0005


   Root No.       9        10        11        12        13        14        15        16

                 9 A      10 A      11 A      12 A      13 A      14 A      15 A      16 A   

                 377.6     446.9     489.1     612.8     644.4     663.1     796.9     811.6
  
           1    0.0228    0.0001    0.0123   -0.0001   -0.0003    0.0172    0.1286    0.0068
           2   -0.0144   -0.0441    0.0202   -0.0131    0.0040   -0.0204    0.0081    0.0166
           3   -0.0003    0.0472   -0.0209    0.0001    0.0048   -0.0076   -0.0012   -0.0015
           4    0.0392    0.0063    0.0338   -0.0018   -0.0012   -0.0352   -0.0974   -0.0059
           5   -0.0173    0.0055   -0.0222    0.0037   -0.0006    0.0099   -0.0123   -0.0013
           6   -0.0040    0.0042   -0.0057    0.0005    0.0003    0.0013   -0.0030   -0.0005
           7   -0.0294    0.0089    0.0042   -0.0303    0.0041   -0.0005   -0.0056   -0.0053
           8   -0.0122    0.0161    0.0377    0.0357   -0.0115    0.0046    0.0132    0.0118
           9   -0.0298    0.0071    0.0001    0.0212    0.0121   -0.0159   -0.0014    0.0148
          10    0.0006   -0.0101   -0.0288    0.0135   -0.0036    0.0557   -0.0180   -0.0034
          11   -0.0172   -0.0324    0.0006   -0.0004    0.0007    0.0032   -0.0109    0.0018
          12    0.0019   -0.0389    0.0308   -0.0119   -0.0142    0.0424   -0.0110   -0.0140
          13   -0.0063    0.0077   -0.0394   -0.0014    0.0022    0.0469   -0.0260   -0.0031
          14    0.0283    0.0026    0.0052    0.0259   -0.0193    0.0147   -0.0161    0.0107
          15    0.0041   -0.0090    0.0117   -0.0285    0.0214   -0.0226   -0.0022    0.0054
          16    0.0035   -0.0334   -0.0252    0.0065    0.0018   -0.0345    0.0064    0.0084
          17    0.0231    0.0141    0.0013   -0.0073   -0.0054    0.0025    0.0114   -0.0270
          18   -0.0071   -0.0102   -0.0082    0.0418    0.0222   -0.0135    0.0059    0.0052
          19    0.0009   -0.0317   -0.0379    0.0197    0.0010   -0.0398    0.0027    0.0036
          20    0.0028    0.0392   -0.0157   -0.0003    0.0087   -0.0200    0.0029   -0.0347
          21    0.0158   -0.0028    0.0177   -0.0020   -0.0124    0.0409   -0.0013   -0.0102
          22   -0.0362    0.0237    0.0337   -0.0175   -0.0037   -0.0031    0.0031   -0.0032
          23   -0.0171   -0.0028   -0.0097   -0.0314    0.0323    0.0101   -0.0025   -0.0037
          24   -0.0030   -0.0063   -0.0136   -0.0169   -0.0579   -0.0192    0.0048   -0.0027
          25   -0.0130    0.0259    0.0435    0.0091   -0.0007   -0.0019    0.0032   -0.0015
          26    0.0142   -0.0040   -0.0083   -0.0004   -0.0017    0.0007   -0.0013   -0.0019
          27    0.0118   -0.0063   -0.0056   -0.0006    0.0039   -0.0000    0.0001   -0.0011
          28   -0.0553    0.0124    0.0061   -0.0820    0.0108   -0.0014   -0.0049   -0.0155
          29   -0.0068    0.0125    0.0424    0.0320   -0.0263    0.0033    0.0098    0.0210
          30   -0.0370    0.0135   -0.0108    0.0264    0.0419   -0.0133    0.0057   -0.0040
          31    0.0045    0.0032   -0.0439    0.0151   -0.0035    0.0942   -0.1087   -0.0049
          32   -0.0277   -0.0251    0.0047   -0.0147    0.0154   -0.0247    0.0758    0.0342
          33    0.0058   -0.0550    0.0403   -0.0032   -0.0247    0.0247    0.0198   -0.0346
          34    0.0075   -0.0269   -0.0375    0.0199    0.0062   -0.0539    0.0250   -0.0678
          35    0.0609   -0.0064   -0.0141   -0.0796   -0.0226    0.0400   -0.0399    0.0786
          36   -0.0475    0.0070    0.0134    0.1074    0.0360   -0.0417    0.0474   -0.0577
          37    0.0320   -0.0626   -0.0148   -0.0110   -0.0312    0.0084   -0.0100    0.1090
          38    0.0465    0.0018   -0.0109   -0.0508   -0.0141    0.0213   -0.0193    0.0363
          39    0.0287   -0.0244   -0.0384   -0.0375    0.0184    0.0047   -0.0491    0.0914
          40    0.0030   -0.0925   -0.0278    0.0422    0.0023   -0.0644    0.0275   -0.1097
          41   -0.0003    0.0650   -0.0201   -0.0110    0.0083   -0.0051   -0.0120    0.0214
          42    0.0417    0.1025   -0.0032   -0.0299   -0.0147    0.0198    0.0139    0.1183
          43    0.0084    0.0200   -0.0438   -0.0209   -0.0108   -0.0425   -0.0136    0.1260
          44    0.0190    0.1380   -0.0410   -0.0146    0.0150   -0.0298    0.0112    0.0933
          45    0.0102   -0.0308    0.0295   -0.0173   -0.0231    0.0466   -0.0161   -0.0165
          46   -0.0094   -0.0188   -0.0539   -0.0096    0.0039    0.0720   -0.0509   -0.0118
          47    0.0286    0.0123    0.0123    0.0305   -0.0199    0.0061   -0.0052    0.0154
          48    0.0836    0.0161   -0.0254   -0.0979    0.0587   -0.0997    0.1316   -0.0498
          49    0.0093    0.0446   -0.0709    0.0016    0.0361   -0.0144    0.0302    0.0080
          50    0.1078    0.0157   -0.0197   -0.0412    0.0044   -0.0352    0.1053   -0.0472
          51   -0.0153   -0.0123    0.0178   -0.0134    0.0158   -0.0116   -0.0302    0.0186
          52   -0.0556    0.0352    0.0583   -0.0056   -0.0005   -0.0052    0.0158    0.0090
          53   -0.0316    0.0045   -0.0223   -0.0329    0.0007    0.0059   -0.0103   -0.0001
          54    0.0340   -0.0239    0.0063   -0.0138    0.0054   -0.0102    0.0178   -0.0125
          55    0.0233    0.0328    0.0626    0.0875   -0.0215   -0.0061    0.0107    0.0240
          56    0.0333   -0.0144    0.0068    0.0028    0.0857    0.0188   -0.0103    0.0025
          57   -0.0307    0.0138   -0.0383   -0.0149   -0.1697   -0.0360    0.0174   -0.0125
          58   -0.0248    0.0240    0.0420   -0.0173    0.0234    0.0036   -0.0003   -0.0096
          59    0.0304    0.0082   -0.0138    0.0631   -0.1443   -0.0335    0.0171    0.0151
          60    0.0715   -0.0253    0.0403    0.0472    0.2739    0.0668   -0.0277    0.0231
          61    0.0259    0.0335   -0.0121    0.0141   -0.0050    0.0240   -0.0086   -0.0178
          62   -0.0187    0.0103   -0.0271    0.0053   -0.0008    0.0132   -0.0136   -0.0030
          63   -0.0014   -0.0054   -0.0011    0.0004   -0.0007    0.0050   -0.0028   -0.0011


   Root No.      17        18        19        20        21        22        23        24

                17 A      18 A      19 A      20 A      21 A      22 A      23 A      24 A   

                 886.0     911.8     936.6     957.5    1009.1    1021.2    1030.6    1049.5
  
           1    0.0151    0.0120   -0.0004   -0.0009    0.0043    0.0019   -0.0001   -0.0036
           2   -0.0221   -0.0211   -0.0041   -0.0078    0.0042   -0.0069    0.0087   -0.0123
           3   -0.0025   -0.0022   -0.0005   -0.0001    0.0029   -0.0013    0.0005   -0.0005
           4   -0.0061   -0.0042    0.0002    0.0004   -0.0007    0.0008   -0.0009    0.0009
           5   -0.0014   -0.0011    0.0003    0.0004   -0.0014   -0.0011    0.0005    0.0009
           6   -0.0004   -0.0004    0.0000    0.0001    0.0000   -0.0003    0.0000    0.0003
           7    0.0108   -0.0075   -0.0013    0.0094   -0.0026   -0.0082    0.0101   -0.0107
           8    0.0074   -0.0161   -0.0001    0.0076    0.0003    0.0050   -0.0117    0.0141
           9    0.0057   -0.0044   -0.0067    0.0054   -0.0018    0.0207   -0.0084   -0.0038
          10   -0.0040    0.0028    0.0052    0.0089   -0.0247   -0.0130    0.0049    0.0179
          11    0.0013    0.0050    0.0021    0.0020   -0.0009    0.0041   -0.0068    0.0113
          12    0.0093    0.0041    0.0008    0.0107   -0.0303    0.0086   -0.0003   -0.0048
          13    0.0017   -0.0217   -0.0031   -0.0107    0.0129    0.0103   -0.0046   -0.0175
          14    0.0049    0.0259   -0.0014   -0.0042    0.0072    0.0023    0.0094   -0.0276
          15    0.0661    0.0065    0.0118   -0.0156    0.0003   -0.0066   -0.0018    0.0068
          16    0.0080   -0.0057    0.0018   -0.0107    0.0064   -0.0116    0.0019    0.0176
          17    0.0172   -0.0224   -0.0020   -0.0207   -0.0253    0.0024    0.0068   -0.0062
          18   -0.0357    0.0183    0.0096    0.0043    0.0021   -0.0262    0.0120    0.0066
          19    0.0043    0.0109   -0.0013    0.0112   -0.0136    0.0172   -0.0045   -0.0150
          20    0.0191    0.0206    0.0007    0.0164    0.0159    0.0039   -0.0108    0.0154
          21   -0.0239   -0.0159   -0.0062   -0.0075    0.0390   -0.0050   -0.0040    0.0072
          22   -0.0153    0.0098   -0.0033    0.0021    0.0024   -0.0023    0.0042    0.0007
          23   -0.0087    0.0013    0.0227    0.0092    0.0029   -0.0125   -0.0066   -0.0084
          24   -0.0012    0.0040   -0.0467    0.0022    0.0026    0.0088    0.0256    0.0122
          25   -0.0218    0.0211    0.0023   -0.0180   -0.0024    0.0049   -0.0086    0.0030
          26   -0.0083    0.0113    0.0095   -0.0162    0.0013    0.0193    0.0121    0.0088
          27   -0.0024    0.0046   -0.0128   -0.0081   -0.0080   -0.0227   -0.0364   -0.0113
          28    0.0112   -0.0358   -0.0107    0.0878    0.0123   -0.0520    0.0437   -0.0256
          29    0.0241    0.0076   -0.0028    0.0135    0.0417   -0.0209    0.0037    0.0269
          30   -0.0320   -0.0473   -0.0011   -0.0036   -0.0848    0.0703   -0.0369   -0.0307
          31    0.0272   -0.0017    0.0186   -0.0164   -0.0194   -0.0613    0.0188    0.0677
          32    0.0127   -0.0098    0.0056   -0.0301    0.0242   -0.0195   -0.0035    0.0464
          33   -0.0324    0.0164   -0.0159    0.0582   -0.0529    0.0750   -0.0171   -0.0813
          34    0.0216   -0.0016   -0.0187   -0.0359    0.0751   -0.0416    0.0352   -0.0320
          35    0.0000    0.0355    0.0021    0.0421    0.0245    0.0138   -0.0202    0.0129
          36   -0.0256   -0.0426    0.0171   -0.0451   -0.0862   -0.0200    0.0204    0.0147
          37   -0.0212   -0.0471    0.0016   -0.0273    0.0189   -0.0110   -0.0437    0.1787
          38    0.0020    0.0188    0.0020    0.0190    0.0111    0.0035   -0.0050   -0.0026
          39   -0.0576    0.1190    0.0173    0.0910    0.0725   -0.0236    0.0075   -0.0563
          40    0.0146   -0.0021   -0.0173   -0.0139    0.0705   -0.0127    0.0323   -0.0738
          41    0.0151    0.0327    0.0099    0.0361   -0.0265    0.0246   -0.0395    0.0605
          42   -0.0392   -0.0713   -0.0025   -0.0775   -0.0223   -0.0504    0.0808   -0.1024
          43    0.0165   -0.0085   -0.0011    0.0083   -0.0830    0.1018   -0.0512   -0.0331
          44    0.0013    0.0043    0.0173   -0.0169   -0.0657   -0.0520    0.0520   -0.0134
          45   -0.0064   -0.0168   -0.0158    0.0117    0.0474    0.0770   -0.0683    0.0139
          46    0.0061   -0.0085    0.0203   -0.0182   -0.0243   -0.0096    0.0102    0.0002
          47    0.0056    0.0220   -0.0108   -0.0019    0.0232    0.0098    0.0037   -0.0354
          48   -0.0945   -0.0657   -0.0090    0.0452   -0.0464    0.0084   -0.0227    0.0620
          49   -0.0615   -0.1039   -0.0302   -0.0149    0.1260    0.0899   -0.0902   -0.0292
          50   -0.1547   -0.0141   -0.0204    0.0612   -0.0711   -0.0172    0.0264    0.0273
          51    0.1051    0.0159    0.0162   -0.0306    0.0174   -0.0005   -0.0062   -0.0075
          52   -0.0037   -0.0277    0.0179    0.0697    0.0214   -0.0210    0.0020    0.0068
          53   -0.0017    0.0179   -0.1777   -0.0011    0.0005    0.0112    0.0383    0.0167
          54   -0.0167   -0.0221    0.3546    0.0072    0.0032   -0.0347   -0.0654   -0.0400
          55    0.0714   -0.0918    0.0006    0.1109    0.0183   -0.0284    0.0350   -0.0072
          56   -0.0048    0.0214   -0.1180   -0.0232   -0.0177   -0.0369   -0.0627   -0.0158
          57   -0.0186   -0.0040    0.2438   -0.0083    0.0277    0.0945    0.1088    0.0394
          58   -0.0581    0.0622    0.0118   -0.0594   -0.0044    0.0290   -0.0052    0.0131
          59    0.0793   -0.0912   -0.0214    0.0864   -0.0037   -0.0814   -0.0482   -0.0325
          60    0.0488   -0.0466    0.0008    0.0539    0.0339    0.0944    0.1482    0.0369
          61    0.0281    0.0272    0.0065    0.0107   -0.0102    0.0057   -0.0112    0.0238
          62    0.0010    0.0013    0.0010    0.0015   -0.0025   -0.0007   -0.0007    0.0038
          63    0.0005    0.0004    0.0005    0.0006   -0.0015    0.0000    0.0000    0.0004


   Root No.      25        26        27        28        29        30        31        32

                25 A      26 A      27 A      28 A      29 A      30 A      31 A      32 A   

                1065.0    1099.4    1115.9    1124.6    1140.7    1145.4    1184.7    1210.5
  
           1    0.0013    0.0006    0.0057    0.0075   -0.0011   -0.0078    0.0003    0.0008
           2   -0.0230   -0.0096    0.0087    0.0114   -0.0007   -0.0165   -0.0037   -0.0033
           3   -0.0062   -0.0005    0.0045    0.0034   -0.0000   -0.0071    0.0001   -0.0010
           4    0.0036    0.0022   -0.0029   -0.0033    0.0004    0.0026    0.0001   -0.0004
           5   -0.0023   -0.0018    0.0006    0.0001   -0.0000   -0.0001   -0.0002   -0.0002
           6   -0.0006   -0.0004    0.0004    0.0002   -0.0001   -0.0005   -0.0000   -0.0001
           7   -0.0005    0.0103   -0.0204    0.0268   -0.0102    0.0011   -0.0161   -0.0135
           8   -0.0123   -0.0104    0.0037   -0.0214   -0.0026    0.0043    0.0187   -0.0437
           9    0.0046   -0.0016    0.0190    0.0009    0.0084    0.0077    0.0135   -0.0218
          10   -0.0263   -0.0244    0.0037   -0.0046    0.0033    0.0243    0.0019    0.0086
          11    0.0220    0.0045    0.0008   -0.0103   -0.0047    0.0101    0.0086    0.0072
          12   -0.0108    0.0006   -0.0187   -0.0109    0.0170    0.0204   -0.0020   -0.0041
          13    0.0046    0.0245   -0.0143   -0.0134    0.0024   -0.0156   -0.0030   -0.0160
          14    0.0178    0.0156    0.0026    0.0295    0.0076    0.0017    0.0039    0.0180
          15   -0.0103   -0.0011    0.0049   -0.0063   -0.0054   -0.0042    0.0015    0.0047
          16    0.0077    0.0022   -0.0138    0.0151    0.0304   -0.0077    0.0012   -0.0120
          17    0.0064   -0.0135   -0.0171    0.0009   -0.0048   -0.0116    0.0067    0.0158
          18    0.0048    0.0044   -0.0271    0.0011   -0.0082   -0.0178    0.0040    0.0124
          19   -0.0074   -0.0045    0.0115   -0.0131   -0.0287    0.0095   -0.0044    0.0111
          20   -0.0101    0.0181    0.0101    0.0050   -0.0044    0.0053   -0.0082   -0.0058
          21    0.0136   -0.0026    0.0093    0.0093   -0.0170    0.0044   -0.0058    0.0036
          22    0.0054   -0.0002    0.0017   -0.0016    0.0051   -0.0042   -0.0300   -0.0033
          23    0.0090    0.0017    0.0040   -0.0032    0.0072   -0.0061   -0.0316    0.0082
          24    0.0025   -0.0027   -0.0009   -0.0008    0.0043   -0.0025   -0.0137    0.0048
          25   -0.0037   -0.0028    0.0042   -0.0033   -0.0023    0.0028    0.0088   -0.0038
          26   -0.0043   -0.0030    0.0026   -0.0061    0.0022    0.0007    0.0159    0.0121
          27   -0.0004    0.0003    0.0025   -0.0025    0.0014    0.0003    0.0074    0.0063
          28    0.0272    0.0237   -0.0135    0.0996   -0.0950    0.0477    0.3169    0.0331
          29   -0.0481   -0.0151   -0.0466   -0.0874   -0.0537   -0.0405    0.0338   -0.0445
          30    0.0785    0.0059    0.1194    0.1314    0.1100    0.0962   -0.0165   -0.0273
          31   -0.0375   -0.1436    0.0961    0.0660   -0.0438   -0.0301   -0.0169   -0.0042
          32    0.1370    0.0041   -0.1134   -0.0808   -0.0253    0.2054   -0.0364    0.0055
          33   -0.0811    0.1216   -0.0340   -0.0359    0.0791   -0.0560    0.0488    0.0114
          34    0.0571   -0.1204   -0.0155   -0.0277    0.1916   -0.0197    0.1001   -0.0753
          35   -0.0219    0.0113    0.0188   -0.0105   -0.0149    0.0134   -0.0012   -0.0113
          36    0.0082    0.0454   -0.0641    0.0370   -0.0873   -0.0381   -0.0407    0.0732
          37   -0.0230    0.1673    0.0534    0.0507    0.0218    0.0010    0.0171    0.0376
          38   -0.0028   -0.0065   -0.0007   -0.0035   -0.0006    0.0008    0.0015   -0.0111
          39    0.0025   -0.0490   -0.0176   -0.0205    0.0054    0.0060   -0.0162   -0.0648
          40   -0.0325    0.0453    0.1201   -0.0594   -0.0927    0.0879   -0.0318   -0.0134
          41    0.0066   -0.0113   -0.0544    0.0368    0.0318   -0.0425    0.0071    0.0095
          42   -0.0002    0.0178    0.0493   -0.0598   -0.0354    0.0607   -0.0046   -0.0063
          43    0.0752   -0.0978   -0.0283   -0.0079   -0.0839   -0.0626    0.0031    0.0211
          44   -0.0496    0.0413   -0.0086   -0.0371    0.0529    0.0490    0.0137    0.0024
          45    0.0842   -0.0679   -0.0037    0.0383   -0.0839   -0.0625   -0.0158    0.0047
          46    0.1144    0.0859    0.0722   -0.1222   -0.0074   -0.1193    0.0676   -0.0742
          47   -0.0266   -0.0091   -0.0331    0.0754    0.0113    0.0443   -0.0243    0.0418
          48   -0.0167   -0.0276    0.0125   -0.0585   -0.0056    0.0144    0.0194   -0.0349
          49   -0.1032   -0.0342   -0.0865   -0.0044    0.0314    0.0536    0.0232    0.0887
          50    0.0467    0.0005    0.0199   -0.0017   -0.0074   -0.0030   -0.0130   -0.0647
          51   -0.0163    0.0046    0.0014    0.0014   -0.0009   -0.0023    0.0073    0.0244
          52    0.0426   -0.0322    0.0824   -0.1122    0.0911   -0.0342    0.0196    0.3040
          53    0.0045    0.0031   -0.0054   -0.0001   -0.0021   -0.0072   -0.0372   -0.0144
          54    0.0030    0.0021   -0.0016    0.0194    0.0031    0.0065   -0.0184   -0.0324
          55    0.0256    0.0036    0.0018    0.0057    0.0049   -0.0085   -0.0593    0.0016
          56   -0.0019    0.0005    0.0055   -0.0073    0.0022    0.0002    0.0155    0.0124
          57   -0.0085   -0.0076   -0.0027   -0.0032    0.0032    0.0015    0.0123    0.0064
          58   -0.0119   -0.0072    0.0102   -0.0085   -0.0064    0.0078    0.0412    0.0083
          59    0.0179    0.0078   -0.0090    0.0039    0.0132   -0.0120   -0.0642   -0.0129
          60    0.0079    0.0020   -0.0055    0.0045    0.0081   -0.0058   -0.0353   -0.0072
          61    0.0286    0.0048   -0.0107   -0.0173   -0.0001    0.0356    0.0070    0.0107
          62    0.0004   -0.0019   -0.0005   -0.0019   -0.0002    0.0040    0.0005    0.0010
          63   -0.0008    0.0002   -0.0005   -0.0007    0.0006    0.0010    0.0002    0.0001


   Root No.      33        34        35        36        37        38        39        40

                33 A      34 A      35 A      36 A      37 A      38 A      39 A      40 A   

                1235.4    1248.7    1259.8    1286.4    1299.1    1327.4    1360.1    1404.3
  
           1    0.0044    0.0053    0.0051    0.0010   -0.0001   -0.0018    0.0049   -0.0003
           2    0.0097   -0.0127   -0.0079   -0.0128    0.0088    0.0007   -0.0146   -0.0009
           3   -0.0002   -0.0018   -0.0021   -0.0005    0.0001    0.0006   -0.0010    0.0004
           4    0.0001    0.0001    0.0003   -0.0000   -0.0000   -0.0001    0.0008   -0.0002
           5   -0.0002   -0.0018   -0.0015   -0.0016    0.0012    0.0002   -0.0035   -0.0004
           6   -0.0001   -0.0003   -0.0003   -0.0002    0.0001    0.0001   -0.0005   -0.0001
           7    0.0081   -0.0210    0.0023    0.0261   -0.0054   -0.0096    0.0094    0.0331
           8    0.0228    0.0016   -0.0335    0.0021   -0.0168    0.0052    0.0065    0.0025
           9   -0.0244   -0.0272    0.0560    0.0112    0.0360    0.0034   -0.0016    0.0032
          10   -0.0426   -0.0170   -0.0224    0.0059   -0.0037    0.0104   -0.0418    0.0016
          11   -0.0312    0.0276    0.0116    0.0371   -0.0248   -0.0015    0.0542    0.0048
          12    0.0448    0.0192    0.0395   -0.0144    0.0035   -0.0065   -0.0031   -0.0045
          13    0.0277   -0.0246   -0.0027   -0.0241   -0.0169    0.0113    0.0336   -0.0143
          14   -0.0045    0.0062    0.0045    0.0006    0.0146   -0.0058   -0.0219   -0.0004
          15   -0.0084   -0.0008   -0.0286   -0.0046   -0.0098    0.0030    0.0017    0.0027
          16    0.0188    0.0017    0.0074    0.0376    0.0129    0.0378   -0.0132   -0.0141
          17   -0.0148   -0.0005    0.0046   -0.0032    0.0088   -0.0040    0.0015    0.0041
          18    0.0030    0.0087   -0.0049   -0.0166   -0.0238   -0.0144    0.0038   -0.0175
          19   -0.0006    0.0024   -0.0228   -0.0169    0.0295   -0.0212    0.0319   -0.0136
          20    0.0179   -0.0046    0.0151   -0.0042   -0.0124    0.0092   -0.0236   -0.0126
          21   -0.0141   -0.0094   -0.0326    0.0067    0.0274   -0.0065    0.0198    0.0211
          22   -0.0158    0.0153    0.0006   -0.0043   -0.0004   -0.0218   -0.0093   -0.0131
          23   -0.0211    0.0178    0.0077   -0.0169    0.0062    0.0048   -0.0033   -0.0086
          24   -0.0039    0.0141   -0.0079   -0.0070   -0.0026    0.0054   -0.0018   -0.0038
          25   -0.0027    0.0032    0.0003   -0.0017    0.0004   -0.0097   -0.0049   -0.0089
          26    0.0149   -0.0127   -0.0025    0.0064   -0.0019    0.0086    0.0050    0.0080
          27    0.0058   -0.0085    0.0022    0.0033    0.0007    0.0049    0.0030    0.0049
          28    0.0112    0.0283   -0.0023   -0.0327    0.0024   -0.0026   -0.0200   -0.0399
          29   -0.0238   -0.0310    0.0643    0.0131    0.0301    0.0047    0.0039    0.0062
          30    0.0666    0.0394   -0.1392   -0.0120   -0.0567    0.0045    0.0031   -0.0040
          31    0.0843    0.0788    0.0960    0.0107    0.0004   -0.0254    0.0622   -0.0015
          32    0.0250   -0.0557   -0.0276   -0.0501    0.0427    0.0019   -0.0774   -0.0091
          33   -0.1260   -0.0191   -0.0534    0.0429   -0.0490    0.0278   -0.0154    0.0081
          34   -0.0817   -0.0129    0.0355   -0.0865   -0.0705   -0.0706    0.0134    0.0389
          35    0.0029   -0.0122   -0.0051    0.0015    0.0405   -0.0055    0.0279   -0.0947
          36    0.0404    0.0296   -0.0087    0.0467   -0.0160    0.0487   -0.0429    0.0719
          37   -0.0425   -0.0062    0.0804   -0.0902   -0.0764   -0.0590   -0.0249    0.0516
          38    0.0071    0.0035   -0.0034    0.0034   -0.0182    0.0078   -0.0167    0.0614
          39    0.0758    0.0226   -0.0506    0.0512   -0.0526    0.0527   -0.0357    0.0995
          40    0.0113    0.0021    0.0684   -0.0205   -0.0832   -0.0006   -0.0563    0.0807
          41    0.0128   -0.0071   -0.0432   -0.0120    0.0600   -0.0110    0.0283   -0.0359
          42   -0.0284    0.0247    0.0602    0.0747   -0.0836    0.0538   -0.0135   -0.1361
          43   -0.0184   -0.0070    0.0541   -0.0571   -0.0950   -0.0141   -0.0702    0.0831
          44    0.0168    0.0310   -0.0048   -0.0308    0.0434   -0.0525    0.0525    0.1437
          45   -0.0218   -0.0360    0.0231    0.0047   -0.0763    0.0387   -0.0835   -0.0374
          46    0.0399    0.1047   -0.0443    0.0259    0.0953   -0.0349   -0.1317    0.0367
          47   -0.0099   -0.0467    0.0228   -0.0202   -0.0297    0.0128    0.0456   -0.0157
          48   -0.0135    0.0193   -0.0392    0.0244   -0.0232    0.0062   -0.0075   -0.0390
          49    0.0182    0.1604    0.0352    0.0357    0.0290   -0.0397   -0.0563    0.0341
          50    0.0122   -0.0653    0.0703   -0.0030    0.0123    0.0078    0.0487    0.0385
          51   -0.0131    0.0159   -0.0479   -0.0040   -0.0108    0.0004   -0.0158   -0.0111
          52    0.0996   -0.0865    0.0054    0.0306   -0.0115    0.0234    0.0127    0.0145
          53   -0.0223    0.0350   -0.0074   -0.0187    0.0018    0.0034   -0.0072   -0.0111
          54   -0.0340    0.0085    0.0214   -0.0149    0.0102   -0.0023   -0.0004   -0.0071
          55   -0.0720    0.0884    0.0127   -0.1127    0.0360    0.2072    0.0423    0.0363
          56    0.0150   -0.0200    0.0033    0.0129   -0.0004   -0.0041    0.0023    0.0061
          57    0.0193   -0.0114   -0.0122    0.0147   -0.0104   -0.0182   -0.0020   -0.0007
          58   -0.0025    0.0110    0.0028   -0.0317    0.0120    0.0764    0.0168    0.0135
          59    0.0091   -0.0241   -0.0078    0.0669   -0.0267   -0.1779   -0.0433   -0.0440
          60    0.0031   -0.0146    0.0009    0.0371   -0.0102   -0.0953   -0.0235   -0.0225
          61   -0.0341    0.0310    0.0174    0.0437   -0.0327    0.0016    0.0540    0.0095
          62   -0.0046    0.0014    0.0000    0.0036   -0.0027    0.0006    0.0026    0.0008
          63   -0.0004    0.0006    0.0004    0.0005   -0.0003    0.0000    0.0003    0.0003


   Root No.      41        42        43        44        45        46        47        48

                41 A      42 A      43 A      44 A      45 A      46 A      47 A      48 A   

                1411.5    1415.2    1423.6    1481.6    1861.9    2863.8    2878.5    2967.8
  
           1    0.0018    0.0009   -0.0002   -0.0213    0.0000    0.0007    0.0000   -0.0005
           2   -0.0004    0.0005   -0.0008    0.0551    0.0001    0.0011   -0.0000    0.0002
           3   -0.0003   -0.0006    0.0006    0.0096   -0.0000    0.0003   -0.0000    0.0002
           4    0.0004   -0.0001   -0.0002   -0.0229   -0.0000    0.0002   -0.0000    0.0000
           5    0.0003    0.0002   -0.0004   -0.0366    0.0000   -0.0007    0.0000   -0.0000
           6    0.0000   -0.0001   -0.0000   -0.0081    0.0000   -0.0002   -0.0000    0.0000
           7   -0.0155    0.0639   -0.0005   -0.0034   -0.0390    0.0004   -0.0002    0.0001
           8   -0.0083    0.0045    0.0012   -0.0014   -0.0044   -0.0000   -0.0568   -0.0024
           9    0.0122   -0.0027   -0.0056    0.0017    0.0011   -0.0000   -0.0285   -0.0010
          10   -0.0074   -0.0005    0.0016   -0.0059    0.0011   -0.0443   -0.0000   -0.0017
          11    0.0018   -0.0041    0.0042   -0.0358   -0.0008   -0.0304    0.0000   -0.0011
          12    0.0041    0.0043   -0.0030    0.0011    0.0003   -0.0426   -0.0000   -0.0013
          13    0.0193   -0.0222    0.0029    0.0051   -0.0015    0.0003    0.0015   -0.0139
          14    0.0192    0.0170    0.0042    0.0067    0.0002    0.0030    0.0030   -0.0407
          15   -0.0321   -0.0172   -0.0066   -0.0035   -0.0004    0.0028    0.0031   -0.0261
          16    0.0028   -0.0252    0.0283   -0.0015   -0.0017    0.0002    0.0008    0.0010
          17    0.0042   -0.0041   -0.0082    0.0002   -0.0003   -0.0002    0.0042    0.0060
          18   -0.0179    0.0233    0.0276   -0.0008    0.0005    0.0003    0.0001    0.0015
          19   -0.0007    0.0103   -0.0353    0.0030    0.0012    0.0003   -0.0001   -0.0001
          20   -0.0049    0.0053   -0.0056    0.0026    0.0002    0.0033   -0.0002   -0.0010
          21    0.0077   -0.0085    0.0102   -0.0003   -0.0008    0.0008   -0.0001   -0.0006
          22    0.0060   -0.0210    0.0005    0.0009    0.2067   -0.0000    0.0001    0.0003
          23    0.0054   -0.0144   -0.0001    0.0012   -0.0880   -0.0000    0.0014   -0.0004
          24   -0.0003   -0.0058    0.0014   -0.0001   -0.0609    0.0000    0.0007    0.0000
          25    0.0041   -0.0164   -0.0005    0.0007   -0.1605    0.0000   -0.0003   -0.0001
          26   -0.0039    0.0134    0.0000   -0.0007    0.1000    0.0000   -0.0004    0.0000
          27   -0.0018    0.0081   -0.0002   -0.0003    0.0631   -0.0000   -0.0002    0.0000
          28    0.0150   -0.0784    0.0015    0.0034    0.0475    0.0001    0.0005   -0.0022
          29    0.0137    0.0015   -0.0078    0.0008   -0.0032   -0.0016    0.6853    0.0278
          30   -0.0320    0.0058    0.0125   -0.0026   -0.0054   -0.0004    0.3444    0.0101
          31    0.0185    0.0106   -0.0033   -0.0166    0.0009    0.5193   -0.0009    0.0206
          32   -0.0064    0.0094   -0.0130   -0.0027    0.0008    0.3549   -0.0005    0.0113
          33   -0.0160   -0.0175    0.0139   -0.0155   -0.0001    0.5089   -0.0004    0.0153
          34    0.0018    0.0503   -0.0720    0.0004   -0.0082    0.0001   -0.0140   -0.0196
          35   -0.0641    0.0435    0.1497   -0.0026   -0.0035    0.0005   -0.0229   -0.0373
          36    0.0653   -0.0758   -0.1077    0.0017    0.0052    0.0004   -0.0178   -0.0355
          37    0.0207    0.0286   -0.1045    0.0047    0.0001    0.0010    0.0080    0.0078
          38    0.0416   -0.0302   -0.0981    0.0019   -0.0009   -0.0020   -0.0274   -0.0364
          39    0.0699   -0.0647   -0.1434    0.0010    0.0004    0.0009    0.0089    0.0183
          40    0.0069   -0.0279    0.1154   -0.0072    0.0006   -0.0156    0.0003    0.0039
          41   -0.0018    0.0142   -0.0614    0.0077    0.0004   -0.0239    0.0009    0.0080
          42   -0.0375    0.0558   -0.1156   -0.0115    0.0006   -0.0075   -0.0002    0.0004
          43    0.0045   -0.0267    0.1216    0.0002    0.0014    0.0078   -0.0003   -0.0032
          44    0.0391   -0.0601    0.1362   -0.0133   -0.0011   -0.0099    0.0005    0.0037
          45   -0.0200    0.0187   -0.0068    0.0082   -0.0002   -0.0122    0.0008    0.0064
          46   -0.0553    0.0641   -0.0088    0.0279   -0.0105   -0.0073   -0.0158    0.1722
          47    0.0175   -0.0299    0.0034   -0.0049    0.0022   -0.0273   -0.0303    0.4260
          48    0.2481    0.0994    0.0459    0.0029   -0.0051   -0.0028   -0.0033    0.0145
          49   -0.1101    0.0109   -0.0169   -0.0115    0.0002   -0.0057    0.0030   -0.0020
          50   -0.2186   -0.0913   -0.0413   -0.0147   -0.0007   -0.0074   -0.0110    0.0631
          51    0.0489    0.0169    0.0084    0.0030   -0.0011   -0.0282   -0.0294    0.2942
          52   -0.0068    0.0137   -0.0028   -0.0013   -0.0805   -0.0000    0.0021    0.0011
          53    0.0055   -0.0172    0.0013    0.0012   -0.1036   -0.0000   -0.0176    0.0021
          54    0.0037   -0.0099    0.0001    0.0009   -0.0455   -0.0001   -0.0090    0.0016
          55   -0.0153    0.0600    0.0017   -0.0013    0.0851   -0.0000   -0.0017   -0.0000
          56   -0.0017    0.0098   -0.0006   -0.0004    0.1202   -0.0001    0.0040    0.0007
          57   -0.0022   -0.0001    0.0008   -0.0005    0.0535   -0.0000    0.0021    0.0004
          58   -0.0056    0.0194   -0.0004   -0.0004   -0.1106    0.0000   -0.0023   -0.0005
          59    0.0183   -0.0703   -0.0001    0.0019   -0.0944    0.0000   -0.0005   -0.0002
          60    0.0117   -0.0367   -0.0010    0.0015   -0.0383   -0.0000   -0.0001   -0.0001
          61   -0.0108   -0.0046    0.0090    0.7162   -0.0000    0.0007   -0.0000    0.0000
          62   -0.0013   -0.0005    0.0007    0.0552    0.0000   -0.0015    0.0000    0.0001
          63   -0.0001    0.0000    0.0003    0.0140   -0.0001   -0.0004    0.0000    0.0000


   Root No.      49        50        51        52        53        54        55        56

                49 A      50 A      51 A      52 A      53 A      54 A      55 A      56 A   

                2970.6    2985.4    3035.9    3057.5    3058.9    3064.8    3133.8    3146.3
  
           1   -0.0000   -0.0001   -0.0000    0.0001    0.0000   -0.0000    0.0000   -0.0000
           2   -0.0002    0.0003   -0.0000    0.0000    0.0000   -0.0000   -0.0000   -0.0000
           3    0.0001   -0.0002    0.0000   -0.0001   -0.0001    0.0001   -0.0000   -0.0000
           4    0.0000    0.0000    0.0000   -0.0000    0.0000   -0.0000   -0.0000    0.0000
           5    0.0000   -0.0000   -0.0000    0.0000    0.0000   -0.0000   -0.0000    0.0000
           6    0.0000   -0.0000   -0.0000    0.0000   -0.0000    0.0000    0.0000   -0.0000
           7    0.0002   -0.0001   -0.0000   -0.0002   -0.0003    0.0002    0.0005    0.0004
           8   -0.0018   -0.0012   -0.0016    0.0001   -0.0003   -0.0002    0.0002   -0.0004
           9   -0.0010   -0.0006   -0.0008   -0.0007    0.0003    0.0000    0.0000   -0.0003
          10    0.0002   -0.0009    0.0000    0.0004   -0.0001   -0.0003   -0.0000   -0.0000
          11    0.0003   -0.0007    0.0000   -0.0002    0.0002   -0.0004    0.0000    0.0000
          12    0.0003   -0.0009    0.0000   -0.0006   -0.0004    0.0002   -0.0000    0.0000
          13   -0.0012   -0.0006   -0.0004    0.0077    0.0011    0.0008    0.0000   -0.0000
          14   -0.0036   -0.0016   -0.0002    0.0119    0.0018    0.0013    0.0001   -0.0000
          15   -0.0024   -0.0010    0.0017   -0.0325   -0.0051   -0.0034   -0.0000   -0.0000
          16   -0.0054   -0.0037   -0.0006   -0.0032    0.0101    0.0054    0.0001   -0.0000
          17   -0.0315   -0.0218    0.0010    0.0027   -0.0095   -0.0057    0.0000   -0.0000
          18   -0.0076   -0.0054   -0.0010   -0.0063    0.0203    0.0116    0.0001    0.0000
          19    0.0015   -0.0023   -0.0001   -0.0001    0.0105   -0.0195   -0.0000    0.0000
          20    0.0192   -0.0298    0.0000   -0.0000    0.0033   -0.0064    0.0000    0.0000
          21    0.0112   -0.0175    0.0001   -0.0000   -0.0081    0.0159    0.0000   -0.0000
          22    0.0002    0.0001   -0.0027   -0.0001   -0.0001   -0.0001   -0.0035    0.0047
          23   -0.0002   -0.0002   -0.0591   -0.0010   -0.0010   -0.0005    0.0006   -0.0077
          24   -0.0002   -0.0002   -0.0295   -0.0006   -0.0004   -0.0002    0.0006   -0.0042
          25   -0.0000   -0.0000    0.0013    0.0000    0.0000    0.0000   -0.0157   -0.0561
          26    0.0000    0.0000    0.0043    0.0001    0.0001    0.0001   -0.0600   -0.0027
          27    0.0000    0.0000    0.0021    0.0000    0.0001    0.0000   -0.0288    0.0032
          28   -0.0014   -0.0010    0.0041   -0.0003   -0.0000   -0.0001    0.0024    0.0007
          29    0.0204    0.0126    0.0159    0.0051    0.0033    0.0021   -0.0031    0.0036
          30    0.0125    0.0080    0.0077    0.0010    0.0022    0.0013   -0.0018    0.0018
          31   -0.0044    0.0109   -0.0004    0.0047    0.0004    0.0024    0.0000    0.0000
          32   -0.0022    0.0057   -0.0002    0.0028    0.0002    0.0017    0.0000   -0.0000
          33   -0.0058    0.0119   -0.0003    0.0028   -0.0006    0.0030    0.0000   -0.0000
          34    0.1012    0.0739    0.0006    0.0244   -0.0737   -0.0422   -0.0004   -0.0001
[...]
 FREQ.      1286.42         C  6 -- H 13         +10.2% ( 44.6%)      0.1%
 T-DIPOLE    0.2185         C  6 -- H 12         +10.0% ( 44.1%)      0.0%
 TRAVEL      0.0885         C  6 -- C  7          +8.1% ( 39.6%)     68.5%
 RED. MASS   0.7106         C  4 -- C  5          +7.6% ( 38.5%)     47.1%
 EFF. MASS   6.6883

 VIBRATION   37   37A         ATOM PAIR      ENERGY CONTRIBUTION    RADIAL
 FREQ.      1299.08         C  7 -- H 15         +12.7% ( 47.8%)      0.0%
 T-DIPOLE    0.1745         C  7 -- H 14         +12.7% ( 47.8%)      0.3%
 TRAVEL      0.0953         C  3 -- C  6         +10.1% ( 42.5%)     88.4%
 RED. MASS   0.6674         C  3 -- C  5          +8.1% ( 38.2%)     79.7%
 EFF. MASS   5.7186

 VIBRATION   38   38A         ATOM PAIR      ENERGY CONTRIBUTION    RADIAL
 FREQ.      1327.36         C  9 -- H 20         +18.0% ( 48.5%)      0.7%
 T-DIPOLE    0.0651         C  9 -- H 19         +16.8% ( 46.7%)      1.5%
 TRAVEL      0.1204         C  6 -- C  7         +10.7% ( 37.3%)     91.0%
 RED. MASS   0.4107         C  6 -- H 12         +10.4% ( 36.8%)      0.0%
 EFF. MASS   3.5033

 VIBRATION   39   39A         ATOM PAIR      ENERGY CONTRIBUTION    RADIAL
 FREQ.      1360.09         C  4 -- C  7         +16.2% ( 57.8%)     35.0%
 T-DIPOLE    0.3861         C  4 -- C  5         +15.4% ( 56.4%)     35.4%
 TRAVEL      0.0818         C  4 -- H 11         +14.0% ( 53.9%)      0.1%
 RED. MASS   1.6151         O  1 -- C  4         +12.6% ( 51.1%)     89.2%
 EFF. MASS   7.4011

 VIBRATION   40   40A         ATOM PAIR      ENERGY CONTRIBUTION    RADIAL
 FREQ.      1404.25         C  7 -- H 15         +15.6% ( 44.5%)      4.0%
 T-DIPOLE    0.1234         C  7 -- H 14         +14.0% ( 42.2%)      4.4%
 TRAVEL      0.1134         C  6 -- H 13          +9.1% ( 34.1%)      4.8%
 RED. MASS   0.3206         C  6 -- H 12          +8.8% ( 33.4%)      4.9%
 EFF. MASS   3.7373

 VIBRATION   41   41A         ATOM PAIR      ENERGY CONTRIBUTION    RADIAL
 FREQ.      1411.55         C  5 -- H 16         +30.7% ( 57.3%)      4.1%
 T-DIPOLE    0.0969         C  5 -- H 17         +28.8% ( 55.5%)      5.1%
 TRAVEL      0.1309         C  3 -- C  5          +9.2% ( 31.4%)     11.4%
 RED. MASS   0.4258         C  4 -- C  5          +7.5% ( 28.4%)     67.2%
 EFF. MASS   2.7876

 VIBRATION   42   42A         ATOM PAIR      ENERGY CONTRIBUTION    RADIAL
 FREQ.      1415.17         C  3 -- C  8         +15.8% ( 56.1%)     98.2%
 T-DIPOLE    0.1176         C  3 -- C  6         +15.1% ( 54.7%)     46.9%
 TRAVEL      0.0817         C  3 -- C  5         +14.7% ( 54.1%)     53.1%
 RED. MASS   1.3848         C  3 -- H 10         +13.4% ( 51.6%)      0.0%
 EFF. MASS   7.1394

 VIBRATION   43   43A         ATOM PAIR      ENERGY CONTRIBUTION    RADIAL
 FREQ.      1423.59         C  6 -- H 13         +20.1% ( 47.0%)      5.2%
 T-DIPOLE    0.0691         C  6 -- H 12         +19.5% ( 46.4%)      4.9%
 TRAVEL      0.1256         C  7 -- H 15         +16.6% ( 42.8%)      4.7%
 RED. MASS   0.3770         C  7 -- H 14         +15.3% ( 41.1%)      5.4%
 EFF. MASS   3.0034         C  6 -- C  7         +13.8% ( 39.0%)     97.8%

 VIBRATION   44   44A         ATOM PAIR      ENERGY CONTRIBUTION    RADIAL
 FREQ.      1481.58         O  2 -- H 21         +83.3% ( 91.0%)      2.8%
 T-DIPOLE    0.4085         O  1 -- C  4          +6.7% ( 25.8%)     98.5%
 TRAVEL      0.1291         O  1 -- O  2          +5.1% ( 22.6%)      0.0%
 RED. MASS   0.8712         C  4 -- C  5          +1.6% ( 12.6%)      9.8%
 EFF. MASS   2.7293

 VIBRATION   45   45A         ATOM PAIR      ENERGY CONTRIBUTION    RADIAL
 FREQ.      1861.86         C  8 -- C  9         +45.3% ( 99.3%)     98.9%
 T-DIPOLE    0.1125         C  3 -- C  8         +16.7% ( 60.4%)     54.5%
 TRAVEL      0.0554         C  8 -- H 18         +15.4% ( 58.0%)      4.0%
 RED. MASS   5.2919         C  9 -- H 19         +10.9% ( 48.8%)     11.0%
 EFF. MASS  11.7916         C  9 -- H 20         +10.7% ( 48.4%)     12.8%

 VIBRATION   46   46A         ATOM PAIR      ENERGY CONTRIBUTION    RADIAL
 FREQ.      2863.79         C  4 -- H 11         +96.0% ( 99.8%)    100.0%
 T-DIPOLE    0.0950         C  4 -- C  5          +1.2% ( 11.1%)     11.9%
 TRAVEL      0.1264         O  1 -- C  4          +1.2% ( 11.0%)     10.9%
 RED. MASS   0.9214         C  4 -- C  7          +1.2% ( 11.0%)     10.7%
 EFF. MASS   1.4745

 VIBRATION   47   47A         ATOM PAIR      ENERGY CONTRIBUTION    RADIAL
 FREQ.      2878.47         C  3 -- H 10         +95.9% ( 99.6%)    100.0%
 T-DIPOLE    0.0484         C  3 -- C  5          +1.1% ( 10.6%)      8.7%
 TRAVEL      0.1270         C  3 -- C  6          +1.1% ( 10.6%)      8.8%
 RED. MASS   0.9154         C  3 -- C  8          +1.1% ( 10.5%)     11.9%
 EFF. MASS   1.4529

 VIBRATION   48   48A         ATOM PAIR      ENERGY CONTRIBUTION    RADIAL
 FREQ.      2967.76         C  5 -- H 16         +65.5% ( 83.9%)     98.2%
 T-DIPOLE    0.1263         C  5 -- H 17         +30.2% ( 57.0%)     93.5%
 TRAVEL      0.1220         C  4 -- C  5          +1.1% ( 10.8%)      0.5%
 RED. MASS   0.5578         C  3 -- C  5          +1.1% ( 10.8%)      0.4%
 EFF. MASS   1.5273

 VIBRATION   49   49A         ATOM PAIR      ENERGY CONTRIBUTION    RADIAL
 FREQ.      2970.56         C  6 -- H 12         +42.6% ( 67.9%)     97.8%
 T-DIPOLE    0.0336         C  6 -- H 13         +23.4% ( 50.3%)     94.3%
 TRAVEL      0.1210         C  7 -- H 14         +17.1% ( 43.1%)     96.9%
 RED. MASS   0.3061         C  7 -- H 15         +13.0% ( 37.5%)     95.5%
 EFF. MASS   1.5493

 VIBRATION   50   50A         ATOM PAIR      ENERGY CONTRIBUTION    RADIAL
 FREQ.      2985.40         C  7 -- H 14         +37.6% ( 63.5%)     97.2%
 T-DIPOLE    0.1170         C  7 -- H 15         +30.1% ( 56.8%)     96.0%
 TRAVEL      0.1215         C  6 -- H 12         +19.1% ( 45.2%)     98.0%
 RED. MASS   0.3018         C  6 -- H 13         +10.6% ( 33.6%)     94.6%
 EFF. MASS   1.5301

 VIBRATION   51   51A         ATOM PAIR      ENERGY CONTRIBUTION    RADIAL
 FREQ.      3035.95         C  8 -- H 18         +96.2% ( 99.4%)    100.0%
 T-DIPOLE    0.2444         C  8 -- C  9          +1.4% ( 12.1%)     31.3%
 TRAVEL      0.1216         C  3 -- C  8          +1.3% ( 11.7%)     14.3%
 RED. MASS   0.9098         C  9 -- H 20          +0.8% (  9.3%)     94.9%
 EFF. MASS   1.5028

 VIBRATION   52   52A         ATOM PAIR      ENERGY CONTRIBUTION    RADIAL
 FREQ.      3057.48         C  5 -- H 17         +65.7% ( 80.0%)     99.2%
 T-DIPOLE    0.1179         C  5 -- H 16         +28.2% ( 52.4%)     93.7%
 TRAVEL      0.1311         C  6 -- H 13          +3.0% ( 17.2%)     99.0%
 RED. MASS   0.4990         C  6 -- H 12          +1.7% ( 12.8%)     95.8%
 EFF. MASS   1.2842

 VIBRATION   53   53A         ATOM PAIR      ENERGY CONTRIBUTION    RADIAL
 FREQ.      3058.93         C  6 -- H 13         +47.3% ( 67.9%)     98.9%
 T-DIPOLE    0.0646         C  6 -- H 12         +24.9% ( 49.2%)     94.9%
 TRAVEL      0.1309         C  7 -- H 15         +12.9% ( 35.5%)     98.2%
 RED. MASS   0.3074         C  7 -- H 14         +10.0% ( 31.2%)     96.8%
 EFF. MASS   1.2865

 VIBRATION   54   54A         ATOM PAIR      ENERGY CONTRIBUTION    RADIAL
 FREQ.      3064.77         C  7 -- H 15         +42.9% ( 64.5%)     98.3%
 T-DIPOLE    0.1123         C  7 -- H 14         +32.8% ( 56.4%)     96.8%
 TRAVEL      0.1309         C  6 -- H 13         +14.6% ( 37.6%)     99.0%
 RED. MASS   0.3151         C  6 -- H 12          +7.2% ( 26.4%)     94.6%
 EFF. MASS   1.2841

 VIBRATION   55   55A         ATOM PAIR      ENERGY CONTRIBUTION    RADIAL
 FREQ.      3133.84         C  9 -- H 19         +90.7% ( 97.0%)     99.8%
 T-DIPOLE    0.1958         C  9 -- H 20          +7.9% ( 28.7%)     74.6%
 TRAVEL      0.1181         C  8 -- C  9          +1.3% ( 11.7%)     20.5%
 RED. MASS   0.8381
 EFF. MASS   1.5432

 VIBRATION   56   56A         ATOM PAIR      ENERGY CONTRIBUTION    RADIAL
 FREQ.      3146.31         C  9 -- H 20         +90.8% ( 95.9%)     99.6%
 T-DIPOLE    0.2647         C  9 -- H 19          +6.8% ( 26.3%)     48.2%
 TRAVEL      0.1211         C  8 -- C  9          +1.6% ( 12.7%)     75.1%
 RED. MASS   0.8025         C  8 -- H 18          +0.7% (  8.5%)     94.2%
 EFF. MASS   1.4613

 VIBRATION   57   57A         ATOM PAIR      ENERGY CONTRIBUTION    RADIAL
 FREQ.      3988.09         O  2 -- H 21         +99.6% (100.0%)     99.9%
 T-DIPOLE    0.3748         O  1 -- O  2          +0.4% (  6.0%)      0.0%
 TRAVEL      0.1107
 RED. MASS   0.9479
 EFF. MASS   1.3797

      SYMMETRY NUMBER FOR POINT-GROUP C1  =  1


          SYSTEM IS A GROUND STATE



 InChI=1S/C7H12O2/c1-2-6-3-4-7(5-6)9-8/h2,6-8H,1,3-5H2


          MOLECULE IS NOT LINEAR

          THERE ARE 57 GENUINE VIBRATIONS IN THIS SYSTEM
          THIS THERMODYNAMICS CALCULATION IS LIMITED TO
          MOLECULES WHICH HAVE NO INTERNAL ROTATIONS




                    CALCULATED THERMODYNAMIC PROPERTIES
                                          *
   TEMP. (K)   PARTITION FUNCTION   H.O.F.    ENTHALPY  HEAT CAPACITY ENTROPY
                                   KCAL/MOL   CAL/MOLE    CAL/K/MOL  CAL/K/MOL


 298.00  VIB.     0.3131D+04                  4468.5405    29.8865    30.9905
         ROT.     0.5495D+06                   888.2813     2.9808    29.2451
         INT.     0.1721D+10                  5356.8218    32.8674    60.2356
         TRA.     0.1403D+28                  1480.4688     4.9680    40.4556
         TOT.                      -27.842    6837.2906    37.8354   100.6912

 200.00  VIB.     0.2553D+03                  2077.8048    19.2385    21.4032
         ROT.     0.3021D+06                   596.1620     2.9808    28.0564
         INT.     0.7713D+08                  2673.9668    22.2193    49.4596
         TRA.     0.7713D+27                   993.6033     4.9680    38.4745
         TOT.                      -31.011    3667.5700    27.1873    87.9341

 210.00  VIB.     0.3313D+03                  2275.0724    20.2198    22.3654
         ROT.     0.3250D+06                   625.9700     2.9808    28.2019
         INT.     0.1077D+09                  2901.0425    23.2006    50.5673
         TRA.     0.8299D+27                  1043.2834     4.9680    38.7168
         TOT.                      -30.734    3944.3259    28.1686    89.2842

 220.00  VIB.     0.4292D+03                  2482.2967    21.2298    23.3293
         ROT.     0.3485D+06                   655.7781     2.9808    28.3405
         INT.     0.1496D+09                  3138.0748    24.2106    51.6698
         TRA.     0.8899D+27                  1092.9636     4.9680    38.9480
         TOT.                      -30.448    4231.0384    29.1786    90.6178

 230.00  VIB.     0.5552D+03                  2699.7605    22.2675    24.2958
         ROT.     0.3726D+06                   685.5862     2.9808    28.4731
         INT.     0.2068D+09                  3385.3467    25.2483    52.7688
         TRA.     0.9512D+27                  1142.6437     4.9680    39.1688
         TOT.                      -30.151    4527.9905    30.2164    91.9376

 240.00  VIB.     0.7173D+03                  2927.7350    23.3316    25.2659
         ROT.     0.3971D+06                   715.3943     2.9808    28.5999
         INT.     0.2849D+09                  3643.1293    26.3124    53.8658
         TRA.     0.1014D+28                  1192.3239     4.9680    39.3802
         TOT.                      -29.843    4835.4532    31.2804    93.2460

 250.00  VIB.     0.9260D+03                  3166.4724    24.4197    26.2403
         ROT.     0.4222D+06                   745.2024     2.9808    28.7216
         INT.     0.3910D+09                  3911.6748    27.4005    54.9619
         TRA.     0.1078D+28                  1242.0041     4.9680    39.5830
         TOT.                      -29.525    5153.6789    32.3685    94.5449

 260.00  VIB.     0.1195D+04                  3416.2009    25.5293    27.2196
         ROT.     0.4478D+06                   775.0105     2.9808    28.8385
         INT.     0.5349D+09                  4191.2115    28.5101    56.0581
         TRA.     0.1143D+28                  1291.6842     4.9680    39.7779
         TOT.                      -29.196    5482.8957    33.4781    95.8360

 270.00  VIB.     0.1540D+04                  3677.1203    26.6574    28.2042
         ROT.     0.4739D+06                   804.8186     2.9808    28.9510
         INT.     0.7298D+09                  4481.9389    29.6382    57.1552
         TRA.     0.1210D+28                  1341.3644     4.9680    39.9654
         TOT.                      -28.856    5823.3033    34.6062    97.1206

 280.00  VIB.     0.1985D+04                  3949.3992    27.8007    29.1943
         ROT.     0.5004D+06                   834.6267     2.9808    29.0594
         INT.     0.9932D+09                  4784.0259    30.7815    58.2537
         TRA.     0.1278D+28                  1391.0445     4.9680    40.1461
         TOT.                      -28.504    6175.0704    35.7495    98.3997

 290.00  VIB.     0.2557D+04                  4233.1737    28.9559    30.1899
         ROT.     0.5275D+06                   864.4348     2.9808    29.1640
         INT.     0.1349D+10                  5097.6085    31.9368    59.3540
         TRA.     0.1347D+28                  1440.7247     4.9680    40.3204
         TOT.                      -28.140    6538.3332    36.9048    99.6743

 300.00  VIB.     0.3294D+04                  4528.5468    30.1199    31.1912
         ROT.     0.5550D+06                   894.2429     2.9808    29.2651
         INT.     0.1828D+10                  5422.7898    33.1007    60.4563
         TRA.     0.1417D+28                  1490.4049     4.9680    40.4888
         TOT.                      -27.766    6913.1946    38.0687   100.9451

 310.00  VIB.     0.4243D+04                  4835.5891    31.2892    32.1979
         ROT.     0.5830D+06                   924.0510     2.9808    29.3628
         INT.     0.2474D+10                  5759.6401    34.2700    61.5607
         TRA.     0.1488D+28                  1540.0850     4.9680    40.6517
         TOT.                      -27.379    7299.7252    39.2381   102.2124

 320.00  VIB.     0.5466D+04                  5154.3392    32.4609    33.2098
         ROT.     0.6114D+06                   953.8591     2.9808    29.4574
         INT.     0.3342D+10                  6108.1984    35.4417    62.6672
         TRA.     0.1561D+28                  1589.7652     4.9680    40.8094
         TOT.                      -26.981    7697.9636    40.4098   103.4767

 330.00  VIB.     0.7042D+04                  5484.8059    33.6321    34.2266
         ROT.     0.6403D+06                   983.6672     2.9808    29.5492
         INT.     0.4509D+10                  6468.4732    36.6129    63.7757
         TRA.     0.1635D+28                  1639.4454     4.9680    40.9623
         TOT.                      -26.571    8107.9185    41.5809   104.7381

 340.00  VIB.     0.9074D+04                  5826.9699    34.8000    35.2480
         ROT.     0.6696D+06                  1013.4753     2.9808    29.6382
         INT.     0.6076D+10                  6840.4452    37.7808    64.8861
         TRA.     0.1710D+28                  1689.1255     4.9680    41.1106
         TOT.                      -26.149    8529.5707    42.7488   105.9967

 350.00  VIB.     0.1170D+05                  6180.7859    35.9621    36.2735
         ROT.     0.6994D+06                  1043.2834     2.9808    29.7246
         INT.     0.8180D+10                  7224.0694    38.9429    65.9981
         TRA.     0.1786D+28                  1738.8057     4.9680    41.2546
         TOT.                      -25.716    8962.8750    43.9109   107.2527

 360.00  VIB.     0.1508D+05                  6546.1855    37.1163    37.3028
         ROT.     0.7296D+06                  1073.0915     2.9808    29.8085
         INT.     0.1100D+11                  7619.2770    40.0971    67.1113
         TRA.     0.1863D+28                  1788.4859     4.9680    41.3946
         TOT.                      -25.271    9407.7628    45.0651   108.5059

 370.00  VIB.     0.1944D+05                  6923.0789    38.2606    38.3354
         ROT.     0.7602D+06                  1102.8996     2.9808    29.8902
         INT.     0.1478D+11                  8025.9785    41.2414    68.2256
         TRA.     0.1941D+28                  1838.1660     4.9680    41.5307
         TOT.                      -24.815    9864.1445    46.2094   109.7563

 380.00  VIB.     0.2508D+05                  7311.3579    39.3932    39.3708
         ROT.     0.7912D+06                  1132.7077     2.9808    29.9697
         INT.     0.1985D+11                  8444.0656    42.3740    69.3405
         TRA.     0.2020D+28                  1887.8462     4.9680    41.6632
         TOT.                      -24.347   10331.9117    47.3420   111.0037

 390.00  VIB.     0.3237D+05                  7710.8981    40.5126    40.4085
         ROT.     0.8226D+06                  1162.5158     2.9808    30.0471
         INT.     0.2663D+11                  8873.4139    43.4934    70.4556
         TRA.     0.2100D+28                  1937.5263     4.9680    41.7923
         TOT.                      -23.868   10810.9402    48.4614   112.2479

 400.00  VIB.     0.4178D+05                  8121.5612    41.6175    41.4482
         ROT.     0.8545D+06                  1192.3239     2.9808    30.1226
         INT.     0.3570D+11                  9313.8851    44.5983    71.5708
         TRA.     0.2182D+28                  1987.2065     4.9680    41.9180
         TOT.                      -23.378   11301.0916    49.5664   113.4888

   *: NOTE: HEATS OF FORMATION ARE RELATIVE TO THE
            ELEMENTS IN THEIR STANDARD STATE AT 298K
              (=  Standard Enthalpy of Formation).

            Hvib:  Zero-point energy is not included.
                   frequencies of less than zero cm-1 are not included.
            Hrot = (3/2)RT
            Htra = (3/2)RT + pV = (5/2)RT

            Heat capacity is Cp, not Cv

          For more information, see: HTTP://OpenMOPAC.net/Manual/thermochemistry.html


           FORCE CONSTANT IN CARTESIAN COORDINATES (Millidynes/A)

    ATOM   CHEMICAL       X               Y               Z
   NUMBER   SYMBOL  FORCE CONSTANT  FORCE CONSTANT  FORCE CONSTANT

      1       O        4.360436        6.409834        0.762208
      2       O        3.080009        9.202665        0.442992
      3       C        9.599368        8.318665        7.548046
      4       C        8.643320        8.561692        7.491818
      5       C        7.365030        8.233637        8.786816
      6       C        7.888886        8.487732        8.467323
      7       C        8.484541        8.213138        7.955997
      8       C       13.215420        9.429427        4.568997
      9       C       13.230780        9.204449        4.046097
     10       H        0.752874        3.799424        1.492627
     11       H        2.283973        1.449277        2.208820
     12       H        1.269581        2.761957        2.430569
     13       H        0.821964        4.261011        1.419037
     14       H        1.668748        4.032095        0.743457
     15       H        1.465026        1.791565        3.278415
     16       H        1.388641        4.381066        0.715540
     17       H        0.710108        1.017226        4.770823
     18       H        0.831849        4.106047        1.277659
     19       H        0.731934        4.387565        1.336806
     20       H        4.826497        1.188214        0.456268
     21       H        1.294240        8.403095        0.399880

 **********************
 *                    *
 * JOB ENDED NORMALLY *
 *                    *
 **********************



 TOTAL JOB TIME:             2.38 SECONDS

 == MOPAC DONE ==
