 *******************************************************************************
 ** Site#: 14399        For non-commercial use only    Version 18.184L 64BITS **
 *******************************************************************************
 ** Cite this program as: MOPAC2016, Version: 18.184L, James J. P. Stewart,   **
 ** Stewart Computational Chemistry, web: HTTP://OpenMOPAC.net. Days left:  18**
 *******************************************************************************
 **                                                                           **
 **                                MOPAC2016                                  **
 **                                                                           **
 *******************************************************************************

                              PM3 CALCULATION RESULTS

 *******************************************************************************
 *  CALCULATION DONE:                                Sat Jun 15 10:27:58 2019  *
 *  PM3        - The PM3 Hamiltonian to be used
 *  PRECISE    - CRITERIA TO BE INCREASED BY 100 TIMES
 *  NOSYM      - POINT-GROUP SYMMETRY SET TO C1
 *  THREADS=1  - MULTI-THREADING NOT USED
 *  T=         - A TIME OF 172800.0 SECONDS REQUESTED
 *  DUMP=N     - RESTART FILE WRITTEN EVERY  7200.000 SECONDS
 *******************************************************************************
pm3  precise nosym THREADS=1
 InChI=1S/C7H10/c1-2-3-4-7-5-6-7/h2,4,7H,5-6H2,1H3

   ATOM   CHEMICAL          X               Y               Z
  NUMBER   SYMBOL      (ANGSTROMS)     (ANGSTROMS)     (ANGSTROMS)
 
     1       C         -1.42010000  *  -0.31380000  *   0.56720000  *
     2       C         -1.48680000  *   0.98270000  *  -0.22800000  *
     3       C         -2.35130000  *   0.80420000  *   1.00790000  *
     4       C          2.38320000  *  -0.34440000  *  -1.11380000  *
     5       C         -0.18680000  *  -0.46400000  *   1.40160000  *
     6       C          2.12510000  *  -0.86400000  *   0.26100000  *
     7       C          0.97070000  *  -0.66680000  *   0.83540000  *
     8       H         -1.88630000  *  -1.19590000  *   0.07900000  *
     9       H         -2.04840000  *   0.90970000  *  -1.18320000  *
    10       H         -0.64230000  *   1.69170000  *  -0.08600000  *
    11       H         -2.01670000  *   1.40460000  *   1.88160000  *
    12       H         -3.42400000  *   0.62300000  *   0.78500000  *
    13       H          3.41430000  *  -0.61080000  *  -1.42700000  *
    14       H          1.66280000  *  -0.79250000  *  -1.83080000  *
    15       H          2.27770000  *   0.76130000  *  -1.12810000  *
    16       H         -0.26820000  *  -0.51660000  *   2.47930000  *
    17       H          2.89710000  *  -1.40840000  *   0.78880000  *
 


          CARTESIAN COORDINATES 

    NO.       ATOM           X           Y           Z

     1         C         -1.4201     -0.3138      0.5672
     2         C         -1.4868      0.9827     -0.2280
     3         C         -2.3513      0.8042      1.0079
     4         C          2.3832     -0.3444     -1.1138
     5         C         -0.1868     -0.4640      1.4016
     6         C          2.1251     -0.8640      0.2610
     7         C          0.9707     -0.6668      0.8354
     8         H         -1.8863     -1.1959      0.0790
     9         H         -2.0484      0.9097     -1.1832
    10         H         -0.6423      1.6917     -0.0860
    11         H         -2.0167      1.4046      1.8816
    12         H         -3.4240      0.6230      0.7850
    13         H          3.4143     -0.6108     -1.4270
    14         H          1.6628     -0.7925     -1.8308
    15         H          2.2777      0.7613     -1.1281
    16         H         -0.2682     -0.5166      2.4793
    17         H          2.8971     -1.4084      0.7888

  H: (PM3): J. J. P. STEWART, J. COMP. CHEM. 10, 209 (1989).
  C: (PM3): J. J. P. STEWART, J. COMP. CHEM. 10, 209 (1989).

           Empirical Formula: C7 H10  =    17 atoms



      MOLECULAR POINT GROUP   :   C1  


      RHF CALCULATION, NO. OF DOUBLY OCCUPIED LEVELS = 19


          Geometry optimization using EF

          DIAGONAL MATRIX USED AS START HESSIAN

 CYCLE:     1 TIME:   0.004 TIME LEFT:  2.00D  GRAD.:    85.405 HEAT:  90.74269
 CYCLE:     2 TIME:   0.004 TIME LEFT:  2.00D  GRAD.:   112.196 HEAT:  88.09533
 CYCLE:     3 TIME:   0.004 TIME LEFT:  2.00D  GRAD.:    97.894 HEAT:  84.08557
 CYCLE:     4 TIME:   0.004 TIME LEFT:  2.00D  GRAD.:   155.280 HEAT:  82.98577
 CYCLE:     5 TIME:   0.004 TIME LEFT:  2.00D  GRAD.:   104.787 HEAT:  79.63957
 CYCLE:     6 TIME:   0.004 TIME LEFT:  2.00D  GRAD.:    66.808 HEAT:  77.38299
 CYCLE:     7 TIME:   0.004 TIME LEFT:  2.00D  GRAD.:    62.876 HEAT:  76.44547
 CYCLE:     8 TIME:   0.004 TIME LEFT:  2.00D  GRAD.:    40.273 HEAT:  74.67158
 CYCLE:     9 TIME:   0.004 TIME LEFT:  2.00D  GRAD.:    43.277 HEAT:  73.18183
 CYCLE:    10 TIME:   0.000 TIME LEFT:  2.00D  GRAD.:    60.643 HEAT:  71.39947
 CYCLE:    11 TIME:   0.004 TIME LEFT:  2.00D  GRAD.:    63.464 HEAT:  69.21410
 CYCLE:    12 TIME:   0.004 TIME LEFT:  2.00D  GRAD.:   112.070 HEAT:  68.89429
 CYCLE:    13 TIME:   0.004 TIME LEFT:  2.00D  GRAD.:   134.140 HEAT:  68.89207
 CYCLE:    14 TIME:   0.004 TIME LEFT:  2.00D  GRAD.:    81.849 HEAT:  66.64014
 CYCLE:    15 TIME:   0.004 TIME LEFT:  2.00D  GRAD.:    88.183 HEAT:  65.78793
 CYCLE:    16 TIME:   0.000 TIME LEFT:  2.00D  GRAD.:    60.308 HEAT:  64.74007
 CYCLE:    17 TIME:   0.004 TIME LEFT:  2.00D  GRAD.:    49.964 HEAT:  63.80583
 CYCLE:    18 TIME:   0.004 TIME LEFT:  2.00D  GRAD.:    27.262 HEAT:  63.03549
 CYCLE:    19 TIME:   0.004 TIME LEFT:  2.00D  GRAD.:    29.503 HEAT:  62.47369
 CYCLE:    20 TIME:   0.004 TIME LEFT:  2.00D  GRAD.:    41.129 HEAT:  61.74483
 CYCLE:    21 TIME:   0.000 TIME LEFT:  2.00D  GRAD.:    33.421 HEAT:  60.90515
 CYCLE:    22 TIME:   0.004 TIME LEFT:  2.00D  GRAD.:    20.262 HEAT:  60.55882
 CYCLE:    23 TIME:   0.004 TIME LEFT:  2.00D  GRAD.:    18.498 HEAT:  60.31519
 CYCLE:    24 TIME:   0.004 TIME LEFT:  2.00D  GRAD.:    13.185 HEAT:  60.09079
 CYCLE:    25 TIME:   0.000 TIME LEFT:  2.00D  GRAD.:    19.957 HEAT:  59.87238
 CYCLE:    26 TIME:   0.004 TIME LEFT:  2.00D  GRAD.:    10.790 HEAT:  59.64187
 CYCLE:    27 TIME:   0.004 TIME LEFT:  2.00D  GRAD.:     8.617 HEAT:  59.50197
 CYCLE:    28 TIME:   0.000 TIME LEFT:  2.00D  GRAD.:     8.962 HEAT:  59.37176
 CYCLE:    29 TIME:   0.004 TIME LEFT:  2.00D  GRAD.:     8.764 HEAT:  59.21045
 CYCLE:    30 TIME:   0.004 TIME LEFT:  2.00D  GRAD.:     8.195 HEAT:  59.08963
 CYCLE:    31 TIME:   0.004 TIME LEFT:  2.00D  GRAD.:     8.706 HEAT:  58.98974
 CYCLE:    32 TIME:   0.000 TIME LEFT:  2.00D  GRAD.:     8.884 HEAT:  58.86463
 CYCLE:    33 TIME:   0.004 TIME LEFT:  2.00D  GRAD.:    10.501 HEAT:  58.68130
 CYCLE:    34 TIME:   0.004 TIME LEFT:  2.00D  GRAD.:    12.196 HEAT:  58.45389
 CYCLE:    35 TIME:   0.004 TIME LEFT:  2.00D  GRAD.:    11.351 HEAT:  58.17771
 CYCLE:    36 TIME:   0.004 TIME LEFT:  2.00D  GRAD.:     9.722 HEAT:  57.91482
 CYCLE:    37 TIME:   0.000 TIME LEFT:  2.00D  GRAD.:     8.712 HEAT:  57.72063
 CYCLE:    38 TIME:   0.004 TIME LEFT:  2.00D  GRAD.:    14.474 HEAT:  57.65032
 CYCLE:    39 TIME:   0.004 TIME LEFT:  2.00D  GRAD.:    10.204 HEAT:  57.50606
 CYCLE:    40 TIME:   0.004 TIME LEFT:  2.00D  GRAD.:     7.220 HEAT:  57.42154
 CYCLE:    41 TIME:   0.000 TIME LEFT:  2.00D  GRAD.:     5.366 HEAT:  57.34038
 CYCLE:    42 TIME:   0.004 TIME LEFT:  2.00D  GRAD.:     4.528 HEAT:  57.29462
 CYCLE:    43 TIME:   0.004 TIME LEFT:  2.00D  GRAD.:     4.446 HEAT:  57.25461
 CYCLE:    44 TIME:   0.004 TIME LEFT:  2.00D  GRAD.:     4.728 HEAT:  57.20615
 CYCLE:    45 TIME:   0.000 TIME LEFT:  2.00D  GRAD.:     5.115 HEAT:  57.16555
 CYCLE:    46 TIME:   0.004 TIME LEFT:  2.00D  GRAD.:     5.625 HEAT:  57.11880
 CYCLE:    47 TIME:   0.004 TIME LEFT:  2.00D  GRAD.:     5.037 HEAT:  57.06261
 CYCLE:    48 TIME:   0.004 TIME LEFT:  2.00D  GRAD.:     4.873 HEAT:  56.99908
 CYCLE:    49 TIME:   0.000 TIME LEFT:  2.00D  GRAD.:     3.669 HEAT:  56.95313
 CYCLE:    50 TIME:   0.004 TIME LEFT:  2.00D  GRAD.:     2.744 HEAT:  56.92944
 CYCLE:    51 TIME:   0.004 TIME LEFT:  2.00D  GRAD.:     2.356 HEAT:  56.91636
 CYCLE:    52 TIME:   0.004 TIME LEFT:  2.00D  GRAD.:     2.563 HEAT:  56.90361
 CYCLE:    53 TIME:   0.000 TIME LEFT:  2.00D  GRAD.:     2.759 HEAT:  56.88806
 CYCLE:    54 TIME:   0.004 TIME LEFT:  2.00D  GRAD.:     2.719 HEAT:  56.87031
 CYCLE:    55 TIME:   0.004 TIME LEFT:  2.00D  GRAD.:     2.402 HEAT:  56.85329
 CYCLE:    56 TIME:   0.004 TIME LEFT:  2.00D  GRAD.:     2.038 HEAT:  56.83996
 CYCLE:    57 TIME:   0.000 TIME LEFT:  2.00D  GRAD.:     1.832 HEAT:  56.83059
 CYCLE:    58 TIME:   0.004 TIME LEFT:  2.00D  GRAD.:     1.207 HEAT:  56.82549
 CYCLE:    59 TIME:   0.004 TIME LEFT:  2.00D  GRAD.:     0.862 HEAT:  56.82314
 CYCLE:    60 TIME:   0.004 TIME LEFT:  2.00D  GRAD.:     0.577 HEAT:  56.82215
 CYCLE:    61 TIME:   0.004 TIME LEFT:  2.00D  GRAD.:     0.595 HEAT:  56.82139
 CYCLE:    62 TIME:   0.000 TIME LEFT:  2.00D  GRAD.:     0.758 HEAT:  56.82039
 CYCLE:    63 TIME:   0.004 TIME LEFT:  2.00D  GRAD.:     0.935 HEAT:  56.81897
 CYCLE:    64 TIME:   0.004 TIME LEFT:  2.00D  GRAD.:     0.977 HEAT:  56.81724
 CYCLE:    65 TIME:   0.000 TIME LEFT:  2.00D  GRAD.:     1.078 HEAT:  56.81560
 CYCLE:    66 TIME:   0.004 TIME LEFT:  2.00D  GRAD.:     1.177 HEAT:  56.81372
 CYCLE:    67 TIME:   0.004 TIME LEFT:  2.00D  GRAD.:     1.464 HEAT:  56.81079
 CYCLE:    68 TIME:   0.004 TIME LEFT:  2.00D  GRAD.:     2.003 HEAT:  56.80520
 CYCLE:    69 TIME:   0.004 TIME LEFT:  2.00D  GRAD.:     3.420 HEAT:  56.79523
 CYCLE:    70 TIME:   0.000 TIME LEFT:  2.00D  GRAD.:     2.282 HEAT:  56.78575
 CYCLE:    71 TIME:   0.004 TIME LEFT:  2.00D  GRAD.:     2.689 HEAT:  56.77120
 CYCLE:    72 TIME:   0.004 TIME LEFT:  2.00D  GRAD.:     1.962 HEAT:  56.76298
 CYCLE:    73 TIME:   0.000 TIME LEFT:  2.00D  GRAD.:     2.761 HEAT:  56.75688
 CYCLE:    74 TIME:   0.004 TIME LEFT:  2.00D  GRAD.:     1.811 HEAT:  56.74885
 CYCLE:    75 TIME:   0.004 TIME LEFT:  2.00D  GRAD.:     0.876 HEAT:  56.74451
 CYCLE:    76 TIME:   0.004 TIME LEFT:  2.00D  GRAD.:     1.492 HEAT:  56.74357
 CYCLE:    77 TIME:   0.004 TIME LEFT:  2.00D  GRAD.:     0.864 HEAT:  56.74227
 CYCLE:    78 TIME:   0.000 TIME LEFT:  2.00D  GRAD.:     0.681 HEAT:  56.74119
 CYCLE:    79 TIME:   0.004 TIME LEFT:  2.00D  GRAD.:     0.697 HEAT:  56.73984
 CYCLE:    80 TIME:   0.004 TIME LEFT:  2.00D  GRAD.:     0.572 HEAT:  56.73904
 CYCLE:    81 TIME:   0.004 TIME LEFT:  2.00D  GRAD.:     0.391 HEAT:  56.73859
 CYCLE:    82 TIME:   0.000 TIME LEFT:  2.00D  GRAD.:     0.285 HEAT:  56.73838
 CYCLE:    83 TIME:   0.004 TIME LEFT:  2.00D  GRAD.:     0.287 HEAT:  56.73820
 CYCLE:    84 TIME:   0.004 TIME LEFT:  2.00D  GRAD.:     0.234 HEAT:  56.73808
 CYCLE:    85 TIME:   0.004 TIME LEFT:  2.00D  GRAD.:     0.292 HEAT:  56.73798
 CYCLE:    86 TIME:   0.000 TIME LEFT:  2.00D  GRAD.:     0.224 HEAT:  56.73790
 CYCLE:    87 TIME:   0.004 TIME LEFT:  2.00D  GRAD.:     0.192 HEAT:  56.73781
 CYCLE:    88 TIME:   0.004 TIME LEFT:  2.00D  GRAD.:     0.234 HEAT:  56.73767
 CYCLE:    89 TIME:   0.004 TIME LEFT:  2.00D  GRAD.:     0.282 HEAT:  56.73747
 CYCLE:    90 TIME:   0.004 TIME LEFT:  2.00D  GRAD.:     0.407 HEAT:  56.73705
 CYCLE:    91 TIME:   0.000 TIME LEFT:  2.00D  GRAD.:     0.532 HEAT:  56.73654
 CYCLE:    92 TIME:   0.004 TIME LEFT:  2.00D  GRAD.:     0.676 HEAT:  56.73587
 CYCLE:    93 TIME:   0.004 TIME LEFT:  2.00D  GRAD.:     0.792 HEAT:  56.73480
 CYCLE:    94 TIME:   0.004 TIME LEFT:  2.00D  GRAD.:     1.095 HEAT:  56.73300
 CYCLE:    95 TIME:   0.000 TIME LEFT:  2.00D  GRAD.:     2.720 HEAT:  56.72925
 CYCLE:    96 TIME:   0.004 TIME LEFT:  2.00D  GRAD.:     2.730 HEAT:  56.72419
 CYCLE:    97 TIME:   0.004 TIME LEFT:  2.00D  GRAD.:     2.136 HEAT:  56.71462
 CYCLE:    98 TIME:   0.008 TIME LEFT:  2.00D  GRAD.:     2.729 HEAT:  56.69016
 CYCLE:    99 TIME:   0.000 TIME LEFT:  2.00D  GRAD.:     6.789 HEAT:  56.69365
 CYCLE:   100 TIME:   0.004 TIME LEFT:  2.00D  GRAD.:     3.631 HEAT:  56.67832
 CYCLE:   101 TIME:   0.004 TIME LEFT:  2.00D  GRAD.:     1.563 HEAT:  56.66569
 CYCLE:   102 TIME:   0.004 TIME LEFT:  2.00D  GRAD.:     3.019 HEAT:  56.65618
 CYCLE:   103 TIME:   0.004 TIME LEFT:  2.00D  GRAD.:     4.433 HEAT:  56.64708
 CYCLE:   104 TIME:   0.000 TIME LEFT:  2.00D  GRAD.:     4.548 HEAT:  56.62788
 CYCLE:   105 TIME:   0.008 TIME LEFT:  2.00D  GRAD.:     3.331 HEAT:  56.61626
 CYCLE:   106 TIME:   0.000 TIME LEFT:  2.00D  GRAD.:     2.764 HEAT:  56.59769
 CYCLE:   107 TIME:   0.004 TIME LEFT:  2.00D  GRAD.:     2.047 HEAT:  56.57109
 CYCLE:   108 TIME:   0.008 TIME LEFT:  2.00D  GRAD.:     3.964 HEAT:  56.55934
 CYCLE:   109 TIME:   0.008 TIME LEFT:  2.00D  GRAD.:     4.123 HEAT:  56.55748
 CYCLE:   110 TIME:   0.004 TIME LEFT:  2.00D  GRAD.:     1.516 HEAT:  56.54974
 CYCLE:   111 TIME:   0.004 TIME LEFT:  2.00D  GRAD.:     2.403 HEAT:  56.53778
 CYCLE:   112 TIME:   0.004 TIME LEFT:  2.00D  GRAD.:     6.744 HEAT:  56.53173
 CYCLE:   113 TIME:   0.004 TIME LEFT:  2.00D  GRAD.:     2.602 HEAT:  56.51455
 CYCLE:   114 TIME:   0.000 TIME LEFT:  2.00D  GRAD.:     1.664 HEAT:  56.49832
 CYCLE:   115 TIME:   0.004 TIME LEFT:  2.00D  GRAD.:     4.054 HEAT:  56.48029
 CYCLE:   116 TIME:   0.004 TIME LEFT:  2.00D  GRAD.:     6.504 HEAT:  56.47519
 CYCLE:   117 TIME:   0.004 TIME LEFT:  2.00D  GRAD.:     4.090 HEAT:  56.45959
 CYCLE:   118 TIME:   0.012 TIME LEFT:  2.00D  GRAD.:     2.899 HEAT:  56.45561
 CYCLE:   119 TIME:   0.000 TIME LEFT:  2.00D  GRAD.:     0.762 HEAT:  56.45091
 CYCLE:   120 TIME:   0.004 TIME LEFT:  2.00D  GRAD.:     2.924 HEAT:  56.44284
 CYCLE:   121 TIME:   0.004 TIME LEFT:  2.00D  GRAD.:     2.377 HEAT:  56.43289
 CYCLE:   122 TIME:   0.004 TIME LEFT:  2.00D  GRAD.:     2.964 HEAT:  56.42402
 CYCLE:   123 TIME:   0.004 TIME LEFT:  2.00D  GRAD.:     2.848 HEAT:  56.41483
 CYCLE:   124 TIME:   0.000 TIME LEFT:  2.00D  GRAD.:     2.163 HEAT:  56.40649
 CYCLE:   125 TIME:   0.004 TIME LEFT:  2.00D  GRAD.:     4.044 HEAT:  56.40221
 CYCLE:   126 TIME:   0.004 TIME LEFT:  2.00D  GRAD.:     4.518 HEAT:  56.39780
 CYCLE:   127 TIME:   0.008 TIME LEFT:  2.00D  GRAD.:     3.239 HEAT:  56.39398
 CYCLE:   128 TIME:   0.004 TIME LEFT:  2.00D  GRAD.:     2.046 HEAT:  56.38885
 CYCLE:   129 TIME:   0.004 TIME LEFT:  2.00D  GRAD.:     3.955 HEAT:  56.38781
 CYCLE:   130 TIME:   0.000 TIME LEFT:  2.00D  GRAD.:     1.743 HEAT:  56.38464
 CYCLE:   131 TIME:   0.004 TIME LEFT:  2.00D  GRAD.:     2.030 HEAT:  56.38348
 CYCLE:   132 TIME:   0.004 TIME LEFT:  2.00D  GRAD.:     0.731 HEAT:  56.38122
 CYCLE:   133 TIME:   0.004 TIME LEFT:  2.00D  GRAD.:     1.958 HEAT:  56.38024
 CYCLE:   134 TIME:   0.004 TIME LEFT:  2.00D  GRAD.:     0.838 HEAT:  56.37904
 CYCLE:   135 TIME:   0.000 TIME LEFT:  2.00D  GRAD.:     1.449 HEAT:  56.37867
 CYCLE:   136 TIME:   0.004 TIME LEFT:  2.00D  GRAD.:     0.678 HEAT:  56.37809
 CYCLE:   137 TIME:   0.004 TIME LEFT:  2.00D  GRAD.:     0.727 HEAT:  56.37802
 CYCLE:   138 TIME:   0.004 TIME LEFT:  2.00D  GRAD.:     0.509 HEAT:  56.37767
 CYCLE:   139 TIME:   0.000 TIME LEFT:  2.00D  GRAD.:     0.597 HEAT:  56.37741
 CYCLE:   140 TIME:   0.004 TIME LEFT:  2.00D  GRAD.:     0.426 HEAT:  56.37719
 CYCLE:   141 TIME:   0.004 TIME LEFT:  2.00D  GRAD.:     0.266 HEAT:  56.37703
 CYCLE:   142 TIME:   0.004 TIME LEFT:  2.00D  GRAD.:     0.282 HEAT:  56.37698
 CYCLE:   143 TIME:   0.000 TIME LEFT:  2.00D  GRAD.:     0.407 HEAT:  56.37691
 CYCLE:   144 TIME:   0.004 TIME LEFT:  2.00D  GRAD.:     0.467 HEAT:  56.37682
 CYCLE:   145 TIME:   0.004 TIME LEFT:  2.00D  GRAD.:     0.324 HEAT:  56.37669
 CYCLE:   146 TIME:   0.004 TIME LEFT:  2.00D  GRAD.:     0.323 HEAT:  56.37653
 CYCLE:   147 TIME:   0.000 TIME LEFT:  2.00D  GRAD.:     0.390 HEAT:  56.37632
 CYCLE:   148 TIME:   0.004 TIME LEFT:  2.00D  GRAD.:     0.365 HEAT:  56.37612
 CYCLE:   149 TIME:   0.004 TIME LEFT:  2.00D  GRAD.:     0.330 HEAT:  56.37596
 CYCLE:   150 TIME:   0.004 TIME LEFT:  2.00D  GRAD.:     0.280 HEAT:  56.37588
 CYCLE:   151 TIME:   0.004 TIME LEFT:  2.00D  GRAD.:     0.142 HEAT:  56.37583
 CYCLE:   152 TIME:   0.000 TIME LEFT:  2.00D  GRAD.:     0.147 HEAT:  56.37582
 CYCLE:   153 TIME:   0.004 TIME LEFT:  2.00D  GRAD.:     0.102 HEAT:  56.37583
 CYCLE:   154 TIME:   0.004 TIME LEFT:  2.00D  GRAD.:     0.052 HEAT:  56.37582
 CYCLE:   155 TIME:   0.004 TIME LEFT:  2.00D  GRAD.:     0.193 HEAT:  56.37584
 CYCLE:   156 TIME:   0.000 TIME LEFT:  2.00D  GRAD.:     0.029 HEAT:  56.37581

     GRADIENT =  0.02919  IS LESS THAN CUTOFF =  0.05000



 -------------------------------------------------------------------------------
 pm3  precise nosym THREADS=1
 InChI=1S/C7H10/c1-2-3-4-7-5-6-7/h2,4,7H,5-6H2,1H3



     GEOMETRY OPTIMISED USING EIGENVECTOR FOLLOWING (EF).     
     SCF FIELD WAS ACHIEVED                                   


                              PM3 CALCULATION
                                                       MOPAC2016 (Version: 18.184L)
                                                       Sat Jun 15 10:27:58 2019
                                                       No. of days remaining =  18




          FINAL HEAT OF FORMATION =         56.37581 KCAL/MOL =     235.87639 KJ/MOL


          TOTAL ENERGY            =       -981.36501 EV
          ELECTRONIC ENERGY       =      -4267.03663 EV  POINT GROUP:     C1  
          CORE-CORE REPULSION     =       3285.67162 EV
          COSMO AREA              =        157.59 SQUARE ANGSTROMS
          COSMO VOLUME            =        143.06 CUBIC ANGSTROMS

          GRADIENT NORM           =          0.02919 = 0.00708 PER ATOM
          IONIZATION POTENTIAL    =          9.672051 EV
          HOMO LUMO ENERGIES (EV) =         -9.672  0.973
          NO. OF FILLED LEVELS    =         19
          MOLECULAR WEIGHT        =         94.1560

          MOLECULAR DIMENSIONS (Angstroms)

            Atom       Atom       Distance
            H    13    H    12     7.59397
            H    17    H    10     4.38405
            H    16    H    14     3.24220


          SCF CALCULATIONS        =        175
 
          WALL-CLOCK TIME         =          0.512 SECONDS
          COMPUTATION TIME        =          0.457 SECONDS




   ATOM   CHEMICAL          X               Y               Z
  NUMBER   SYMBOL      (ANGSTROMS)     (ANGSTROMS)     (ANGSTROMS)
 
     1       C         -1.33779421  *   0.03714620  *   0.33586242  *
     2       C         -2.24022773  *   1.22645894  *   0.13073455  *
     3       C         -2.54495522  *   0.24090238  *   1.21454716  *
     4       C          2.97914448  *  -0.74989072  *  -0.91184047  *
     5       C          0.00123681  *   0.25871126  *   0.91334803  *
     6       C          2.07946750  *  -1.14062296  *   0.19871794  *
     7       C          1.03901030  *  -0.44113813  *   0.55078314  *
     8       H         -1.36294060  *  -0.77670205  *  -0.41137921  *
     9       H         -2.87271814  *   1.27744297  *  -0.76181321  *
    10       H         -1.88720540  *   2.23070260  *   0.39127193  *
    11       H         -2.41388861  *   0.52770052  *   2.26413040  *
    12       H         -3.40199276  *  -0.43433108  *   1.12058059  *
    13       H          4.00509952  *  -0.61548817  *  -0.54391398  *
    14       H          3.00132655  *  -1.53423324  *  -1.68014375  *
    15       H          2.67438370  *   0.18494694  *  -1.39867551  *
    16       H          0.10555319  *   1.04402412  *   1.67320988  *
    17       H          2.31901083  *  -2.06553280  *   0.73801305  *

                             CARTESIAN COORDINATES

   1    C       -1.337794212     0.037146195     0.335862420
   2    C       -2.240227732     1.226458942     0.130734554
   3    C       -2.544955221     0.240902376     1.214547159
   4    C        2.979144478    -0.749890723    -0.911840471
   5    C        0.001236805     0.258711257     0.913348030
   6    C        2.079467502    -1.140622956     0.198717939
   7    C        1.039010297    -0.441138132     0.550783142
   8    H       -1.362940595    -0.776702047    -0.411379210
   9    H       -2.872718136     1.277442970    -0.761813207
  10    H       -1.887205402     2.230702597     0.391271931
  11    H       -2.413888613     0.527700518     2.264130403
  12    H       -3.401992758    -0.434331083     1.120580590
  13    H        4.005099519    -0.615488173    -0.543913985
  14    H        3.001326549    -1.534233242    -1.680143753
  15    H        2.674383695     0.184946939    -1.398675508
  16    H        0.105553193     1.044024120     1.673209876
  17    H        2.319010835    -2.065532798     0.738013049


           Empirical Formula: C7 H10  =    17 atoms



      MOLECULAR POINT GROUP   :   C1  


                  EIGENVALUES  
 -39.35744 -35.03462 -29.46789 -24.09165 -22.19056 -20.77347 -18.41361 -17.04564
 -16.53554 -15.27056 -14.92392 -14.24057 -13.09188 -12.83262 -12.41674 -12.29835
 -11.73918  -9.83038  -9.67205   0.97277   1.06616   2.95055   3.16627   3.36305
   3.41356   3.59448   3.79013   3.96480   4.17850   4.30372   4.47700   4.62145
   4.85697   4.90793   5.10160   5.17477   5.35520   6.62325


              NET ATOMIC CHARGES AND DIPOLE CONTRIBUTIONS

  ATOM NO.   TYPE          CHARGE      No. of ELECS.   s-Pop       p-Pop       
    1          C          -0.093426        4.0934     1.16071     2.93272
    2          C          -0.147133        4.1471     1.16122     2.98592
    3          C          -0.147311        4.1473     1.16126     2.98605
    4          C          -0.064368        4.0644     1.12271     2.94166
    5          C          -0.040984        4.0410     1.15209     2.88889
    6          C          -0.067861        4.0679     1.15870     2.90916
    7          C          -0.199848        4.1998     1.21405     2.98579
    8          H           0.099473        0.9005     0.90053
    9          H           0.077375        0.9226     0.92262
   10          H           0.079579        0.9204     0.92042
   11          H           0.079569        0.9204     0.92043
   12          H           0.077409        0.9226     0.92259
   13          H           0.043645        0.9564     0.95636
   14          H           0.043800        0.9562     0.95620
   15          H           0.045115        0.9549     0.95489
   16          H           0.108954        0.8910     0.89105
   17          H           0.106014        0.8940     0.89399
 DIPOLE           X         Y         Z       TOTAL
 POINT-CHG.     0.047     0.002    -0.161     0.168
 HYBRID         0.008     0.001     0.042     0.043
 SUM            0.055     0.003    -0.119     0.131


          ATOMIC ORBITAL ELECTRON POPULATIONS

     Atom    s        px        py        pz   
    1  C   1.16071   0.90257   1.00698   1.02317
    2  C   1.16122   1.03000   0.94859   1.00733
    3  C   1.16126   0.99116   1.02905   0.96584
    4  C   1.12271   0.97560   1.00561   0.96045
    5  C   1.15209   0.90904   0.98370   0.99615
    6  C   1.15870   0.94345   0.97937   0.98634
    7  C   1.21405   0.98129   0.99697   1.00753
    8  H   0.90053
    9  H   0.92262
   10  H   0.92042
   11  H   0.92043
   12  H   0.92259
   13  H   0.95636
   14  H   0.95620
   15  H   0.95489
   16  H   0.89105
   17  H   0.89399
 *******************************************************************************
 ** Site#: 14399        For non-commercial use only    Version 18.184L 64BITS **
 *******************************************************************************
 ** Cite this program as: MOPAC2016, Version: 18.184L, James J. P. Stewart,   **
 ** Stewart Computational Chemistry, web: HTTP://OpenMOPAC.net. Days left:  18**
 *******************************************************************************
 **                                                                           **
 **                                MOPAC2016                                  **
 **                                                                           **
 *******************************************************************************

                              PM3 CALCULATION RESULTS

 *******************************************************************************
 *  CALCULATION DONE:                                Sat Jun 15 10:27:58 2019  *
 *  PM3        - The PM3 Hamiltonian to be used
 *  OLDGEO     - PREVIOUS GEOMETRY TO BE USED
 *  PRECISE    - CRITERIA TO BE INCREASED BY 100 TIMES
 *  NOSYM      - POINT-GROUP SYMMETRY SET TO C1
 *  THREADS=1  - MULTI-THREADING NOT USED
 *  T=         - A TIME OF 172800.0 SECONDS REQUESTED
 *  DUMP=N     - RESTART FILE WRITTEN EVERY  7200.000 SECONDS
 *  THERMO     - THERMODYNAMIC QUANTITIES TO BE CALCULATED
 *******************************************************************************
oldgeo thermo nosym precise THREADS=1  pm3
 InChI=1S/C7H10/c1-2-3-4-7-5-6-7/h2,4,7H,5-6H2,1H3

   ATOM   CHEMICAL          X               Y               Z
  NUMBER   SYMBOL      (ANGSTROMS)     (ANGSTROMS)     (ANGSTROMS)
 
     1       C         -1.33779421  *   0.03714620  *   0.33586242  *
     2       C         -2.24022773  *   1.22645894  *   0.13073455  *
     3       C         -2.54495522  *   0.24090238  *   1.21454716  *
     4       C          2.97914448  *  -0.74989072  *  -0.91184047  *
     5       C          0.00123681  *   0.25871126  *   0.91334803  *
     6       C          2.07946750  *  -1.14062296  *   0.19871794  *
     7       C          1.03901030  *  -0.44113813  *   0.55078314  *
     8       H         -1.36294060  *  -0.77670205  *  -0.41137921  *
     9       H         -2.87271814  *   1.27744297  *  -0.76181321  *
    10       H         -1.88720540  *   2.23070260  *   0.39127193  *
    11       H         -2.41388861  *   0.52770052  *   2.26413040  *
    12       H         -3.40199276  *  -0.43433108  *   1.12058059  *
    13       H          4.00509952  *  -0.61548817  *  -0.54391398  *
    14       H          3.00132655  *  -1.53423324  *  -1.68014375  *
    15       H          2.67438370  *   0.18494694  *  -1.39867551  *
    16       H          0.10555319  *   1.04402412  *   1.67320988  *
    17       H          2.31901083  *  -2.06553280  *   0.73801305  *
 


          CARTESIAN COORDINATES 

    NO.       ATOM           X           Y           Z

     1         C         -1.3378      0.0371      0.3359
     2         C         -2.2402      1.2265      0.1307
     3         C         -2.5450      0.2409      1.2145
     4         C          2.9791     -0.7499     -0.9118
     5         C          0.0012      0.2587      0.9133
     6         C          2.0795     -1.1406      0.1987
     7         C          1.0390     -0.4411      0.5508
     8         H         -1.3629     -0.7767     -0.4114
     9         H         -2.8727      1.2774     -0.7618
    10         H         -1.8872      2.2307      0.3913
    11         H         -2.4139      0.5277      2.2641
    12         H         -3.4020     -0.4343      1.1206
    13         H          4.0051     -0.6155     -0.5439
    14         H          3.0013     -1.5342     -1.6801
    15         H          2.6744      0.1849     -1.3987
    16         H          0.1056      1.0440      1.6732
    17         H          2.3190     -2.0655      0.7380

  H: (PM3): J. J. P. STEWART, J. COMP. CHEM. 10, 209 (1989).
  C: (PM3): J. J. P. STEWART, J. COMP. CHEM. 10, 209 (1989).

           Empirical Formula: C7 H10  =    17 atoms



      MOLECULAR POINT GROUP   :   C1  


      RHF CALCULATION, NO. OF DOUBLY OCCUPIED LEVELS = 19



          HEAT OF FORMATION =      56.375810 KCALS/MOLE


          CARTESIAN COORDINATE DERIVATIVES

   NUMBER  ATOM         X            Y            Z

     1       C     -0.000535    -0.000671     0.003807
     2       C     -0.000339     0.000527     0.001160
     3       C      0.001866     0.000800    -0.001971
     4       C      0.006208    -0.002352    -0.002045
     5       C      0.008894     0.004038    -0.004261
     6       C      0.008064    -0.001225    -0.005028
     7       C     -0.014541    -0.012769     0.002351
     8       H      0.000064     0.001498    -0.001472
     9       H     -0.000150    -0.001014     0.000753
    10       H     -0.001894     0.001723    -0.002793
    11       H      0.001007    -0.001179    -0.000679
    12       H     -0.001295    -0.001596     0.001661
    13       H     -0.001644    -0.000502    -0.003133
    14       H      0.002641     0.003739     0.006987
    15       H     -0.007440     0.002033    -0.000774
    16       H      0.000060     0.004665     0.003916
    17       H     -0.000967     0.002285     0.001521
 


          GRADIENT NORM =   0.02961


          TIME FOR SCF CALCULATION =    0.00

          TIME FOR DERIVATIVES     =    0.00

          MOLECULAR WEIGHT =   94.16



          ROTATIONAL CONSTANTS IN CM(-1)

          A =    0.31522656   B =    0.03567212   C =    0.03423030



           PRINCIPAL MOMENTS OF INERTIA IN UNITS OF 10**(-40)*GRAM-CM**2

          A =       88.8021   B =      784.7242   C =      817.7775


          ORIENTATION OF MOLECULE IN FORCE CALCULATION

    NO.       ATOM         X         Y         Z

     1          C       0.8868    0.7452   -0.6760
     2          C       2.3938    0.7452   -0.6760
     3          C       1.6509    2.0440   -0.6760
     4          C      -2.1497   -2.4483    0.5046
     5          C       0.1812    0.3412    0.5546
     6          C      -2.0704   -0.9687    0.5076
     7          C      -0.9433   -0.3169    0.5269
     8          H       0.3613    0.4445   -1.6006
     9          H       2.9343    0.4192   -1.5710
    10          H       2.9395    0.4298    0.2205
    11          H       1.6559    2.6743    0.2205
    12          H       1.6440    2.6751   -1.5710
    13          H      -2.7081   -2.8033    1.3811
    14          H      -2.6774   -2.8012   -0.3914
    15          H      -1.1631   -2.9281    0.5210
    16          H       0.6351    0.6145    1.5160
    17          H      -3.0173   -0.4146    0.4938


    FIRST DERIVATIVES WILL BE USED IN THE CALCULATION OF SECOND DERIVATIVES

          ESTIMATED TIME TO COMPLETE CALCULATION =        0.80 SECONDS

    FOR POINT-GROUP C1   THERE ARE   1 UNIQUE SYMMETRY FUNCTIONS.

 STEP:   1 TIME =     0.01 SECS, INTEGRAL =      0.01 TIME LEFT: 172799.98
 STEP:   2 TIME =     0.01 SECS, INTEGRAL =      0.02 TIME LEFT: 172799.97
 STEP:   3 TIME =     0.01 SECS, INTEGRAL =      0.03 TIME LEFT: 172799.96
 STEP:   4 TIME =     0.01 SECS, INTEGRAL =      0.04 TIME LEFT: 172799.95
 STEP:   5 TIME =     0.01 SECS, INTEGRAL =      0.05 TIME LEFT: 172799.94
 STEP:   6 TIME =     0.01 SECS, INTEGRAL =      0.07 TIME LEFT: 172799.93
 STEP:   7 TIME =     0.01 SECS, INTEGRAL =      0.08 TIME LEFT: 172799.92
 STEP:   8 TIME =     0.01 SECS, INTEGRAL =      0.09 TIME LEFT: 172799.91
 STEP:   9 TIME =     0.01 SECS, INTEGRAL =      0.10 TIME LEFT: 172799.89
 STEP:  10 TIME =     0.01 SECS, INTEGRAL =      0.11 TIME LEFT: 172799.88
 STEP:  11 TIME =     0.01 SECS, INTEGRAL =      0.12 TIME LEFT: 172799.87
 STEP:  12 TIME =     0.01 SECS, INTEGRAL =      0.14 TIME LEFT: 172799.86
 STEP:  13 TIME =     0.01 SECS, INTEGRAL =      0.15 TIME LEFT: 172799.85
 STEP:  14 TIME =     0.01 SECS, INTEGRAL =      0.16 TIME LEFT: 172799.84
 STEP:  15 TIME =     0.01 SECS, INTEGRAL =      0.17 TIME LEFT: 172799.82
 STEP:  16 TIME =     0.01 SECS, INTEGRAL =      0.18 TIME LEFT: 172799.81
 STEP:  17 TIME =     0.01 SECS, INTEGRAL =      0.20 TIME LEFT: 172799.80
 STEP:  18 TIME =     0.01 SECS, INTEGRAL =      0.21 TIME LEFT: 172799.79
 STEP:  19 TIME =     0.01 SECS, INTEGRAL =      0.22 TIME LEFT: 172799.78
 STEP:  20 TIME =     0.02 SECS, INTEGRAL =      0.23 TIME LEFT: 172799.76
 STEP:  21 TIME =     0.01 SECS, INTEGRAL =      0.25 TIME LEFT: 172799.75
 STEP:  22 TIME =     0.01 SECS, INTEGRAL =      0.26 TIME LEFT: 172799.74
 STEP:  23 TIME =     0.02 SECS, INTEGRAL =      0.27 TIME LEFT: 172799.72
 STEP:  24 TIME =     0.01 SECS, INTEGRAL =      0.29 TIME LEFT: 172799.71
 STEP:  25 TIME =     0.01 SECS, INTEGRAL =      0.30 TIME LEFT: 172799.70
 STEP:  26 TIME =     0.02 SECS, INTEGRAL =      0.31 TIME LEFT: 172799.68
 STEP:  27 TIME =     0.01 SECS, INTEGRAL =      0.32 TIME LEFT: 172799.67
 STEP:  28 TIME =     0.01 SECS, INTEGRAL =      0.34 TIME LEFT: 172799.66
 STEP:  29 TIME =     0.01 SECS, INTEGRAL =      0.35 TIME LEFT: 172799.65
 STEP:  30 TIME =     0.02 SECS, INTEGRAL =      0.36 TIME LEFT: 172799.63
 STEP:  31 TIME =     0.01 SECS, INTEGRAL =      0.38 TIME LEFT: 172799.62
 STEP:  32 TIME =     0.01 SECS, INTEGRAL =      0.39 TIME LEFT: 172799.61
 STEP:  33 TIME =     0.02 SECS, INTEGRAL =      0.40 TIME LEFT: 172799.59
 STEP:  34 TIME =     0.01 SECS, INTEGRAL =      0.41 TIME LEFT: 172799.58
 STEP:  35 TIME =     0.01 SECS, INTEGRAL =      0.43 TIME LEFT: 172799.57
 STEP:  36 TIME =     0.01 SECS, INTEGRAL =      0.44 TIME LEFT: 172799.56
 STEP:  37 TIME =     0.01 SECS, INTEGRAL =      0.45 TIME LEFT: 172799.55
 STEP:  38 TIME =     0.01 SECS, INTEGRAL =      0.46 TIME LEFT: 172799.54
 STEP:  39 TIME =     0.01 SECS, INTEGRAL =      0.47 TIME LEFT: 172799.52
 STEP:  40 TIME =     0.02 SECS, INTEGRAL =      0.49 TIME LEFT: 172799.51
 STEP:  41 TIME =     0.01 SECS, INTEGRAL =      0.50 TIME LEFT: 172799.50
 STEP:  42 TIME =     0.01 SECS, INTEGRAL =      0.51 TIME LEFT: 172799.48
 STEP:  43 TIME =     0.01 SECS, INTEGRAL =      0.52 TIME LEFT: 172799.47
 STEP:  44 TIME =     0.01 SECS, INTEGRAL =      0.54 TIME LEFT: 172799.46
 STEP:  45 TIME =     0.01 SECS, INTEGRAL =      0.55 TIME LEFT: 172799.45
 STEP:  46 TIME =     0.01 SECS, INTEGRAL =      0.56 TIME LEFT: 172799.44
 STEP:  47 TIME =     0.02 SECS, INTEGRAL =      0.57 TIME LEFT: 172799.42
 STEP:  48 TIME =     0.01 SECS, INTEGRAL =      0.59 TIME LEFT: 172799.41
 STEP:  49 TIME =     0.01 SECS, INTEGRAL =      0.60 TIME LEFT: 172799.40
 STEP:  50 TIME =     0.01 SECS, INTEGRAL =      0.61 TIME LEFT: 172799.39
 STEP:  51 TIME =     0.01 SECS, INTEGRAL =      0.62 TIME LEFT: 172799.38

(To convert to Hartree/Bohr^2, multiply by (10^(-21) x N x a0^2)/(4.184 x 627.51) =  0.0642)


           FORCE MATRIX IN MILLIDYNES/ANGSTROM


                  C  1       C  2       C  3       C  4       C  5       C  6
 ------------------------------------------------------------------------------
     C    1  15.819680
     C    2   4.704708  15.349749
     C    3   4.705221   5.169682  15.349922
     C    4   0.079694   0.009644   0.008174  14.649385
     C    5   5.165492   0.611468   0.611064   0.071862  18.606007
     C    6   0.073889   0.012948   0.014233   5.118523   0.745546  18.308285
     C    7   1.007715   0.033795   0.037036   0.942727  11.474438  11.533887
     H    8   4.587346   0.435897   0.435148   0.001095   0.435024   0.004994
     H    9   0.459366   4.849365   0.460419   0.001268   0.041382   0.001487
     H   10   0.461169   4.823901   0.462270   0.000697   0.026769   0.000980
     H   11   0.461566   0.462451   4.822858   0.000541   0.026817   0.001160
     H   12   0.459469   0.460675   4.849071   0.001438   0.042240   0.002335
     H   13   0.008777   0.001214   0.000893   4.712193   0.010662   0.438052
     H   14   0.010133   0.001796   0.001001   4.712989   0.009231   0.437610
     H   15   0.000777   0.000655   0.000798   4.769283   0.004587   0.475028
     H   16   0.451063   0.016566   0.016720   0.065979   4.718458   0.044966
     H   17   0.067877   0.008061   0.008251   0.437165   0.043944   4.737676


                  C  7       H  8       H  9       H 10       H 11       H 12
 ------------------------------------------------------------------------------
     C    7  24.934998
     H    8   0.039652   5.101963
     H    9   0.004729   0.020378   5.453614
     H   10   0.003119   0.037573   0.494793   5.433267
     H   11   0.003210   0.037711   0.042283   0.021299   5.432665
     H   12   0.005152   0.020420   0.020479   0.042316   0.494671   5.453618
     H   13   0.035475   0.000299   0.000202   0.000169   0.000164   0.000296
     H   14   0.033487   0.000487   0.000351   0.000194   0.000179   0.000132
     H   15   0.032582   0.000389   0.000186   0.000120   0.000106   0.000175
     H   16   0.443831   0.034161   0.001497   0.011333   0.011923   0.001496
     H   17   0.447975   0.000847   0.001292   0.000425   0.000450   0.001279


                  H 13       H 14       H 15       H 16       H 17
 ------------------------------------------------------------------
     H   13   5.426974
     H   14   0.571007   5.427708
     H   15   0.562495   0.563225   5.484768
     H   16   0.008815   0.007938   0.000575   5.098452
     H   17   0.020694   0.020538   0.041232   0.058316   5.118417


          HEAT OF FORMATION =      56.375810 KCALS/MOLE

          ZERO POINT ENERGY      92.267 KCAL/MOL


           NORMAL COORDINATE ANALYSIS (Total motion = 1 Angstrom)


   Root No.       1         2         3         4         5         6         7         8

                 1 A       2 A       3 A       4 A       5 A       6 A       7 A       8 A   

                  34.5     114.4     131.4     202.6     228.3     365.6     407.7     538.7
  
           1    0.0230    0.0148   -0.0005    0.0074   -0.0032    0.0292    0.0269    0.0054
           2   -0.0339    0.0189    0.0031   -0.0160    0.0283    0.0148   -0.0355    0.0148
           3    0.0005   -0.0227   -0.0017   -0.0245   -0.0168    0.0570   -0.0098   -0.0347
           4    0.0228    0.0152   -0.0006    0.0083   -0.0016    0.0334    0.0327    0.0164
           5    0.0442    0.0205    0.0050   -0.0003   -0.0026    0.0202    0.0100    0.0184
           6    0.0152   -0.0024   -0.0152    0.0153    0.0326   -0.0293   -0.0263   -0.0012
           7   -0.0442    0.0149   -0.0020   -0.0052    0.0257    0.0337   -0.0096    0.0326
           8    0.0059    0.0200    0.0042   -0.0082    0.0124    0.0167   -0.0156    0.0180
           9   -0.0214    0.0442    0.0067    0.0173   -0.0258   -0.0304    0.0240   -0.0100
          10   -0.0364   -0.0357   -0.0116    0.0462   -0.0295   -0.0081   -0.0126   -0.0138
          11    0.0150   -0.0103    0.0002    0.0111   -0.0181   -0.0199   -0.0130   -0.0268
          12   -0.0094    0.0604    0.0074   -0.0050   -0.0189    0.0017   -0.0104   -0.0011
          13    0.0294   -0.0011    0.0069   -0.0043   -0.0114   -0.0215   -0.0276    0.0058
          14   -0.0383   -0.0191   -0.0063   -0.0281    0.0220   -0.0156    0.0485   -0.0291
          15    0.0027   -0.0452   -0.0004   -0.0365   -0.0233    0.0214   -0.0104   -0.0270
          16   -0.0006   -0.0058    0.0035   -0.0309    0.0111   -0.0327    0.0043   -0.0199
          17    0.0129   -0.0121   -0.0008    0.0168   -0.0209   -0.0151   -0.0132   -0.0179
          18    0.0089   -0.0065    0.0031    0.0453    0.0538    0.0108    0.0224   -0.0235
          19    0.0151    0.0027    0.0080   -0.0392    0.0123   -0.0397   -0.0092   -0.0403
          20   -0.0140   -0.0250   -0.0084    0.0332   -0.0204    0.0056    0.0129    0.0293
          21    0.0060   -0.0521    0.0013   -0.0202   -0.0001   -0.0252    0.0198    0.1146
          22    0.0475    0.0261   -0.0076    0.0289    0.0121    0.0222    0.0499    0.0171
          23   -0.0817    0.0556    0.0124   -0.0107    0.0250    0.0096   -0.0629    0.0448
          24    0.0021   -0.0406   -0.0007   -0.0375   -0.0239    0.0592   -0.0135   -0.0488
          25    0.0485    0.0271   -0.0087    0.0365    0.0263   -0.0297    0.0189    0.0536
          26    0.0522    0.0601    0.0162    0.0216   -0.0380   -0.0190    0.0626    0.0294
          27    0.0278   -0.0096   -0.0242    0.0245    0.0628   -0.0543   -0.0552    0.0175
          28    0.0307    0.0039    0.0082   -0.0127   -0.0434    0.1006    0.0717   -0.0175
          29    0.0928   -0.0183   -0.0050   -0.0105    0.0085    0.0649    0.0005    0.0059
          30    0.0276   -0.0092   -0.0241    0.0247    0.0625   -0.0555   -0.0549    0.0161
          31   -0.0857    0.0021    0.0051   -0.0378    0.0122    0.1043   -0.0322    0.0211
          32    0.0262   -0.0196   -0.0066   -0.0241    0.0398    0.0529   -0.0601    0.0176
          33   -0.0355    0.0723    0.0143    0.0288   -0.0453   -0.0574    0.0571   -0.0099
          34   -0.0683    0.0275   -0.0107    0.0137    0.0688   -0.0330   -0.0328    0.0719
          35   -0.0146    0.0599    0.0150    0.0077   -0.0149   -0.0192    0.0303    0.0212
          36   -0.0356    0.0723    0.0144    0.0285   -0.0457   -0.0563    0.0578   -0.0088
          37   -0.0345   -0.0098   -0.2425    0.0431   -0.0512   -0.0038   -0.0172   -0.0119
          38    0.0168    0.0430    0.0173   -0.0541   -0.0531   -0.0380   -0.0380   -0.0014
          39   -0.0074    0.0987   -0.1330   -0.0339   -0.0472   -0.0029   -0.0236    0.0116
          40   -0.0556   -0.0771    0.2167    0.0907   -0.0301    0.0010   -0.0215   -0.0176
          41    0.0394   -0.0423   -0.0054    0.0165    0.0506   -0.0240    0.0296   -0.0589
          42   -0.0077    0.0975   -0.1251   -0.0334   -0.0463   -0.0022   -0.0228    0.0138
          43   -0.0477   -0.0449   -0.0210    0.0725   -0.0443    0.0006   -0.0208   -0.0147
          44   -0.0088   -0.0296   -0.0100    0.0646   -0.0483   -0.0022   -0.0296   -0.0271
          45   -0.0275    0.0461    0.2696    0.0025   -0.0364    0.0006   -0.0328    0.0128
          46    0.0449   -0.0170    0.0083    0.0287   -0.0106   -0.0477   -0.0764    0.1015
          47   -0.0599   -0.0281   -0.0058   -0.0916    0.0263   -0.0674    0.1557   -0.0577
          48    0.0015   -0.0343   -0.0012   -0.0331   -0.0240    0.0479   -0.0171   -0.0614
          49    0.0127    0.0033    0.0087   -0.0530    0.0191   -0.0464    0.0012   -0.0398
          50    0.0360    0.0040    0.0081   -0.0212   -0.0040   -0.0373   -0.0175   -0.0532
          51    0.0253   -0.0038   -0.0063    0.1271    0.1269    0.0492   -0.0055   -0.1473


   Root No.       9        10        11        12        13        14        15        16

                 9 A      10 A      11 A      12 A      13 A      14 A      15 A      16 A   

                 591.8     814.0     818.5     871.6     900.5     905.4     955.7     958.9
  
           1   -0.0032   -0.0027   -0.0000   -0.0001   -0.0072    0.0102   -0.0158   -0.0052
           2   -0.0050   -0.0005   -0.0009   -0.0019   -0.0100   -0.0020   -0.0024    0.0193
           3    0.0005   -0.0025    0.0016   -0.0017   -0.0135    0.0088    0.0002   -0.0002
           4   -0.0096    0.0078   -0.0029    0.0133   -0.0106   -0.0184    0.0083    0.0299
           5   -0.0099    0.0040    0.0026    0.0005    0.0137   -0.0060    0.0106   -0.0083
           6    0.0047    0.0014    0.0010   -0.0090   -0.0146    0.0142   -0.0058    0.0024
           7   -0.0153    0.0040    0.0037   -0.0046    0.0172   -0.0020    0.0068   -0.0146
           8   -0.0074   -0.0044    0.0040   -0.0116    0.0097    0.0176   -0.0143   -0.0256
           9    0.0039   -0.0009    0.0027    0.0068   -0.0185    0.0103   -0.0063    0.0012
          10   -0.0211   -0.0019   -0.0008   -0.0007   -0.0085    0.0083    0.0321   -0.0095
          11   -0.0361   -0.0008   -0.0021   -0.0012   -0.0096    0.0057    0.0228   -0.0072
          12    0.0021   -0.0088    0.0077   -0.0060   -0.0024   -0.0090   -0.0006   -0.0005
          13    0.0296   -0.0127    0.0120    0.0043    0.0234    0.0140   -0.0204    0.0120
          14    0.0144    0.0209   -0.0168   -0.0052   -0.0207   -0.0349   -0.0112   -0.0054
          15    0.0192    0.0117    0.0117    0.0030    0.0359   -0.0250    0.0016   -0.0003
          16    0.0581   -0.0069   -0.0012   -0.0012   -0.0113    0.0081    0.0081   -0.0027
          17   -0.0332    0.0011   -0.0003    0.0001    0.0025   -0.0019   -0.0073    0.0024
          18   -0.0076   -0.0216    0.0179   -0.0094   -0.0047   -0.0098    0.0006   -0.0008
          19   -0.0247    0.0037   -0.0042   -0.0022   -0.0043   -0.0067   -0.0078    0.0005
          20    0.1072   -0.0128    0.0080    0.0035    0.0083    0.0114   -0.0119    0.0072
          21   -0.0366    0.0096   -0.0143    0.0039   -0.0094    0.0127    0.0037   -0.0009
          22   -0.0182    0.0047   -0.0298   -0.0647   -0.0226    0.0528   -0.0485   -0.1072
          23   -0.0165   -0.0386    0.0163    0.1068   -0.0595   -0.0200    0.0368    0.2030
          24    0.0129    0.0067    0.0136   -0.0000    0.0140   -0.0114    0.0066   -0.0021
          25   -0.0055   -0.0021    0.0163    0.1385    0.0585   -0.1310    0.0459   -0.0217
          26   -0.0061    0.1000    0.1306    0.0846   -0.0144   -0.0509    0.0309   -0.0798
          27    0.0062   -0.0432   -0.0370    0.0397    0.0405   -0.0412    0.0105   -0.0027
          28   -0.0171    0.0278   -0.0239   -0.0923   -0.0706    0.0553    0.0157    0.1086
          29   -0.0174   -0.0763   -0.1266   -0.0490    0.0539   -0.0228    0.0674    0.1103
          30    0.0069   -0.0427   -0.0347    0.0417    0.0399   -0.0406    0.0104   -0.0049
          31   -0.0318   -0.1016   -0.0812    0.0914   -0.0098   -0.0024   -0.0134   -0.1687
          32   -0.0118    0.0225    0.0762    0.0420   -0.0876    0.0663   -0.0380   -0.0198
          33    0.0072   -0.0210   -0.0521   -0.0345    0.0554   -0.0265    0.0117   -0.0014
          34   -0.0118    0.1145    0.0987   -0.1323    0.1242    0.0020    0.0731    0.0389
          35   -0.0049   -0.0313   -0.0685   -0.0639    0.1098   -0.0318    0.0091   -0.0303
          36    0.0062   -0.0226   -0.0534   -0.0323    0.0562   -0.0265    0.0106   -0.0031
          37   -0.0683    0.0099   -0.0045    0.0014    0.0078   -0.0108   -0.0375    0.0101
          38    0.0426    0.0585   -0.0624    0.0353   -0.0247    0.0906    0.1446   -0.0390
          39    0.0064    0.0244   -0.0205    0.0111    0.0024    0.0147    0.0048   -0.0008
          40   -0.0657    0.0041    0.0005   -0.0023    0.0066   -0.0165   -0.0380    0.0099
          41    0.0033   -0.0876    0.0610   -0.0408   -0.0514   -0.0120    0.1325   -0.0419
          42    0.0114    0.0239   -0.0196    0.0113    0.0052    0.0134   -0.0026    0.0018
          43   -0.0773    0.0084   -0.0023   -0.0004    0.0091   -0.0169   -0.0471    0.0126
          44   -0.1446    0.0206   -0.0059    0.0001    0.0251   -0.0424   -0.1307    0.0357
          45    0.0145    0.0334   -0.0278    0.0154    0.0055    0.0190    0.0012    0.0008
          46    0.1061    0.0422   -0.0485   -0.0375   -0.0660   -0.0894   -0.0636   -0.0078
          47   -0.1235   -0.0664    0.0556    0.0778    0.1327    0.1628   -0.0352    0.0609
          48    0.0214    0.0104    0.0193   -0.0007    0.0346   -0.0322    0.0273   -0.0092
          49    0.0259   -0.0045   -0.0047   -0.0059   -0.0207   -0.0046   -0.0195    0.0012
          50   -0.0799    0.0095   -0.0095   -0.0050   -0.0111   -0.0201   -0.0528    0.0091
          51    0.0715    0.1640   -0.1251    0.0958    0.0699    0.1060   -0.0012    0.0097


   Root No.      17        18        19        20        21        22        23        24

                17 A      18 A      19 A      20 A      21 A      22 A      23 A      24 A   

                1003.8    1011.6    1070.1    1090.9    1131.1    1144.6    1157.7    1172.4
  
           1   -0.0318    0.0156    0.0026   -0.0352    0.0320   -0.0072   -0.0305   -0.0062
           2   -0.0185    0.0094   -0.0088    0.0611   -0.0563   -0.0014   -0.0166    0.0102
           3   -0.0104    0.0042    0.0090    0.0004    0.0003    0.0026   -0.0137   -0.0033
           4   -0.0113    0.0067   -0.0079    0.0330   -0.0291    0.0074    0.0163   -0.0371
           5    0.0200   -0.0096    0.0020   -0.0059   -0.0009    0.0116    0.0538   -0.0419
           6    0.0144   -0.0060   -0.0084    0.0388    0.0458   -0.0013    0.0054   -0.0043
           7    0.0115   -0.0050    0.0006   -0.0124    0.0168    0.0127    0.0561    0.0550
           8   -0.0196    0.0103    0.0006   -0.0325    0.0249   -0.0014   -0.0134    0.0100
           9    0.0145   -0.0061   -0.0018   -0.0392   -0.0461   -0.0003    0.0058    0.0060
          10   -0.0052    0.0044   -0.0098   -0.0018    0.0010    0.0306   -0.0074    0.0005
          11   -0.0021    0.0017    0.0069    0.0002   -0.0003   -0.0388    0.0172   -0.0025
          12    0.0169    0.0410    0.0028    0.0007   -0.0004    0.0000   -0.0003    0.0001
          13    0.0018   -0.0013   -0.0206    0.0097   -0.0055   -0.0053   -0.0072    0.0042
          14   -0.0002    0.0001   -0.0166   -0.0202    0.0087   -0.0037   -0.0056   -0.0026
          15    0.0002    0.0002   -0.0238   -0.0028    0.0009    0.0087    0.0060    0.0006
          16    0.0038   -0.0040    0.0396    0.0045   -0.0012   -0.0294    0.0142   -0.0014
          17    0.0002    0.0003   -0.0190   -0.0016    0.0001    0.0265   -0.0211    0.0039
          18   -0.0190   -0.0511   -0.0068   -0.0003   -0.0001    0.0012    0.0013   -0.0002
          19    0.0010   -0.0011   -0.0119   -0.0033    0.0008   -0.0112   -0.0063    0.0014
          20    0.0038   -0.0043    0.0180    0.0070   -0.0030    0.0002   -0.0003    0.0010
          21   -0.0037    0.0150    0.0177    0.0019   -0.0006   -0.0072   -0.0044    0.0009
          22   -0.0252    0.0189   -0.0198    0.0515   -0.1229   -0.0063   -0.0776    0.0412
          23   -0.0110    0.0079    0.0117   -0.0932    0.2148   -0.0099   -0.0475   -0.0663
          24   -0.0170    0.0031    0.0142    0.0011    0.0003    0.0061    0.0253   -0.0056
          25   -0.0298    0.0079    0.0244   -0.0121   -0.0927   -0.0127   -0.0980    0.0842
          26    0.0851   -0.0465    0.0154    0.1246    0.1255   -0.0328   -0.1049    0.1535
          27   -0.0223    0.0087    0.0072   -0.0391   -0.0427    0.0028   -0.0064   -0.0023
          28    0.1006   -0.0447   -0.0242    0.0968    0.0579   -0.0220   -0.0568    0.0731
          29    0.1213   -0.0635    0.0272   -0.1120   -0.0688   -0.0330   -0.0867    0.1744
          30   -0.0205    0.0073    0.0110   -0.0427   -0.0340    0.0016    0.0006    0.0047
          31    0.1536   -0.0755    0.0006    0.0535    0.0247   -0.0406   -0.1094   -0.1801
          32    0.0260   -0.0075   -0.0063   -0.1435   -0.0853   -0.0019   -0.0041    0.0293
          33   -0.0207    0.0078    0.0027    0.0437    0.0344    0.0010    0.0003   -0.0068
          34    0.0609   -0.0384    0.0509   -0.0930   -0.0645   -0.0338   -0.1452   -0.1803
          35   -0.0690    0.0309    0.0029    0.0733    0.1453    0.0013   -0.0324   -0.0013
          36   -0.0225    0.0093   -0.0002    0.0392    0.0435    0.0019   -0.0067   -0.0004
          37    0.0008   -0.0196    0.0217    0.0021   -0.0005   -0.0182    0.0073   -0.0008
          38   -0.0946   -0.1583   -0.0360   -0.0074    0.0039    0.0052    0.0219   -0.0060
          39   -0.0185   -0.0424    0.0028   -0.0001    0.0003   -0.0111    0.0088   -0.0017
          40    0.0121    0.0076    0.0238    0.0025   -0.0006   -0.0188    0.0074   -0.0009
          41    0.0559    0.1979   -0.0125   -0.0026    0.0006    0.0019    0.0203   -0.0053
          42   -0.0175   -0.0418   -0.0070   -0.0006    0.0002    0.0110   -0.0081    0.0016
          43    0.0083   -0.0078    0.0350    0.0036   -0.0009   -0.0449    0.0221   -0.0033
          44    0.0228   -0.0248    0.0946    0.0108   -0.0039   -0.1962    0.0798   -0.0107
          45   -0.0227   -0.0531   -0.0024   -0.0004    0.0002   -0.0007    0.0005   -0.0001
          46    0.0625   -0.0102   -0.2047   -0.0544    0.0229    0.1012    0.0197   -0.0237
          47    0.0400   -0.0060   -0.1104    0.0343   -0.0172    0.0634    0.0120   -0.0043
          48   -0.0399    0.0065    0.0854    0.0114   -0.0050   -0.0591   -0.0124    0.0140
          49    0.0145   -0.0216    0.1810    0.0165    0.0012    0.1240    0.0119   -0.0049
          50    0.0194   -0.0244    0.2153    0.0180    0.0043    0.2856   -0.0260   -0.0019
          51    0.0479    0.1286    0.0207   -0.0051    0.0053   -0.0000   -0.0019   -0.0005


   Root No.      25        26        27        28        29        30        31        32

                25 A      26 A      27 A      28 A      29 A      30 A      31 A      32 A   

                1176.4    1198.1    1286.6    1369.2    1392.4    1396.5    1399.8    1414.0
  
           1    0.0070   -0.0088   -0.0065    0.0199   -0.0134    0.0004   -0.0012    0.0195
           2    0.0067   -0.0045   -0.0037    0.0114   -0.0077    0.0001    0.0020    0.0112
           3    0.0387   -0.0266    0.0524   -0.0052    0.0102   -0.0003   -0.0001   -0.0228
           4   -0.0028    0.0007   -0.0196   -0.0054   -0.0016   -0.0001    0.0287    0.0099
           5   -0.0151   -0.0019    0.0269    0.0014    0.0035   -0.0000   -0.0148   -0.0112
           6   -0.0101   -0.0033   -0.0114    0.0012   -0.0015    0.0001   -0.0003    0.0029
           7   -0.0068   -0.0011    0.0132   -0.0016    0.0023   -0.0000   -0.0018   -0.0046
           8    0.0056    0.0014   -0.0306   -0.0055   -0.0029    0.0002   -0.0319    0.0144
           9   -0.0092   -0.0032   -0.0115    0.0012   -0.0015    0.0000    0.0003    0.0029
          10   -0.0047   -0.0001   -0.0024   -0.0073   -0.0302    0.0018   -0.0001   -0.0043
          11    0.0224    0.0135    0.0006   -0.0363   -0.0047    0.0003    0.0004    0.0445
          12   -0.0003   -0.0002   -0.0000   -0.0002   -0.0012   -0.0432   -0.0001    0.0000
          13   -0.0182   -0.0136   -0.0030    0.0189   -0.0039    0.0001   -0.0000   -0.0086
          14   -0.0135   -0.0095   -0.0013    0.0112   -0.0022    0.0001   -0.0003   -0.0054
          15   -0.0105    0.0636   -0.0276   -0.0007   -0.0060    0.0002    0.0001    0.0172
          16    0.0144    0.0045    0.0124   -0.0205    0.0069   -0.0001    0.0001    0.0030
          17   -0.0373   -0.0292    0.0239   -0.0053    0.0121   -0.0004   -0.0001   -0.0192
          18    0.0012    0.0030   -0.0005   -0.0005    0.0000   -0.0007    0.0000    0.0004
          19   -0.0176   -0.0160    0.0125    0.0009    0.0035   -0.0001   -0.0001   -0.0111
          20   -0.0026   -0.0034    0.0046    0.0004    0.0021   -0.0001    0.0000   -0.0046
          21   -0.0073   -0.0094    0.0029    0.0013    0.0001   -0.0003   -0.0000   -0.0012
          22   -0.0161    0.3077    0.1324   -0.0026    0.0131   -0.0003    0.0026   -0.0315
          23   -0.0198    0.1744    0.0759   -0.0015    0.0076    0.0001   -0.0051   -0.0180
          24    0.0631   -0.2714   -0.0533    0.0126   -0.0104    0.0001    0.0000    0.0165
          25    0.0692   -0.0052   -0.0323   -0.0809    0.0519   -0.0008   -0.1593   -0.0784
          26    0.0410   -0.0186    0.0480    0.0456   -0.0263    0.0004    0.0872    0.0368
          27    0.0146   -0.0037   -0.0225   -0.0557    0.0387   -0.0005   -0.1402   -0.0636
          28   -0.0212    0.0149   -0.1145   -0.0732    0.0407   -0.0006   -0.1592   -0.0557
          29    0.0096   -0.0142    0.0139    0.0497   -0.0319    0.0004    0.0901    0.0479
          30    0.0120   -0.0181    0.0400    0.0549   -0.0365    0.0005    0.1408    0.0586
          31   -0.0299   -0.0061   -0.0462    0.0058   -0.0069    0.0002    0.0033    0.0130
          32   -0.0199    0.0200   -0.1058   -0.0877    0.0501   -0.0020    0.1832   -0.0735
          33    0.0112   -0.0181    0.0399    0.0544   -0.0357    0.0015   -0.1408    0.0596
          34    0.0441   -0.0196    0.0251   -0.0016    0.0036   -0.0001    0.0055   -0.0081
          35    0.0378    0.0043   -0.0516   -0.0922    0.0572   -0.0022    0.1815   -0.0875
          36    0.0147   -0.0038   -0.0222   -0.0551    0.0379   -0.0015    0.1401   -0.0646
          37    0.0074    0.0029    0.0016    0.0318    0.2013    0.1972    0.0016    0.0723
          38    0.0537    0.0513   -0.0652    0.1284    0.0252   -0.1515   -0.0012   -0.0808
          39    0.0159    0.0134   -0.0192    0.0767    0.1467    0.0504    0.0005    0.0053
          40    0.0078    0.0033    0.0011    0.0339    0.1995   -0.2121    0.0005    0.0723
          41    0.0522    0.0490   -0.0655    0.1288    0.0306    0.1489   -0.0003   -0.0805
          42   -0.0153   -0.0127    0.0191   -0.0751   -0.1381    0.0533   -0.0002   -0.0030
          43    0.0316    0.0217   -0.0219    0.0427   -0.0560   -0.0056   -0.0007   -0.0684
          44    0.1010    0.0623   -0.0465    0.0775   -0.0975    0.0025   -0.0012   -0.1175
          45    0.0008    0.0004   -0.0004    0.0013    0.0059    0.4250    0.0011   -0.0013
          46    0.1944    0.0377    0.0050   -0.0119   -0.0032   -0.0002    0.0004    0.0189
          47    0.1141    0.0241    0.0026   -0.0067   -0.0016    0.0006   -0.0010    0.0108
          48   -0.1446    0.0323   -0.0324    0.0209   -0.0077    0.0002    0.0000    0.0006
          49    0.0554    0.0509   -0.0291   -0.0034   -0.0099    0.0004    0.0001    0.0194
          50    0.0305    0.0483   -0.0478    0.0276   -0.0162    0.0005   -0.0001    0.0073
          51   -0.0017   -0.0001   -0.0004    0.0001   -0.0003   -0.0029   -0.0005    0.0005


   Root No.      33        34        35        36        37        38        39        40

                33 A      34 A      35 A      36 A      37 A      38 A      39 A      40 A   

                1540.3    1628.7    2268.6    3009.2    3028.0    3032.3    3071.6    3083.1
  
           1   -0.0432    0.1012    0.0039   -0.0267   -0.0071   -0.0004    0.0000   -0.0000
           2   -0.0246    0.0581    0.0023   -0.0153   -0.0041   -0.0002   -0.0000   -0.0000
           3   -0.0023   -0.0530   -0.0059   -0.0454   -0.0113   -0.0004    0.0000   -0.0000
           4    0.0577   -0.0617    0.0017    0.0003    0.0001   -0.0000   -0.0000   -0.0000
           5   -0.0365    0.0353    0.0009   -0.0006    0.0000    0.0000    0.0000    0.0000
           6   -0.0008    0.0031   -0.0006    0.0034    0.0010    0.0000    0.0000   -0.0002
           7   -0.0022   -0.0008    0.0016   -0.0003    0.0000    0.0000   -0.0000    0.0000
           8    0.0683   -0.0711    0.0009    0.0006    0.0000   -0.0000    0.0000    0.0000
           9   -0.0009    0.0031   -0.0006    0.0035    0.0009    0.0001   -0.0000    0.0003
          10   -0.0081   -0.0066    0.0026   -0.0000    0.0001    0.0072    0.0012   -0.0472
          11   -0.0439   -0.0286    0.0086    0.0000   -0.0001   -0.0005    0.0001    0.0024
          12   -0.0002   -0.0001    0.0000   -0.0000   -0.0000    0.0001   -0.0577   -0.0010
          13   -0.0603   -0.0844   -0.1444    0.0060   -0.0286   -0.0016   -0.0000   -0.0003
          14   -0.0345   -0.0486   -0.0846    0.0036   -0.0171   -0.0007    0.0000   -0.0002
          15    0.0115    0.0453    0.0155    0.0116   -0.0508   -0.0014   -0.0000   -0.0002
          16    0.0541    0.0590   -0.1351    0.0003    0.0008   -0.0585    0.0001   -0.0049
          17    0.0695    0.0625   -0.0997   -0.0000   -0.0012    0.0286   -0.0000    0.0018
          18    0.0013    0.0015   -0.0020    0.0000   -0.0002   -0.0009   -0.0001   -0.0001
          19    0.0084   -0.0076    0.2843   -0.0008    0.0058    0.0061   -0.0000    0.0011
          20    0.0025   -0.0058    0.1678   -0.0005    0.0034    0.0039   -0.0000    0.0010
          21   -0.0026    0.0000    0.0035   -0.0003   -0.0003    0.0001   -0.0002    0.0000
          22   -0.0156   -0.0462   -0.0142    0.3197    0.0765    0.0035   -0.0001    0.0002
          23   -0.0091   -0.0267   -0.0082    0.1829    0.0437    0.0020   -0.0000    0.0001
          24   -0.0259    0.0634    0.0019    0.5469    0.1377    0.0063   -0.0001    0.0003
          25   -0.0326   -0.0102    0.0004    0.0115    0.0051    0.0004    0.0002   -0.0007
          26    0.0207   -0.0125   -0.0009   -0.0096   -0.0036   -0.0002   -0.0001    0.0004
          27   -0.0734    0.0494   -0.0026   -0.0224   -0.0090   -0.0007   -0.0002    0.0010
          28   -0.0337    0.0198   -0.0007   -0.0106   -0.0014   -0.0000   -0.0001    0.0009
          29    0.0222   -0.0005   -0.0002    0.0090    0.0019    0.0000    0.0001   -0.0005
          30    0.0722   -0.0592   -0.0008   -0.0215   -0.0053   -0.0001   -0.0001    0.0014
          31    0.0020    0.0095   -0.0005    0.0024    0.0009    0.0000    0.0000   -0.0000
          32   -0.0407    0.0171   -0.0005   -0.0138   -0.0019   -0.0000   -0.0000   -0.0012
          33    0.0724   -0.0592   -0.0009   -0.0217   -0.0049   -0.0001   -0.0000   -0.0016
          34    0.0014   -0.0160   -0.0005   -0.0024   -0.0005    0.0000   -0.0000   -0.0000
          35   -0.0387   -0.0023    0.0008    0.0149    0.0060    0.0005   -0.0001    0.0012
          36   -0.0735    0.0494   -0.0026   -0.0225   -0.0088   -0.0008    0.0001   -0.0016
          37   -0.0159   -0.0073   -0.0013    0.0000   -0.0003   -0.0176   -0.2450    0.1016
          38    0.0164   -0.0017    0.0120   -0.0000   -0.0002   -0.0091   -0.1428    0.0739
          39    0.0131    0.0066    0.0074   -0.0001    0.0007    0.0328    0.3578   -0.1985
          40   -0.0154   -0.0070   -0.0011    0.0001   -0.0004   -0.0162    0.2311    0.0962
          41    0.0167   -0.0012    0.0120    0.0000   -0.0003   -0.0089    0.1410    0.0744
          42   -0.0136   -0.0069   -0.0074    0.0003   -0.0008   -0.0329    0.3636    0.2046
          43    0.0356    0.0205   -0.0116    0.0003   -0.0002   -0.0593   -0.0009    0.3644
          44    0.0574    0.0324   -0.0122   -0.0001    0.0002    0.0242    0.0008   -0.1756
          45    0.0006    0.0003   -0.0001    0.0000    0.0000   -0.0010   -0.0293    0.0060
          46    0.0179    0.0489   -0.0442   -0.0657    0.2825    0.0073   -0.0002    0.0008
          47    0.0109    0.0287   -0.0269   -0.0394    0.1701    0.0046    0.0004    0.0005
          48   -0.0453   -0.0450   -0.1115   -0.1348    0.6133    0.0161    0.0000    0.0018
          49   -0.0191   -0.0017   -0.0999   -0.0022   -0.0176    0.6444   -0.0005    0.0485
          50   -0.0649   -0.0549    0.0683    0.0012    0.0105   -0.3828    0.0004   -0.0324
          51   -0.0002    0.0009   -0.0014    0.0000   -0.0003    0.0093   -0.0014    0.0007


   Root No.      41        42        43        44        45

                41 A      42 A      43 A      44 A      45 A   

                3084.3    3098.5    3134.3    3135.3    3172.8
  
           1    0.0000   -0.0013   -0.0003   -0.0009   -0.0000
           2   -0.0001   -0.0008    0.0004   -0.0005   -0.0000
           3   -0.0000   -0.0029   -0.0000   -0.0003    0.0000
           4    0.0013   -0.0018   -0.0178    0.0201   -0.0000
           5   -0.0005    0.0008    0.0108   -0.0117    0.0000
           6    0.0306   -0.0300    0.0019   -0.0029   -0.0000
           7   -0.0002   -0.0002   -0.0002    0.0001    0.0000
           8   -0.0015   -0.0019    0.0225    0.0217   -0.0000
           9   -0.0309   -0.0297   -0.0022   -0.0028    0.0000
          10   -0.0003   -0.0000    0.0000   -0.0000   -0.0014
          11    0.0000    0.0000   -0.0000    0.0000    0.0250
          12    0.0000   -0.0000    0.0000    0.0000    0.0001
          13    0.0001   -0.0004    0.0000   -0.0002    0.0001
          14   -0.0002   -0.0002   -0.0001   -0.0001    0.0001
          15    0.0000    0.0000   -0.0000   -0.0002    0.0000
          16   -0.0000   -0.0000   -0.0000   -0.0000    0.0002
          17    0.0000   -0.0000    0.0000    0.0000    0.0003
          18   -0.0000   -0.0000   -0.0000   -0.0000    0.0000
          19    0.0000    0.0001    0.0000    0.0001   -0.0004
          20    0.0000    0.0001   -0.0000    0.0000   -0.0002
          21   -0.0000    0.0000    0.0000    0.0000   -0.0000
          22   -0.0012    0.0196    0.0001    0.0018   -0.0000
          23    0.0023    0.0112    0.0000    0.0011   -0.0000
          24    0.0002    0.0288    0.0002    0.0036   -0.0001
          25    0.1109   -0.1060    0.1155   -0.1257    0.0001
          26   -0.0651    0.0651   -0.0698    0.0758   -0.0001
          27   -0.1729    0.1624   -0.2040    0.2221   -0.0002
          28   -0.1272    0.1271    0.1021   -0.1053    0.0001
          29    0.0716   -0.0745   -0.0588    0.0602   -0.0001
          30   -0.1991    0.1973    0.1805   -0.1880    0.0002
          31    0.0028    0.0002   -0.0012   -0.0015    0.0000
          32    0.1477    0.1463   -0.1260   -0.1121    0.0000
          33    0.2014    0.1959   -0.1933   -0.1739    0.0000
          34   -0.0001    0.0024    0.0017    0.0014   -0.0000
          35   -0.1296   -0.1228   -0.1458   -0.1368    0.0001
          36    0.1741    0.1601    0.2203    0.2069   -0.0001
          37    0.0007    0.0000    0.0001   -0.0000   -0.1591
          38    0.0005    0.0000    0.0000   -0.0000   -0.0814
          39   -0.0013   -0.0001   -0.0001    0.0001    0.2508
          40    0.0005    0.0001   -0.0000   -0.0000   -0.1508
          41    0.0004    0.0001   -0.0000   -0.0000   -0.0811
          42    0.0011    0.0002   -0.0000   -0.0001   -0.2570
          43    0.0022    0.0003   -0.0001    0.0003    0.3274
          44   -0.0011   -0.0001    0.0000   -0.0001   -0.1384
          45    0.0000    0.0000    0.0000   -0.0000    0.0055
          46    0.0001   -0.0002   -0.0001    0.0015   -0.0002
          47   -0.0004   -0.0001    0.0004    0.0009   -0.0001
          48   -0.0002    0.0017    0.0002    0.0027   -0.0004
          49    0.0003    0.0001    0.0000    0.0003   -0.0002
          50   -0.0002   -0.0001   -0.0000   -0.0002    0.0003
          51   -0.0001    0.0000   -0.0000    0.0000   -0.0000


           MASS-WEIGHTED COORDINATE ANALYSIS (NORMAL COORDINATES)


   Root No.       1         2         3         4         5         6         7         8

                 1 A       2 A       3 A       4 A       5 A       6 A       7 A       8 A   

                  34.5     114.4     131.4     202.6     228.3     365.6     407.7     538.7
  
           1    0.1799    0.1032   -0.0038    0.0555   -0.0259    0.2082    0.2130    0.0323
           2   -0.2650    0.1321    0.0226   -0.1200    0.2274    0.1056   -0.2811    0.0879
           3    0.0036   -0.1582   -0.0121   -0.1836   -0.1354    0.4057   -0.0779   -0.2060
           4    0.1785    0.1059   -0.0046    0.0622   -0.0131    0.2379    0.2593    0.0975
           5    0.3458    0.1431    0.0364   -0.0023   -0.0210    0.1434    0.0793    0.1090
           6    0.1189   -0.0165   -0.1105    0.1151    0.2621   -0.2086   -0.2084   -0.0072
           7   -0.3458    0.1044   -0.0146   -0.0392    0.2068    0.2397   -0.0757    0.1936
           8    0.0460    0.1399    0.0305   -0.0615    0.0995    0.1189   -0.1233    0.1070
           9   -0.1672    0.3084    0.0491    0.1296   -0.2073   -0.2165    0.1902   -0.0593
          10   -0.2850   -0.2494   -0.0848    0.3466   -0.2370   -0.0576   -0.1000   -0.0822
          11    0.1171   -0.0720    0.0017    0.0835   -0.1452   -0.1416   -0.1033   -0.1591
          12   -0.0733    0.4217    0.0541   -0.0375   -0.1520    0.0121   -0.0821   -0.0067
          13    0.2297   -0.0076    0.0504   -0.0320   -0.0915   -0.1531   -0.2186    0.0342
          14   -0.2999   -0.1335   -0.0462   -0.2106    0.1768   -0.1111    0.3839   -0.1727
          15    0.0209   -0.3156   -0.0027   -0.2740   -0.1871    0.1525   -0.0824   -0.1601
          16   -0.0046   -0.0406    0.0258   -0.2318    0.0894   -0.2327    0.0344   -0.1178
          17    0.1012   -0.0845   -0.0057    0.1261   -0.1679   -0.1074   -0.1043   -0.1065
          18    0.0698   -0.0457    0.0225    0.3404    0.4320    0.0771    0.1774   -0.1393
          19    0.1179    0.0185    0.0583   -0.2939    0.0991   -0.2829   -0.0729   -0.2391
          20   -0.1098   -0.1748   -0.0613    0.2489   -0.1641    0.0398    0.1019    0.1739
          21    0.0466   -0.3637    0.0096   -0.1519   -0.0011   -0.1795    0.1567    0.6803
          22    0.1076    0.0529   -0.0161    0.0627    0.0283    0.0457    0.1144    0.0295
          23   -0.1852    0.1125    0.0262   -0.0233    0.0581    0.0199   -0.1443    0.0770
          24    0.0048   -0.0821   -0.0014   -0.0815   -0.0557    0.1222   -0.0310   -0.0840
          25    0.1098    0.0548   -0.0184    0.0794    0.0613   -0.0613    0.0433    0.0921
          26    0.1183    0.1217    0.0343    0.0470   -0.0885   -0.0391    0.1436    0.0505
          27    0.0629   -0.0195   -0.0510    0.0532    0.1463   -0.1119   -0.1266    0.0301
          28    0.0694    0.0078    0.0172   -0.0276   -0.1010    0.2073    0.1645   -0.0302
          29    0.2102   -0.0370   -0.0105   -0.0229    0.0199    0.1339    0.0012    0.0101
          30    0.0625   -0.0185   -0.0508    0.0538    0.1455   -0.1144   -0.1260    0.0278
          31   -0.1942    0.0043    0.0108   -0.0821    0.0284    0.2149   -0.0740    0.0363
          32    0.0593   -0.0397   -0.0139   -0.0524    0.0925    0.1090   -0.1379    0.0303
          33   -0.0804    0.1462    0.0302    0.0626   -0.1055   -0.1183    0.1311   -0.0170
          34   -0.1547    0.0556   -0.0226    0.0298    0.1602   -0.0680   -0.0753    0.1236
          35   -0.0331    0.1212    0.0316    0.0168   -0.0346   -0.0395    0.0695    0.0365
          36   -0.0808    0.1462    0.0305    0.0620   -0.1064   -0.1161    0.1327   -0.0151
          37   -0.0781   -0.0199   -0.5114    0.0937   -0.1191   -0.0078   -0.0395   -0.0205
          38    0.0381    0.0869    0.0365   -0.1175   -0.1236   -0.0784   -0.0871   -0.0024
          39   -0.0167    0.1997   -0.2806   -0.0737   -0.1098   -0.0059   -0.0543    0.0200
          40   -0.1259   -0.1559    0.4570    0.1972   -0.0701    0.0020   -0.0493   -0.0303
          41    0.0893   -0.0856   -0.0114    0.0358    0.1178   -0.0494    0.0679   -0.1013
          42   -0.0175    0.1972   -0.2639   -0.0727   -0.1077   -0.0046   -0.0524    0.0237
          43   -0.1080   -0.0909   -0.0443    0.1577   -0.1031    0.0012   -0.0477   -0.0253
          44   -0.0200   -0.0599   -0.0212    0.1406   -0.1125   -0.0045   -0.0679   -0.0467
          45   -0.0622    0.0934    0.5687    0.0054   -0.0848    0.0013   -0.0752    0.0220
          46    0.1017   -0.0344    0.0174    0.0624   -0.0247   -0.0983   -0.1753    0.1746
          47   -0.1358   -0.0568   -0.0122   -0.1991    0.0611   -0.1390    0.3574   -0.0992
          48    0.0033   -0.0694   -0.0025   -0.0720   -0.0560    0.0987   -0.0393   -0.1056
          49    0.0287    0.0066    0.0184   -0.1153    0.0444   -0.0957    0.0027   -0.0684
          50    0.0817    0.0080    0.0170   -0.0460   -0.0092   -0.0770   -0.0403   -0.0914
          51    0.0574   -0.0076   -0.0132    0.2765    0.2953    0.1014   -0.0126   -0.2532


   Root No.       9        10        11        12        13        14        15        16

                 9 A      10 A      11 A      12 A      13 A      14 A      15 A      16 A   

                 591.8     814.0     818.5     871.6     900.5     905.4     955.7     958.9
  
           1   -0.0187   -0.0275   -0.0002   -0.0012   -0.0649    0.0935   -0.1532   -0.0456
           2   -0.0294   -0.0052   -0.0094   -0.0195   -0.0908   -0.0180   -0.0230    0.1694
           3    0.0027   -0.0254    0.0161   -0.0166   -0.1225    0.0802    0.0018   -0.0014
           4   -0.0567    0.0792   -0.0289    0.1334   -0.0958   -0.1684    0.0800    0.2622
           5   -0.0584    0.0403    0.0267    0.0050    0.1244   -0.0548    0.1026   -0.0728
           6    0.0277    0.0138    0.0097   -0.0907   -0.1322    0.1299   -0.0566    0.0210
           7   -0.0910    0.0410    0.0375   -0.0459    0.1559   -0.0183    0.0658   -0.1280
           8   -0.0438   -0.0447    0.0402   -0.1161    0.0876    0.1614   -0.1390   -0.2241
           9    0.0234   -0.0094    0.0273    0.0686   -0.1678    0.0941   -0.0612    0.0109
          10   -0.1251   -0.0194   -0.0084   -0.0071   -0.0774    0.0764    0.3107   -0.0835
          11   -0.2137   -0.0083   -0.0214   -0.0122   -0.0869    0.0518    0.2206   -0.0632
          12    0.0126   -0.0891    0.0777   -0.0603   -0.0216   -0.0827   -0.0058   -0.0040
          13    0.1753   -0.1288    0.1217    0.0428    0.2118    0.1279   -0.1975    0.1056
          14    0.0853    0.2122   -0.1698   -0.0518   -0.1880   -0.3195   -0.1086   -0.0471
          15    0.1139    0.1185    0.1187    0.0305    0.3254   -0.2287    0.0159   -0.0023
          16    0.3441   -0.0704   -0.0118   -0.0123   -0.1027    0.0746    0.0781   -0.0239
          17   -0.1971    0.0115   -0.0035    0.0012    0.0227   -0.0173   -0.0710    0.0212
          18   -0.0452   -0.2197    0.1815   -0.0947   -0.0422   -0.0899    0.0057   -0.0073
          19   -0.1466    0.0378   -0.0426   -0.0219   -0.0394   -0.0615   -0.0758    0.0045
          20    0.6356   -0.1301    0.0805    0.0355    0.0756    0.1044   -0.1155    0.0634
          21   -0.2171    0.0979   -0.1447    0.0391   -0.0853    0.1166    0.0358   -0.0082
          22   -0.0312    0.0138   -0.0872   -0.1882   -0.0594    0.1399   -0.1362   -0.2722
          23   -0.0283   -0.1135    0.0479    0.3103   -0.1563   -0.0529    0.1032    0.5155
          24    0.0222    0.0196    0.0398   -0.0000    0.0368   -0.0303    0.0186   -0.0052
          25   -0.0094   -0.0063    0.0477    0.4026    0.1536   -0.3476    0.1287   -0.0551
          26   -0.0104    0.2940    0.3827    0.2459   -0.0379   -0.1350    0.0868   -0.2026
          27    0.0106   -0.1270   -0.1084    0.1155    0.1063   -0.1092    0.0294   -0.0067
          28   -0.0294    0.0819   -0.0700   -0.2684   -0.1854    0.1468    0.0440    0.2758
          29   -0.0299   -0.2244   -0.3710   -0.1426    0.1416   -0.0606    0.1891    0.2801
          30    0.0119   -0.1256   -0.1016    0.1211    0.1049   -0.1076    0.0292   -0.0124
          31   -0.0546   -0.2987   -0.2379    0.2656   -0.0257   -0.0064   -0.0376   -0.4286
          32   -0.0202    0.0663    0.2231    0.1220   -0.2300    0.1759   -0.1067   -0.0503
          33    0.0124   -0.0617   -0.1526   -0.1003    0.1455   -0.0703    0.0328   -0.0035
          34   -0.0202    0.3366    0.2893   -0.3847    0.3262    0.0052    0.2051    0.0989
          35   -0.0085   -0.0922   -0.2007   -0.1859    0.2883   -0.0843    0.0256   -0.0770
          36    0.0106   -0.0666   -0.1566   -0.0940    0.1475   -0.0704    0.0296   -0.0080
          37   -0.1173    0.0290   -0.0133    0.0042    0.0205   -0.0286   -0.1052    0.0256
          38    0.0732    0.1720   -0.1828    0.1025   -0.0648    0.2404    0.4057   -0.0990
          39    0.0110    0.0716   -0.0600    0.0323    0.0064    0.0389    0.0135   -0.0020
          40   -0.1127    0.0119    0.0014   -0.0066    0.0173   -0.0436   -0.1066    0.0252
          41    0.0057   -0.2574    0.1787   -0.1185   -0.1349   -0.0318    0.3720   -0.1065
          42    0.0195    0.0703   -0.0575    0.0328    0.0138    0.0355   -0.0074    0.0045
          43   -0.1327    0.0248   -0.0066   -0.0013    0.0239   -0.0448   -0.1321    0.0319
          44   -0.2484    0.0606   -0.0174    0.0002    0.0659   -0.1125   -0.3668    0.0908
          45    0.0250    0.0983   -0.0815    0.0447    0.0144    0.0505    0.0034    0.0019
          46    0.1822    0.1242   -0.1421   -0.1091   -0.1733   -0.2373   -0.1785   -0.0198
          47   -0.2121   -0.1952    0.1628    0.2261    0.3484    0.4319   -0.0988    0.1548
          48    0.0368    0.0305    0.0565   -0.0020    0.0909   -0.0854    0.0765   -0.0233
          49    0.0445   -0.0131   -0.0137   -0.0171   -0.0543   -0.0121   -0.0547    0.0030
          50   -0.1371    0.0281   -0.0277   -0.0146   -0.0291   -0.0534   -0.1481    0.0231
          51    0.1228    0.4823   -0.3667    0.2784    0.1837    0.2810   -0.0033    0.0245


   Root No.      17        18        19        20        21        22        23        24

                17 A      18 A      19 A      20 A      21 A      22 A      23 A      24 A   

                1003.8    1011.6    1070.1    1090.9    1131.1    1144.6    1157.7    1172.4
  
           1   -0.2977    0.1310    0.0193   -0.2543    0.2180   -0.0529   -0.2398   -0.0458
           2   -0.1735    0.0790   -0.0658    0.4413   -0.3836   -0.0103   -0.1306    0.0754
           3   -0.0969    0.0353    0.0672    0.0026    0.0021    0.0195   -0.1078   -0.0245
           4   -0.1055    0.0566   -0.0593    0.2378   -0.1986    0.0545    0.1281   -0.2750
           5    0.1868   -0.0806    0.0149   -0.0426   -0.0062    0.0860    0.4232   -0.3106
           6    0.1346   -0.0502   -0.0631    0.2799    0.3123   -0.0093    0.0424   -0.0319
           7    0.1077   -0.0419    0.0045   -0.0898    0.1143    0.0942    0.4411    0.4075
           8   -0.1834    0.0866    0.0048   -0.2342    0.1699   -0.0103   -0.1052    0.0744
           9    0.1356   -0.0512   -0.0132   -0.2831   -0.3144   -0.0021    0.0456    0.0443
          10   -0.0482    0.0365   -0.0737   -0.0128    0.0068    0.2259   -0.0585    0.0037
          11   -0.0195    0.0142    0.0515    0.0015   -0.0019   -0.2870    0.1354   -0.0186
          12    0.1580    0.3437    0.0208    0.0048   -0.0027    0.0003   -0.0027    0.0008
          13    0.0170   -0.0108   -0.1539    0.0702   -0.0377   -0.0392   -0.0565    0.0310
          14   -0.0019    0.0005   -0.1244   -0.1460    0.0590   -0.0275   -0.0437   -0.0196
          15    0.0021    0.0016   -0.1781   -0.0204    0.0060    0.0646    0.0475    0.0042
          16    0.0358   -0.0334    0.2962    0.0325   -0.0082   -0.2173    0.1114   -0.0105
          17    0.0018    0.0025   -0.1425   -0.0115    0.0005    0.1961   -0.1663    0.0288
          18   -0.1780   -0.4286   -0.0507   -0.0025   -0.0005    0.0088    0.0099   -0.0012
          19    0.0094   -0.0089   -0.0889   -0.0242    0.0058   -0.0826   -0.0495    0.0105
          20    0.0358   -0.0359    0.1346    0.0506   -0.0201    0.0012   -0.0024    0.0076
          21   -0.0348    0.1255    0.1327    0.0140   -0.0042   -0.0530   -0.0349    0.0064
          22   -0.0684    0.0458   -0.0429    0.1077   -0.2427   -0.0135   -0.1768    0.0884
          23   -0.0299    0.0192    0.0255   -0.1948    0.4242   -0.0211   -0.1082   -0.1424
          24   -0.0460    0.0075    0.0308    0.0023    0.0006    0.0131    0.0576   -0.0121
          25   -0.0808    0.0192    0.0530   -0.0253   -0.1831   -0.0272   -0.2233    0.1808
          26    0.2308   -0.1130    0.0333    0.2605    0.2478   -0.0701   -0.2390    0.3294
          27   -0.0605    0.0212    0.0156   -0.0818   -0.0843    0.0060   -0.0146   -0.0049
          28    0.2729   -0.1085   -0.0524    0.2024    0.1144   -0.0471   -0.1295    0.1569
          29    0.3290   -0.1543    0.0589   -0.2341   -0.1359   -0.0707   -0.1975    0.3742
          30   -0.0555    0.0178    0.0238   -0.0892   -0.0672    0.0033    0.0014    0.0101
          31    0.4164   -0.1833    0.0013    0.1118    0.0487   -0.0868   -0.2492   -0.3865
          32    0.0704   -0.0181   -0.0137   -0.2999   -0.1685   -0.0041   -0.0094    0.0630
          33   -0.0563    0.0190    0.0058    0.0913    0.0680    0.0022    0.0007   -0.0145
          34    0.1651   -0.0934    0.1103   -0.1943   -0.1275   -0.0723   -0.3308   -0.3869
          35   -0.1870    0.0751    0.0063    0.1532    0.2870    0.0027   -0.0738   -0.0027
          36   -0.0610    0.0225   -0.0003    0.0820    0.0858    0.0041   -0.0152   -0.0008
          37    0.0021   -0.0477    0.0471    0.0044   -0.0011   -0.0390    0.0167   -0.0017
          38   -0.2565   -0.3846   -0.0780   -0.0154    0.0077    0.0111    0.0499   -0.0129
          39   -0.0501   -0.1030    0.0060   -0.0003    0.0006   -0.0237    0.0199   -0.0036
          40    0.0329    0.0186    0.0517    0.0051   -0.0011   -0.0402    0.0169   -0.0018
          41    0.1517    0.4808   -0.0271   -0.0054    0.0011    0.0040    0.0462   -0.0114
[...]

 VIBRATION   24   24A         ATOM PAIR      ENERGY CONTRIBUTION    RADIAL
 FREQ.      1172.40         C  2 -- H 10         +18.9% ( 51.3%)      0.4%
 T-DIPOLE    0.0918         C  3 -- H 11         +18.2% ( 50.3%)      0.5%
 TRAVEL      0.1233         C  3 -- H 12         +18.1% ( 50.3%)      0.0%
 RED. MASS   0.8173         C  2 -- H  9         +17.6% ( 49.5%)      0.0%
 EFF. MASS   3.7807         C  2 -- C  3         +12.3% ( 41.4%)      0.0%

 VIBRATION   25   25A         ATOM PAIR      ENERGY CONTRIBUTION    RADIAL
 FREQ.      1176.42         C  5 -- H 16         +25.8% ( 66.5%)      2.6%
 T-DIPOLE    0.1358         C  4 -- C  6         +11.3% ( 44.0%)     87.3%
 TRAVEL      0.1057         C  1 -- C  5         +10.4% ( 42.1%)     15.9%
 RED. MASS   0.5300         C  6 -- C  7          +8.2% ( 37.4%)      4.8%
 EFF. MASS   5.1344

 VIBRATION   26   26A         ATOM PAIR      ENERGY CONTRIBUTION    RADIAL
 FREQ.      1198.11         C  1 -- H  8         +44.5% ( 79.9%)      2.1%
 T-DIPOLE    0.1104         C  1 -- C  5         +16.8% ( 49.1%)     76.1%
 TRAVEL      0.1172         C  5 -- C  7         +12.0% ( 41.4%)      0.0%
 RED. MASS   0.8422         C  5 -- H 16          +9.0% ( 36.0%)     29.0%
 EFF. MASS   4.0961

 VIBRATION   27   27A         ATOM PAIR      ENERGY CONTRIBUTION    RADIAL
 FREQ.      1286.63         C  1 -- H  8         +14.5% ( 55.0%)     11.1%
 T-DIPOLE    0.1026         C  1 -- C  5         +13.7% ( 53.4%)     74.3%
 TRAVEL      0.0864         C  1 -- C  3         +12.0% ( 49.9%)      3.3%
 RED. MASS   0.8246         C  1 -- C  2         +11.9% ( 49.8%)      3.3%
 EFF. MASS   7.0157         C  2 -- C  3         +11.1% ( 48.0%)    100.0%

 VIBRATION   28   28A         ATOM PAIR      ENERGY CONTRIBUTION    RADIAL
 FREQ.      1369.18         C  4 -- H 14         +16.2% ( 46.7%)      3.3%
 T-DIPOLE    0.0775         C  4 -- H 13         +16.2% ( 46.7%)      3.3%
 TRAVEL      0.1173         C  4 -- H 15         +10.7% ( 37.9%)      1.7%
 RED. MASS   0.3331         C  4 -- C  6          +8.3% ( 33.4%)     80.7%
 EFF. MASS   3.5808

 VIBRATION   29   29A         ATOM PAIR      ENERGY CONTRIBUTION    RADIAL
 FREQ.      1392.41         C  4 -- H 13         +32.2% ( 53.0%)      2.0%
 T-DIPOLE    0.1021         C  4 -- H 14         +30.8% ( 51.8%)      2.4%
 TRAVEL      0.1534         C  4 -- H 15          +7.4% ( 25.4%)     69.2%
 RED. MASS   0.3227         C  4 -- C  6          +6.8% ( 24.3%)     21.2%
 EFF. MASS   2.0588

 VIBRATION   30   30A         ATOM PAIR      ENERGY CONTRIBUTION    RADIAL
 FREQ.      1396.46         C  4 -- H 15         +53.8% ( 63.4%)      0.0%
 T-DIPOLE    0.0657         C  4 -- H 14         +21.4% ( 39.9%)     10.5%
 TRAVEL      0.1758         C  4 -- H 13         +19.7% ( 38.4%)     12.4%
 RED. MASS   0.4214         C  4 -- C  6          +5.1% ( 19.4%)      0.0%
 EFF. MASS   1.5632

 VIBRATION   31   31A         ATOM PAIR      ENERGY CONTRIBUTION    RADIAL
 FREQ.      1399.78         C  2 -- H 10         +21.4% ( 45.9%)      2.7%
 T-DIPOLE    0.0862         C  3 -- H 11         +21.4% ( 45.9%)      2.6%
 TRAVEL      0.1594         C  2 -- H  9         +21.0% ( 45.5%)      2.9%
 RED. MASS   0.2670         C  3 -- H 12         +21.0% ( 45.4%)      2.8%
 EFF. MASS   1.8957

 VIBRATION   32   32A         ATOM PAIR      ENERGY CONTRIBUTION    RADIAL
 FREQ.      1413.96         C  4 -- H 15         +14.0% ( 46.8%)      6.5%
 T-DIPOLE    0.0955         C  4 -- H 13         +11.8% ( 43.0%)      2.0%
 TRAVEL      0.0982         C  4 -- H 14         +11.7% ( 42.9%)      2.1%
 RED. MASS   0.5432         C  4 -- C  6         +11.7% ( 42.8%)     97.2%
 EFF. MASS   4.9416

 VIBRATION   33   33A         ATOM PAIR      ENERGY CONTRIBUTION    RADIAL
 FREQ.      1540.26         C  4 -- C  6         +12.3% ( 57.2%)     81.3%
 T-DIPOLE    0.0810         C  2 -- C  3         +11.1% ( 54.3%)    100.0%
 TRAVEL      0.0630         C  6 -- H 17          +9.3% ( 49.9%)      0.4%
 RED. MASS   1.8387         C  1 -- C  2          +8.1% ( 46.4%)     98.6%
 EFF. MASS  11.0291

 VIBRATION   34   34A         ATOM PAIR      ENERGY CONTRIBUTION    RADIAL
 FREQ.      1628.69         C  1 -- C  5         +19.0% ( 70.9%)     72.1%
 T-DIPOLE    0.1456         C  1 -- C  3         +12.8% ( 58.2%)     87.9%
 TRAVEL      0.0598         C  1 -- C  2         +12.8% ( 58.2%)     87.9%
 RED. MASS   2.5542         C  1 -- H  8          +8.5% ( 47.3%)      0.7%
 EFF. MASS  11.5669

 VIBRATION   35   35A         ATOM PAIR      ENERGY CONTRIBUTION    RADIAL
 FREQ.      2268.57         C  5 -- C  7         +41.4% ( 84.9%)     99.8%
 T-DIPOLE    0.3255         C  6 -- C  7         +41.4% ( 84.8%)     99.8%
 TRAVEL      0.0500         C  1 -- C  5          +4.3% ( 27.5%)     42.3%
 RED. MASS   5.7230         C  4 -- C  6          +4.3% ( 27.3%)     43.5%
 EFF. MASS  11.8987

 VIBRATION   36   36A         ATOM PAIR      ENERGY CONTRIBUTION    RADIAL
 FREQ.      3009.25         C  1 -- H  8         +90.7% ( 97.1%)    100.0%
 T-DIPOLE    0.1353         C  5 -- H 16          +5.1% ( 23.0%)    100.0%
 TRAVEL      0.1235         C  1 -- C  5          +1.2% ( 11.4%)     15.2%
 RED. MASS   0.8265         C  1 -- C  3          +1.1% ( 10.7%)     22.0%
 EFF. MASS   1.4684

 VIBRATION   37   37A         ATOM PAIR      ENERGY CONTRIBUTION    RADIAL
 FREQ.      3028.00         C  5 -- H 16         +91.9% ( 97.2%)    100.0%
 T-DIPOLE    0.3127         C  1 -- H  8          +5.0% ( 22.6%)    100.0%
 TRAVEL      0.1213         C  5 -- C  7          +1.5% ( 12.4%)     40.7%
 RED. MASS   0.8346         C  1 -- C  5          +1.3% ( 11.4%)     16.8%
 EFF. MASS   1.5138

 VIBRATION   38   38A         ATOM PAIR      ENERGY CONTRIBUTION    RADIAL
 FREQ.      3032.27         C  6 -- H 17         +95.7% ( 99.3%)    100.0%
 T-DIPOLE    0.2959         C  6 -- C  7          +1.5% ( 12.5%)     39.7%
 TRAVEL      0.1210         C  4 -- C  6          +1.4% ( 11.8%)     12.6%
 RED. MASS   0.9044         C  4 -- H 15          +0.8% (  8.9%)     97.6%
 EFF. MASS   1.5185

 VIBRATION   39   39A         ATOM PAIR      ENERGY CONTRIBUTION    RADIAL
 FREQ.      3071.58         C  4 -- H 13         +49.4% ( 72.5%)     97.1%
 T-DIPOLE    0.0232         C  4 -- H 14         +48.7% ( 72.0%)     97.0%
 TRAVEL      0.1209         C  4 -- C  6          +1.0% ( 10.2%)      0.0%
 RED. MASS   0.5096         C  4 -- H 15          +0.9% (  9.9%)      0.0%
 EFF. MASS   1.5022

 VIBRATION   40   40A         ATOM PAIR      ENERGY CONTRIBUTION    RADIAL
 FREQ.      3083.10         C  4 -- H 15         +58.2% ( 78.6%)     98.6%
 T-DIPOLE    0.0799         C  4 -- H 14         +20.1% ( 46.2%)     86.8%
 TRAVEL      0.1204         C  4 -- H 13         +19.6% ( 45.6%)     86.3%
 RED. MASS   0.4469         C  6 -- H 17          +1.1% ( 10.8%)    100.0%
 EFF. MASS   1.5091

 VIBRATION   41   41A         ATOM PAIR      ENERGY CONTRIBUTION    RADIAL
 FREQ.      3084.32         C  3 -- H 11         +27.8% ( 54.7%)     97.7%
 T-DIPOLE    0.0220         C  2 -- H 10         +27.2% ( 54.0%)     97.7%
 TRAVEL      0.1185         C  3 -- H 12         +21.5% ( 48.0%)     96.2%
 RED. MASS   0.2640         C  2 -- H  9         +21.2% ( 47.7%)     96.2%
 EFF. MASS   1.5566

 VIBRATION   42   42A         ATOM PAIR      ENERGY CONTRIBUTION    RADIAL
 FREQ.      3098.55         C  2 -- H 10         +28.7% ( 55.2%)     98.1%
 T-DIPOLE    0.2635         C  3 -- H 11         +28.3% ( 54.8%)     98.1%
 TRAVEL      0.1188         C  2 -- H  9         +20.4% ( 46.5%)     96.2%
 RED. MASS   0.2644         C  3 -- H 12         +19.8% ( 45.9%)     96.1%
 EFF. MASS   1.5428

 VIBRATION   43   43A         ATOM PAIR      ENERGY CONTRIBUTION    RADIAL
 FREQ.      3134.30         C  3 -- H 12         +30.2% ( 54.5%)     97.4%
 T-DIPOLE    0.2318         C  2 -- H  9         +25.9% ( 50.5%)     97.4%
 TRAVEL      0.1301         C  3 -- H 11         +22.7% ( 47.3%)     95.3%
 RED. MASS   0.2473         C  2 -- H 10         +19.9% ( 44.2%)     95.4%
 EFF. MASS   1.2708

 VIBRATION   44   44A         ATOM PAIR      ENERGY CONTRIBUTION    RADIAL
 FREQ.      3135.32         C  2 -- H  9         +31.0% ( 55.4%)     97.4%
 T-DIPOLE    0.1960         C  3 -- H 12         +26.9% ( 51.7%)     97.5%
 TRAVEL      0.1269         C  2 -- H 10         +21.6% ( 46.3%)     94.6%
 RED. MASS   0.2508         C  3 -- H 11         +18.5% ( 42.8%)     94.5%
 EFF. MASS   1.3353

 VIBRATION   45   45A         ATOM PAIR      ENERGY CONTRIBUTION    RADIAL
 FREQ.      3172.83         C  4 -- H 15         +40.4% ( 61.2%)     98.0%
 T-DIPOLE    0.0710         C  4 -- H 14         +29.7% ( 52.5%)     96.5%
 TRAVEL      0.1366         C  4 -- H 13         +29.6% ( 52.4%)     96.4%
 RED. MASS   0.3333         C  4 -- C  6          +0.3% (  5.4%)     98.5%
 EFF. MASS   1.1397

      SYMMETRY NUMBER FOR POINT-GROUP C1  =  1


          SYSTEM IS A GROUND STATE



 InChI=1S/C7H10/c1-2-3-4-7-5-6-7/h2,4,7H,5-6H2,1H3


          MOLECULE IS NOT LINEAR

          THERE ARE 45 GENUINE VIBRATIONS IN THIS SYSTEM
          THIS THERMODYNAMICS CALCULATION IS LIMITED TO
          MOLECULES WHICH HAVE NO INTERNAL ROTATIONS




                    CALCULATED THERMODYNAMIC PROPERTIES
                                          *
   TEMP. (K)   PARTITION FUNCTION   H.O.F.    ENTHALPY  HEAT CAPACITY ENTROPY
                                   KCAL/MOL   CAL/MOLE    CAL/K/MOL  CAL/K/MOL


 298.00  VIB.     0.1475D+03                  3155.9552    21.8345    20.5141
         ROT.     0.2693D+06                   888.2813     2.9808    27.8280
         INT.     0.3972D+08                  4044.2365    24.8153    48.3420
         TRA.     0.8833D+27                  1480.4688     4.9680    39.5363
         TOT.                       56.376    5524.7053    29.7834    87.8783

 200.00  VIB.     0.2570D+02                  1425.1660    13.7978    13.5776
         ROT.     0.1481D+06                   596.1620     2.9808    26.6393
         INT.     0.3806D+07                  2021.3279    16.7786    40.2169
         TRA.     0.4856D+27                   993.6033     4.9680    37.5551
         TOT.                       53.866    3014.9312    21.7466    77.7720

 210.00  VIB.     0.3074D+02                  1566.7343    14.5203    14.2682
         ROT.     0.1593D+06                   625.9700     2.9808    26.7847
         INT.     0.4898D+07                  2192.7044    17.5012    41.0529
         TRA.     0.5225D+27                  1043.2834     4.9680    37.7975
         TOT.                       54.087    3235.9878    22.4692    78.8504

 220.00  VIB.     0.3675D+02                  1715.6618    15.2695    14.9608
         ROT.     0.1708D+06                   655.7781     2.9808    26.9234
         INT.     0.6278D+07                  2371.4399    18.2504    41.8842
         TRA.     0.5603D+27                  1092.9636     4.9680    38.0286
         TOT.                       54.316    3464.4035    23.2184    79.9129

 230.00  VIB.     0.4392D+02                  1872.2114    16.0446    15.6566
         ROT.     0.1826D+06                   685.5862     2.9808    27.0559
         INT.     0.8021D+07                  2557.7977    19.0254    42.7125
         TRA.     0.5989D+27                  1142.6437     4.9680    38.2495
         TOT.                       54.552    3700.4414    23.9934    80.9620

 240.00  VIB.     0.5248D+02                  2036.6341    16.8439    16.3563
         ROT.     0.1946D+06                   715.3943     2.9808    27.1828
         INT.     0.1021D+08                  2752.0285    19.8247    43.5390
         TRA.     0.6384D+27                  1192.3239     4.9680    38.4609
         TOT.                       54.795    3944.3524    24.7927    81.9999

 250.00  VIB.     0.6270D+02                  2209.1626    17.6653    17.0604
         ROT.     0.2069D+06                   745.2024     2.9808    27.3044
         INT.     0.1297D+08                  2954.3650    20.6462    44.3649
         TRA.     0.6787D+27                  1242.0041     4.9680    38.6637
         TOT.                       55.047    4196.3691    25.6142    83.0286

 260.00  VIB.     0.7491D+02                  2390.0068    18.5066    17.7696
         ROT.     0.2195D+06                   775.0105     2.9808    27.4214
         INT.     0.1644D+08                  3165.0174    21.4874    45.1910
         TRA.     0.7198D+27                  1291.6842     4.9680    38.8586
         TOT.                       55.308    4456.7016    26.4554    84.0495

 270.00  VIB.     0.8950D+02                  2579.3509    19.3648    18.4841
         ROT.     0.2322D+06                   804.8186     2.9808    27.5338
         INT.     0.2079D+08                  3384.1695    22.3457    46.0180
         TRA.     0.7618D+27                  1341.3644     4.9680    39.0461
         TOT.                       55.577    4725.5339    27.3137    85.0640

 280.00  VIB.     0.1070D+03                  2777.3512    20.2373    19.2041
         ROT.     0.2453D+06                   834.6267     2.9808    27.6423
         INT.     0.2623D+08                  3611.9779    23.2181    46.8464
         TRA.     0.8045D+27                  1391.0445     4.9680    39.2267
         TOT.                       55.854    5003.0225    28.1862    86.0731

 290.00  VIB.     0.1278D+03                  2984.1355    21.1212    19.9296
         ROT.     0.2585D+06                   864.4348     2.9808    27.7469
         INT.     0.3305D+08                  3848.5703    24.1020    47.6765
         TRA.     0.8479D+27                  1440.7247     4.9680    39.4011
         TOT.                       56.140    5289.2951    29.0700    87.0776

 300.00  VIB.     0.1529D+03                  3199.8032    22.0135    20.6607
         ROT.     0.2720D+06                   894.2429     2.9808    27.8479
         INT.     0.4158D+08                  4094.0461    24.9944    48.5086
         TRA.     0.8922D+27                  1490.4049     4.9680    39.5695
         TOT.                       56.436    5584.4510    29.9624    88.0781

 310.00  VIB.     0.1828D+03                  3424.4258    22.9117    21.3972
         ROT.     0.2857D+06                   924.0510     2.9808    27.9456
         INT.     0.5224D+08                  4348.4768    25.8925    49.3428
         TRA.     0.9372D+27                  1540.0850     4.9680    39.7324
         TOT.                       56.740    5888.5618    30.8605    89.0752

 320.00  VIB.     0.2188D+03                  3658.0481    23.8131    22.1388
         ROT.     0.2997D+06                   953.8591     2.9808    28.0403
         INT.     0.6557D+08                  4611.9072    26.7939    50.1791
         TRA.     0.9829D+27                  1589.7652     4.9680    39.8901
         TOT.                       57.053    6201.6724    31.7619    90.0692

 330.00  VIB.     0.2620D+03                  3900.6900    24.7152    22.8854
         ROT.     0.3138D+06                   983.6672     2.9808    28.1320
         INT.     0.8221D+08                  4884.3572    27.6961    51.0174
         TRA.     0.1029D+28                  1639.4454     4.9680    40.0430
         TOT.                       57.375    6523.8025    32.6641    91.0604

 340.00  VIB.     0.3138D+03                  4152.3482    25.6160    23.6366
         ROT.     0.3282D+06                  1013.4753     2.9808    28.2210
         INT.     0.1030D+09                  5165.8235    28.5968    51.8576
         TRA.     0.1076D+28                  1689.1255     4.9680    40.1913
         TOT.                       57.706    6854.9490    33.5648    92.0489

 350.00  VIB.     0.3760D+03                  4412.9983    26.5133    24.3921
         ROT.     0.3428D+06                  1043.2834     2.9808    28.3074
         INT.     0.1289D+09                  5456.2817    29.4941    52.6995
         TRA.     0.1124D+28                  1738.8057     4.9680    40.3353
         TOT.                       58.046    7195.0874    34.4621    93.0348

 360.00  VIB.     0.4509D+03                  4682.5967    27.4054    25.1515
         ROT.     0.3576D+06                  1073.0915     2.9808    28.3914
         INT.     0.1612D+09                  5755.6882    30.3862    53.5429
         TRA.     0.1173D+28                  1788.4859     4.9680    40.4753
         TOT.                       58.395    7544.1740    35.3542    94.0182

 370.00  VIB.     0.5410D+03                  4961.0828    28.2906    25.9145
         ROT.     0.3726D+06                  1102.8996     2.9808    28.4730
         INT.     0.2015D+09                  6063.9824    31.2714    54.3875
         TRA.     0.1222D+28                  1838.1660     4.9680    40.6114
         TOT.                       58.753    7902.1484    36.2394    94.9989

 380.00  VIB.     0.6493D+03                  5248.3812    29.1676    26.6806
         ROT.     0.3878D+06                  1132.7077     2.9808    28.5525
         INT.     0.2518D+09                  6381.0889    32.1484    55.2331
         TRA.     0.1272D+28                  1887.8462     4.9680    40.7439
         TOT.                       59.120    8268.9351    37.1164    95.9770

 390.00  VIB.     0.7799D+03                  5544.4034    30.0352    27.4495
         ROT.     0.4032D+06                  1162.5158     2.9808    28.6300
         INT.     0.3144D+09                  6706.9192    33.0160    56.0794
         TRA.     0.1322D+28                  1937.5263     4.9680    40.8729
         TOT.                       59.496    8644.4455    37.9840    96.9524

 400.00  VIB.     0.9371D+03                  5849.0497    30.8923    28.2207
         ROT.     0.4188D+06                  1192.3239     2.9808    28.7054
         INT.     0.3925D+09                  7041.3736    33.8731    56.9262
         TRA.     0.1374D+28                  1987.2065     4.9680    40.9987
         TOT.                       59.880    9028.5801    38.8411    97.9249

   *: NOTE: HEATS OF FORMATION ARE RELATIVE TO THE
            ELEMENTS IN THEIR STANDARD STATE AT 298K
              (=  Standard Enthalpy of Formation).

            Hvib:  Zero-point energy is not included.
                   frequencies of less than zero cm-1 are not included.
            Hrot = (3/2)RT
            Htra = (3/2)RT + pV = (5/2)RT

            Heat capacity is Cp, not Cv

          For more information, see: HTTP://OpenMOPAC.net/Manual/thermochemistry.html


           FORCE CONSTANT IN CARTESIAN COORDINATES (Millidynes/A)

    ATOM   CHEMICAL       X               Y               Z
   NUMBER   SYMBOL  FORCE CONSTANT  FORCE CONSTANT  FORCE CONSTANT

      1       C       10.014200        6.305988        9.492128
      2       C        9.785726        6.500361        8.766669
      3       C        4.523253       11.757466        8.768277
      4       C        8.378069        9.017256        7.943644
      5       C       12.600803        5.799930        8.987198
      6       C       13.928007       10.765702        2.269330
      7       C       18.797765        7.835623        1.817458
      8       H        1.734060        0.919207        3.698891
      9       H        1.826363        0.994640        3.842085
     10       H        1.851057        0.968379        3.826457
     11       H        0.528104        2.291883        3.825763
     12       H        0.526893        2.293562        3.842300
     13       H        1.877231        1.091224        3.696613
     14       H        1.745728        1.085525        3.834083
     15       H        4.580417        1.546694        0.657400
     16       H        1.321637        0.676379        4.067221
     17       H        3.914365        1.841093        0.327043

 **********************
 *                    *
 * JOB ENDED NORMALLY *
 *                    *
 **********************



 TOTAL JOB TIME:             1.68 SECONDS

 == MOPAC DONE ==
