 *******************************************************************************
 ** Site#: 14399        For non-commercial use only    Version 18.184L 64BITS **
 *******************************************************************************
 ** Cite this program as: MOPAC2016, Version: 18.184L, James J. P. Stewart,   **
 ** Stewart Computational Chemistry, web: HTTP://OpenMOPAC.net. Days left:  18**
 *******************************************************************************
 **                                                                           **
 **                                MOPAC2016                                  **
 **                                                                           **
 *******************************************************************************

                              PM3 CALCULATION RESULTS

 *******************************************************************************
 *  CALCULATION DONE:                                Sat Jun 15 10:23:17 2019  *
 *  PM3        - The PM3 Hamiltonian to be used
 *  PRECISE    - CRITERIA TO BE INCREASED BY 100 TIMES
 *  NOSYM      - POINT-GROUP SYMMETRY SET TO C1
 *  THREADS=1  - MULTI-THREADING NOT USED
 *  T=         - A TIME OF 172800.0 SECONDS REQUESTED
 *  DUMP=N     - RESTART FILE WRITTEN EVERY  7200.000 SECONDS
 *******************************************************************************
pm3  precise nosym THREADS=1
 InChI=1S/C7H12O/c8-7-5-3-1-2-4-6-7/h1,3,7-8H,2,4-6H2

   ATOM   CHEMICAL          X               Y               Z
  NUMBER   SYMBOL      (ANGSTROMS)     (ANGSTROMS)     (ANGSTROMS)
 
     1       O         -1.96860000  *  -1.88580000  *  -0.09370000  *
     2       C         -0.95540000  *  -0.97610000  *   0.25070000  *
     3       C         -1.32650000  *   0.41640000  *  -0.29840000  *
     4       C         -0.39520000  *   1.53820000  *   0.18400000  *
     5       C          0.37390000  *  -1.49040000  *  -0.33030000  *
     6       C          1.01680000  *   1.43730000  *  -0.40800000  *
     7       C          1.85770000  *   0.42490000  *   0.32080000  *
     8       C          1.56910000  *  -0.88440000  *   0.35700000  *
     9       H         -0.87080000  *  -0.92880000  *   1.36300000  *
    10       H         -1.35450000  *   0.39590000  *  -1.41020000  *
    11       H         -2.35460000  *   0.66490000  *   0.04510000  *
    12       H         -0.83530000  *   2.50630000  *  -0.14040000  *
    13       H         -0.35310000  *   1.55500000  *   1.29560000  *
    14       H          1.50970000  *   2.42860000  *  -0.31040000  *
    15       H          0.97690000  *   1.19490000  *  -1.49210000  *
    16       H          0.42760000  *  -1.30490000  *  -1.42520000  *
    17       H          0.42520000  *  -2.59140000  *  -0.18340000  *
    18       H          2.74560000  *   0.77380000  *   0.84030000  *
    19       H          2.23550000  *  -1.54540000  *   0.90380000  *
    20       H         -2.72400000  *  -1.72920000  *   0.53190000  *
 


          CARTESIAN COORDINATES 

    NO.       ATOM           X           Y           Z

     1         O         -1.9686     -1.8858     -0.0937
     2         C         -0.9554     -0.9761      0.2507
     3         C         -1.3265      0.4164     -0.2984
     4         C         -0.3952      1.5382      0.1840
     5         C          0.3739     -1.4904     -0.3303
     6         C          1.0168      1.4373     -0.4080
     7         C          1.8577      0.4249      0.3208
     8         C          1.5691     -0.8844      0.3570
     9         H         -0.8708     -0.9288      1.3630
    10         H         -1.3545      0.3959     -1.4102
    11         H         -2.3546      0.6649      0.0451
    12         H         -0.8353      2.5063     -0.1404
    13         H         -0.3531      1.5550      1.2956
    14         H          1.5097      2.4286     -0.3104
    15         H          0.9769      1.1949     -1.4921
    16         H          0.4276     -1.3049     -1.4252
    17         H          0.4252     -2.5914     -0.1834
    18         H          2.7456      0.7738      0.8403
    19         H          2.2355     -1.5454      0.9038
    20         H         -2.7240     -1.7292      0.5319

  H: (PM3): J. J. P. STEWART, J. COMP. CHEM. 10, 209 (1989).
  C: (PM3): J. J. P. STEWART, J. COMP. CHEM. 10, 209 (1989).
  O: (PM3): J. J. P. STEWART, J. COMP. CHEM. 10, 209 (1989).

           Empirical Formula: C7 H12 O  =    20 atoms



      MOLECULAR POINT GROUP   :   C1  


      RHF CALCULATION, NO. OF DOUBLY OCCUPIED LEVELS = 23


          Geometry optimization using EF

          DIAGONAL MATRIX USED AS START HESSIAN

 CYCLE:     1 TIME:   0.004 TIME LEFT:  2.00D  GRAD.:    86.262 HEAT: -44.48035
 CYCLE:     2 TIME:   0.012 TIME LEFT:  2.00D  GRAD.:    32.989 HEAT: -46.26785
 CYCLE:     3 TIME:   0.008 TIME LEFT:  2.00D  GRAD.:    25.982 HEAT: -46.49646
 CYCLE:     4 TIME:   0.004 TIME LEFT:  2.00D  GRAD.:    20.284 HEAT: -46.68266
 CYCLE:     5 TIME:   0.008 TIME LEFT:  2.00D  GRAD.:    14.380 HEAT: -46.80253
 CYCLE:     6 TIME:   0.004 TIME LEFT:  2.00D  GRAD.:    22.431 HEAT: -46.83638
 CYCLE:     7 TIME:   0.004 TIME LEFT:  2.00D  GRAD.:    21.699 HEAT: -46.85030
 CYCLE:     8 TIME:   0.004 TIME LEFT:  2.00D  GRAD.:    23.400 HEAT: -46.86741
 CYCLE:     9 TIME:   0.004 TIME LEFT:  2.00D  GRAD.:    20.714 HEAT: -46.91051
 CYCLE:    10 TIME:   0.008 TIME LEFT:  2.00D  GRAD.:     8.373 HEAT: -47.01600
 CYCLE:    11 TIME:   0.004 TIME LEFT:  2.00D  GRAD.:     6.258 HEAT: -47.03541
 CYCLE:    12 TIME:   0.004 TIME LEFT:  2.00D  GRAD.:     8.017 HEAT: -47.04105
 CYCLE:    13 TIME:   0.004 TIME LEFT:  2.00D  GRAD.:     5.736 HEAT: -47.05970
 CYCLE:    14 TIME:   0.008 TIME LEFT:  2.00D  GRAD.:     5.244 HEAT: -47.06936
 CYCLE:    15 TIME:   0.004 TIME LEFT:  2.00D  GRAD.:     3.619 HEAT: -47.08106
 CYCLE:    16 TIME:   0.004 TIME LEFT:  2.00D  GRAD.:     6.887 HEAT: -47.08792
 CYCLE:    17 TIME:   0.004 TIME LEFT:  2.00D  GRAD.:     4.903 HEAT: -47.10698
 CYCLE:    18 TIME:   0.004 TIME LEFT:  2.00D  GRAD.:     8.407 HEAT: -47.10986
 CYCLE:    19 TIME:   0.004 TIME LEFT:  2.00D  GRAD.:     4.596 HEAT: -47.13235
 CYCLE:    20 TIME:   0.004 TIME LEFT:  2.00D  GRAD.:     5.454 HEAT: -47.13674
 CYCLE:    21 TIME:   0.004 TIME LEFT:  2.00D  GRAD.:     3.605 HEAT: -47.14746
 CYCLE:    22 TIME:   0.004 TIME LEFT:  2.00D  GRAD.:     3.651 HEAT: -47.15820
 CYCLE:    23 TIME:   0.004 TIME LEFT:  2.00D  GRAD.:     3.533 HEAT: -47.17439
 CYCLE:    24 TIME:   0.004 TIME LEFT:  2.00D  GRAD.:     3.943 HEAT: -47.18986
 CYCLE:    25 TIME:   0.004 TIME LEFT:  2.00D  GRAD.:     4.190 HEAT: -47.19767
 CYCLE:    26 TIME:   0.004 TIME LEFT:  2.00D  GRAD.:     2.771 HEAT: -47.20622
 CYCLE:    27 TIME:   0.004 TIME LEFT:  2.00D  GRAD.:     4.006 HEAT: -47.21143
 CYCLE:    28 TIME:   0.004 TIME LEFT:  2.00D  GRAD.:     1.775 HEAT: -47.21773
 CYCLE:    29 TIME:   0.004 TIME LEFT:  2.00D  GRAD.:     1.403 HEAT: -47.21986
 CYCLE:    30 TIME:   0.004 TIME LEFT:  2.00D  GRAD.:     2.352 HEAT: -47.22099
 CYCLE:    31 TIME:   0.004 TIME LEFT:  2.00D  GRAD.:     1.370 HEAT: -47.22367
 CYCLE:    32 TIME:   0.004 TIME LEFT:  2.00D  GRAD.:     1.194 HEAT: -47.22598
 CYCLE:    33 TIME:   0.004 TIME LEFT:  2.00D  GRAD.:     1.327 HEAT: -47.22807
 CYCLE:    34 TIME:   0.004 TIME LEFT:  2.00D  GRAD.:     0.971 HEAT: -47.22942
 CYCLE:    35 TIME:   0.004 TIME LEFT:  2.00D  GRAD.:     0.839 HEAT: -47.23061
 CYCLE:    36 TIME:   0.004 TIME LEFT:  2.00D  GRAD.:     0.678 HEAT: -47.23158
 CYCLE:    37 TIME:   0.004 TIME LEFT:  2.00D  GRAD.:     0.530 HEAT: -47.23219
 CYCLE:    38 TIME:   0.004 TIME LEFT:  2.00D  GRAD.:     0.448 HEAT: -47.23270
 CYCLE:    39 TIME:   0.004 TIME LEFT:  2.00D  GRAD.:     0.431 HEAT: -47.23305
 CYCLE:    40 TIME:   0.004 TIME LEFT:  2.00D  GRAD.:     0.395 HEAT: -47.23332
 CYCLE:    41 TIME:   0.004 TIME LEFT:  2.00D  GRAD.:     0.342 HEAT: -47.23357
 CYCLE:    42 TIME:   0.004 TIME LEFT:  2.00D  GRAD.:     0.295 HEAT: -47.23378
 CYCLE:    43 TIME:   0.000 TIME LEFT:  2.00D  GRAD.:     0.316 HEAT: -47.23394
 CYCLE:    44 TIME:   0.004 TIME LEFT:  2.00D  GRAD.:     0.272 HEAT: -47.23411
 CYCLE:    45 TIME:   0.008 TIME LEFT:  2.00D  GRAD.:     0.232 HEAT: -47.23427
 CYCLE:    46 TIME:   0.004 TIME LEFT:  2.00D  GRAD.:     0.183 HEAT: -47.23436
 CYCLE:    47 TIME:   0.000 TIME LEFT:  2.00D  GRAD.:     0.154 HEAT: -47.23443
 CYCLE:    48 TIME:   0.004 TIME LEFT:  2.00D  GRAD.:     0.166 HEAT: -47.23450
 CYCLE:    49 TIME:   0.004 TIME LEFT:  2.00D  GRAD.:     0.160 HEAT: -47.23456
 CYCLE:    50 TIME:   0.004 TIME LEFT:  2.00D  GRAD.:     0.129 HEAT: -47.23461
 CYCLE:    51 TIME:   0.004 TIME LEFT:  2.00D  GRAD.:     0.112 HEAT: -47.23464
 CYCLE:    52 TIME:   0.004 TIME LEFT:  2.00D  GRAD.:     0.096 HEAT: -47.23466
 CYCLE:    53 TIME:   0.004 TIME LEFT:  2.00D  GRAD.:     0.090 HEAT: -47.23468
 CYCLE:    54 TIME:   0.004 TIME LEFT:  2.00D  GRAD.:     0.066 HEAT: -47.23470
 CYCLE:    55 TIME:   0.004 TIME LEFT:  2.00D  GRAD.:     0.046 HEAT: -47.23471

     GRADIENT =  0.04554  IS LESS THAN CUTOFF =  0.05000



 -------------------------------------------------------------------------------
 pm3  precise nosym THREADS=1
 InChI=1S/C7H12O/c8-7-5-3-1-2-4-6-7/h1,3,7-8H,2,4-6H2



     GEOMETRY OPTIMISED USING EIGENVECTOR FOLLOWING (EF).     
     SCF FIELD WAS ACHIEVED                                   


                              PM3 CALCULATION
                                                       MOPAC2016 (Version: 18.184L)
                                                       Sat Jun 15 10:23:17 2019
                                                       No. of days remaining =  18




          FINAL HEAT OF FORMATION =        -47.23471 KCAL/MOL =    -197.63002 KJ/MOL


          TOTAL ENERGY            =      -1308.44828 EV
          ELECTRONIC ENERGY       =      -6409.14053 EV  POINT GROUP:     C1  
          CORE-CORE REPULSION     =       5100.69225 EV
          COSMO AREA              =        152.65 SQUARE ANGSTROMS
          COSMO VOLUME            =        153.46 CUBIC ANGSTROMS

          GRADIENT NORM           =          0.04554 = 0.01018 PER ATOM
          IONIZATION POTENTIAL    =          9.877098 EV
          HOMO LUMO ENERGIES (EV) =         -9.877  1.016
          NO. OF FILLED LEVELS    =         23
          MOLECULAR WEIGHT        =        112.1712

          MOLECULAR DIMENSIONS (Angstroms)

            Atom       Atom       Distance
            H    20    H    18     6.01287
            H    17    H    12     5.18015
            H    15    H     9     3.05564


          SCF CALCULATIONS        =         65
 
          WALL-CLOCK TIME         =          0.242 SECONDS
          COMPUTATION TIME        =          0.223 SECONDS




   ATOM   CHEMICAL          X               Y               Z
  NUMBER   SYMBOL      (ANGSTROMS)     (ANGSTROMS)     (ANGSTROMS)
 
     1       O         -1.93618375  *  -1.92258309  *  -0.03777229  *
     2       C         -0.94463218  *  -0.95724665  *   0.27322552  *
     3       C         -1.31584658  *   0.41989678  *  -0.30376492  *
     4       C         -0.40024590  *   1.53005825  *   0.18341583  *
     5       C          0.36856965  *  -1.49713290  *  -0.31782028  *
     6       C          1.01045419  *   1.44113261  *  -0.38389078  *
     7       C          1.84198232  *   0.41784622  *   0.30515350  *
     8       C          1.55585499  *  -0.88498410  *   0.33601433  *
     9       H         -0.85252090  *  -0.88576466  *   1.38549413  *
    10       H         -1.31262593  *   0.38011831  *  -1.41216082  *
    11       H         -2.35930745  *   0.67016668  *  -0.02066295  *
    12       H         -0.84156107  *   2.50461457  *  -0.10589579  *
    13       H         -0.36171566  *   1.53508031  *   1.29091096  *
    14       H          1.50041075  *   2.43072507  *  -0.29954363  *
    15       H          0.97498594  *   1.21522803  *  -1.47007875  *
    16       H          0.40690555  *  -1.30864333  *  -1.41098405  *
    17       H          0.40964426  *  -2.59928563  *  -0.20491719  *
    18       H          2.74511519  *   0.78648100  *   0.80530296  *
    19       H          2.22603070  *  -1.57542108  *   0.86142823  *
    20       H         -2.75255528  *  -1.59971720  *   0.31920479  *

                             CARTESIAN COORDINATES

   1    O       -1.936183748    -1.922583091    -0.037772286
   2    C       -0.944632182    -0.957246653     0.273225517
   3    C       -1.315846576     0.419896777    -0.303764923
   4    C       -0.400245896     1.530058246     0.183415831
   5    C        0.368569648    -1.497132898    -0.317820281
   6    C        1.010454192     1.441132606    -0.383890784
   7    C        1.841982325     0.417846218     0.305153496
   8    C        1.555854993    -0.884984102     0.336014332
   9    H       -0.852520897    -0.885764663     1.385494128
  10    H       -1.312625927     0.380118305    -1.412160816
  11    H       -2.359307445     0.670166676    -0.020662946
  12    H       -0.841561068     2.504614570    -0.105895789
  13    H       -0.361715656     1.535080307     1.290910955
  14    H        1.500410750     2.430725071    -0.299543628
  15    H        0.974985938     1.215228032    -1.470078754
  16    H        0.406905551    -1.308643335    -1.410984055
  17    H        0.409644261    -2.599285632    -0.204917192
  18    H        2.745115187     0.786481000     0.805302962
  19    H        2.226030697    -1.575421075     0.861428230
  20    H       -2.752555281    -1.599717202     0.319204795


           Empirical Formula: C7 H12 O  =    20 atoms



      MOLECULAR POINT GROUP   :   C1  


                  EIGENVALUES  
 -41.36968 -36.47454 -32.25354 -30.19331 -24.33111 -22.82331 -20.46976 -18.24543
 -17.63422 -17.20245 -15.68872 -15.50144 -15.17318 -14.52330 -14.22180 -13.38447
 -12.88616 -12.43291 -12.13714 -11.78085 -11.69503 -10.97874  -9.87710   1.01594
   3.11149   3.35589   3.47545   3.57927   3.64059   3.66761   3.79380   3.88373
   4.16328   4.19264   4.28322   4.42522   4.57747   4.64562   4.81234   4.95967
   5.03793   5.60262   5.78046   5.90877


              NET ATOMIC CHARGES AND DIPOLE CONTRIBUTIONS

  ATOM NO.   TYPE          CHARGE      No. of ELECS.   s-Pop       p-Pop       
    1          O          -0.313288        6.3133     1.81126     4.50203
    2          C           0.086646        3.9134     1.17354     2.73981
    3          C          -0.137717        4.1377     1.17400     2.96372
    4          C          -0.086316        4.0863     1.15868     2.92764
    5          C          -0.074721        4.0747     1.15106     2.92366
    6          C          -0.062138        4.0621     1.14775     2.91439
    7          C          -0.148695        4.1487     1.19622     2.95247
    8          C          -0.141526        4.1415     1.19493     2.94660
    9          H           0.045498        0.9545     0.95450
   10          H           0.064479        0.9355     0.93552
   11          H           0.046068        0.9539     0.95393
   12          H           0.047076        0.9529     0.95292
   13          H           0.054647        0.9454     0.94535
   14          H           0.049061        0.9509     0.95094
   15          H           0.059791        0.9402     0.94021
   16          H           0.065283        0.9347     0.93472
   17          H           0.067711        0.9323     0.93229
   18          H           0.096113        0.9039     0.90389
   19          H           0.096772        0.9032     0.90323
   20          H           0.185256        0.8147     0.81474
 DIPOLE           X         Y         Z       TOTAL
 POINT-CHG.     0.097     0.908     0.308     0.964
 HYBRID        -0.348     0.463     0.274     0.641
 SUM           -0.251     1.371     0.581     1.511


          ATOMIC ORBITAL ELECTRON POPULATIONS

     Atom    s        px        py        pz   
    1  O   1.81126   1.20963   1.46561   1.82679
    2  C   1.17354   0.89028   0.87922   0.97031
    3  C   1.17400   0.98572   0.96051   1.01749
    4  C   1.15868   0.94857   0.97393   1.00514
    5  C   1.15106   0.92394   1.00296   0.99677
    6  C   1.14775   0.94770   0.97459   0.99209
    7  C   1.19622   0.99323   0.95454   1.00471
    8  C   1.19493   0.98282   0.96132   1.00246
    9  H   0.95450
   10  H   0.93552
   11  H   0.95393
   12  H   0.95292
   13  H   0.94535
   14  H   0.95094
   15  H   0.94021
   16  H   0.93472
   17  H   0.93229
   18  H   0.90389
   19  H   0.90323
   20  H   0.81474
 *******************************************************************************
 ** Site#: 14399        For non-commercial use only    Version 18.184L 64BITS **
 *******************************************************************************
 ** Cite this program as: MOPAC2016, Version: 18.184L, James J. P. Stewart,   **
 ** Stewart Computational Chemistry, web: HTTP://OpenMOPAC.net. Days left:  18**
 *******************************************************************************
 **                                                                           **
 **                                MOPAC2016                                  **
 **                                                                           **
 *******************************************************************************

                              PM3 CALCULATION RESULTS

 *******************************************************************************
 *  CALCULATION DONE:                                Sat Jun 15 10:23:17 2019  *
 *  PM3        - The PM3 Hamiltonian to be used
 *  OLDGEO     - PREVIOUS GEOMETRY TO BE USED
 *  PRECISE    - CRITERIA TO BE INCREASED BY 100 TIMES
 *  NOSYM      - POINT-GROUP SYMMETRY SET TO C1
 *  THREADS=1  - MULTI-THREADING NOT USED
 *  T=         - A TIME OF 172800.0 SECONDS REQUESTED
 *  DUMP=N     - RESTART FILE WRITTEN EVERY  7200.000 SECONDS
 *  THERMO     - THERMODYNAMIC QUANTITIES TO BE CALCULATED
 *******************************************************************************
oldgeo thermo nosym precise THREADS=1  pm3
 InChI=1S/C7H12O/c8-7-5-3-1-2-4-6-7/h1,3,7-8H,2,4-6H2

   ATOM   CHEMICAL          X               Y               Z
  NUMBER   SYMBOL      (ANGSTROMS)     (ANGSTROMS)     (ANGSTROMS)
 
     1       O         -1.93618375  *  -1.92258309  *  -0.03777229  *
     2       C         -0.94463218  *  -0.95724665  *   0.27322552  *
     3       C         -1.31584658  *   0.41989678  *  -0.30376492  *
     4       C         -0.40024590  *   1.53005825  *   0.18341583  *
     5       C          0.36856965  *  -1.49713290  *  -0.31782028  *
     6       C          1.01045419  *   1.44113261  *  -0.38389078  *
     7       C          1.84198232  *   0.41784622  *   0.30515350  *
     8       C          1.55585499  *  -0.88498410  *   0.33601433  *
     9       H         -0.85252090  *  -0.88576466  *   1.38549413  *
    10       H         -1.31262593  *   0.38011831  *  -1.41216082  *
    11       H         -2.35930745  *   0.67016668  *  -0.02066295  *
    12       H         -0.84156107  *   2.50461457  *  -0.10589579  *
    13       H         -0.36171566  *   1.53508031  *   1.29091096  *
    14       H          1.50041075  *   2.43072507  *  -0.29954363  *
    15       H          0.97498594  *   1.21522803  *  -1.47007875  *
    16       H          0.40690555  *  -1.30864333  *  -1.41098405  *
    17       H          0.40964426  *  -2.59928563  *  -0.20491719  *
    18       H          2.74511519  *   0.78648100  *   0.80530296  *
    19       H          2.22603070  *  -1.57542108  *   0.86142823  *
    20       H         -2.75255528  *  -1.59971720  *   0.31920479  *
 


          CARTESIAN COORDINATES 

    NO.       ATOM           X           Y           Z

     1         O         -1.9362     -1.9226     -0.0378
     2         C         -0.9446     -0.9572      0.2732
     3         C         -1.3158      0.4199     -0.3038
     4         C         -0.4002      1.5301      0.1834
     5         C          0.3686     -1.4971     -0.3178
     6         C          1.0105      1.4411     -0.3839
     7         C          1.8420      0.4178      0.3052
     8         C          1.5559     -0.8850      0.3360
     9         H         -0.8525     -0.8858      1.3855
    10         H         -1.3126      0.3801     -1.4122
    11         H         -2.3593      0.6702     -0.0207
    12         H         -0.8416      2.5046     -0.1059
    13         H         -0.3617      1.5351      1.2909
    14         H          1.5004      2.4307     -0.2995
    15         H          0.9750      1.2152     -1.4701
    16         H          0.4069     -1.3086     -1.4110
    17         H          0.4096     -2.5993     -0.2049
    18         H          2.7451      0.7865      0.8053
    19         H          2.2260     -1.5754      0.8614
    20         H         -2.7526     -1.5997      0.3192

  H: (PM3): J. J. P. STEWART, J. COMP. CHEM. 10, 209 (1989).
  C: (PM3): J. J. P. STEWART, J. COMP. CHEM. 10, 209 (1989).
  O: (PM3): J. J. P. STEWART, J. COMP. CHEM. 10, 209 (1989).

           Empirical Formula: C7 H12 O  =    20 atoms



      MOLECULAR POINT GROUP   :   C1  


      RHF CALCULATION, NO. OF DOUBLY OCCUPIED LEVELS = 23



          HEAT OF FORMATION =     -47.234708 KCALS/MOLE


          CARTESIAN COORDINATE DERIVATIVES

   NUMBER  ATOM         X            Y            Z

     1       O      0.000943    -0.005346    -0.003648
     2       C     -0.004195     0.002532     0.003103
     3       C     -0.007004     0.003293     0.002480
     4       C     -0.005247     0.003796    -0.003770
     5       C      0.002705     0.008126     0.008873
     6       C     -0.005843    -0.003730     0.001822
     7       C      0.007233    -0.001369     0.004365
     8       C     -0.002162     0.004217     0.008077
     9       H     -0.001908    -0.011279    -0.008046
    10       H     -0.006247     0.000587     0.000860
    11       H      0.000464     0.004127     0.002697
    12       H     -0.006055     0.001025    -0.004659
    13       H      0.009570    -0.000518    -0.005987
    14       H     -0.006277     0.002676     0.004317
    15       H     -0.000216    -0.000710     0.001501
    16       H      0.010876     0.000032    -0.002777
    17       H      0.000371     0.014522     0.009154
    18       H      0.010482    -0.016565    -0.010388
    19       H     -0.003299    -0.003954    -0.002138
    20       H      0.005807    -0.001461    -0.005837
 


          GRADIENT NORM =   0.04574


          TIME FOR SCF CALCULATION =    0.00

          TIME FOR DERIVATIVES     =    0.00

          MOLECULAR WEIGHT =  112.17



          ROTATIONAL CONSTANTS IN CM(-1)

          A =    0.10704095   B =    0.06011500   C =    0.04203402



           PRINCIPAL MOMENTS OF INERTIA IN UNITS OF 10**(-40)*GRAM-CM**2

          A =      261.5146   B =      465.6537   C =      665.9551


          ORIENTATION OF MOLECULE IN FORCE CALCULATION

    NO.       ATOM         X         Y         Z

     1          O      -2.4919   -0.1825    0.4938
     2          C      -1.0735   -0.1825    0.4938
     3          C      -0.5222    1.2539    0.4938
     4          C       0.9802    1.3093    0.7120
     5          C      -0.6525   -0.9636   -0.7624
     6          C       1.7815    0.7799   -0.4701
     7          C       1.8175   -0.7066   -0.5186
     8          C       0.7375   -1.4797   -0.6461
     9          H      -0.7166   -0.7216    1.4063
    10          H      -0.7901    1.7630   -0.4545
    11          H      -1.0193    1.8405    1.2940
    12          H       1.2716    2.3621    0.8991
    13          H       1.2534    0.7545    1.6316
    14          H       2.8160    1.1711   -0.4139
    15          H       1.3648    1.1687   -1.4226
    16          H      -0.7371   -0.3213   -1.6636
    17          H      -1.3492   -1.8089   -0.9338
    18          H       2.8094   -1.1681   -0.4495
    19          H       0.8513   -2.5695   -0.6804
    20          H      -2.7646    0.2992    1.2630


    FIRST DERIVATIVES WILL BE USED IN THE CALCULATION OF SECOND DERIVATIVES

          ESTIMATED TIME TO COMPLETE CALCULATION =        0.94 SECONDS

    FOR POINT-GROUP C1   THERE ARE   1 UNIQUE SYMMETRY FUNCTIONS.

 STEP:   1 TIME =     0.02 SECS, INTEGRAL =      0.02 TIME LEFT: 172799.98
 STEP:   2 TIME =     0.02 SECS, INTEGRAL =      0.03 TIME LEFT: 172799.96
 STEP:   3 TIME =     0.02 SECS, INTEGRAL =      0.05 TIME LEFT: 172799.95
 STEP:   4 TIME =     0.02 SECS, INTEGRAL =      0.06 TIME LEFT: 172799.93
 STEP:   5 TIME =     0.02 SECS, INTEGRAL =      0.08 TIME LEFT: 172799.92
 STEP:   6 TIME =     0.02 SECS, INTEGRAL =      0.09 TIME LEFT: 172799.90
 STEP:   7 TIME =     0.02 SECS, INTEGRAL =      0.11 TIME LEFT: 172799.89
 STEP:   8 TIME =     0.02 SECS, INTEGRAL =      0.12 TIME LEFT: 172799.87
 STEP:   9 TIME =     0.02 SECS, INTEGRAL =      0.14 TIME LEFT: 172799.86
 STEP:  10 TIME =     0.02 SECS, INTEGRAL =      0.16 TIME LEFT: 172799.84
 STEP:  11 TIME =     0.02 SECS, INTEGRAL =      0.18 TIME LEFT: 172799.82
 STEP:  12 TIME =     0.02 SECS, INTEGRAL =      0.19 TIME LEFT: 172799.80
 STEP:  13 TIME =     0.02 SECS, INTEGRAL =      0.21 TIME LEFT: 172799.79
 STEP:  14 TIME =     0.02 SECS, INTEGRAL =      0.22 TIME LEFT: 172799.77
 STEP:  15 TIME =     0.02 SECS, INTEGRAL =      0.24 TIME LEFT: 172799.76
 STEP:  16 TIME =     0.02 SECS, INTEGRAL =      0.25 TIME LEFT: 172799.74
 STEP:  17 TIME =     0.02 SECS, INTEGRAL =      0.27 TIME LEFT: 172799.73
 STEP:  18 TIME =     0.02 SECS, INTEGRAL =      0.29 TIME LEFT: 172799.71
 STEP:  19 TIME =     0.02 SECS, INTEGRAL =      0.30 TIME LEFT: 172799.70
 STEP:  20 TIME =     0.02 SECS, INTEGRAL =      0.32 TIME LEFT: 172799.68
 STEP:  21 TIME =     0.02 SECS, INTEGRAL =      0.34 TIME LEFT: 172799.66
 STEP:  22 TIME =     0.02 SECS, INTEGRAL =      0.35 TIME LEFT: 172799.64
 STEP:  23 TIME =     0.02 SECS, INTEGRAL =      0.37 TIME LEFT: 172799.63
 STEP:  24 TIME =     0.02 SECS, INTEGRAL =      0.38 TIME LEFT: 172799.61
 STEP:  25 TIME =     0.02 SECS, INTEGRAL =      0.40 TIME LEFT: 172799.60
 STEP:  26 TIME =     0.02 SECS, INTEGRAL =      0.41 TIME LEFT: 172799.58
 STEP:  27 TIME =     0.02 SECS, INTEGRAL =      0.43 TIME LEFT: 172799.57
 STEP:  28 TIME =     0.02 SECS, INTEGRAL =      0.45 TIME LEFT: 172799.55
 STEP:  29 TIME =     0.01 SECS, INTEGRAL =      0.46 TIME LEFT: 172799.54
 STEP:  30 TIME =     0.01 SECS, INTEGRAL =      0.47 TIME LEFT: 172799.53
 STEP:  31 TIME =     0.02 SECS, INTEGRAL =      0.48 TIME LEFT: 172799.51
 STEP:  32 TIME =     0.02 SECS, INTEGRAL =      0.50 TIME LEFT: 172799.50
 STEP:  33 TIME =     0.02 SECS, INTEGRAL =      0.52 TIME LEFT: 172799.48
 STEP:  34 TIME =     0.02 SECS, INTEGRAL =      0.53 TIME LEFT: 172799.46
 STEP:  35 TIME =     0.02 SECS, INTEGRAL =      0.55 TIME LEFT: 172799.45
 STEP:  36 TIME =     0.02 SECS, INTEGRAL =      0.56 TIME LEFT: 172799.43
 STEP:  37 TIME =     0.02 SECS, INTEGRAL =      0.58 TIME LEFT: 172799.42
 STEP:  38 TIME =     0.02 SECS, INTEGRAL =      0.59 TIME LEFT: 172799.40
 STEP:  39 TIME =     0.02 SECS, INTEGRAL =      0.61 TIME LEFT: 172799.39
 STEP:  40 TIME =     0.01 SECS, INTEGRAL =      0.62 TIME LEFT: 172799.38
 STEP:  41 TIME =     0.02 SECS, INTEGRAL =      0.64 TIME LEFT: 172799.36
 STEP:  42 TIME =     0.02 SECS, INTEGRAL =      0.66 TIME LEFT: 172799.34
 STEP:  43 TIME =     0.02 SECS, INTEGRAL =      0.67 TIME LEFT: 172799.32
 STEP:  44 TIME =     0.02 SECS, INTEGRAL =      0.69 TIME LEFT: 172799.31
 STEP:  45 TIME =     0.02 SECS, INTEGRAL =      0.70 TIME LEFT: 172799.29
 STEP:  46 TIME =     0.02 SECS, INTEGRAL =      0.72 TIME LEFT: 172799.28
 STEP:  47 TIME =     0.02 SECS, INTEGRAL =      0.73 TIME LEFT: 172799.26
 STEP:  48 TIME =     0.02 SECS, INTEGRAL =      0.75 TIME LEFT: 172799.25
 STEP:  49 TIME =     0.02 SECS, INTEGRAL =      0.77 TIME LEFT: 172799.23
 STEP:  50 TIME =     0.02 SECS, INTEGRAL =      0.79 TIME LEFT: 172799.21
 STEP:  51 TIME =     0.02 SECS, INTEGRAL =      0.80 TIME LEFT: 172799.20
 STEP:  52 TIME =     0.02 SECS, INTEGRAL =      0.82 TIME LEFT: 172799.18
 STEP:  53 TIME =     0.02 SECS, INTEGRAL =      0.83 TIME LEFT: 172799.16
 STEP:  54 TIME =     0.02 SECS, INTEGRAL =      0.85 TIME LEFT: 172799.15
 STEP:  55 TIME =     0.02 SECS, INTEGRAL =      0.86 TIME LEFT: 172799.13
 STEP:  56 TIME =     0.02 SECS, INTEGRAL =      0.88 TIME LEFT: 172799.12
 STEP:  57 TIME =     0.02 SECS, INTEGRAL =      0.90 TIME LEFT: 172799.10
 STEP:  58 TIME =     0.02 SECS, INTEGRAL =      0.91 TIME LEFT: 172799.08
 STEP:  59 TIME =     0.02 SECS, INTEGRAL =      0.93 TIME LEFT: 172799.07
 STEP:  60 TIME =     0.02 SECS, INTEGRAL =      0.95 TIME LEFT: 172799.05

(To convert to Hartree/Bohr^2, multiply by (10^(-21) x N x a0^2)/(4.184 x 627.51) =  0.0642)


           FORCE MATRIX IN MILLIDYNES/ANGSTROM


                  O  1       C  2       C  3       C  4       C  5       C  6
 ------------------------------------------------------------------------------
     O    1  11.935466
     C    2   5.030716  14.270422
     C    3   0.858528   3.588719  14.178757
     C    4   0.075059   0.575173   4.208372  14.263381
     C    5   0.869252   3.638114   0.569679   0.036621  14.564694
     C    6   0.005375   0.040238   0.614558   4.068629   0.112538  14.602989
     C    7   0.006143   0.044486   0.025870   0.663819   0.790997   4.967043
     C    8   0.062071   0.648701   0.026011   0.040669   4.980372   0.791867
     H    9   0.413381   4.117349   0.428247   0.027333   0.423490   0.003091
     H   10   0.027615   0.457939   4.435804   0.445100   0.027494   0.026899
     H   11   0.065063   0.445138   4.408437   0.430790   0.046503   0.050786
     H   12   0.014163   0.045639   0.431963   4.459051   0.003584   0.432199
     H   13   0.005317   0.031234   0.445373   4.455021   0.002944   0.443650
     H   14   0.001469   0.004152   0.048290   0.432418   0.002977   4.485216
     H   15   0.001738   0.007761   0.033914   0.453818   0.023380   4.380394
     H   16   0.026869   0.465690   0.035919   0.006255   4.388106   0.023682
     H   17   0.098727   0.469167   0.044358   0.002135   4.470133   0.002747
     H   18   0.003526   0.013685   0.000994   0.026603   0.124325   0.432848
     H   19   0.006526   0.027374   0.000953   0.015188   0.433834   0.124062
     H   20   8.325449   0.786481   0.085646   0.007942   0.109018   0.002447


                  C  7       C  8       H  9       H 10       H 11       H 12
 ------------------------------------------------------------------------------
     C    7  18.064607
     C    8  10.650089  18.070431
     H    9   0.005074   0.039197   4.536860
     H   10   0.002555   0.002556   0.043388   5.062555
     H   11   0.002710   0.002403   0.019605   0.571474   5.030752
     H   12   0.047270   0.003397   0.001577   0.026080   0.039388   5.053432
     H   13   0.029883   0.005196   0.025927   0.045012   0.025466   0.567468
     H   14   0.437452   0.051410   0.000299   0.002604   0.007940   0.037112
     H   15   0.424382   0.027965   0.000889   0.029257   0.002747   0.017895
     H   16   0.027746   0.427095   0.041034   0.030216   0.002768   0.000562
     H   17   0.050782   0.438056   0.012870   0.002452   0.007762   0.000266
     H   18   4.813845   0.440452   0.000671   0.000424   0.000492   0.003904
     H   19   0.440365   4.811450   0.002382   0.000545   0.000451   0.002433
     H   20   0.001694   0.015967   0.041420   0.005377   0.031924   0.001776


                  H 13       H 14       H 15       H 16       H 17       H 18
 ------------------------------------------------------------------------------
     H   13   5.072317
     H   14   0.018794   5.060327
     H   15   0.043697   0.566004   4.988893
     H   16   0.000831   0.000779   0.015087   5.005134
     H   17   0.000266   0.000344   0.000676   0.567318   5.066510
     H   18   0.002854   0.032896   0.024464   0.012758   0.006173   5.169200
     H   19   0.000840   0.006267   0.012686   0.025139   0.033075   0.074699
     H   20   0.001291   0.000765   0.000463   0.001624   0.004747   0.000860


                  H 19       H 20
 ------------------------------
     H   19   5.166337
     H   20   0.001384   8.567181


          HEAT OF FORMATION =     -47.234708 KCALS/MOLE

          ZERO POINT ENERGY     110.515 KCAL/MOL


           NORMAL COORDINATE ANALYSIS (Total motion = 1 Angstrom)


   Root No.       1         2         3         4         5         6         7         8

                 1 A       2 A       3 A       4 A       5 A       6 A       7 A       8 A   

                 128.5     157.9     238.1     294.7     324.2     355.1     406.8     458.7
  
           1    0.0118    0.0080   -0.0037    0.0040   -0.0293    0.0169   -0.0151   -0.0220
           2   -0.0260   -0.0157   -0.0610    0.0085   -0.0159   -0.0237    0.0546   -0.0161
           3    0.0451    0.0003    0.0221   -0.0197   -0.0043   -0.0238    0.0342   -0.0038
           4    0.0104    0.0071   -0.0034    0.0061   -0.0265    0.0149   -0.0104   -0.0171
           5    0.0053   -0.0013    0.0084   -0.0149   -0.0030    0.0375   -0.0167    0.0105
           6   -0.0123   -0.0076    0.0040    0.0097    0.0210    0.0175    0.0004    0.0184
           7   -0.0072   -0.0025    0.0025    0.0025   -0.0103   -0.0208   -0.0309    0.0049
           8    0.0118    0.0029    0.0070   -0.0134   -0.0099    0.0505   -0.0149    0.0042
           9   -0.0417    0.0265    0.0046    0.0298    0.0056    0.0085    0.0002   -0.0029
          10   -0.0126    0.0040    0.0049    0.0051   -0.0014   -0.0186   -0.0367    0.0131
          11    0.0187    0.0138   -0.0068    0.0467   -0.0057    0.0052   -0.0077   -0.0146
          12   -0.0033   -0.0159    0.0008   -0.0145   -0.0310    0.0077   -0.0135   -0.0134
          13   -0.0106    0.0110    0.0022   -0.0117    0.0055    0.0219    0.0344   -0.0066
          14    0.0140    0.0337    0.0196   -0.0204    0.0307    0.0156    0.0061    0.0105
          15   -0.0250   -0.0293   -0.0018    0.0075    0.0153    0.0325   -0.0061    0.0186
          16    0.0234   -0.0173    0.0027    0.0120    0.0458   -0.0260   -0.0147    0.0101
          17   -0.0111   -0.0120   -0.0020   -0.0047   -0.0052   -0.0281   -0.0175   -0.0066
          18    0.0351   -0.0197   -0.0035    0.0165   -0.0021    0.0142    0.0062   -0.0168
          19   -0.0094   -0.0042    0.0014   -0.0113    0.0194    0.0070    0.0401    0.0232
          20   -0.0115   -0.0143   -0.0021   -0.0045   -0.0042   -0.0274   -0.0159   -0.0048
          21    0.0183    0.0303   -0.0042    0.0053   -0.0283   -0.0269    0.0017    0.0448
          22   -0.0148   -0.0075   -0.0041   -0.0060   -0.0008    0.0071    0.0392    0.0083
          23    0.0030   -0.0074    0.0049   -0.0054    0.0158   -0.0273   -0.0118    0.0305
          24   -0.0245    0.0146    0.0010   -0.0282    0.0236   -0.0182   -0.0245   -0.0416
          25    0.0524    0.0166   -0.0113   -0.0090   -0.0387    0.0195   -0.0187   -0.0254
          26    0.0147   -0.0205    0.0102   -0.0231   -0.0040    0.0676   -0.0333    0.0219
          27   -0.0228   -0.0225    0.0079    0.0101    0.0242    0.0335   -0.0070    0.0276
          28    0.0151   -0.0348    0.0045   -0.0391   -0.0315   -0.0193   -0.0528    0.0085
          29   -0.0173    0.0329    0.0134    0.0012   -0.0102    0.0506   -0.0153   -0.0055
          30   -0.0635    0.0518    0.0075    0.0492    0.0115    0.0089    0.0056   -0.0090
          31   -0.0304    0.0159    0.0157    0.0145    0.0156   -0.0200   -0.0232    0.0197
          32    0.0340   -0.0295    0.0103   -0.0435   -0.0053    0.0501   -0.0187    0.0239
          33   -0.0726    0.0617    0.0117    0.0606    0.0181    0.0082    0.0095   -0.0094
          34   -0.0179    0.0023    0.0126   -0.0321   -0.0162    0.0187   -0.0466    0.0239
          35    0.0241    0.0202   -0.0107    0.0744    0.0025   -0.0032   -0.0004   -0.0215
          36   -0.0248   -0.0490    0.0108   -0.1056   -0.0504   -0.0035   -0.0374    0.0055
          37   -0.0372    0.0288    0.0009    0.0441    0.0053   -0.0402   -0.0362    0.0110
          38    0.0446    0.0378   -0.0178    0.1297    0.0146    0.0066    0.0153   -0.0345
          39    0.0197   -0.0088   -0.0045    0.0230   -0.0205    0.0149    0.0002   -0.0244
          40    0.0321   -0.0206    0.0027    0.0215    0.0523   -0.0288   -0.0298   -0.0014
          41   -0.0405    0.0017   -0.0020   -0.0314   -0.0309   -0.0201    0.0214    0.0291
          42    0.0849   -0.0580   -0.0039    0.0399    0.0724    0.0114    0.0099   -0.0679
          43    0.0785   -0.0458    0.0012    0.0447    0.1114   -0.0314   -0.0210   -0.0321
          44    0.0041   -0.0457    0.0008   -0.0015    0.0257   -0.0304   -0.0467   -0.0624
          45    0.0172   -0.0212   -0.0016    0.0036   -0.0170    0.0146   -0.0037   -0.0217
          46   -0.0060    0.0611    0.0157   -0.0451    0.0374    0.0281    0.0589   -0.0731
          47    0.0222    0.0719    0.0330   -0.0296    0.0631    0.0141    0.0326   -0.0050
          48   -0.0194   -0.0069    0.0060    0.0044    0.0343    0.0296    0.0095    0.0141
          49   -0.0190   -0.0095   -0.0034   -0.0067    0.0048    0.0008    0.0326    0.0180
          50    0.0223    0.0627    0.0280   -0.0312    0.0425    0.0301    0.0176   -0.0196
          51   -0.0310   -0.0866   -0.0215    0.0366   -0.0387    0.0406   -0.0451    0.0612
          52   -0.0183   -0.0075   -0.0002   -0.0138    0.0138    0.0185    0.0503    0.0106
          53   -0.0297   -0.0123   -0.0054   -0.0122   -0.0240   -0.0124    0.0051   -0.0186
          54    0.0304    0.0828   -0.0054   -0.0027   -0.0766   -0.0992   -0.0111    0.1243
          55   -0.0228   -0.0304   -0.0146    0.0060   -0.0211   -0.0080    0.0342    0.0050
          56    0.0029   -0.0103    0.0037   -0.0029    0.0128   -0.0264   -0.0103    0.0322
          57   -0.0514    0.0497    0.0076   -0.0778    0.0484   -0.0825   -0.0778   -0.1253
          58    0.0332    0.0071   -0.0389   -0.0087   -0.0455   -0.0326    0.0417   -0.0440
          59   -0.0274   -0.0419    0.5581    0.0330   -0.0554   -0.0606    0.1012   -0.0385
          60    0.0536    0.0163   -0.3765   -0.0397    0.0143   -0.0188    0.0262    0.0018


   Root No.       9        10        11        12        13        14        15        16

                 9 A      10 A      11 A      12 A      13 A      14 A      15 A      16 A   

                 483.4     556.2     653.4     757.3     848.6     874.3     913.1     927.5
  
           1    0.0104    0.0450    0.0228   -0.0091   -0.0030   -0.0020   -0.0110    0.0046
           2    0.0070    0.0152    0.0023    0.0006    0.0029    0.0006   -0.0008    0.0018
           3   -0.0181   -0.0159   -0.0075    0.0015   -0.0017    0.0002    0.0007    0.0002
           4    0.0092    0.0318    0.0128   -0.0026   -0.0019   -0.0013    0.0068    0.0034
           5   -0.0272   -0.0113   -0.0045    0.0051   -0.0241   -0.0058   -0.0040    0.0154
           6    0.0461    0.0270   -0.0021    0.0121    0.0162    0.0057   -0.0071   -0.0086
           7    0.0144   -0.0276   -0.0080   -0.0037   -0.0133   -0.0105    0.0085   -0.0293
           8   -0.0307    0.0009   -0.0102    0.0076    0.0244    0.0142   -0.0259   -0.0098
           9   -0.0234    0.0036   -0.0000    0.0138   -0.0046    0.0414   -0.0201    0.0154
          10    0.0046   -0.0348   -0.0130   -0.0014    0.0076    0.0002    0.0031   -0.0066
          11    0.0096   -0.0292   -0.0073    0.0017    0.0398    0.0179    0.0342   -0.0132
          12    0.0127   -0.0307    0.0069    0.0129    0.0043   -0.0015   -0.0015    0.0125
          13    0.0049   -0.0066   -0.0246    0.0097   -0.0180    0.0018    0.0264    0.0079
          14    0.0256    0.0039    0.0137    0.0026   -0.0262    0.0022    0.0437    0.0101
          15    0.0136    0.0077   -0.0113   -0.0066   -0.0073   -0.0237    0.0091    0.0041
          16   -0.0178    0.0113   -0.0065   -0.0068    0.0285   -0.0035   -0.0052    0.0539
          17    0.0029    0.0093   -0.0259   -0.0048    0.0027   -0.0009    0.0052    0.0194
          18    0.0007   -0.0135    0.0134   -0.0048    0.0073   -0.0195    0.0036   -0.0061
          19   -0.0125   -0.0155    0.0400    0.0074    0.0153    0.0044   -0.0079   -0.0110
          20    0.0022    0.0074   -0.0155   -0.0057   -0.0130   -0.0078   -0.0130   -0.0028
          21   -0.0002    0.0150   -0.0117   -0.0337   -0.0083    0.0127    0.0016   -0.0094
          22   -0.0092   -0.0119   -0.0116    0.0121   -0.0008    0.0016   -0.0021   -0.0074
          23   -0.0016    0.0075    0.0540   -0.0103   -0.0018   -0.0020   -0.0148   -0.0211
          24   -0.0058   -0.0059    0.0171   -0.0337   -0.0112    0.0101   -0.0049    0.0038
          25   -0.0147    0.0350    0.0276   -0.0096   -0.0046   -0.0084   -0.0108    0.0220
          26   -0.0270   -0.0097   -0.0196    0.0033   -0.0162   -0.0669   -0.0391    0.0048
          27    0.0526    0.0271   -0.0155    0.0125    0.0202   -0.0288   -0.0199   -0.0206
          28    0.0551   -0.0777   -0.0062    0.0335   -0.0621    0.0625   -0.0575   -0.0019
          29   -0.1205    0.0029   -0.0202   -0.0320    0.0201   -0.1010   -0.0066   -0.0442
          30   -0.0867    0.0198   -0.0069   -0.0194    0.0092   -0.0441    0.0105   -0.0130
          31   -0.0312   -0.0023   -0.0217   -0.0284   -0.0155   -0.0759    0.0152   -0.0746
          32    0.0462   -0.0145   -0.0082    0.0491    0.0026    0.1119   -0.0873    0.0134
          33   -0.1103    0.0324   -0.0094   -0.0334    0.0104   -0.0754    0.0302   -0.0286
          34   -0.0186   -0.0163   -0.0264   -0.0012    0.0648    0.0354    0.0023   -0.0969
          35    0.0204   -0.0494    0.0082    0.0101    0.0008   -0.0027    0.0101    0.0157
          36   -0.0118    0.0470   -0.0556   -0.0295    0.1208    0.0512    0.1246   -0.0131
          37    0.0160   -0.0587   -0.0104    0.0134   -0.0752    0.0237   -0.0383    0.0240
          38    0.0357   -0.0985    0.0493    0.0365   -0.0588   -0.0445   -0.0628    0.0340
          39    0.0235   -0.0618    0.0385    0.0279   -0.0285   -0.0454   -0.0446    0.0288
          40   -0.0190    0.0165   -0.0286    0.0018    0.0188    0.0048    0.0048    0.0379
          41    0.0099   -0.0147    0.0349   -0.0318    0.0376   -0.0281   -0.0223    0.0775
          42   -0.0365    0.0742   -0.0336    0.0392   -0.0908    0.0368   -0.0067   -0.1387
          43   -0.0472    0.0893   -0.0679    0.0240   -0.0530    0.0694   -0.0025   -0.0639
          44   -0.0058    0.0340   -0.0715    0.0541   -0.0536   -0.0147    0.0039   -0.0175
          45    0.0084   -0.0346    0.0197    0.0076    0.0186   -0.0546    0.0029    0.0274
          46    0.0376   -0.0313   -0.1101   -0.0473    0.0043   -0.0231   -0.0753    0.0363
          47    0.0929    0.0176   -0.0328   -0.0101    0.0453   -0.0487   -0.0409   -0.0454
          48    0.0554    0.0200   -0.0344   -0.0080    0.0399   -0.0553   -0.0383   -0.0371
          49   -0.0165   -0.0130    0.0171    0.0223   -0.0274    0.0211    0.0556   -0.0274
          50    0.0603    0.0069   -0.0379   -0.0168   -0.0002   -0.0250   -0.0110    0.0262
          51   -0.0658    0.0153    0.0596    0.0362   -0.0924    0.0255    0.1466    0.0618
          52   -0.0099   -0.0266    0.0303   -0.0080    0.0025    0.0127   -0.0062   -0.0372
          53    0.0074   -0.0055   -0.0422   -0.0032   -0.0411   -0.0032   -0.0125   -0.0521
          54   -0.0091    0.0883   -0.0629    0.2120   -0.0034   -0.0728   -0.0291    0.0321
          55   -0.0191   -0.0122   -0.0494   -0.0140   -0.0043   -0.0006   -0.0739   -0.0253
          56   -0.0014    0.0068    0.0474   -0.0209   -0.0054   -0.0010   -0.0242   -0.0224
          57   -0.0271    0.0156    0.0857    0.2071    0.0693   -0.0394    0.0362   -0.0408
          58   -0.0197    0.0182    0.0139   -0.0170   -0.0079   -0.0023    0.0101    0.0036
          59    0.0004    0.0199    0.0056   -0.0022    0.0027    0.0028    0.0026    0.0049
          60   -0.0250   -0.0284   -0.0127    0.0002   -0.0034   -0.0013    0.0061   -0.0020


   Root No.      17        18        19        20        21        22        23        24

                17 A      18 A      19 A      20 A      21 A      22 A      23 A      24 A   

                 963.4     983.4    1025.1    1050.8    1070.2    1078.6    1087.9    1109.8
  
           1    0.0044   -0.0015   -0.0006   -0.0076   -0.0072    0.0121   -0.0226   -0.0178
           2   -0.0008    0.0011   -0.0023    0.0040    0.0018    0.0023    0.0053    0.0026
           3   -0.0010   -0.0001    0.0002   -0.0018   -0.0010    0.0060   -0.0031   -0.0038
           4    0.0005   -0.0016    0.0004    0.0047    0.0095   -0.0100    0.0157    0.0073
           5   -0.0051   -0.0165    0.0135   -0.0042    0.0154    0.0208   -0.0050   -0.0161
           6   -0.0191    0.0075    0.0174    0.0190    0.0015    0.0206    0.0147    0.0054
           7   -0.0004   -0.0098    0.0210   -0.0115   -0.0120    0.0003   -0.0048    0.0001
           8   -0.0070    0.0145   -0.0044    0.0062   -0.0174   -0.0140   -0.0027    0.0135
           9   -0.0016   -0.0038    0.0017   -0.0128    0.0001   -0.0026   -0.0041   -0.0029
          10   -0.0017    0.0102   -0.0047    0.0082    0.0100   -0.0028    0.0040    0.0045
          11    0.0237   -0.0062    0.0016   -0.0077    0.0050    0.0080    0.0005   -0.0057
          12    0.0156   -0.0029   -0.0190    0.0129    0.0027    0.0045    0.0024   -0.0046
          13   -0.0115    0.0169   -0.0167   -0.0163   -0.0098    0.0137    0.0010    0.0174
          14   -0.0035    0.0071    0.0016    0.0054   -0.0059   -0.0095    0.0091   -0.0104
          15    0.0206   -0.0085   -0.0217   -0.0262    0.0053   -0.0307   -0.0126    0.0070
          16   -0.0124    0.0029   -0.0035    0.0005   -0.0088   -0.0038    0.0046   -0.0085
          17   -0.0024   -0.0132    0.0103    0.0153   -0.0107   -0.0066   -0.0151    0.0116
          18   -0.0187    0.0074    0.0220   -0.0182   -0.0031   -0.0000    0.0118    0.0054
          19    0.0261   -0.0159    0.0133    0.0202    0.0093   -0.0051   -0.0151   -0.0005
          20   -0.0184    0.0141   -0.0054   -0.0186    0.0031   -0.0029    0.0179   -0.0091
          21   -0.0348   -0.0128   -0.0164    0.0144    0.0104   -0.0065   -0.0197    0.0035
          22   -0.0079   -0.0028    0.0027    0.0122    0.0041   -0.0056    0.0030   -0.0117
          23    0.0148    0.0093   -0.0170   -0.0251    0.0166    0.0114   -0.0058    0.0136
          24    0.0328    0.0188    0.0141    0.0142   -0.0132    0.0057    0.0153   -0.0059
          25    0.0076   -0.0191   -0.0136    0.0863    0.0856   -0.0634    0.1926    0.1446
          26   -0.0049   -0.0585   -0.0327    0.0469    0.0277    0.1378    0.0468    0.0027
          27   -0.0202   -0.0115   -0.0057    0.0185   -0.0176    0.1079   -0.0175   -0.0321
          28    0.0342   -0.0742   -0.0563   -0.0356   -0.0752   -0.0305    0.0192   -0.0216
          29    0.0226   -0.0225   -0.0653    0.0323   -0.0679   -0.0175    0.0249    0.0013
          30    0.0047   -0.0048   -0.0093    0.0086   -0.0090    0.0047    0.0053   -0.0031
          31   -0.0612    0.0286    0.1170   -0.0093   -0.0249    0.0281   -0.0436    0.0464
          32   -0.0549    0.0396    0.0555   -0.0170   -0.0273   -0.0128   -0.0441    0.0449
          33   -0.0035    0.0005    0.0160    0.0072   -0.0008    0.0160    0.0021    0.0013
          34   -0.0091    0.1032   -0.0063   -0.0248    0.0336   -0.0910    0.0175   -0.0076
          35    0.0165   -0.0231   -0.0010    0.0068   -0.0059    0.0213   -0.0060    0.0000
          36    0.0661   -0.0563    0.0047   -0.0117    0.0172    0.0644    0.0128   -0.0090
          37    0.0074   -0.0752   -0.0342    0.0364    0.0092    0.0512    0.0404    0.0789
          38   -0.0107    0.0194   -0.0194    0.0310   -0.0136   -0.0199   -0.0131   -0.0065
          39   -0.0076    0.0372   -0.0212    0.0266   -0.0074   -0.0274   -0.0149   -0.0267
          40   -0.0042    0.0336   -0.0432    0.0206    0.0307    0.0140   -0.0071   -0.0330
          41   -0.0323   -0.0859    0.1124   -0.0332   -0.1123   -0.0562    0.0144    0.0701
          42    0.0379   -0.0587    0.0488   -0.0156   -0.0263   -0.0167    0.0127    0.0475
          43    0.0382   -0.0504   -0.0287   -0.0072   -0.0074   -0.0045    0.0291   -0.0194
          44    0.0475    0.0524   -0.0062    0.1660    0.0540   -0.0111   -0.1632    0.0496
          45   -0.0183    0.0560    0.0256    0.0471    0.0232   -0.0007   -0.0581    0.0253
          46    0.0433   -0.0044    0.0225   -0.1400    0.1247    0.0253   -0.0518    0.0754
          47    0.0092   -0.0272   -0.0588    0.0414   -0.0614   -0.0369    0.0154   -0.0303
          48    0.0231   -0.0294   -0.0672    0.0116   -0.0467   -0.0509   -0.0029   -0.0111
          49   -0.0271    0.0664   -0.0765   -0.0014   -0.1078    0.0935    0.0162    0.0625
          50    0.0162   -0.0383    0.0391   -0.0109    0.0695   -0.0666   -0.0063   -0.0406
          51   -0.0171    0.0170    0.0254   -0.0130    0.0287   -0.0559    0.0091   -0.0193
          52   -0.0008   -0.0280    0.0288    0.0554    0.0199   -0.0340   -0.0047   -0.0507
          53   -0.0457   -0.0015    0.0393    0.0458    0.0184   -0.0626    0.0506   -0.1148
          54    0.1754    0.0523    0.0639   -0.0334   -0.0234    0.0036    0.0472   -0.0125
          55   -0.0363    0.0331   -0.0028   -0.0286    0.0375    0.0310    0.1042   -0.1010
          56    0.0182    0.0164   -0.0158   -0.0288    0.0200    0.0157    0.0070    0.0030
          57   -0.1678   -0.0724   -0.0504   -0.0465    0.0438   -0.0220   -0.0263    0.0038
          58    0.0259    0.0118   -0.0459   -0.0451   -0.0377   -0.0529   -0.0514    0.0049
          59    0.0054    0.0041   -0.0142   -0.0023   -0.0028   -0.0121    0.0020    0.0080
          60    0.0033    0.0030   -0.0097   -0.0123   -0.0102   -0.0084   -0.0131    0.0005


   Root No.      25        26        27        28        29        30        31        32

                25 A      26 A      27 A      28 A      29 A      30 A      31 A      32 A   

                1119.7    1144.2    1152.7    1159.6    1181.5    1206.8    1246.6    1251.2
  
           1    0.0082    0.0068    0.0052   -0.0036   -0.0029   -0.0229    0.0103   -0.0263
           2   -0.0016    0.0013   -0.0001    0.0020   -0.0010   -0.0044   -0.0010   -0.0021
           3   -0.0019    0.0023    0.0002    0.0024    0.0010   -0.0074   -0.0054    0.0002
           4   -0.0080   -0.0016   -0.0034    0.0054    0.0088    0.0223   -0.0250    0.0428
           5    0.0070   -0.0053   -0.0206   -0.0091    0.0067   -0.0389   -0.0196    0.0037
           6   -0.0245   -0.0011    0.0217    0.0182   -0.0029   -0.0107   -0.0014   -0.0022
           7   -0.0132   -0.0245   -0.0128    0.0098   -0.0015    0.0028   -0.0085    0.0213
           8   -0.0036   -0.0042    0.0306   -0.0011   -0.0005    0.0101   -0.0028    0.0220
           9    0.0098   -0.0065   -0.0296    0.0077   -0.0046    0.0079    0.0010    0.0072
          10    0.0107    0.0244    0.0097   -0.0139    0.0059   -0.0101    0.0061    0.0149
          11    0.0021   -0.0030   -0.0083    0.0040    0.0007   -0.0011    0.0073   -0.0092
          12   -0.0256    0.0021    0.0159   -0.0385    0.0005    0.0004    0.0015   -0.0092
          13   -0.0055    0.0034   -0.0031    0.0019   -0.0010    0.0092   -0.0106    0.0071
          14    0.0016    0.0018    0.0060    0.0019    0.0067    0.0013    0.0209   -0.0086
          15    0.0145   -0.0066   -0.0042   -0.0103   -0.0039   -0.0119    0.0092   -0.0007
          16   -0.0032   -0.0012   -0.0021    0.0016   -0.0068   -0.0017    0.0081    0.0057
          17   -0.0074    0.0055   -0.0041   -0.0024    0.0027    0.0005   -0.0103   -0.0194
          18    0.0340    0.0079    0.0010    0.0220   -0.0048    0.0022   -0.0109   -0.0071
          19   -0.0014   -0.0004    0.0011    0.0008    0.0009    0.0028   -0.0038   -0.0084
          20    0.0019    0.0011    0.0014   -0.0006   -0.0066    0.0076   -0.0213   -0.0068
          21   -0.0068   -0.0011   -0.0020    0.0003    0.0031   -0.0021    0.0030    0.0014
          22    0.0026   -0.0041    0.0005   -0.0009    0.0037    0.0042   -0.0182   -0.0168
          23   -0.0027   -0.0029    0.0023    0.0026   -0.0037    0.0047   -0.0001    0.0124
          24    0.0033   -0.0001   -0.0012    0.0005    0.0036    0.0071   -0.0071    0.0002
          25    0.0042   -0.0781   -0.0850   -0.0068   -0.0482   -0.0352    0.0504   -0.0627
          26    0.0078    0.0825   -0.1420   -0.0022   -0.0292    0.1505    0.0600   -0.0152
          27   -0.0294    0.0780   -0.0214    0.0284   -0.0044    0.1234    0.0204    0.0247
          28   -0.0339   -0.0507   -0.0233    0.2137   -0.0351    0.0192    0.0265   -0.0839
          29   -0.0611   -0.0084    0.1045    0.1223   -0.0144    0.0103    0.0238   -0.0488
          30   -0.0185   -0.0007    0.0130    0.0164   -0.0035    0.0040    0.0065   -0.0031
          31    0.0020   -0.1031    0.0095   -0.1073   -0.0375    0.0725    0.0366   -0.1182
          32    0.0533   -0.0628   -0.0024   -0.0700   -0.0284    0.0788    0.0343   -0.0500
          33   -0.0243   -0.0123    0.0096   -0.0145   -0.0066    0.0008    0.0021   -0.0234
          34   -0.0358    0.1614   -0.0991    0.0172    0.0377   -0.0317   -0.0034   -0.1244
          35    0.0050   -0.0306    0.0219   -0.0079   -0.0053    0.0041    0.0057    0.0211
          36    0.0228   -0.0572    0.0209   -0.0269   -0.0127    0.0073    0.0371    0.0298
          37    0.1550    0.0789    0.1699   -0.0219    0.0323    0.0084   -0.0184   -0.0497
          38   -0.0704   -0.0035    0.0028   -0.0501   -0.0023   -0.0017    0.0190    0.0023
          39   -0.1123   -0.0143   -0.0264   -0.0712   -0.0095   -0.0050    0.0169    0.0161
          40    0.0123   -0.0348    0.0101    0.0078   -0.0367    0.0172   -0.0254   -0.0261
          41   -0.0416    0.0942   -0.0367   -0.0122    0.0707   -0.0493    0.0790    0.0562
          42   -0.0206    0.0589   -0.0011   -0.0329    0.0580   -0.0217    0.0203    0.0422
          43   -0.0684    0.0141    0.0177   -0.0816   -0.0177   -0.0014    0.0009   -0.0256
          44    0.0253   -0.0202   -0.0385    0.0865    0.0560   -0.0201    0.0575    0.0370
          45    0.0760   -0.0087   -0.0198    0.0920    0.0216   -0.0060    0.0188    0.0297
          46   -0.0679    0.0166    0.0501    0.0391   -0.0539   -0.0361    0.0678    0.0157
          47    0.0699   -0.0290   -0.0576   -0.0452    0.0378   -0.0002   -0.0373    0.0102
          48    0.0667   -0.0299   -0.0522   -0.0455    0.0224   -0.0102   -0.0375    0.0116
          49    0.0204   -0.0088   -0.0454   -0.0182   -0.0427   -0.1248    0.0536    0.0302
          50   -0.0110    0.0065    0.0286    0.0110    0.0346    0.0884   -0.0316   -0.0219
          51   -0.0270    0.0136    0.0467    0.0252    0.0322    0.0818    0.0198   -0.0199
          52    0.0217    0.0169    0.0141   -0.0016   -0.0843   -0.0159    0.0472    0.0368
          53    0.0556    0.0415    0.0296   -0.0057   -0.1932   -0.0327    0.0858    0.0916
          54    0.0275    0.0075    0.0059    0.0018   -0.0209   -0.0016    0.0020    0.0030
          55    0.0227   -0.0839    0.0265    0.0060    0.2166   -0.0124    0.1360    0.0136
          56   -0.0003   -0.0112    0.0055    0.0035    0.0182    0.0044    0.0159    0.0167
          57    0.0036   -0.0097    0.0066    0.0015    0.0141   -0.0100    0.0206   -0.0011
          58    0.0517    0.0113   -0.0070   -0.0473   -0.0038    0.1523    0.0817    0.0190
          59    0.0083    0.0032   -0.0031   -0.0063   -0.0014    0.0270    0.0139    0.0054
          60    0.0087    0.0035   -0.0023   -0.0090    0.0007    0.0381    0.0133    0.0112


   Root No.      33        34        35        36        37        38        39        40

                33 A      34 A      35 A      36 A      37 A      38 A      39 A      40 A   

                1322.9    1340.6    1380.6    1390.7    1399.5    1406.3    1407.2    1415.9
  
           1    0.0187    0.0000    0.0090   -0.0143    0.0011    0.0043   -0.0030    0.0000
           2    0.0019    0.0040    0.0040   -0.0019   -0.0013    0.0050   -0.0065    0.0043
           3    0.0001    0.0066    0.0059   -0.0028   -0.0028    0.0082   -0.0099    0.0054
           4   -0.0395    0.0121   -0.0128    0.0375   -0.0095    0.0062   -0.0139    0.0149
           5   -0.0119    0.0068   -0.0181    0.0181    0.0080   -0.0266    0.0238   -0.0147
           6    0.0013   -0.0059   -0.0120    0.0039    0.0098   -0.0237    0.0269   -0.0145
           7   -0.0054   -0.0273    0.0146   -0.0335   -0.0147    0.0162   -0.0000   -0.0357
           8    0.0034   -0.0207    0.0073   -0.0322    0.0074    0.0189    0.0052    0.0224
           9    0.0054   -0.0029    0.0041    0.0005   -0.0012    0.0070   -0.0039   -0.0017
          10    0.0481    0.0013    0.0070    0.0378    0.0217   -0.0204   -0.0063    0.0269
          11   -0.0068    0.0099   -0.0030   -0.0109   -0.0053   -0.0188   -0.0046   -0.0028
          12   -0.0207    0.0014    0.0024   -0.0211   -0.0134   -0.0327   -0.0091    0.0011
          13    0.0046    0.0292    0.0009   -0.0184    0.0186   -0.0144   -0.0072   -0.0030
          14    0.0004   -0.0224   -0.0047    0.0034   -0.0087    0.0144   -0.0134    0.0047
          15   -0.0026   -0.0126   -0.0157    0.0003   -0.0007    0.0105   -0.0277    0.0049
          16   -0.0073    0.0108   -0.0113   -0.0202   -0.0217   -0.0041    0.0021   -0.0024
          17   -0.0109   -0.0286    0.0149    0.0376   -0.0133    0.0066    0.0041    0.0206
          18   -0.0033   -0.0134    0.0143    0.0193    0.0263    0.0101   -0.0014   -0.0018
          19   -0.0027   -0.0110    0.0039    0.0108   -0.0031    0.0027    0.0028    0.0035
          20    0.0223    0.0014   -0.0125   -0.0150   -0.0012    0.0019    0.0029   -0.0102
          21    0.0008    0.0009   -0.0021   -0.0028   -0.0025   -0.0005   -0.0002   -0.0003
          22    0.0193   -0.0110   -0.0099   -0.0065   -0.0015    0.0054    0.0015   -0.0072
          23   -0.0031    0.0163    0.0029   -0.0049    0.0075   -0.0057   -0.0014   -0.0006
          24    0.0015    0.0027    0.0006   -0.0004    0.0017   -0.0011    0.0019   -0.0009
          25    0.0506   -0.0222    0.0118   -0.0434    0.0132   -0.0216    0.0176   -0.0254
          26    0.0258   -0.0225    0.0319   -0.0296   -0.0164    0.0371   -0.0336    0.0144
          27   -0.0095   -0.0124    0.0067    0.0069   -0.0123    0.0212   -0.0172    0.0163
          28   -0.0211    0.0512   -0.0519    0.0183    0.0484   -0.0123    0.0339    0.1283
          29    0.0281    0.0508    0.0067    0.1126   -0.0461   -0.0465   -0.0517   -0.1235
          30    0.0207    0.0117    0.0189    0.0555   -0.0400   -0.0184   -0.0384   -0.1087
          31   -0.0656    0.0810   -0.0368    0.0089    0.0094   -0.0186   -0.0090    0.0934
          32    0.0148    0.0706    0.0216    0.1038   -0.0572   -0.0152   -0.0824   -0.0869
          33   -0.0355   -0.0025   -0.0344   -0.0632    0.0534    0.0061    0.0487    0.1354
          34   -0.1059    0.0284   -0.0356   -0.0074   -0.0329    0.0606    0.0298   -0.0461
          35    0.0216   -0.0056    0.0159   -0.0065    0.0022   -0.0634   -0.0211    0.0213
          36    0.0655    0.0720   -0.0676    0.0425    0.0369    0.1969    0.0602   -0.0409
          37   -0.0958    0.0225   -0.0342   -0.0555   -0.0241    0.0857    0.0281   -0.0483
          38    0.0275    0.0406   -0.0542    0.0482    0.0212    0.1991    0.0629   -0.0334
          39    0.0438    0.0176   -0.0219    0.0457    0.0184    0.0882    0.0278   -0.0003
          40   -0.0191   -0.0254    0.0033    0.0143   -0.0319    0.0086    0.0079    0.0116
          41   -0.0115    0.0609    0.0023   -0.0489    0.0852   -0.0175   -0.0235   -0.0410
          42    0.1046    0.0333   -0.0701   -0.0120   -0.1676   -0.0376    0.0255    0.0630
          43   -0.0635   -0.0176    0.0703    0.0258    0.1832    0.0130   -0.0360   -0.0557
          44   -0.0295    0.0402    0.0036   -0.0478    0.0787   -0.0005   -0.0176   -0.0433
          45    0.0188    0.0267   -0.0315   -0.0354   -0.0438   -0.0026    0.0090    0.0015
          46   -0.0293   -0.0136    0.0801    0.0420   -0.0584    0.0220    0.0787    0.0128
          47   -0.0077    0.0705    0.1039    0.0080   -0.0272   -0.0063    0.1014    0.0089
          48   -0.0060    0.0606    0.0672    0.0010   -0.0119   -0.0075    0.0598    0.0062
          49   -0.0539   -0.0464    0.0067    0.0551   -0.0397    0.0207    0.0163    0.0138
          50    0.0402    0.0264   -0.0312   -0.0495    0.0410   -0.0133   -0.0483   -0.0088
          51    0.0225    0.0723    0.1569   -0.0159   -0.0398    0.0068    0.1199    0.0088
          52   -0.0372    0.0104    0.0116    0.0098   -0.0085   -0.0051    0.0002    0.0109
          53   -0.0499    0.0495    0.0041   -0.0182   -0.0097   -0.0153   -0.0034    0.0047
          54   -0.0042   -0.0027    0.0032    0.0061    0.0025    0.0020   -0.0022    0.0022
          55   -0.0539   -0.0207    0.0183    0.0265   -0.0025    0.0071   -0.0209    0.0217
          56   -0.0106    0.0171    0.0058   -0.0026    0.0081   -0.0060   -0.0041    0.0021
          57   -0.0053   -0.0073    0.0020    0.0045    0.0006    0.0044   -0.0064    0.0031
          58   -0.0069   -0.0971   -0.0938    0.0415    0.0485   -0.1277    0.1524   -0.0814
          59   -0.0006   -0.0163   -0.0155    0.0076    0.0085   -0.0211    0.0249   -0.0130
          60   -0.0067   -0.0185   -0.0212    0.0116    0.0098   -0.0269    0.0312   -0.0158


   Root No.      41        42        43        44        45        46        47        48

                41 A      42 A      43 A      44 A      45 A      46 A      47 A      48 A   

                1438.2    1881.9    2830.6    2940.5    2943.9    2944.6    2953.8    3022.3
  
           1    0.0057    0.0000    0.0006   -0.0000   -0.0000   -0.0001    0.0000   -0.0001
           2   -0.0001   -0.0006    0.0002    0.0001    0.0001    0.0000    0.0001    0.0000
           3    0.0000   -0.0010    0.0008    0.0000    0.0001    0.0000    0.0000    0.0001
           4   -0.0245    0.0018   -0.0210   -0.0001   -0.0001   -0.0003    0.0003   -0.0000
           5    0.0044    0.0015    0.0328    0.0004    0.0001    0.0007    0.0001   -0.0001
           6    0.0072    0.0018   -0.0563   -0.0007   -0.0000   -0.0014    0.0002    0.0003
           7    0.0138    0.0001   -0.0000    0.0004   -0.0030    0.0040   -0.0025    0.0041
           8    0.0032   -0.0002    0.0006    0.0001    0.0014   -0.0020    0.0020   -0.0057
           9    0.0011    0.0000    0.0029   -0.0034    0.0190   -0.0264    0.0093    0.0013
          10   -0.0057   -0.0021    0.0000    0.0003   -0.0003    0.0002   -0.0011    0.0021
          11   -0.0095   -0.0016    0.0004   -0.0045    0.0053   -0.0034   -0.0409    0.0001
          12   -0.0086    0.0009   -0.0005    0.0028   -0.0031    0.0019    0.0171    0.0055
          13    0.0552   -0.0364   -0.0002    0.0050    0.0079    0.0052    0.0003    0.0064
          14   -0.0211    0.0034   -0.0023    0.0139    0.0207    0.0143    0.0006    0.0033
          15   -0.0002   -0.0036    0.0009   -0.0082   -0.0117   -0.0080   -0.0003    0.0068
          16   -0.0015    0.0088    0.0000   -0.0263    0.0076    0.0091    0.0061   -0.0121
          17    0.0491    0.0351   -0.0000    0.0019   -0.0006   -0.0003    0.0005   -0.0111
          18    0.0046    0.0018    0.0000   -0.0218    0.0061    0.0071    0.0032    0.0104
          19    0.0010   -0.1691    0.0000    0.0015   -0.0005   -0.0005   -0.0003    0.0026
          20   -0.0437   -0.1664   -0.0000   -0.0001    0.0002    0.0002    0.0003   -0.0012
          21   -0.0034   -0.0219   -0.0000    0.0001   -0.0001   -0.0000    0.0002    0.0002
          22   -0.0415    0.2123    0.0003   -0.0003   -0.0001   -0.0000    0.0000    0.0001
          23    0.0179    0.1062   -0.0001   -0.0007   -0.0012   -0.0009   -0.0001   -0.0011
          24   -0.0010    0.0230   -0.0004   -0.0001   -0.0001   -0.0000    0.0000   -0.0000
          25    0.0342   -0.0030    0.2404    0.0023    0.0002    0.0046    0.0005    0.0001
          26   -0.0110    0.0021   -0.4005   -0.0033    0.0017   -0.0091    0.0017    0.0010
          27   -0.0236    0.0036    0.6773    0.0071    0.0016    0.0141   -0.0007   -0.0016
          28   -0.0233    0.0003   -0.0092    0.0075   -0.0349    0.0483   -0.0162   -0.0174
          29    0.0005   -0.0001    0.0088   -0.0144    0.0659   -0.0926    0.0236    0.0343
          30    0.0087    0.0000   -0.0245    0.0247   -0.1175    0.1631   -0.0407   -0.0720
          31   -0.0383   -0.0004    0.0082   -0.0083    0.0696   -0.0961    0.0412   -0.0297
          32   -0.0168   -0.0000   -0.0072    0.0101   -0.0840    0.1156   -0.0516    0.0353
          33   -0.0144   -0.0005   -0.0137    0.0131   -0.1116    0.1535   -0.0693    0.0561
          34    0.0306    0.0080    0.0005    0.0074   -0.0106    0.0078    0.0938   -0.0098
          35   -0.0191   -0.0015    0.0013    0.0285   -0.0358    0.0234    0.3333   -0.0403
          36    0.0107   -0.0100    0.0001    0.0064   -0.0072    0.0043    0.0626   -0.0017
          37    0.0077   -0.0024    0.0033   -0.0141    0.0130   -0.0062   -0.0818   -0.0175
          38    0.0431    0.0025   -0.0021    0.0268   -0.0280    0.0168    0.1551    0.0400
          39    0.0230    0.0029    0.0057   -0.0421    0.0463   -0.0293   -0.2689   -0.0610
          40    0.0352    0.0007   -0.0000    0.2001   -0.0570   -0.0754   -0.0567    0.2244
          41   -0.0694    0.0501   -0.0000    0.0778   -0.0220   -0.0290   -0.0227    0.0767
          42    0.0372    0.0036    0.0000    0.0050   -0.0016   -0.0024   -0.0040    0.0245
          43   -0.0546   -0.0159   -0.0003    0.1115   -0.0312   -0.0356   -0.0123   -0.0791
          44   -0.0634   -0.0187    0.0002   -0.1055    0.0292    0.0333    0.0129    0.0561
          45   -0.0101   -0.0030   -0.0005    0.2597   -0.0725   -0.0823   -0.0362   -0.1526
          46   -0.0977    0.0236   -0.0039    0.0117    0.0162    0.0110    0.0004   -0.0021
          47   -0.0342    0.0087    0.0193   -0.0839   -0.1203   -0.0823   -0.0032    0.0569
          48   -0.0048    0.0012   -0.0189    0.1205    0.1715    0.1191    0.0042   -0.0718
          49   -0.0705   -0.0480    0.0061   -0.0679   -0.1073   -0.0715   -0.0041   -0.0744
          50    0.0802    0.0151    0.0079   -0.0821   -0.1305   -0.0867   -0.0052   -0.0973
          51   -0.0375   -0.0016    0.0007   -0.0201   -0.0311   -0.0207   -0.0012   -0.0133
          52    0.0470   -0.0896    0.0000   -0.0165    0.0049    0.0054    0.0022   -0.0305
          53    0.0549    0.0967   -0.0000    0.0053   -0.0018   -0.0019   -0.0003    0.0133
          54    0.0070   -0.0039    0.0001   -0.0022    0.0004    0.0005    0.0003   -0.0015
          55    0.0632   -0.0619    0.0004    0.0004    0.0001    0.0001   -0.0001   -0.0008
          56    0.0298    0.1163   -0.0018    0.0089    0.0134    0.0093    0.0005    0.0126
          57    0.0053   -0.0006   -0.0002   -0.0004    0.0001    0.0001    0.0000    0.0009
          58    0.0134    0.0058   -0.0063   -0.0003    0.0005   -0.0011    0.0004   -0.0004
          59    0.0029    0.0004   -0.0030    0.0000    0.0004   -0.0003    0.0002   -0.0001
          60    0.0021    0.0004   -0.0035    0.0001   -0.0000    0.0002   -0.0001    0.0003


   Root No.      49        50        51        52        53        54

                49 A      50 A      51 A      52 A      53 A      54 A   

                3025.4    3025.9    3032.8    3036.9    3057.0    3899.6
  
           1    0.0001    0.0000   -0.0000    0.0000    0.0000    0.0168
           2   -0.0000    0.0002   -0.0000   -0.0000   -0.0000   -0.0293
           3   -0.0001    0.0001   -0.0000   -0.0000   -0.0000   -0.0469
           4    0.0001    0.0000    0.0001   -0.0001   -0.0002    0.0016
           5    0.0001    0.0007   -0.0003    0.0000    0.0000   -0.0006
           6   -0.0006    0.0002    0.0002   -0.0000   -0.0000   -0.0011
           7   -0.0052   -0.0117    0.0041    0.0003   -0.0001    0.0001
           8    0.0076    0.0168   -0.0062   -0.0004    0.0001    0.0002
           9   -0.0017   -0.0047   -0.0003   -0.0000    0.0001    0.0000
          10   -0.0002   -0.0027   -0.0114   -0.0011    0.0003   -0.0000
          11   -0.0000   -0.0007   -0.0100   -0.0013    0.0006   -0.0000
          12    0.0004   -0.0053   -0.0224   -0.0021    0.0004   -0.0000
          13   -0.0113    0.0080   -0.0002   -0.0029   -0.0025   -0.0002
          14   -0.0048    0.0032    0.0002   -0.0023   -0.0023    0.0001
          15   -0.0129    0.0093   -0.0005   -0.0022   -0.0012    0.0002
          16   -0.0072   -0.0018   -0.0039   -0.0036    0.0033   -0.0000
          17   -0.0072   -0.0016   -0.0029   -0.0022    0.0018    0.0000
          18    0.0070    0.0012    0.0013    0.0013   -0.0004   -0.0000
          19    0.0027    0.0001    0.0032   -0.0254    0.0350   -0.0000
          20   -0.0013   -0.0000   -0.0014    0.0121   -0.0112   -0.0000
          21    0.0002    0.0000    0.0002   -0.0017    0.0026    0.0000
          22   -0.0004    0.0002   -0.0003    0.0031   -0.0009    0.0000
          23    0.0038   -0.0022    0.0021   -0.0294   -0.0354    0.0000
          24    0.0001   -0.0001    0.0001   -0.0010   -0.0016    0.0000
          25    0.0004   -0.0002   -0.0011   -0.0000    0.0000    0.0019
          26   -0.0018   -0.0012    0.0013   -0.0002   -0.0003   -0.0018
          27    0.0036    0.0002   -0.0025    0.0004    0.0004    0.0021
          28    0.0222    0.0520   -0.0146   -0.0010   -0.0001    0.0000
          29   -0.0455   -0.1044    0.0308    0.0021    0.0001   -0.0001
          30    0.0959    0.2207   -0.0679   -0.0047    0.0000   -0.0001
          31    0.0408    0.0878   -0.0415   -0.0031    0.0008    0.0020
          32   -0.0475   -0.1035    0.0456    0.0034   -0.0009    0.0005
          33   -0.0751   -0.1642    0.0696    0.0051   -0.0013   -0.0010
          34   -0.0017    0.0096    0.0725    0.0073   -0.0020   -0.0001
          35   -0.0009    0.0489    0.2885    0.0298   -0.0081    0.0000
          36    0.0007    0.0042    0.0326    0.0037   -0.0011    0.0000
          37   -0.0007    0.0177    0.0677    0.0058   -0.0008   -0.0000
          38    0.0021   -0.0405   -0.1677   -0.0150    0.0026    0.0000
          39   -0.0036    0.0605    0.2421    0.0212   -0.0034    0.0000
          40    0.1397    0.0343    0.0657    0.0562   -0.0426   -0.0000
          41    0.0474    0.0116    0.0216    0.0220   -0.0180    0.0000
          42    0.0153    0.0030    0.0042    0.0052   -0.0038    0.0000
          43   -0.0532   -0.0109   -0.0156   -0.0123    0.0064   -0.0000
          44    0.0378    0.0075    0.0095    0.0066   -0.0015    0.0000
          45   -0.1022   -0.0192   -0.0260   -0.0209    0.0089   -0.0000
          46    0.0040   -0.0032    0.0004   -0.0009   -0.0019   -0.0002
          47   -0.1087    0.0795   -0.0047   -0.0170   -0.0078   -0.0001
          48    0.1377   -0.0999    0.0061    0.0201    0.0080    0.0003
          49    0.1281   -0.0911    0.0023    0.0375    0.0291    0.0000
          50    0.1684   -0.1198    0.0034    0.0445    0.0330    0.0010
          51    0.0223   -0.0159    0.0003    0.0071    0.0057    0.0005
          52   -0.0305   -0.0012   -0.0378    0.3032   -0.3656    0.0000
          53    0.0142    0.0002    0.0176   -0.1449    0.1692    0.0000
          54   -0.0020    0.0001   -0.0026    0.0210   -0.0255    0.0000
          55    0.0044   -0.0023    0.0030   -0.0400   -0.0392    0.0000
          56   -0.0434    0.0247   -0.0251    0.3501    0.3847   -0.0000
          57   -0.0017    0.0012   -0.0008    0.0106    0.0122   -0.0000
          58    0.0006    0.0005   -0.0003    0.0000    0.0001   -0.2877
          59    0.0001    0.0006   -0.0002   -0.0001   -0.0000    0.4684
          60   -0.0005   -0.0002    0.0002   -0.0001   -0.0000    0.7527


           MASS-WEIGHTED COORDINATE ANALYSIS (NORMAL COORDINATES)


   Root No.       1         2         3         4         5         6         7         8

                 1 A       2 A       3 A       4 A       5 A       6 A       7 A       8 A   

                 128.5     157.9     238.1     294.7     324.2     355.1     406.8     458.7
  
           1    0.1112    0.0887   -0.0203    0.0417   -0.2879    0.1487   -0.1277   -0.2155
           2   -0.2459   -0.1735   -0.3321    0.0885   -0.1563   -0.2085    0.4597   -0.1581
           3    0.4262    0.0029    0.1201   -0.2061   -0.0424   -0.2096    0.2885   -0.0372
           4    0.0848    0.0680   -0.0163    0.0552   -0.2259    0.1138   -0.0758   -0.1450
           5    0.0432   -0.0127    0.0395   -0.1354   -0.0255    0.2861   -0.1219    0.0891
           6   -0.1007   -0.0725    0.0187    0.0883    0.1784    0.1334    0.0031    0.1564
           7   -0.0587   -0.0238    0.0120    0.0228   -0.0880   -0.1584   -0.2255    0.0414
           8    0.0964    0.0273    0.0332   -0.1213   -0.0839    0.3850   -0.1091    0.0353
           9   -0.3411    0.2534    0.0217    0.2698    0.0473    0.0645    0.0013   -0.0250
          10   -0.1030    0.0385    0.0231    0.0462   -0.0122   -0.1421   -0.2680    0.1108
          11    0.1528    0.1316   -0.0319    0.4233   -0.0483    0.0393   -0.0563   -0.1236
          12   -0.0273   -0.1515    0.0039   -0.1313   -0.2639    0.0587   -0.0984   -0.1140
          13   -0.0864    0.1047    0.0102   -0.1064    0.0472    0.1670    0.2514   -0.0557
          14    0.1142    0.3223    0.0927   -0.1849    0.2612    0.1193    0.0448    0.0893
          15   -0.2045   -0.2802   -0.0086    0.0675    0.1301    0.2476   -0.0443    0.1581
          16    0.1912   -0.1649    0.0128    0.1084    0.3900   -0.1985   -0.1075    0.0861
          17   -0.0906   -0.1147   -0.0095   -0.0424   -0.0441   -0.2142   -0.1278   -0.0560
          18    0.2875   -0.1882   -0.0164    0.1499   -0.0177    0.1081    0.0456   -0.1430
          19   -0.0766   -0.0401    0.0067   -0.1021    0.1653    0.0532    0.2928    0.1971
          20   -0.0942   -0.1364   -0.0097   -0.0408   -0.0359   -0.2088   -0.1161   -0.0406
          21    0.1500    0.2890   -0.0196    0.0477   -0.2407   -0.2049    0.0126    0.3799
          22   -0.1208   -0.0714   -0.0192   -0.0542   -0.0066    0.0540    0.2864    0.0704
          23    0.0248   -0.0708    0.0229   -0.0487    0.1345   -0.2083   -0.0860    0.2591
          24   -0.2009    0.1391    0.0049   -0.2553    0.2011   -0.1386   -0.1786   -0.3529
          25    0.1243    0.0460   -0.0154   -0.0236   -0.0954    0.0431   -0.0395   -0.0625
          26    0.0349   -0.0567    0.0140   -0.0605   -0.0098    0.1495   -0.0704    0.0540
          27   -0.0540   -0.0622    0.0108    0.0264    0.0596    0.0741   -0.0147    0.0678
          28    0.0359   -0.0962    0.0061   -0.1025   -0.0778   -0.0426   -0.1117    0.0208
          29   -0.0411    0.0910    0.0183    0.0032   -0.0251    0.1118   -0.0324   -0.0136
          30   -0.1505    0.1434    0.0103    0.1291    0.0285    0.0198    0.0118   -0.0222
          31   -0.0720    0.0441    0.0215    0.0381    0.0385   -0.0443   -0.0491    0.0485
          32    0.0807   -0.0816    0.0140   -0.1140   -0.0132    0.1108   -0.0396    0.0587
          33   -0.1721    0.1708    0.0160    0.1590    0.0446    0.0182    0.0201   -0.0231
          34   -0.0425    0.0065    0.0173   -0.0843   -0.0399    0.0413   -0.0986    0.0588
          35    0.0572    0.0559   -0.0146    0.1953    0.0062   -0.0070   -0.0007   -0.0529
          36   -0.0587   -0.1355    0.0147   -0.2771   -0.1242   -0.0078   -0.0790    0.0135
          37   -0.0882    0.0797    0.0013    0.1158    0.0131   -0.0889   -0.0765    0.0270
          38    0.1058    0.1046   -0.0243    0.3404    0.0359    0.0146    0.0323   -0.0847
          39    0.0466   -0.0243   -0.0062    0.0605   -0.0506    0.0330    0.0004   -0.0600
          40    0.0761   -0.0569    0.0036    0.0564    0.1290   -0.0636   -0.0630   -0.0035
          41   -0.0961    0.0046   -0.0027   -0.0824   -0.0763   -0.0445    0.0454    0.0714
          42    0.2013   -0.1605   -0.0054    0.1048    0.1785    0.0253    0.0208   -0.1669
          43    0.1861   -0.1267    0.0017    0.1174    0.2748   -0.0694   -0.0444   -0.0789
          44    0.0098   -0.1265    0.0011   -0.0039    0.0635   -0.0672   -0.0988   -0.1535
          45    0.0408   -0.0586   -0.0022    0.0093   -0.0418    0.0323   -0.0078   -0.0533
          46   -0.0142    0.1691    0.0214   -0.1185    0.0923    0.0622    0.1245   -0.1796
          47    0.0525    0.1989    0.0451   -0.0776    0.1557    0.0311    0.0689   -0.0122
          48   -0.0459   -0.0192    0.0082    0.0115    0.0847    0.0655    0.0202    0.0346
          49   -0.0451   -0.0262   -0.0047   -0.0176    0.0119    0.0018    0.0689    0.0442
          50    0.0530    0.1734    0.0383   -0.0818    0.1048    0.0666    0.0371   -0.0482
          51   -0.0736   -0.2396   -0.0294    0.0961   -0.0954    0.0898   -0.0954    0.1505
          52   -0.0435   -0.0209   -0.0003   -0.0361    0.0340    0.0409    0.1063    0.0262
          53   -0.0704   -0.0342   -0.0074   -0.0320   -0.0591   -0.0275    0.0107   -0.0456
          54    0.0720    0.2291   -0.0074   -0.0072   -0.1888   -0.2191   -0.0234    0.3056
          55   -0.0540   -0.0842   -0.0199    0.0158   -0.0521   -0.0178    0.0724    0.0124
          56    0.0069   -0.0284    0.0050   -0.0076    0.0315   -0.0583   -0.0219    0.0793
          57   -0.1219    0.1374    0.0104   -0.2041    0.1194   -0.1823   -0.1646   -0.3080
          58    0.0788    0.0195   -0.0531   -0.0228   -0.1123   -0.0720    0.0882   -0.1083
          59   -0.0648   -0.1160    0.7629    0.0867   -0.1365   -0.1340    0.2141   -0.0947
          60    0.1272    0.0451   -0.5147   -0.1041    0.0352   -0.0416    0.0555    0.0045


   Root No.       9        10        11        12        13        14        15        16

                 9 A      10 A      11 A      12 A      13 A      14 A      15 A      16 A   

                 483.4     556.2     653.4     757.3     848.6     874.3     913.1     927.5
  
           1    0.1038    0.4198    0.2244   -0.0926   -0.0325   -0.0228   -0.1130    0.0485
           2    0.0701    0.1414    0.0226    0.0061    0.0306    0.0068   -0.0078    0.0188
           3   -0.1811   -0.1484   -0.0737    0.0151   -0.0182    0.0018    0.0072    0.0021
           4    0.0794    0.2569    0.1088   -0.0234   -0.0178   -0.0132    0.0604    0.0305
           5   -0.2358   -0.0910   -0.0384    0.0453   -0.2228   -0.0574   -0.0358    0.1394
           6    0.3994    0.2177   -0.0175    0.1073    0.1499    0.0561   -0.0638   -0.0775
           7    0.1249   -0.2232   -0.0684   -0.0324   -0.1227   -0.1028    0.0756   -0.2659
           8   -0.2661    0.0072   -0.0872    0.0670    0.2250    0.1393   -0.2309   -0.0885
           9   -0.2030    0.0287   -0.0002    0.1217   -0.0424    0.4073   -0.1793    0.1399
          10    0.0400   -0.2806   -0.1108   -0.0125    0.0706    0.0015    0.0273   -0.0596
          11    0.0831   -0.2354   -0.0620    0.0150    0.3675    0.1761    0.3051   -0.1195
          12    0.1098   -0.2475    0.0584    0.1145    0.0396   -0.0143   -0.0136    0.1130
          13    0.0423   -0.0534   -0.2095    0.0857   -0.1662    0.0176    0.2357    0.0719
          14    0.2216    0.0313    0.1168    0.0231   -0.2425    0.0212    0.3900    0.0912
          15    0.1182    0.0620   -0.0962   -0.0580   -0.0678   -0.2333    0.0812    0.0376
[...]
 FREQ.      1322.91         C  4 -- H 12         +15.6% ( 53.5%)      0.0%
 T-DIPOLE    0.3317         C  4 -- H 13         +14.1% ( 50.9%)      0.0%
 TRAVEL      0.0899         C  3 -- C  4          +9.3% ( 41.2%)     65.2%
 RED. MASS   1.0060         O  1 -- C  2          +9.0% ( 40.6%)     95.0%
 EFF. MASS   6.3003

 VIBRATION   34   34A         ATOM PAIR      ENERGY CONTRIBUTION    RADIAL
 FREQ.      1340.58         C  3 -- H 11          +9.9% ( 42.2%)      0.0%
 T-DIPOLE    0.1012         C  5 -- H 17          +9.8% ( 41.9%)      0.0%
 TRAVEL      0.0940         C  5 -- H 16          +9.7% ( 41.7%)      0.2%
 RED. MASS   0.6332         C  5 -- C  8          +9.6% ( 41.5%)     74.1%
 EFF. MASS   5.6905

 VIBRATION   35   35A         ATOM PAIR      ENERGY CONTRIBUTION    RADIAL
 FREQ.      1380.60         C  5 -- H 17         +15.5% ( 42.0%)      1.2%
 T-DIPOLE    0.2105         C  5 -- H 16         +13.0% ( 38.6%)      3.5%
 TRAVEL      0.1223         O  1 -- H 20          +7.8% ( 29.8%)      1.1%
 RED. MASS   0.2332         C  6 -- H 15          +7.0% ( 28.3%)      0.6%
 EFF. MASS   3.2637

 VIBRATION   36   36A         ATOM PAIR      ENERGY CONTRIBUTION    RADIAL
 FREQ.      1390.68         C  4 -- C  6         +11.4% ( 48.6%)     84.4%
 T-DIPOLE    0.4665         C  3 -- C  4         +10.2% ( 46.1%)     77.4%
 TRAVEL      0.0790         C  2 -- C  3         +10.0% ( 45.6%)     69.1%
 RED. MASS   1.0198         C  3 -- H 10          +8.4% ( 41.8%)      0.8%
 EFF. MASS   7.7702

 VIBRATION   37   37A         ATOM PAIR      ENERGY CONTRIBUTION    RADIAL
 FREQ.      1399.53         C  6 -- H 15         +23.3% ( 53.3%)      3.9%
 T-DIPOLE    0.0673         C  6 -- H 14         +19.7% ( 49.1%)      6.3%
 TRAVEL      0.1171         C  4 -- C  6         +10.6% ( 36.0%)     73.4%
 RED. MASS   0.3717         C  6 -- C  7          +5.5% ( 25.8%)      8.8%
 EFF. MASS   3.5153

 VIBRATION   38   38A         ATOM PAIR      ENERGY CONTRIBUTION    RADIAL
 FREQ.      1406.30         C  4 -- H 13         +22.4% ( 54.1%)      4.0%
 T-DIPOLE    0.1270         C  4 -- H 12         +18.7% ( 49.4%)      6.9%
 TRAVEL      0.1088         C  3 -- C  4          +8.9% ( 34.1%)     43.2%
 RED. MASS   0.4590         O  1 -- H 20          +6.8% ( 29.8%)      2.9%
 EFF. MASS   4.0500

 VIBRATION   39   39A         ATOM PAIR      ENERGY CONTRIBUTION    RADIAL
 FREQ.      1407.16         O  1 -- H 20         +15.0% ( 42.5%)      3.7%
 T-DIPOLE    0.2516         C  2 -- C  5         +14.7% ( 42.2%)     96.7%
 TRAVEL      0.1147         C  5 -- H 16         +14.3% ( 41.6%)      4.2%
 RED. MASS   0.4401         C  5 -- H 17         +12.1% ( 38.2%)      6.9%
 EFF. MASS   3.6406

 VIBRATION   40   40A         ATOM PAIR      ENERGY CONTRIBUTION    RADIAL
 FREQ.      1415.94         C  3 -- H 10         +22.9% ( 54.8%)      3.7%
 T-DIPOLE    0.1292         C  3 -- H 11         +18.4% ( 49.1%)      7.2%
 TRAVEL      0.1082         C  3 -- C  4         +11.9% ( 39.6%)     82.6%
 RED. MASS   0.4591         C  2 -- C  3          +9.6% ( 35.4%)      6.6%
 EFF. MASS   4.0715

 VIBRATION   41   41A         ATOM PAIR      ENERGY CONTRIBUTION    RADIAL
 FREQ.      1438.23         C  5 -- C  8         +16.1% ( 58.6%)     99.4%
 T-DIPOLE    0.2579         C  6 -- C  7         +12.9% ( 52.4%)     99.7%
 TRAVEL      0.0744         C  5 -- H 17          +9.5% ( 45.0%)      3.0%
 RED. MASS   1.2949         C  5 -- H 16          +9.0% ( 43.8%)      2.7%
 EFF. MASS   8.4730

 VIBRATION   42   42A         ATOM PAIR      ENERGY CONTRIBUTION    RADIAL
 FREQ.      1881.92         C  7 -- C  8         +44.2% ( 97.8%)    100.0%
 T-DIPOLE    0.0986         C  5 -- C  8         +14.3% ( 55.6%)     54.1%
 TRAVEL      0.0550         C  6 -- C  7         +14.2% ( 55.5%)     53.7%
 RED. MASS   5.4084         C  8 -- H 19         +13.1% ( 53.2%)      4.1%
 EFF. MASS  11.8466         C  7 -- H 18         +13.1% ( 53.2%)      4.1%

 VIBRATION   43   43A         ATOM PAIR      ENERGY CONTRIBUTION    RADIAL
 FREQ.      2830.61         C  2 -- H  9         +96.4% ( 99.9%)     99.9%
 T-DIPOLE    0.1001         C  2 -- C  3          +1.1% ( 10.6%)     10.2%
 TRAVEL      0.1280         C  2 -- C  5          +1.1% ( 10.6%)     10.9%
 RED. MASS   0.9243         O  1 -- C  2          +1.1% ( 10.6%)      9.7%
 EFF. MASS   1.4542

 VIBRATION   44   44A         ATOM PAIR      ENERGY CONTRIBUTION    RADIAL
 FREQ.      2940.50         C  6 -- H 15         +49.5% ( 73.1%)     97.9%
 T-DIPOLE    0.0619         C  6 -- H 14         +26.6% ( 53.6%)     94.2%
 TRAVEL      0.1220         C  5 -- H 16         +11.9% ( 35.7%)     97.8%
 RED. MASS   0.3622         C  5 -- H 17          +6.8% ( 27.0%)     94.6%
 EFF. MASS   1.5417

 VIBRATION   45   45A         ATOM PAIR      ENERGY CONTRIBUTION    RADIAL
 FREQ.      2943.85         C  5 -- H 16         +31.9% ( 58.7%)     97.3%
 T-DIPOLE    0.0562         C  5 -- H 17         +22.1% ( 48.9%)     95.3%
 TRAVEL      0.1220         C  3 -- H 11         +17.7% ( 43.7%)     97.0%
 RED. MASS   0.2247         C  3 -- H 10         +14.4% ( 39.4%)     95.9%
 EFF. MASS   1.5399

 VIBRATION   46   46A         ATOM PAIR      ENERGY CONTRIBUTION    RADIAL
 FREQ.      2944.56         C  3 -- H 11         +33.0% ( 59.6%)     97.0%
 T-DIPOLE    0.0637         C  3 -- H 10         +27.3% ( 54.2%)     96.0%
 TRAVEL      0.1218         C  5 -- H 16         +14.9% ( 40.1%)     97.5%
 RED. MASS   0.2400         C  5 -- H 17          +9.6% ( 32.3%)     95.0%
 EFF. MASS   1.5439

 VIBRATION   47   47A         ATOM PAIR      ENERGY CONTRIBUTION    RADIAL
 FREQ.      2953.76         C  4 -- H 12         +49.3% ( 72.9%)     97.0%
 T-DIPOLE    0.0231         C  4 -- H 13         +41.6% ( 66.9%)     96.0%
 TRAVEL      0.1215         C  3 -- H 11          +3.5% ( 19.6%)     98.7%
 RED. MASS   0.4539         C  6 -- H 14          +1.5% ( 12.6%)     98.0%
 EFF. MASS   1.5463

 VIBRATION   48   48A         ATOM PAIR      ENERGY CONTRIBUTION    RADIAL
 FREQ.      3022.27         C  6 -- H 14         +42.4% ( 64.3%)     99.0%
 T-DIPOLE    0.0879         C  6 -- H 15         +23.6% ( 47.9%)     95.1%
 TRAVEL      0.1318         C  5 -- H 17         +11.3% ( 33.2%)     99.0%
 RED. MASS   0.2539         C  5 -- H 16          +6.1% ( 24.3%)     94.9%
 EFF. MASS   1.2840

 VIBRATION   49   49A         ATOM PAIR      ENERGY CONTRIBUTION    RADIAL
 FREQ.      3025.35         C  5 -- H 17         +32.9% ( 56.5%)     98.7%
 T-DIPOLE    0.0803         C  5 -- H 16         +21.8% ( 46.0%)     96.1%
 TRAVEL      0.1318         C  6 -- H 14         +16.0% ( 39.4%)     98.7%
 RED. MASS   0.2017         C  6 -- H 15         +10.4% ( 31.7%)     96.1%
 EFF. MASS   1.2829

 VIBRATION   50   50A         ATOM PAIR      ENERGY CONTRIBUTION    RADIAL
 FREQ.      3025.94         C  3 -- H 10         +39.3% ( 61.8%)     98.5%
 T-DIPOLE    0.0518         C  3 -- H 11         +28.2% ( 52.3%)     96.7%
 TRAVEL      0.1324         C  5 -- H 17         +14.5% ( 37.5%)     98.6%
 RED. MASS   0.2638         C  5 -- H 16         +10.1% ( 31.3%)     96.5%
 EFF. MASS   1.2715

 VIBRATION   51   51A         ATOM PAIR      ENERGY CONTRIBUTION    RADIAL
 FREQ.      3032.79         C  4 -- H 13         +44.3% ( 65.6%)     97.7%
 T-DIPOLE    0.0178         C  4 -- H 12         +43.3% ( 64.8%)     97.6%
 TRAVEL      0.1321         C  3 -- H 11          +4.2% ( 20.1%)     98.5%
 RED. MASS   0.3850         C  3 -- H 10          +2.8% ( 16.4%)     96.7%
 EFF. MASS   1.2744

 VIBRATION   52   52A         ATOM PAIR      ENERGY CONTRIBUTION    RADIAL
 FREQ.      3036.85         C  8 -- H 19         +49.2% ( 71.0%)    100.0%
 T-DIPOLE    0.3006         C  7 -- H 18         +44.8% ( 67.9%)    100.0%
 TRAVEL      0.1238         C  6 -- H 14          +1.4% ( 11.8%)     99.6%
 RED. MASS   0.4298         C  5 -- H 17          +1.3% ( 11.4%)     99.6%
 EFF. MASS   1.4495

 VIBRATION   53   53A         ATOM PAIR      ENERGY CONTRIBUTION    RADIAL
 FREQ.      3056.96         C  7 -- H 18         +49.7% ( 71.4%)     99.9%
 T-DIPOLE    0.2801         C  8 -- H 19         +45.6% ( 68.4%)     99.9%
 TRAVEL      0.1183         C  7 -- C  8          +1.9% ( 14.0%)     99.9%
 RED. MASS   0.4542         C  6 -- C  7          +0.8% (  9.0%)     15.8%
 EFF. MASS   1.5750

 VIBRATION   54   54A         ATOM PAIR      ENERGY CONTRIBUTION    RADIAL
 FREQ.      3899.59         O  1 -- H 20         +99.6% (100.0%)    100.0%
 T-DIPOLE    0.1760         O  1 -- C  2          +0.4% (  6.3%)      7.5%
 TRAVEL      0.1116
 RED. MASS   0.9481
 EFF. MASS   1.3896

      SYMMETRY NUMBER FOR POINT-GROUP C1  =  1


          SYSTEM IS A GROUND STATE



 InChI=1S/C7H12O/c8-7-5-3-1-2-4-6-7/h1,3,7-8H,2,4-6H2


          MOLECULE IS NOT LINEAR

          THERE ARE 54 GENUINE VIBRATIONS IN THIS SYSTEM
          THIS THERMODYNAMICS CALCULATION IS LIMITED TO
          MOLECULES WHICH HAVE NO INTERNAL ROTATIONS




                    CALCULATED THERMODYNAMIC PROPERTIES
                                          *
   TEMP. (K)   PARTITION FUNCTION   H.O.F.    ENTHALPY  HEAT CAPACITY ENTROPY
                                   KCAL/MOL   CAL/MOLE    CAL/K/MOL  CAL/K/MOL


 298.00  VIB.     0.2323D+02                  3063.1705    24.7898    16.5301
         ROT.     0.3212D+06                   888.2813     2.9808    28.1785
         INT.     0.7464D+07                  3951.4518    27.7706    44.7087
         TRA.     0.1149D+28                  1480.4688     4.9680    40.0581
         TOT.                      -47.235    5431.9207    32.7387    84.7668

 200.00  VIB.     0.4817D+01                  1159.4201    14.3646     8.9214
         ROT.     0.1766D+06                   596.1620     2.9808    26.9899
         INT.     0.8509D+06                  1755.5820    17.3455    35.9112
         TRA.     0.6315D+27                   993.6033     4.9680    38.0770
         TOT.                      -49.917    2749.1853    22.3135    73.9882

 210.00  VIB.     0.5583D+01                  1307.9027    15.3358     9.6456
         ROT.     0.1900D+06                   625.9700     2.9808    27.1353
         INT.     0.1061D+07                  1933.8728    18.3166    36.7809
         TRA.     0.6794D+27                  1043.2834     4.9680    38.3194
         TOT.                      -49.689    2977.1562    23.2846    75.1003

 220.00  VIB.     0.6492D+01                  1466.2153    16.3307    10.3819
         ROT.     0.2038D+06                   655.7781     2.9808    27.2740
         INT.     0.1323D+07                  2121.9935    19.3115    37.6559
         TRA.     0.7285D+27                  1092.9636     4.9680    38.5505
         TOT.                      -49.452    3214.9571    24.2796    76.2064

 230.00  VIB.     0.7573D+01                  1634.5973    17.3496    11.1302
         ROT.     0.2178D+06                   685.5862     2.9808    27.4065
         INT.     0.1650D+07                  2320.1836    20.3304    38.5367
         TRA.     0.7788D+27                  1142.6437     4.9680    38.7713
         TOT.                      -49.204    3462.8273    25.2984    77.3080

 240.00  VIB.     0.8860D+01                  1813.2851    18.3917    11.8906
         ROT.     0.2322D+06                   715.3943     2.9808    27.5333
         INT.     0.2057D+07                  2528.6794    21.3725    39.4239
         TRA.     0.8301D+27                  1192.3239     4.9680    38.9828
         TOT.                      -48.946    3721.0033    26.3405    78.4067

 250.00  VIB.     0.1040D+02                  2002.5040    19.4555    12.6628
         ROT.     0.2468D+06                   745.2024     2.9808    27.6550
         INT.     0.2566D+07                  2747.7065    22.4364    40.3179
         TRA.     0.8825D+27                  1242.0041     4.9680    39.1856
         TOT.                      -48.677    3989.7105    27.4044    79.5034

 260.00  VIB.     0.1223D+02                  2202.4618    20.5391    13.4470
         ROT.     0.2618D+06                   775.0105     2.9808    27.7719
         INT.     0.3202D+07                  2977.4724    23.5199    41.2189
         TRA.     0.9360D+27                  1291.6842     4.9680    39.3804
         TOT.                      -48.397    4269.1566    28.4879    80.5993

 270.00  VIB.     0.1443D+02                  2413.3436    21.6399    14.2427
         ROT.     0.2771D+06                   804.8186     2.9808    27.8844
         INT.     0.3998D+07                  3218.1623    24.6207    42.1271
         TRA.     0.9905D+27                  1341.3644     4.9680    39.5679
         TOT.                      -48.107    4559.5267    29.5887    81.6950

 280.00  VIB.     0.1707D+02                  2635.3083    22.7552    15.0498
         ROT.     0.2926D+06                   834.6267     2.9808    27.9928
         INT.     0.4994D+07                  3469.9351    25.7360    43.0426
         TRA.     0.1046D+28                  1391.0445     4.9680    39.7486
         TOT.                      -47.806    4860.9796    30.7040    82.7912

 290.00  VIB.     0.2024D+02                  2868.4862    23.8820    15.8679
         ROT.     0.3084D+06                   864.4348     2.9808    28.0974
         INT.     0.6241D+07                  3732.9210    26.8629    43.9654
         TRA.     0.1103D+28                  1440.7247     4.9680    39.9229
         TOT.                      -47.493    5173.6457    31.8309    83.8883

 300.00  VIB.     0.2406D+02                  3112.9778    25.0175    16.6967
         ROT.     0.3245D+06                   894.2429     2.9808    28.1985
         INT.     0.7806D+07                  4007.2207    27.9983    44.8952
         TRA.     0.1160D+28                  1490.4049     4.9680    40.0914
         TOT.                      -47.169    5497.6256    32.9663    84.9865

 310.00  VIB.     0.2866D+02                  3368.8538    26.1584    17.5356
         ROT.     0.3408D+06                   924.0510     2.9808    28.2962
         INT.     0.9770D+07                  4292.9048    29.1392    45.8318
         TRA.     0.1219D+28                  1540.0850     4.9680    40.2543
         TOT.                      -46.834    5832.9898    34.1073    86.0861

 320.00  VIB.     0.3423D+02                  3636.1554    27.3021    18.3842
         ROT.     0.3575D+06                   953.8591     2.9808    28.3909
         INT.     0.1224D+08                  4590.0145    30.2829    46.7750
         TRA.     0.1278D+28                  1589.7652     4.9680    40.4120
         TOT.                      -46.487    6179.7797    35.2509    87.1870

 330.00  VIB.     0.4098D+02                  3914.8957    28.4457    19.2418
         ROT.     0.3744D+06                   983.6672     2.9808    28.4826
         INT.     0.1534D+08                  4898.5629    31.4265    47.7244
         TRA.     0.1338D+28                  1639.4454     4.9680    40.5649
         TOT.                      -46.129    6538.0083    36.3945    88.2892

 340.00  VIB.     0.4915D+02                  4205.0610    29.5867    20.1079
         ROT.     0.3915D+06                  1013.4753     2.9808    28.5716
         INT.     0.1924D+08                  5218.5363    32.5675    48.6795
         TRA.     0.1400D+28                  1689.1255     4.9680    40.7132
         TOT.                      -45.759    6907.6618    37.5355    89.3927

 350.00  VIB.     0.5909D+02                  4506.6130    30.7227    20.9820
         ROT.     0.4089D+06                  1043.2834     2.9808    28.6580
         INT.     0.2416D+08                  5549.8964    33.7035    49.6400
         TRA.     0.1462D+28                  1738.8057     4.9680    40.8572
         TOT.                      -45.378    7288.7021    38.6715    90.4972

 360.00  VIB.     0.7118D+02                  4819.4908    31.8515    21.8633
         ROT.     0.4266D+06                  1073.0915     2.9808    28.7419
         INT.     0.3036D+08                  5892.5823    34.8323    50.6053
         TRA.     0.1525D+28                  1788.4859     4.9680    40.9971
         TOT.                      -44.986    7681.0681    39.8003    91.6024

 370.00  VIB.     0.8591D+02                  5143.6130    32.9713    22.7513
         ROT.     0.4444D+06                  1102.8996     2.9808    28.8236
         INT.     0.3818D+08                  6246.5126    35.9521    51.5749
         TRA.     0.1589D+28                  1838.1660     4.9680    41.1333
         TOT.                      -44.582    8084.6786    40.9201    92.7082

 380.00  VIB.     0.1039D+03                  5478.8802    34.0803    23.6453
         ROT.     0.4626D+06                  1132.7077     2.9808    28.9031
         INT.     0.4806D+08                  6611.5879    37.0611    52.5484
         TRA.     0.1654D+28                  1887.8462     4.9680    41.2658
         TOT.                      -44.167    8499.4341    42.0291    93.8142

 390.00  VIB.     0.1259D+03                  5825.1772    35.1770    24.5448
         ROT.     0.4810D+06                  1162.5158     2.9808    28.9805
         INT.     0.6053D+08                  6987.6930    38.1578    53.5253
         TRA.     0.1720D+28                  1937.5263     4.9680    41.3948
         TOT.                      -43.741    8925.2194    43.1258    94.9201

 400.00  VIB.     0.1527D+03                  6182.3750    36.2602    25.4491
         ROT.     0.4996D+06                  1192.3239     2.9808    29.0560
         INT.     0.7631D+08                  7374.6989    39.2410    54.5051
         TRA.     0.1786D+28                  1987.2065     4.9680    41.5206
         TOT.                      -43.305    9361.9054    44.2090    96.0257

   *: NOTE: HEATS OF FORMATION ARE RELATIVE TO THE
            ELEMENTS IN THEIR STANDARD STATE AT 298K
              (=  Standard Enthalpy of Formation).

            Hvib:  Zero-point energy is not included.
                   frequencies of less than zero cm-1 are not included.
            Hrot = (3/2)RT
            Htra = (3/2)RT + pV = (5/2)RT

            Heat capacity is Cp, not Cv

          For more information, see: HTTP://OpenMOPAC.net/Manual/thermochemistry.html


           FORCE CONSTANT IN CARTESIAN COORDINATES (Millidynes/A)

    ATOM   CHEMICAL       X               Y               Z
   NUMBER   SYMBOL  FORCE CONSTANT  FORCE CONSTANT  FORCE CONSTANT

      1       O        7.100239        3.134393        6.703455
      2       C        8.806647        7.693981        8.166182
      3       C        8.417912        7.809182        8.312088
      4       C        8.099823        8.451634        8.147426
      5       C        9.257740        8.264286        7.617843
      6       C        8.490441        8.930389        7.828455
      7       C       13.200822       11.302761        2.614768
      8       C       13.160458       11.351617        2.620541
      9       H        1.024533        1.595612        3.228494
     10       H        0.952412        1.572691        3.895852
     11       H        1.546571        1.857846        2.987632
     12       H        1.015160        4.583113        0.779384
     13       H        0.975492        1.856885        3.578579
     14       H        4.456295        1.204052        0.705929
     15       H        1.357480        1.147653        3.773813
     16       H        0.685423        2.174366        3.441804
     17       H        2.338548        3.291705        0.783308
     18       H        4.302200        1.552809        0.352766
     19       H        0.821414        5.042462        0.341324
     20       H        1.668452        2.203427        5.602120

 **********************
 *                    *
 * JOB ENDED NORMALLY *
 *                    *
 **********************



 TOTAL JOB TIME:             1.46 SECONDS

 == MOPAC DONE ==
