 *******************************************************************************
 ** Site#: 14399        For non-commercial use only    Version 18.184L 64BITS **
 *******************************************************************************
 ** Cite this program as: MOPAC2016, Version: 18.184L, James J. P. Stewart,   **
 ** Stewart Computational Chemistry, web: HTTP://OpenMOPAC.net. Days left:  18**
 *******************************************************************************
 **                                                                           **
 **                                MOPAC2016                                  **
 **                                                                           **
 *******************************************************************************

                              PM3 CALCULATION RESULTS

 *******************************************************************************
 *  CALCULATION DONE:                                Sat Jun 15 10:11:04 2019  *
 *  PM3        - The PM3 Hamiltonian to be used
 *  PRECISE    - CRITERIA TO BE INCREASED BY 100 TIMES
 *  NOSYM      - POINT-GROUP SYMMETRY SET TO C1
 *  THREADS=1  - MULTI-THREADING NOT USED
 *  T=         - A TIME OF 172800.0 SECONDS REQUESTED
 *  DUMP=N     - RESTART FILE WRITTEN EVERY  7200.000 SECONDS
 *******************************************************************************
pm3  precise nosym THREADS=1
 InChI=1S/C7H10/c1-7-5-3-2-4-6-7/h2-3,5H,4,6H2,1H3

   ATOM   CHEMICAL          X               Y               Z
  NUMBER   SYMBOL      (ANGSTROMS)     (ANGSTROMS)     (ANGSTROMS)
 
     1       C          0.20970000  *  -1.12970000  *  -0.18280000  *
     2       C         -1.20900000  *  -1.20040000  *   0.40880000  *
     3       C          2.28990000  *   0.44100000  *  -0.01800000  *
     4       C          0.80120000  *   0.25940000  *  -0.07190000  *
     5       C         -2.03670000  *  -0.00650000  *   0.01660000  *
     6       C         -0.00030000  *   1.33560000  *  -0.11140000  *
     7       C         -1.46520000  *   1.18520000  *  -0.17700000  *
     8       H          0.85380000  *  -1.86650000  *   0.34370000  *
     9       H          0.17390000  *  -1.41080000  *  -1.25750000  *
    10       H         -1.14460000  *  -1.23460000  *   1.51770000  *
    11       H         -1.70980000  *  -2.12960000  *   0.06250000  *
    12       H          2.62940000  *   1.03590000  *  -0.89230000  *
    13       H          2.81260000  *  -0.53830000  *  -0.03700000  *
    14       H          2.56920000  *   0.97260000  *   0.91620000  *
    15       H         -3.11440000  *  -0.09870000  *  -0.03150000  *
    16       H          0.42140000  *   2.33360000  *  -0.10590000  *
    17       H         -2.08100000  *   2.05180000  *  -0.38030000  *
 


          CARTESIAN COORDINATES 

    NO.       ATOM           X           Y           Z

     1         C          0.2097     -1.1297     -0.1828
     2         C         -1.2090     -1.2004      0.4088
     3         C          2.2899      0.4410     -0.0180
     4         C          0.8012      0.2594     -0.0719
     5         C         -2.0367     -0.0065      0.0166
     6         C         -0.0003      1.3356     -0.1114
     7         C         -1.4652      1.1852     -0.1770
     8         H          0.8538     -1.8665      0.3437
     9         H          0.1739     -1.4108     -1.2575
    10         H         -1.1446     -1.2346      1.5177
    11         H         -1.7098     -2.1296      0.0625
    12         H          2.6294      1.0359     -0.8923
    13         H          2.8126     -0.5383     -0.0370
    14         H          2.5692      0.9726      0.9162
    15         H         -3.1144     -0.0987     -0.0315
    16         H          0.4214      2.3336     -0.1059
    17         H         -2.0810      2.0518     -0.3803

  H: (PM3): J. J. P. STEWART, J. COMP. CHEM. 10, 209 (1989).
  C: (PM3): J. J. P. STEWART, J. COMP. CHEM. 10, 209 (1989).

           Empirical Formula: C7 H10  =    17 atoms



      MOLECULAR POINT GROUP   :   C1  


      RHF CALCULATION, NO. OF DOUBLY OCCUPIED LEVELS = 19


          Geometry optimization using EF

          DIAGONAL MATRIX USED AS START HESSIAN

 CYCLE:     1 TIME:   0.004 TIME LEFT:  2.00D  GRAD.:    59.233 HEAT:  13.23106
 CYCLE:     2 TIME:   0.008 TIME LEFT:  2.00D  GRAD.:    74.181 HEAT:  12.91935
 CYCLE:     3 TIME:   0.004 TIME LEFT:  2.00D  GRAD.:    38.173 HEAT:  11.91946
 CYCLE:     4 TIME:   0.004 TIME LEFT:  2.00D  GRAD.:    35.155 HEAT:  11.80117
 CYCLE:     5 TIME:   0.004 TIME LEFT:  2.00D  GRAD.:    30.122 HEAT:  11.68014
 CYCLE:     6 TIME:   0.004 TIME LEFT:  2.00D  GRAD.:    32.570 HEAT:  11.63241
 CYCLE:     7 TIME:   0.000 TIME LEFT:  2.00D  GRAD.:    18.977 HEAT:  11.47230
 CYCLE:     8 TIME:   0.008 TIME LEFT:  2.00D  GRAD.:    12.803 HEAT:  11.37454
 CYCLE:     9 TIME:   0.000 TIME LEFT:  2.00D  GRAD.:    16.995 HEAT:  11.36262
 CYCLE:    10 TIME:   0.004 TIME LEFT:  2.00D  GRAD.:    14.337 HEAT:  11.31022
 CYCLE:    11 TIME:   0.008 TIME LEFT:  2.00D  GRAD.:     9.257 HEAT:  11.25374
 CYCLE:    12 TIME:   0.000 TIME LEFT:  2.00D  GRAD.:    10.918 HEAT:  11.23930
 CYCLE:    13 TIME:   0.004 TIME LEFT:  2.00D  GRAD.:    12.144 HEAT:  11.21769
 CYCLE:    14 TIME:   0.004 TIME LEFT:  2.00D  GRAD.:     6.598 HEAT:  11.18323
 CYCLE:    15 TIME:   0.004 TIME LEFT:  2.00D  GRAD.:     7.367 HEAT:  11.17160
 CYCLE:    16 TIME:   0.004 TIME LEFT:  2.00D  GRAD.:     3.947 HEAT:  11.14833
 CYCLE:    17 TIME:   0.004 TIME LEFT:  2.00D  GRAD.:     7.425 HEAT:  11.14249
 CYCLE:    18 TIME:   0.000 TIME LEFT:  2.00D  GRAD.:     3.657 HEAT:  11.11887
 CYCLE:    19 TIME:   0.004 TIME LEFT:  2.00D  GRAD.:     3.743 HEAT:  11.10375
 CYCLE:    20 TIME:   0.004 TIME LEFT:  2.00D  GRAD.:     4.497 HEAT:  11.09292
 CYCLE:    21 TIME:   0.004 TIME LEFT:  2.00D  GRAD.:     4.628 HEAT:  11.08557
 CYCLE:    22 TIME:   0.000 TIME LEFT:  2.00D  GRAD.:     2.958 HEAT:  11.07322
 CYCLE:    23 TIME:   0.004 TIME LEFT:  2.00D  GRAD.:     3.119 HEAT:  11.06437
 CYCLE:    24 TIME:   0.004 TIME LEFT:  2.00D  GRAD.:     2.439 HEAT:  11.05654
 CYCLE:    25 TIME:   0.004 TIME LEFT:  2.00D  GRAD.:     1.999 HEAT:  11.05147
 CYCLE:    26 TIME:   0.000 TIME LEFT:  2.00D  GRAD.:     1.703 HEAT:  11.04677
 CYCLE:    27 TIME:   0.004 TIME LEFT:  2.00D  GRAD.:     2.094 HEAT:  11.03757
 CYCLE:    28 TIME:   0.004 TIME LEFT:  2.00D  GRAD.:     2.060 HEAT:  11.03181
 CYCLE:    29 TIME:   0.004 TIME LEFT:  2.00D  GRAD.:     2.328 HEAT:  11.02335
 CYCLE:    30 TIME:   0.004 TIME LEFT:  2.00D  GRAD.:     2.931 HEAT:  11.01039
 CYCLE:    31 TIME:   0.000 TIME LEFT:  2.00D  GRAD.:     3.402 HEAT:  10.99427
 CYCLE:    32 TIME:   0.004 TIME LEFT:  2.00D  GRAD.:     2.422 HEAT:  10.98191
 CYCLE:    33 TIME:   0.004 TIME LEFT:  2.00D  GRAD.:     1.732 HEAT:  10.97455
 CYCLE:    34 TIME:   0.004 TIME LEFT:  2.00D  GRAD.:     2.074 HEAT:  10.96831
 CYCLE:    35 TIME:   0.000 TIME LEFT:  2.00D  GRAD.:     2.374 HEAT:  10.96230
 CYCLE:    36 TIME:   0.004 TIME LEFT:  2.00D  GRAD.:     1.507 HEAT:  10.95726
 CYCLE:    37 TIME:   0.004 TIME LEFT:  2.00D  GRAD.:     1.022 HEAT:  10.95388
 CYCLE:    38 TIME:   0.004 TIME LEFT:  2.00D  GRAD.:     0.977 HEAT:  10.95158
 CYCLE:    39 TIME:   0.004 TIME LEFT:  2.00D  GRAD.:     0.909 HEAT:  10.94998
 CYCLE:    40 TIME:   0.000 TIME LEFT:  2.00D  GRAD.:     1.005 HEAT:  10.94753
 CYCLE:    41 TIME:   0.004 TIME LEFT:  2.00D  GRAD.:     1.243 HEAT:  10.94402
 CYCLE:    42 TIME:   0.004 TIME LEFT:  2.00D  GRAD.:     1.730 HEAT:  10.93813
 CYCLE:    43 TIME:   0.004 TIME LEFT:  2.00D  GRAD.:     1.767 HEAT:  10.93145
 CYCLE:    44 TIME:   0.000 TIME LEFT:  2.00D  GRAD.:     1.840 HEAT:  10.92364
 CYCLE:    45 TIME:   0.004 TIME LEFT:  2.00D  GRAD.:     2.727 HEAT:  10.91586
 CYCLE:    46 TIME:   0.004 TIME LEFT:  2.00D  GRAD.:     2.985 HEAT:  10.90420
 CYCLE:    47 TIME:   0.004 TIME LEFT:  2.00D  GRAD.:     2.927 HEAT:  10.89047
 CYCLE:    48 TIME:   0.000 TIME LEFT:  2.00D  GRAD.:     2.585 HEAT:  10.87177
 CYCLE:    49 TIME:   0.004 TIME LEFT:  2.00D  GRAD.:     3.171 HEAT:  10.86410
 CYCLE:    50 TIME:   0.004 TIME LEFT:  2.00D  GRAD.:     7.657 HEAT:  10.83638
 CYCLE:    51 TIME:   0.000 TIME LEFT:  2.00D  GRAD.:     5.075 HEAT:  10.82022
 CYCLE:    52 TIME:   0.004 TIME LEFT:  2.00D  GRAD.:     2.498 HEAT:  10.78256
 CYCLE:    53 TIME:   0.004 TIME LEFT:  2.00D  GRAD.:     8.011 HEAT:  10.75826
 CYCLE:    54 TIME:   0.004 TIME LEFT:  2.00D  GRAD.:     3.876 HEAT:  10.72264
 CYCLE:    55 TIME:   0.004 TIME LEFT:  2.00D  GRAD.:     7.282 HEAT:  10.67761
 CYCLE:    56 TIME:   0.000 TIME LEFT:  2.00D  GRAD.:     3.178 HEAT:  10.65185
 CYCLE:    57 TIME:   0.004 TIME LEFT:  2.00D  GRAD.:     2.676 HEAT:  10.62281
 CYCLE:    58 TIME:   0.004 TIME LEFT:  2.00D  GRAD.:     8.927 HEAT:  10.61163
 CYCLE:    59 TIME:   0.004 TIME LEFT:  2.00D  GRAD.:     2.634 HEAT:  10.57604
 CYCLE:    60 TIME:   0.000 TIME LEFT:  2.00D  GRAD.:     2.514 HEAT:  10.56353
 CYCLE:    61 TIME:   0.004 TIME LEFT:  2.00D  GRAD.:     3.542 HEAT:  10.54058
 CYCLE:    62 TIME:   0.004 TIME LEFT:  2.00D  GRAD.:     3.125 HEAT:  10.53195
 CYCLE:    63 TIME:   0.004 TIME LEFT:  2.00D  GRAD.:     1.608 HEAT:  10.52337
 CYCLE:    64 TIME:   0.000 TIME LEFT:  2.00D  GRAD.:     1.976 HEAT:  10.51757
 CYCLE:    65 TIME:   0.004 TIME LEFT:  2.00D  GRAD.:     1.863 HEAT:  10.51134
 CYCLE:    66 TIME:   0.004 TIME LEFT:  2.00D  GRAD.:     2.316 HEAT:  10.50445
 CYCLE:    67 TIME:   0.004 TIME LEFT:  2.00D  GRAD.:     1.694 HEAT:  10.49847
 CYCLE:    68 TIME:   0.004 TIME LEFT:  2.00D  GRAD.:     1.726 HEAT:  10.49410
 CYCLE:    69 TIME:   0.000 TIME LEFT:  2.00D  GRAD.:     1.875 HEAT:  10.48915
 CYCLE:    70 TIME:   0.004 TIME LEFT:  2.00D  GRAD.:     1.967 HEAT:  10.48231
 CYCLE:    71 TIME:   0.004 TIME LEFT:  2.00D  GRAD.:     2.074 HEAT:  10.47504
 CYCLE:    72 TIME:   0.004 TIME LEFT:  2.00D  GRAD.:     2.137 HEAT:  10.46728
 CYCLE:    73 TIME:   0.004 TIME LEFT:  2.00D  GRAD.:     3.599 HEAT:  10.46466
 CYCLE:    74 TIME:   0.004 TIME LEFT:  2.00D  GRAD.:     1.519 HEAT:  10.45760
 CYCLE:    75 TIME:   0.004 TIME LEFT:  2.00D  GRAD.:     1.064 HEAT:  10.45339
 CYCLE:    76 TIME:   0.000 TIME LEFT:  2.00D  GRAD.:     1.027 HEAT:  10.44782
 CYCLE:    77 TIME:   0.004 TIME LEFT:  2.00D  GRAD.:     1.490 HEAT:  10.44485
 CYCLE:    78 TIME:   0.004 TIME LEFT:  2.00D  GRAD.:     1.033 HEAT:  10.44171
 CYCLE:    79 TIME:   0.004 TIME LEFT:  2.00D  GRAD.:     0.894 HEAT:  10.43911
 CYCLE:    80 TIME:   0.004 TIME LEFT:  2.00D  GRAD.:     0.495 HEAT:  10.43806
 CYCLE:    81 TIME:   0.000 TIME LEFT:  2.00D  GRAD.:     0.563 HEAT:  10.43770
 CYCLE:    82 TIME:   0.004 TIME LEFT:  2.00D  GRAD.:     0.364 HEAT:  10.43736
 CYCLE:    83 TIME:   0.004 TIME LEFT:  2.00D  GRAD.:     0.294 HEAT:  10.43694
 CYCLE:    84 TIME:   0.004 TIME LEFT:  2.00D  GRAD.:     0.244 HEAT:  10.43680
 CYCLE:    85 TIME:   0.004 TIME LEFT:  2.00D  GRAD.:     0.177 HEAT:  10.43669
 CYCLE:    86 TIME:   0.000 TIME LEFT:  2.00D  GRAD.:     0.118 HEAT:  10.43666
 CYCLE:    87 TIME:   0.004 TIME LEFT:  2.00D  GRAD.:     0.089 HEAT:  10.43663
 CYCLE:    88 TIME:   0.004 TIME LEFT:  2.00D  GRAD.:     0.060 HEAT:  10.43662
 CYCLE:    89 TIME:   0.000 TIME LEFT:  2.00D  GRAD.:     0.040 HEAT:  10.43662

     GRADIENT =  0.03972  IS LESS THAN CUTOFF =  0.05000



 -------------------------------------------------------------------------------
 pm3  precise nosym THREADS=1
 InChI=1S/C7H10/c1-7-5-3-2-4-6-7/h2-3,5H,4,6H2,1H3



     GEOMETRY OPTIMISED USING EIGENVECTOR FOLLOWING (EF).     
     SCF FIELD WAS ACHIEVED                                   


                              PM3 CALCULATION
                                                       MOPAC2016 (Version: 18.184L)
                                                       Sat Jun 15 10:11:04 2019
                                                       No. of days remaining =  18




          FINAL HEAT OF FORMATION =         10.43662 KCAL/MOL =      43.66682 KJ/MOL


          TOTAL ENERGY            =       -983.35712 EV
          ELECTRONIC ENERGY       =      -4560.49609 EV  POINT GROUP:     C1  
          CORE-CORE REPULSION     =       3577.13897 EV
          COSMO AREA              =        143.05 SQUARE ANGSTROMS
          COSMO VOLUME            =        136.00 CUBIC ANGSTROMS

          GRADIENT NORM           =          0.03972 = 0.00963 PER ATOM
          IONIZATION POTENTIAL    =          8.754306 EV
          HOMO LUMO ENERGIES (EV) =         -8.754  0.280
          NO. OF FILLED LEVELS    =         19
          MOLECULAR WEIGHT        =         94.1560

          MOLECULAR DIMENSIONS (Angstroms)

            Atom       Atom       Distance
            H    15    H    12     5.92927
            H    17    H     8     4.59891
            H    10    H     9     2.64214


          SCF CALCULATIONS        =         97
 
          WALL-CLOCK TIME         =          0.289 SECONDS
          COMPUTATION TIME        =          0.258 SECONDS




   ATOM   CHEMICAL          X               Y               Z
  NUMBER   SYMBOL      (ANGSTROMS)     (ANGSTROMS)     (ANGSTROMS)
 
     1       C          0.23783979  *  -1.10663958  *  -0.05618372  *
     2       C         -1.20560270  *  -1.18170220  *   0.42467339  *
     3       C          2.26458990  *   0.40877459  *  -0.04875166  *
     4       C          0.78697423  *   0.28208070  *  -0.09179867  *
     5       C         -2.02324520  *  -0.00107675  *   0.04081804  *
     6       C         -0.02352322  *   1.34940845  *  -0.19625475  *
     7       C         -1.46350852  *   1.18293862  *  -0.23905121  *
     8       H          0.87633446  *  -1.74879461  *   0.58256170  *
     9       H          0.32506519  *  -1.52351189  *  -1.08076574  *
    10       H         -1.24175898  *  -1.26759967  *   1.53027357  *
    11       H         -1.67605940  *  -2.10689686  *   0.03815385  *
    12       H          2.60111685  *   1.44478973  *  -0.18574176  *
    13       H          2.73082007  *  -0.20057539  *  -0.83498556  *
    14       H          2.65417936  *   0.05733866  *   0.91673170  *
    15       H         -3.10976678  *  -0.13515166  *   0.02846765  *
    16       H          0.37397020  *   2.36855815  *  -0.25299748  *
    17       H         -2.06790629  *   2.05745705  *  -0.49960612  *

                             CARTESIAN COORDINATES

   1    C        0.237839794    -1.106639578    -0.056183723
   2    C       -1.205602696    -1.181702205     0.424673391
   3    C        2.264589896     0.408774590    -0.048751663
   4    C        0.786974232     0.282080697    -0.091798672
   5    C       -2.023245198    -0.001076748     0.040818036
   6    C       -0.023523223     1.349408446    -0.196254748
   7    C       -1.463508524     1.182938618    -0.239051209
   8    H        0.876334457    -1.748794610     0.582561697
   9    H        0.325065185    -1.523511889    -1.080765739
  10    H       -1.241758982    -1.267599666     1.530273567
  11    H       -1.676059402    -2.106896864     0.038153851
  12    H        2.601116848     1.444789726    -0.185741762
  13    H        2.730820073    -0.200575390    -0.834985561
  14    H        2.654179358     0.057338660     0.916731699
  15    H       -3.109766780    -0.135151656     0.028467653
  16    H        0.373970204     2.368558149    -0.252997484
  17    H       -2.067906285     2.057457053    -0.499606122


           Empirical Formula: C7 H10  =    17 atoms



      MOLECULAR POINT GROUP   :   C1  


                  EIGENVALUES  
 -40.11964 -32.62834 -30.20320 -25.80676 -22.47658 -20.19161 -17.40116 -16.39898
 -15.99517 -15.22745 -14.33584 -14.11238 -13.83733 -13.17177 -12.59292 -12.13423
 -11.77932 -11.18865  -8.75431   0.27986   2.08736   3.29630   3.44890   3.55816
   3.80148   3.83076   4.03741   4.09085   4.28809   4.31370   4.46032   4.58189
   4.79717   4.84108   5.15629   5.54616   6.06201   6.28869


              NET ATOMIC CHARGES AND DIPOLE CONTRIBUTIONS

  ATOM NO.   TYPE          CHARGE      No. of ELECS.   s-Pop       p-Pop       
    1          C          -0.051830        4.0518     1.14609     2.90574
    2          C          -0.056739        4.0567     1.14556     2.91118
    3          C          -0.066538        4.0665     1.12463     2.94191
    4          C          -0.111447        4.1114     1.19891     2.91253
    5          C          -0.141297        4.1413     1.19614     2.94516
    6          C          -0.119754        4.1198     1.17768     2.94207
    7          C          -0.107898        4.1079     1.17783     2.93007
    8          H           0.054541        0.9455     0.94546
    9          H           0.054875        0.9451     0.94513
   10          H           0.054777        0.9452     0.94522
   11          H           0.052964        0.9470     0.94704
   12          H           0.043386        0.9566     0.95661
   13          H           0.044514        0.9555     0.95549
   14          H           0.045967        0.9540     0.95403
   15          H           0.098648        0.9014     0.90135
   16          H           0.105080        0.8949     0.89492
   17          H           0.100750        0.8993     0.89925
 DIPOLE           X         Y         Z       TOTAL
 POINT-CHG.     0.258    -0.404     0.081     0.486
 HYBRID         0.011    -0.017     0.003     0.021
 SUM            0.269    -0.421     0.084     0.507


          ATOMIC ORBITAL ELECTRON POPULATIONS

     Atom    s        px        py        pz   
    1  C   1.14609   0.95500   0.94210   1.00863
    2  C   1.14556   0.94517   0.96451   1.00150
    3  C   1.12463   0.92578   1.01059   1.00554
    4  C   1.19891   0.95716   0.95919   0.99618
    5  C   1.19614   0.98432   0.95637   1.00446
    6  C   1.17768   0.94082   0.97134   1.02992
    7  C   1.17783   0.94884   0.96881   1.01243
    8  H   0.94546
    9  H   0.94513
   10  H   0.94522
   11  H   0.94704
   12  H   0.95661
   13  H   0.95549
   14  H   0.95403
   15  H   0.90135
   16  H   0.89492
   17  H   0.89925
 *******************************************************************************
 ** Site#: 14399        For non-commercial use only    Version 18.184L 64BITS **
 *******************************************************************************
 ** Cite this program as: MOPAC2016, Version: 18.184L, James J. P. Stewart,   **
 ** Stewart Computational Chemistry, web: HTTP://OpenMOPAC.net. Days left:  18**
 *******************************************************************************
 **                                                                           **
 **                                MOPAC2016                                  **
 **                                                                           **
 *******************************************************************************

                              PM3 CALCULATION RESULTS

 *******************************************************************************
 *  CALCULATION DONE:                                Sat Jun 15 10:11:04 2019  *
 *  PM3        - The PM3 Hamiltonian to be used
 *  OLDGEO     - PREVIOUS GEOMETRY TO BE USED
 *  PRECISE    - CRITERIA TO BE INCREASED BY 100 TIMES
 *  NOSYM      - POINT-GROUP SYMMETRY SET TO C1
 *  THREADS=1  - MULTI-THREADING NOT USED
 *  T=         - A TIME OF 172800.0 SECONDS REQUESTED
 *  DUMP=N     - RESTART FILE WRITTEN EVERY  7200.000 SECONDS
 *  THERMO     - THERMODYNAMIC QUANTITIES TO BE CALCULATED
 *******************************************************************************
oldgeo thermo nosym precise THREADS=1  pm3
 InChI=1S/C7H10/c1-7-5-3-2-4-6-7/h2-3,5H,4,6H2,1H3

   ATOM   CHEMICAL          X               Y               Z
  NUMBER   SYMBOL      (ANGSTROMS)     (ANGSTROMS)     (ANGSTROMS)
 
     1       C          0.23783979  *  -1.10663958  *  -0.05618372  *
     2       C         -1.20560270  *  -1.18170220  *   0.42467339  *
     3       C          2.26458990  *   0.40877459  *  -0.04875166  *
     4       C          0.78697423  *   0.28208070  *  -0.09179867  *
     5       C         -2.02324520  *  -0.00107675  *   0.04081804  *
     6       C         -0.02352322  *   1.34940845  *  -0.19625475  *
     7       C         -1.46350852  *   1.18293862  *  -0.23905121  *
     8       H          0.87633446  *  -1.74879461  *   0.58256170  *
     9       H          0.32506519  *  -1.52351189  *  -1.08076574  *
    10       H         -1.24175898  *  -1.26759967  *   1.53027357  *
    11       H         -1.67605940  *  -2.10689686  *   0.03815385  *
    12       H          2.60111685  *   1.44478973  *  -0.18574176  *
    13       H          2.73082007  *  -0.20057539  *  -0.83498556  *
    14       H          2.65417936  *   0.05733866  *   0.91673170  *
    15       H         -3.10976678  *  -0.13515166  *   0.02846765  *
    16       H          0.37397020  *   2.36855815  *  -0.25299748  *
    17       H         -2.06790629  *   2.05745705  *  -0.49960612  *
 


          CARTESIAN COORDINATES 

    NO.       ATOM           X           Y           Z

     1         C          0.2378     -1.1066     -0.0562
     2         C         -1.2056     -1.1817      0.4247
     3         C          2.2646      0.4088     -0.0488
     4         C          0.7870      0.2821     -0.0918
     5         C         -2.0232     -0.0011      0.0408
     6         C         -0.0235      1.3494     -0.1963
     7         C         -1.4635      1.1829     -0.2391
     8         H          0.8763     -1.7488      0.5826
     9         H          0.3251     -1.5235     -1.0808
    10         H         -1.2418     -1.2676      1.5303
    11         H         -1.6761     -2.1069      0.0382
    12         H          2.6011      1.4448     -0.1857
    13         H          2.7308     -0.2006     -0.8350
    14         H          2.6542      0.0573      0.9167
    15         H         -3.1098     -0.1352      0.0285
    16         H          0.3740      2.3686     -0.2530
    17         H         -2.0679      2.0575     -0.4996

  H: (PM3): J. J. P. STEWART, J. COMP. CHEM. 10, 209 (1989).
  C: (PM3): J. J. P. STEWART, J. COMP. CHEM. 10, 209 (1989).

           Empirical Formula: C7 H10  =    17 atoms



      MOLECULAR POINT GROUP   :   C1  


      RHF CALCULATION, NO. OF DOUBLY OCCUPIED LEVELS = 19



          HEAT OF FORMATION =      10.436621 KCALS/MOLE


          CARTESIAN COORDINATE DERIVATIVES

   NUMBER  ATOM         X            Y            Z

     1       C     -0.001049     0.001841    -0.004178
     2       C      0.001193     0.001441     0.001753
     3       C      0.005698    -0.006595     0.002086
     4       C     -0.004023    -0.002125    -0.004797
     5       C     -0.004385    -0.003040    -0.001496
     6       C      0.003127    -0.000105     0.003558
     7       C     -0.009680     0.005611    -0.001425
     8       H      0.003385    -0.005353    -0.001322
     9       H      0.002706     0.000471     0.003451
    10       H     -0.000801    -0.004609     0.001904
    11       H      0.001270     0.003707     0.000789
    12       H      0.006161     0.014260     0.010793
    13       H     -0.002225    -0.014326     0.000848
    14       H     -0.008964     0.005710    -0.018857
    15       H     -0.003608     0.000495    -0.000804
    16       H      0.012271     0.000384     0.007842
    17       H     -0.001077     0.002233    -0.000146
 


          GRADIENT NORM =   0.04129


          TIME FOR SCF CALCULATION =    0.00

          TIME FOR DERIVATIVES     =    0.00

          MOLECULAR WEIGHT =   94.16



          ROTATIONAL CONSTANTS IN CM(-1)

          A =    0.16335683   B =    0.08082936   C =    0.05642696



           PRINCIPAL MOMENTS OF INERTIA IN UNITS OF 10**(-40)*GRAM-CM**2

          A =      171.3597   B =      346.3194   C =      496.0887


          ORIENTATION OF MOLECULE IN FORCE CALCULATION

    NO.       ATOM         X         Y         Z

     1          C      -0.3349   -1.0830   -0.5955
     2          C       1.1883   -1.0830   -0.5955
     3          C      -2.3278    0.4768   -0.5955
     4          C      -0.9350    0.2130   -0.1577
     5          C       1.7838   -0.2394    0.4739
     6          C      -0.2525    1.0683    0.6232
     7          C       1.1067    0.7719    1.0328
     8          H      -0.7067   -1.3491   -1.6050
     9          H      -0.7205   -1.8721    0.0825
    10          H       1.5758   -0.7130   -1.5671
    11          H       1.5577   -2.1231   -0.5037
    12          H      -2.7410    1.3921   -0.1518
    13          H      -2.9877   -0.3564   -0.3178
    14          H      -2.3749    0.5860   -1.6879
    15          H       2.8161   -0.4626    0.7623
    16          H      -0.6973    2.0064    0.9725
    17          H       1.5541    1.4065    1.8042


    FIRST DERIVATIVES WILL BE USED IN THE CALCULATION OF SECOND DERIVATIVES

          ESTIMATED TIME TO COMPLETE CALCULATION =        1.59 SECONDS

    FOR POINT-GROUP C1   THERE ARE   1 UNIQUE SYMMETRY FUNCTIONS.

 STEP:   1 TIME =     0.01 SECS, INTEGRAL =      0.01 TIME LEFT: 172799.98
 STEP:   2 TIME =     0.01 SECS, INTEGRAL =      0.02 TIME LEFT: 172799.97
 STEP:   3 TIME =     0.01 SECS, INTEGRAL =      0.04 TIME LEFT: 172799.96
 STEP:   4 TIME =     0.01 SECS, INTEGRAL =      0.05 TIME LEFT: 172799.95
 STEP:   5 TIME =     0.01 SECS, INTEGRAL =      0.06 TIME LEFT: 172799.93
 STEP:   6 TIME =     0.01 SECS, INTEGRAL =      0.07 TIME LEFT: 172799.92
 STEP:   7 TIME =     0.02 SECS, INTEGRAL =      0.09 TIME LEFT: 172799.91
 STEP:   8 TIME =     0.01 SECS, INTEGRAL =      0.10 TIME LEFT: 172799.89
 STEP:   9 TIME =     0.01 SECS, INTEGRAL =      0.11 TIME LEFT: 172799.88
 STEP:  10 TIME =     0.01 SECS, INTEGRAL =      0.12 TIME LEFT: 172799.87
 STEP:  11 TIME =     0.01 SECS, INTEGRAL =      0.13 TIME LEFT: 172799.86
 STEP:  12 TIME =     0.01 SECS, INTEGRAL =      0.14 TIME LEFT: 172799.85
 STEP:  13 TIME =     0.01 SECS, INTEGRAL =      0.16 TIME LEFT: 172799.84
 STEP:  14 TIME =     0.01 SECS, INTEGRAL =      0.17 TIME LEFT: 172799.82
 STEP:  15 TIME =     0.01 SECS, INTEGRAL =      0.18 TIME LEFT: 172799.81
 STEP:  16 TIME =     0.01 SECS, INTEGRAL =      0.19 TIME LEFT: 172799.80
 STEP:  17 TIME =     0.01 SECS, INTEGRAL =      0.20 TIME LEFT: 172799.79
 STEP:  18 TIME =     0.01 SECS, INTEGRAL =      0.21 TIME LEFT: 172799.78
 STEP:  19 TIME =     0.01 SECS, INTEGRAL =      0.23 TIME LEFT: 172799.77
 STEP:  20 TIME =     0.01 SECS, INTEGRAL =      0.24 TIME LEFT: 172799.75
 STEP:  21 TIME =     0.02 SECS, INTEGRAL =      0.25 TIME LEFT: 172799.74
 STEP:  22 TIME =     0.01 SECS, INTEGRAL =      0.27 TIME LEFT: 172799.73
 STEP:  23 TIME =     0.01 SECS, INTEGRAL =      0.28 TIME LEFT: 172799.71
 STEP:  24 TIME =     0.01 SECS, INTEGRAL =      0.29 TIME LEFT: 172799.70
 STEP:  25 TIME =     0.01 SECS, INTEGRAL =      0.30 TIME LEFT: 172799.69
 STEP:  26 TIME =     0.01 SECS, INTEGRAL =      0.31 TIME LEFT: 172799.68
 STEP:  27 TIME =     0.01 SECS, INTEGRAL =      0.32 TIME LEFT: 172799.67
 STEP:  28 TIME =     0.01 SECS, INTEGRAL =      0.34 TIME LEFT: 172799.66
 STEP:  29 TIME =     0.01 SECS, INTEGRAL =      0.35 TIME LEFT: 172799.64
 STEP:  30 TIME =     0.01 SECS, INTEGRAL =      0.36 TIME LEFT: 172799.63
 STEP:  31 TIME =     0.01 SECS, INTEGRAL =      0.37 TIME LEFT: 172799.62
 STEP:  32 TIME =     0.01 SECS, INTEGRAL =      0.38 TIME LEFT: 172799.61
 STEP:  33 TIME =     0.01 SECS, INTEGRAL =      0.39 TIME LEFT: 172799.60
 STEP:  34 TIME =     0.01 SECS, INTEGRAL =      0.41 TIME LEFT: 172799.59
 STEP:  35 TIME =     0.01 SECS, INTEGRAL =      0.42 TIME LEFT: 172799.57
 STEP:  36 TIME =     0.01 SECS, INTEGRAL =      0.43 TIME LEFT: 172799.57
 STEP:  37 TIME =     0.01 SECS, INTEGRAL =      0.44 TIME LEFT: 172799.55
 STEP:  38 TIME =     0.01 SECS, INTEGRAL =      0.45 TIME LEFT: 172799.54
 STEP:  39 TIME =     0.01 SECS, INTEGRAL =      0.46 TIME LEFT: 172799.53
 STEP:  40 TIME =     0.01 SECS, INTEGRAL =      0.47 TIME LEFT: 172799.52
 STEP:  41 TIME =     0.02 SECS, INTEGRAL =      0.49 TIME LEFT: 172799.50
 STEP:  42 TIME =     0.01 SECS, INTEGRAL =      0.50 TIME LEFT: 172799.49
 STEP:  43 TIME =     0.01 SECS, INTEGRAL =      0.51 TIME LEFT: 172799.48
 STEP:  44 TIME =     0.01 SECS, INTEGRAL =      0.52 TIME LEFT: 172799.47
 STEP:  45 TIME =     0.01 SECS, INTEGRAL =      0.54 TIME LEFT: 172799.46
 STEP:  46 TIME =     0.01 SECS, INTEGRAL =      0.55 TIME LEFT: 172799.45
 STEP:  47 TIME =     0.01 SECS, INTEGRAL =      0.56 TIME LEFT: 172799.43
 STEP:  48 TIME =     0.02 SECS, INTEGRAL =      0.57 TIME LEFT: 172799.42
 STEP:  49 TIME =     0.01 SECS, INTEGRAL =      0.59 TIME LEFT: 172799.41
 STEP:  50 TIME =     0.01 SECS, INTEGRAL =      0.60 TIME LEFT: 172799.39
 STEP:  51 TIME =     0.01 SECS, INTEGRAL =      0.61 TIME LEFT: 172799.38

(To convert to Hartree/Bohr^2, multiply by (10^(-21) x N x a0^2)/(4.184 x 627.51) =  0.0642)


           FORCE MATRIX IN MILLIDYNES/ANGSTROM


                  C  1       C  2       C  3       C  4       C  5       C  6
 ------------------------------------------------------------------------------
     C    1  14.635959
     C    2   4.106665  14.677375
     C    3   0.607674   0.047321  14.730944
     C    4   4.714815   0.639174   5.072702  18.310260
     C    5   0.656960   4.981974   0.017755   0.156364  18.014636
     C    6   0.825741   0.116039   0.826034   9.936418   1.144840  18.426388
     C    7   0.104342   0.869778   0.138153   1.133392  10.281306   5.657371
     H    8   4.450166   0.430939   0.045207   0.448713   0.047281   0.044945
     H    9   4.397443   0.441225   0.016384   0.412119   0.011150   0.030286
     H   10   0.442054   4.394968   0.004178   0.010886   0.405698   0.016754
     H   11   0.429652   4.469345   0.008269   0.047558   0.435059   0.008967
     H   12   0.044736   0.007908   4.737223   0.471847   0.001398   0.047733
     H   13   0.025466   0.002098   4.699563   0.452718   0.002237   0.034606
     H   14   0.019602   0.002377   4.691954   0.443985   0.001836   0.031005
     H   15   0.043122   0.426516   0.009338   0.010565   4.854424   0.121700
     H   16   0.107218   0.005233   0.071315   0.458087   0.046397   4.835333
     H   17   0.005016   0.118016   0.008960   0.047582   0.445469   0.431716


                  C  7       H  8       H  9       H 10       H 11       H 12
 ------------------------------------------------------------------------------
     C    7  18.410167
     H    8   0.009805   5.050519
     H    9   0.016390   0.571313   4.986079
     H   10   0.033252   0.034226   0.044499   4.988288
     H   11   0.047118   0.020639   0.034376   0.573410   5.062632
     H   12   0.002138   0.002160   0.001314   0.000335   0.001429   5.456833
     H   13   0.017947   0.004905   0.005798   0.000242   0.000800   0.560077
     H   14   0.018729   0.019576   0.001741   0.000599   0.000216   0.561653
     H   15   0.444493   0.007364   0.004212   0.017048   0.035811   0.000300
     H   16   0.432048   0.011736   0.015012   0.000734   0.000704   0.029543
     H   17   4.864460   0.000841   0.000712   0.015947   0.012348   0.000619


                  H 13       H 14       H 15       H 16       H 17
 ------------------------------------------------------------------
     H   13   5.417976
     H   14   0.573198   5.410640
     H   15   0.001021   0.001304   5.231069
     H   16   0.007863   0.008683   0.007162   5.210286
     H   17   0.001431   0.000758   0.063601   0.031216   5.230847


          HEAT OF FORMATION =      10.436621 KCALS/MOLE

          ZERO POINT ENERGY      93.412 KCAL/MOL


           NORMAL COORDINATE ANALYSIS (Total motion = 1 Angstrom)


   Root No.       1         2         3         4         5         6         7         8

                 1 A       2 A       3 A       4 A       5 A       6 A       7 A       8 A   

                 123.6     131.1     194.3     364.1     402.8     482.2     513.6     543.2
  
           1   -0.0070   -0.0023   -0.0047    0.0130   -0.0091    0.0171    0.0026    0.0457
           2   -0.0242    0.0020   -0.0029   -0.0391   -0.0086    0.0158    0.0324    0.0219
           3    0.0546   -0.0051   -0.0009   -0.0067   -0.0135    0.0120    0.0175    0.0170
           4   -0.0078   -0.0022   -0.0040    0.0210   -0.0119    0.0174    0.0188    0.0491
           5    0.0265   -0.0171   -0.0223    0.0054    0.0138   -0.0060    0.0212   -0.0348
           6   -0.0287    0.0161    0.0158    0.0067   -0.0024    0.0003    0.0241   -0.0342
           7    0.0159   -0.0008    0.0138   -0.0053    0.0148   -0.0222   -0.0670    0.0019
           8    0.0118   -0.0001    0.0212    0.0610   -0.0021    0.0084    0.0052    0.0101
           9   -0.0346    0.0024   -0.0285    0.0315   -0.0103   -0.0038   -0.0266    0.0068
          10   -0.0032   -0.0010   -0.0062   -0.0080   -0.0076   -0.0027   -0.0682   -0.0154
          11   -0.0070   -0.0008   -0.0103   -0.0433   -0.0273    0.0267   -0.0040   -0.0049
          12    0.0115    0.0032    0.0168   -0.0168    0.0423   -0.0409    0.0289    0.0506
          13    0.0019    0.0019    0.0141    0.0044   -0.0147    0.0069    0.0735   -0.0244
          14    0.0035    0.0049    0.0347    0.0141   -0.0202   -0.0259   -0.0092   -0.0198
          15   -0.0144   -0.0042   -0.0405    0.0112    0.0269    0.0189    0.0107   -0.0142
          16   -0.0005   -0.0007   -0.0206   -0.0119    0.0001   -0.0201    0.0156   -0.0318
          17   -0.0041    0.0010   -0.0298   -0.0289   -0.0061   -0.0221   -0.0222    0.0442
          18    0.0068    0.0007    0.0504   -0.0293    0.0135    0.0287   -0.0248    0.0058
          19   -0.0022    0.0049    0.0025   -0.0166    0.0230    0.0079    0.0233   -0.0376
          20   -0.0121    0.0110    0.0063    0.0078    0.0379    0.0064   -0.0337   -0.0153
          21    0.0102   -0.0121   -0.0038   -0.0053   -0.0323   -0.0360   -0.0114   -0.0323
          22   -0.0567    0.0078    0.0051    0.0257    0.0082   -0.0022    0.0421    0.0114
          23   -0.0986    0.0215    0.0161   -0.0503    0.0566   -0.0789    0.0725    0.0462
          24    0.0929   -0.0141   -0.0097   -0.0074   -0.0382    0.0461   -0.0080    0.0242
          25    0.0546   -0.0213   -0.0212    0.0316   -0.0160    0.0355    0.0043    0.0815
          26    0.0090   -0.0037   -0.0110   -0.0472   -0.0566    0.0789   -0.0101    0.0034
          27    0.1282   -0.0225   -0.0196   -0.0064   -0.0746    0.0984   -0.0328    0.0155
          28   -0.0716    0.0154    0.0112    0.0136   -0.0210    0.0220    0.0165    0.0810
          29    0.0866   -0.0531   -0.1023    0.0254    0.0933    0.0265    0.0208   -0.0849
          30   -0.0312    0.0093   -0.0085    0.0113    0.0229    0.0141    0.0231   -0.0393
          31    0.0339   -0.0173   -0.0215    0.0510    0.0099    0.0058   -0.0108    0.0219
          32    0.0358   -0.0194   -0.0219    0.0156    0.0158   -0.0133    0.0095   -0.0427
          33   -0.0951    0.0528    0.0965   -0.0009   -0.0790   -0.0391    0.0079    0.0053
          34   -0.0033   -0.0787    0.0363    0.0823    0.0187   -0.0225   -0.0745    0.0073
          35   -0.0086   -0.1207    0.0561    0.0806    0.0161   -0.0012    0.0157    0.0261
          36   -0.0106    0.1786   -0.0795    0.0780   -0.0448    0.0163   -0.0565   -0.0198
          37    0.0021    0.0376   -0.0264   -0.0659   -0.0248    0.0024   -0.0979   -0.0372
          38   -0.0008   -0.1006    0.0585    0.1089    0.0207   -0.0042    0.0191    0.0325
          39   -0.1058   -0.2085   -0.0127    0.0266   -0.0383    0.0189   -0.0594   -0.0236
          40    0.0681    0.0457    0.0495   -0.0346    0.0782   -0.0672   -0.0116    0.0615
          41    0.0638    0.2310   -0.0224    0.1077   -0.0119    0.0106   -0.0021    0.0093
          42   -0.0318    0.0232   -0.0346    0.0381   -0.0149   -0.0011   -0.0307    0.0036
          43    0.0043    0.0058    0.0439    0.0044   -0.0330   -0.0026    0.0788   -0.0471
          44    0.0015    0.0137    0.0903    0.0305   -0.0624   -0.0328    0.0005   -0.0218
          45   -0.0256   -0.0107   -0.1025    0.0232    0.0591    0.0466   -0.0022    0.0671
          46    0.0093   -0.0052   -0.0378   -0.0239   -0.0138   -0.0583    0.0813   -0.0055
          47    0.0065   -0.0034   -0.0516   -0.0248   -0.0134   -0.0836    0.0229    0.0655
          48   -0.0100    0.0068    0.0874   -0.0525    0.0160    0.1457   -0.0621   -0.0198
          49   -0.0059    0.0123    0.0204   -0.0429    0.0571    0.0373   -0.0111   -0.0266
          50   -0.0275    0.0239    0.0242    0.0266    0.0924    0.0597   -0.0251   -0.0513
          51    0.0249   -0.0269   -0.0287   -0.0057   -0.0970   -0.0963    0.0021   -0.0083


   Root No.       9        10        11        12        13        14        15        16

                 9 A      10 A      11 A      12 A      13 A      14 A      15 A      16 A   

                 736.0     787.2     842.7     891.8     942.6     955.4     982.1     996.6
  
           1    0.0034    0.0100   -0.0108    0.0022    0.0160    0.0208   -0.0039   -0.0023
           2   -0.0036    0.0090    0.0305    0.0006    0.0114    0.0398    0.0069    0.0212
           3    0.0147   -0.0182   -0.0186   -0.0149    0.0421    0.0122    0.0010    0.0171
           4    0.0023    0.0068   -0.0222    0.0023   -0.0092   -0.0117    0.0076    0.0074
           5   -0.0165   -0.0035    0.0391   -0.0152    0.0238   -0.0167   -0.0153   -0.0178
           6    0.0198   -0.0188    0.0086    0.0051   -0.0120    0.0119   -0.0033   -0.0148
           7    0.0109   -0.0154    0.0417   -0.0136    0.0039    0.0049   -0.0048    0.0153
           8    0.0025    0.0011   -0.0124   -0.0077   -0.0095   -0.0223   -0.0079    0.0261
           9    0.0016   -0.0047    0.0203    0.0144   -0.0093   -0.0035    0.0230    0.0074
          10    0.0087   -0.0078    0.0026   -0.0034    0.0020    0.0016    0.0034   -0.0104
          11    0.0115   -0.0038   -0.0163   -0.0012   -0.0073   -0.0126    0.0081   -0.0071
          12   -0.0064    0.0053    0.0059    0.0072   -0.0069   -0.0077   -0.0134    0.0046
          13    0.0066   -0.0325    0.0272   -0.0130   -0.0167   -0.0176    0.0119   -0.0056
          14   -0.0126   -0.0101   -0.0130   -0.0064   -0.0068    0.0031    0.0221    0.0026
          15    0.0024    0.0143    0.0167    0.0085   -0.0023   -0.0116   -0.0169    0.0092
          16   -0.0167    0.0124   -0.0158    0.0200    0.0122   -0.0014    0.0036    0.0125
          17    0.0167   -0.0141   -0.0042    0.0219   -0.0010   -0.0268   -0.0082   -0.0354
          18    0.0048    0.0062   -0.0136   -0.0326   -0.0281    0.0043   -0.0044   -0.0211
          19   -0.0253    0.0086   -0.0281    0.0050   -0.0059    0.0103   -0.0128   -0.0019
          20   -0.0265    0.0044   -0.0296    0.0062   -0.0131    0.0198   -0.0157    0.0143
          21   -0.0080    0.0397   -0.0268    0.0097    0.0163   -0.0039    0.0259    0.0016
          22    0.0503   -0.0439   -0.0519   -0.0066    0.0445    0.0419    0.0252   -0.0381
          23    0.0667   -0.0544   -0.0568   -0.0474    0.1251    0.0405   -0.0026    0.0843
          24   -0.0230    0.0206    0.0209    0.0018    0.0005    0.0051   -0.0078    0.0140
          25   -0.0537    0.0792    0.0281    0.0093    0.0057   -0.0381   -0.0927   -0.0127
          26   -0.0327    0.0348    0.0851    0.0325   -0.0598    0.0909    0.0591    0.0163
          27   -0.0550    0.0535    0.0716    0.0272   -0.0493    0.0376    0.0096    0.0040
          28   -0.0525    0.0743    0.0425    0.0142   -0.0159   -0.0226   -0.0735   -0.0054
          29    0.1175   -0.0337   -0.0255    0.0406   -0.0649    0.0537   -0.0052   -0.0164
          30    0.0452   -0.0028    0.0125    0.0300   -0.0478    0.0319   -0.0329   -0.0201
          31    0.0523   -0.0219   -0.1186    0.0162   -0.0366   -0.0450    0.0429   -0.0319
          32   -0.0076   -0.0125    0.0100   -0.0142    0.0196   -0.0360   -0.0044   -0.0362
          33   -0.1138    0.0158    0.0687   -0.0432    0.0655   -0.0832   -0.0340   -0.0643
          34    0.0048   -0.0186    0.0664   -0.0092    0.0739    0.1212   -0.0146   -0.1144
          35   -0.0065   -0.0003    0.0029    0.0214    0.0015    0.0088    0.0173   -0.0146
          36    0.0149   -0.0049    0.0102   -0.0421    0.0371    0.0461   -0.0405   -0.0377
          37    0.0366   -0.0180    0.0151   -0.0920   -0.0268   -0.0834   -0.0666    0.1468
          38   -0.0116    0.0018    0.0037    0.0323    0.0209    0.0460    0.0192   -0.0688
          39    0.0217   -0.0074   -0.0006   -0.0597    0.0069   -0.0142   -0.0499    0.0406
          40   -0.0200   -0.0185    0.1028    0.1130   -0.0522   -0.0163    0.1378    0.0339
          41    0.0016    0.0010   -0.0084   -0.0081    0.0263    0.0346   -0.0173   -0.0446
          42    0.0036   -0.0047    0.0182    0.0066   -0.0028    0.0035    0.0140    0.0001
          43    0.0701    0.0236    0.0473    0.0381   -0.0134   -0.0165   -0.0441    0.0056
          44    0.1266    0.0791    0.0294    0.0867   -0.0256   -0.0147   -0.0555    0.0568
          45   -0.1180   -0.1161   -0.0251   -0.1021   -0.0305   -0.0327    0.1217    0.0059
          46    0.0115    0.0618   -0.0175   -0.0660   -0.0485    0.0089    0.0013   -0.0560
          47    0.0424    0.0570   -0.0023   -0.0912   -0.0776    0.0118   -0.0020   -0.0683
          48   -0.0283   -0.1224   -0.0216    0.1622    0.0985   -0.0884   -0.0251   -0.0249
          49    0.0194    0.0967   -0.0489   -0.0106    0.0424   -0.0315    0.0236   -0.1052
          50    0.0432    0.1299    0.0304   -0.0326    0.0639   -0.0484    0.1113    0.0458
          51   -0.0915   -0.1143   -0.0655    0.0509   -0.0760    0.0760   -0.0990    0.0359


   Root No.      17        18        19        20        21        22        23        24

                17 A      18 A      19 A      20 A      21 A      22 A      23 A      24 A   

                1007.7    1044.1    1076.6    1090.0    1111.5    1125.4    1158.6    1224.9
  
           1    0.0275   -0.0065   -0.0104   -0.0219    0.0210    0.0153    0.0057   -0.0010
           2    0.0004   -0.0094    0.0115   -0.0049    0.0201   -0.0105    0.0062   -0.0022
           3    0.0101    0.0172   -0.0074    0.0159   -0.0200   -0.0014   -0.0017    0.0001
           4   -0.0156    0.0079    0.0136    0.0074   -0.0230   -0.0155   -0.0089    0.0191
           5    0.0231    0.0134    0.0060    0.0011   -0.0163   -0.0018    0.0034   -0.0017
           6    0.0225   -0.0244    0.0024    0.0036    0.0282   -0.0090    0.0033    0.0022
           7   -0.0021   -0.0092    0.0105    0.0001   -0.0002   -0.0015   -0.0021    0.0083
           8    0.0170   -0.0095   -0.0023   -0.0109   -0.0020   -0.0009    0.0033    0.0020
           9    0.0196    0.0172   -0.0101    0.0081    0.0031   -0.0024    0.0014    0.0048
          10   -0.0040    0.0130   -0.0139    0.0045    0.0008   -0.0058    0.0023   -0.0218
          11    0.0039    0.0164   -0.0046    0.0160    0.0067    0.0078   -0.0085   -0.0092
          12   -0.0111   -0.0273    0.0175   -0.0194   -0.0065    0.0041   -0.0050   -0.0146
          13   -0.0324   -0.0024   -0.0270   -0.0141   -0.0010   -0.0010   -0.0013    0.0050
          14   -0.0072   -0.0223   -0.0048    0.0113    0.0014    0.0056    0.0048    0.0155
          15   -0.0227    0.0317   -0.0002   -0.0155   -0.0006    0.0056    0.0051    0.0185
          16    0.0021   -0.0086    0.0218    0.0145    0.0031    0.0129    0.0023   -0.0251
          17   -0.0169   -0.0109   -0.0170   -0.0201   -0.0081   -0.0007   -0.0027   -0.0045
          18   -0.0001    0.0196   -0.0073    0.0027   -0.0003    0.0056   -0.0030   -0.0147
          19   -0.0003    0.0090   -0.0080   -0.0097   -0.0039   -0.0088   -0.0008   -0.0084
          20   -0.0063    0.0156   -0.0067   -0.0053   -0.0029    0.0042   -0.0013    0.0161
          21   -0.0125   -0.0180   -0.0163   -0.0110   -0.0047   -0.0032   -0.0022    0.0069
          22    0.1497   -0.0003    0.0088   -0.1129   -0.1258    0.1408    0.0216   -0.0606
          23   -0.0448    0.0509   -0.0233    0.0904    0.0530   -0.0924   -0.0133    0.0385
          24   -0.0220   -0.0026   -0.0039    0.0253    0.0253   -0.0276   -0.0037    0.0105
          25    0.0250   -0.0499   -0.1041    0.0634    0.2470    0.0285    0.0554   -0.0328
          26   -0.0120   -0.0315    0.0963   -0.0794   -0.0769   -0.0375   -0.0263    0.0147
          27   -0.0066   -0.0354    0.0357   -0.0223   -0.0048   -0.0231   -0.0097    0.0014
          28    0.0219   -0.0533   -0.0497    0.1841   -0.2006   -0.0397   -0.0903   -0.0283
          29    0.0391   -0.0865    0.0047    0.0733   -0.0049   -0.0404   -0.0320   -0.0405
          30    0.0430   -0.0863   -0.0231    0.1035   -0.0380   -0.0349   -0.0423   -0.0332
          31    0.0104    0.0333    0.1706   -0.0204    0.1128   -0.1333   -0.1169   -0.0292
          32    0.0358    0.0292    0.0722   -0.0082    0.0317   -0.0505   -0.0384   -0.0263
          33    0.0659    0.0592    0.0914   -0.0036    0.0267   -0.0671   -0.0508   -0.0572
          34   -0.1049   -0.0030    0.0398    0.0273    0.0044    0.0137   -0.0189    0.0292
          35    0.0037    0.0156   -0.0093    0.0072    0.0042   -0.0009    0.0002    0.0035
          36   -0.0553   -0.0293    0.0301   -0.0060   -0.0062    0.0099   -0.0082    0.0133
          37    0.0473   -0.0756    0.0351   -0.0381   -0.0079    0.0001    0.0036    0.0563
          38   -0.0315    0.0242   -0.0111    0.0106    0.0017   -0.0015   -0.0026   -0.0268
          39   -0.0095   -0.0456    0.0239   -0.0227   -0.0071   -0.0006   -0.0018    0.0233
          40    0.1044    0.0970   -0.0444    0.0536    0.0211   -0.0067    0.0036    0.0620
          41   -0.0402   -0.0065    0.0046   -0.0027   -0.0013   -0.0010   -0.0038   -0.0116
          42    0.0087    0.0111   -0.0057    0.0055    0.0017   -0.0016    0.0002    0.0034
          43   -0.0339    0.0431   -0.0188   -0.0305   -0.0076   -0.0025   -0.0060    0.0115
          44   -0.0624    0.0803    0.1056    0.0600   -0.0264    0.0524    0.2161   -0.1061
          45   -0.0611   -0.0506    0.0521    0.0761   -0.0009    0.0374    0.1790   -0.0929
          46    0.0243    0.0186    0.1164    0.1112    0.0458    0.1878   -0.0401    0.1474
          47    0.0033    0.0330   -0.0009    0.0108    0.0063    0.0455   -0.0158    0.0386
          48   -0.0305   -0.0632    0.0657    0.0392    0.0142    0.1067   -0.0263    0.0887
          49    0.0525   -0.0506    0.0069   -0.0084   -0.0502   -0.1362    0.2214    0.1301
          50   -0.0601   -0.0279   -0.0267   -0.0101    0.0249    0.0829   -0.1456   -0.0745
          51   -0.0018    0.0530   -0.0095   -0.0085   -0.0011    0.0083   -0.0124    0.0022


   Root No.      25        26        27        28        29        30        31        32

                25 A      26 A      27 A      28 A      29 A      30 A      31 A      32 A   

                1242.8    1346.2    1361.2    1386.3    1394.9    1400.0    1404.5    1444.7
  
           1    0.0394   -0.0215   -0.0222    0.0019   -0.0001   -0.0398   -0.0094   -0.0114
           2   -0.0198    0.0160    0.0025   -0.0190    0.0048   -0.0242    0.0227   -0.0012
           3   -0.0074    0.0008    0.0016   -0.0083    0.0022   -0.0101    0.0087   -0.0030
           4   -0.0082    0.0408   -0.0234   -0.0028   -0.0026    0.0477   -0.0038    0.0352
           5    0.0131    0.0167   -0.0028    0.0205   -0.0034   -0.0030   -0.0172    0.0308
           6    0.0072    0.0269   -0.0025    0.0242   -0.0040   -0.0019   -0.0196    0.0401
           7   -0.0176    0.0120    0.0166   -0.0231    0.0152    0.0021    0.0211    0.0369
           8    0.0121   -0.0026    0.0034   -0.0129    0.0214   -0.0045   -0.0193   -0.0047
           9   -0.0000    0.0039    0.0102   -0.0210   -0.0294   -0.0026   -0.0021    0.0121
          10    0.0424    0.0123    0.0115    0.0072    0.0031   -0.0007    0.0070   -0.0238
          11   -0.0274    0.0103   -0.0110    0.0066   -0.0027    0.0100   -0.0095   -0.0141
          12    0.0051    0.0102   -0.0018    0.0064   -0.0017    0.0035   -0.0021   -0.0191
          13   -0.0036   -0.0177    0.0102   -0.0078    0.0021   -0.0085    0.0084   -0.0229
          14    0.0033    0.0087    0.0064    0.0009    0.0010    0.0023    0.0051   -0.0367
          15   -0.0001    0.0006    0.0099   -0.0036    0.0019   -0.0004    0.0091   -0.0430
          16    0.0069    0.0302   -0.0043    0.0169   -0.0021    0.0121   -0.0080   -0.0506
          17    0.0040   -0.0134   -0.0017    0.0002   -0.0004   -0.0018   -0.0046    0.0177
          18    0.0051    0.0055   -0.0028    0.0075   -0.0014    0.0047   -0.0063   -0.0112
          19   -0.0125   -0.0265   -0.0079   -0.0065   -0.0009   -0.0080   -0.0052    0.0639
          20   -0.0055   -0.0036    0.0034   -0.0066    0.0013    0.0003    0.0063   -0.0093
          21   -0.0099   -0.0164   -0.0009   -0.0084    0.0005   -0.0042    0.0026    0.0226
          22   -0.1264   -0.0320    0.1048    0.0008   -0.0043    0.1110    0.0229   -0.0367
          23    0.1036   -0.1063    0.0769    0.0587   -0.0068    0.1376   -0.0574    0.0234
          24    0.0220    0.0297   -0.0541   -0.0223    0.0054   -0.0904    0.0139    0.0010
          25   -0.0985   -0.0137    0.0800    0.0097   -0.0004    0.1152    0.0058   -0.0012
          26    0.0914   -0.0639    0.0420    0.0392   -0.0083    0.0626   -0.0350    0.0080
          27    0.0425   -0.0759    0.0900    0.0554   -0.0118    0.1506   -0.0430    0.0115
          28   -0.0366   -0.0385    0.0814    0.0399    0.0019   -0.1183   -0.0066   -0.0270
          29    0.0284   -0.0690   -0.0984   -0.1275    0.0110    0.1147    0.0655   -0.0562
          30    0.0048   -0.0424   -0.0081   -0.0281    0.0043   -0.0082    0.0173   -0.0234
          31   -0.0823   -0.0352    0.1047    0.0332    0.0048   -0.1272    0.0063   -0.0281
          32   -0.0081   -0.0247    0.0247    0.0081    0.0015   -0.0426   -0.0002   -0.0047
          33    0.0236   -0.0888   -0.0907   -0.1307    0.0119    0.1074    0.0681   -0.0618
          34   -0.1268   -0.0400   -0.0630   -0.0091   -0.1479   -0.0015   -0.1467   -0.0832
          35   -0.0032   -0.0101   -0.0078   -0.0119   -0.2092   -0.0081   -0.0250   -0.0230
          36   -0.0636   -0.0227   -0.0370    0.0080    0.2949    0.0052   -0.1017   -0.0442
          37   -0.0529   -0.0619   -0.0522    0.0268   -0.1456   -0.0124   -0.0571   -0.0399
          38    0.0189    0.0262    0.0178    0.0314    0.1635    0.0131    0.0877    0.0434
          39   -0.0442   -0.0605   -0.0805    0.1881    0.1037    0.0157    0.1272   -0.0037
          40   -0.0765   -0.0861   -0.0914    0.1194    0.1001    0.0022   -0.0183   -0.0459
          41   -0.0051   -0.0172   -0.0357    0.1410   -0.2110    0.0132    0.1812    0.0237
          42   -0.0046    0.0006    0.0029    0.0008   -0.0351   -0.0001    0.0195    0.0133
          43   -0.0053   -0.0163    0.0106   -0.0094    0.0023   -0.0066    0.0101   -0.0262
          44   -0.0039   -0.0615   -0.0104   -0.0006   -0.0020   -0.0303   -0.0137    0.0742
          45   -0.0044   -0.0645   -0.0021   -0.0044   -0.0002   -0.0326   -0.0074    0.0527
          46    0.0651   -0.0301    0.0300   -0.0275    0.0089   -0.0168    0.0381    0.0305
          47    0.0188   -0.0308    0.0064   -0.0114    0.0016   -0.0094    0.0059    0.0410
          48    0.0360   -0.0320    0.0172   -0.0192    0.0062   -0.0118    0.0203    0.0400
          49   -0.0184    0.0019    0.0262   -0.0169    0.0049   -0.0050    0.0251   -0.0674
          50   -0.0012   -0.0249   -0.0187   -0.0015   -0.0026   -0.0018   -0.0126    0.0786
          51   -0.0114   -0.0200   -0.0023   -0.0090    0.0005   -0.0053    0.0015    0.0315


   Root No.      33        34        35        36        37        38        39        40

                33 A      34 A      35 A      36 A      37 A      38 A      39 A      40 A   

                1479.4    1848.2    1873.2    2934.5    2947.5    3021.1    3028.0    3054.6
  
           1   -0.0607   -0.0019    0.0008   -0.0018    0.0012   -0.0151   -0.0080    0.0006
           2    0.0634   -0.0011   -0.0205   -0.0116    0.0095   -0.0196   -0.0110    0.0009
           3    0.0180   -0.0000   -0.0116    0.0308   -0.0266   -0.0101   -0.0065    0.0006
           4    0.0249   -0.0045    0.0028    0.0019    0.0019   -0.0091    0.0141   -0.0009
           5    0.0010   -0.0205    0.0109    0.0212    0.0249    0.0095   -0.0170    0.0012
           6    0.0065   -0.0206    0.0095   -0.0186   -0.0213    0.0087   -0.0137    0.0005
           7   -0.0712   -0.0080   -0.0262   -0.0001    0.0001    0.0001    0.0001    0.0001
           8    0.0217    0.0007   -0.0018   -0.0000    0.0000    0.0002    0.0001   -0.0009
           9   -0.0167   -0.0028   -0.0115    0.0001   -0.0001   -0.0001   -0.0001   -0.0008
          10    0.0888    0.0389    0.1138    0.0002    0.0001    0.0002   -0.0002    0.0009
          11   -0.0837    0.0334    0.1286   -0.0003    0.0001   -0.0005   -0.0002    0.0010
          12   -0.0099    0.0345    0.1209   -0.0001   -0.0000   -0.0002   -0.0002    0.0010
          13   -0.0045   -0.0830    0.0214    0.0003    0.0005    0.0015   -0.0037   -0.0188
          14   -0.0122    0.1649   -0.0527   -0.0004   -0.0002   -0.0001    0.0007    0.0038
          15   -0.0120    0.1060   -0.0354   -0.0001   -0.0001    0.0006   -0.0011   -0.0055
          16   -0.0195   -0.0697   -0.1154    0.0001   -0.0000    0.0004    0.0004    0.0093
          17    0.0189   -0.0156   -0.1036   -0.0000    0.0000   -0.0004   -0.0004   -0.0224
          18    0.0030   -0.0370   -0.1093    0.0002   -0.0001   -0.0001   -0.0001   -0.0089
          19    0.0094    0.1452   -0.0145   -0.0001   -0.0001    0.0000    0.0000    0.0108
          20   -0.0008   -0.1535    0.0462    0.0002    0.0001    0.0000    0.0002    0.0158
          21    0.0047   -0.0637    0.0318   -0.0001   -0.0001    0.0000    0.0002    0.0190
          22    0.0659    0.0219    0.0194   -0.0747    0.0685    0.0956    0.0590   -0.0035
          23   -0.0637   -0.0171   -0.0385   -0.0571    0.0511    0.0603    0.0351   -0.0021
          24    0.0025   -0.0039   -0.0094   -0.1980    0.1767    0.2968    0.1743   -0.0105
          25    0.0582    0.0052    0.0091    0.0963   -0.0844    0.0820    0.0457   -0.0026
          26   -0.0397   -0.0045   -0.0058    0.2007   -0.1663    0.1771    0.0971   -0.0054
          27   -0.0270   -0.0029    0.0030   -0.1718    0.1416   -0.1761   -0.0976    0.0056
          28   -0.0139   -0.0058   -0.0005   -0.0842   -0.1003    0.0478   -0.0769    0.0031
          29    0.0093   -0.0002   -0.0042   -0.0824   -0.0922    0.0614   -0.0990    0.0050
          30   -0.0047   -0.0066    0.0009    0.2168    0.2443   -0.1318    0.2095   -0.0107
          31    0.0189   -0.0195   -0.0077    0.0619    0.0767    0.0548   -0.0989    0.0059
          32    0.0012   -0.0236    0.0060   -0.1704   -0.2055   -0.1758    0.3011   -0.0215
          33    0.0067   -0.0296    0.0047    0.0109    0.0129    0.0257   -0.0446    0.0018
          34    0.0427    0.0119    0.0408   -0.0004    0.0004    0.0010    0.0005   -0.0046
          35    0.0347    0.0053    0.0124    0.0007   -0.0007   -0.0021   -0.0011    0.0089
          36    0.0323    0.0077    0.0241    0.0003   -0.0004   -0.0011   -0.0006    0.0040
          37    0.0869   -0.0051   -0.0252    0.0004   -0.0003   -0.0012   -0.0007    0.0016
          38   -0.0771    0.0009    0.0049    0.0003   -0.0003   -0.0021   -0.0013    0.0019
          39    0.0251   -0.0043   -0.0104   -0.0000    0.0000    0.0005    0.0003   -0.0012
          40    0.0949   -0.0052   -0.0194   -0.0003    0.0002    0.0003    0.0002    0.0000
          41   -0.0342   -0.0004    0.0037    0.0003   -0.0002   -0.0003   -0.0002   -0.0009
          42   -0.0204   -0.0008   -0.0059   -0.0004    0.0002    0.0020    0.0014    0.0049
          43   -0.0042   -0.1081    0.0298   -0.0046   -0.0044   -0.0146    0.0423    0.2238
          44    0.0026   -0.0070    0.0138    0.0019    0.0024    0.0039   -0.0101   -0.0462
          45    0.0007   -0.0636    0.0280   -0.0014   -0.0014   -0.0031    0.0105    0.0647
          46    0.0677   -0.0233    0.0953    0.0002    0.0000   -0.0041   -0.0030   -0.1172
          47    0.0416   -0.0124   -0.0783   -0.0010    0.0005    0.0088    0.0065    0.2516
          48    0.0552   -0.0156   -0.0015    0.0000   -0.0001    0.0035    0.0025    0.0945
          49   -0.0278   -0.0752    0.0657    0.0001    0.0004   -0.0007   -0.0005   -0.1302
          50    0.0261   -0.0402    0.0022    0.0001    0.0004   -0.0014    0.0000   -0.1845
          51    0.0054   -0.0750    0.0339   -0.0005   -0.0001   -0.0015   -0.0003   -0.2243


   Root No.      41        42        43        44        45

                41 A      42 A      43 A      44 A      45 A   

                3060.4    3066.7    3076.0    3077.5    3167.0
  
           1    0.0001    0.0002   -0.0003    0.0005    0.0001
           2    0.0003    0.0002    0.0001    0.0005   -0.0000
           3    0.0001    0.0001   -0.0001    0.0005    0.0001
           4    0.0011   -0.0000   -0.0002   -0.0012    0.0000
           5   -0.0015    0.0000    0.0004    0.0018   -0.0000
           6   -0.0008    0.0000    0.0002    0.0010    0.0000
           7    0.0002    0.0189   -0.0005    0.0000   -0.0234
           8   -0.0015    0.0243   -0.0385    0.0065    0.0055
           9   -0.0017   -0.0456   -0.0207    0.0036   -0.0063
          10    0.0016   -0.0001   -0.0002    0.0009   -0.0004
          11    0.0016   -0.0000   -0.0003    0.0005    0.0000
          12    0.0016   -0.0002   -0.0003    0.0007   -0.0002
          13    0.0250   -0.0004   -0.0055   -0.0247    0.0000
          14   -0.0060    0.0001    0.0017    0.0080   -0.0000
          15    0.0065   -0.0001   -0.0011   -0.0046   -0.0000
          16    0.0126   -0.0002    0.0007    0.0045    0.0003
          17   -0.0300    0.0009   -0.0000   -0.0097   -0.0002
          18   -0.0119    0.0002    0.0003   -0.0037    0.0000
          19   -0.0057    0.0000   -0.0020   -0.0097   -0.0001
          20   -0.0054   -0.0000   -0.0039   -0.0189    0.0000
          21   -0.0074   -0.0001   -0.0044   -0.0212   -0.0000
          22   -0.0009   -0.0016   -0.0000   -0.0021   -0.0009
          23   -0.0006   -0.0002    0.0009   -0.0015   -0.0001
          24   -0.0025   -0.0039    0.0018   -0.0066   -0.0016
          25   -0.0006   -0.0003   -0.0001   -0.0012   -0.0003
          26   -0.0014   -0.0014    0.0005   -0.0027   -0.0004
          27    0.0015    0.0014   -0.0004    0.0028    0.0004
          28   -0.0040    0.0001    0.0009    0.0040   -0.0000
          29   -0.0063    0.0001    0.0014    0.0062   -0.0000
          30    0.0135   -0.0002   -0.0028   -0.0128    0.0000
          31   -0.0070    0.0002    0.0016    0.0070    0.0000
          32    0.0260   -0.0007   -0.0057   -0.0252    0.0000
          33   -0.0021    0.0001    0.0005    0.0021    0.0000
          34   -0.0083   -0.0085   -0.1427    0.0239    0.1124
          35    0.0169    0.0549    0.3162   -0.0537   -0.2864
          36    0.0076   -0.0018    0.1565   -0.0266   -0.1463
          37    0.0022   -0.2359    0.1484   -0.0253    0.1749
          38    0.0023   -0.3132    0.1784   -0.0304    0.2477
          39   -0.0019    0.0884   -0.0788    0.0135   -0.0877
          40    0.0002    0.0176    0.0022   -0.0004   -0.0054
          41   -0.0020   -0.0343   -0.0371    0.0065   -0.0282
          42    0.0126    0.4606    0.1690   -0.0303    0.3092
          43   -0.2943    0.0051    0.0599    0.2666   -0.0002
          44    0.0620   -0.0011   -0.0130   -0.0580    0.0000
          45   -0.0838    0.0015    0.0168    0.0744   -0.0000
          46   -0.1599    0.0039    0.0001   -0.0518   -0.0022
          47    0.3368   -0.0086    0.0011    0.1054    0.0035
          48    0.1251   -0.0027    0.0006    0.0383    0.0011
          49    0.0571    0.0002    0.0271    0.1325    0.0001
          50    0.0736    0.0004    0.0388    0.1882    0.0001
          51    0.0922    0.0005    0.0470    0.2288    0.0001


           MASS-WEIGHTED COORDINATE ANALYSIS (NORMAL COORDINATES)


   Root No.       1         2         3         4         5         6         7         8

                 1 A       2 A       3 A       4 A       5 A       6 A       7 A       8 A   

                 123.6     131.1     194.3     364.1     402.8     482.2     513.6     543.2
  
           1   -0.0571   -0.0187   -0.0370    0.0984   -0.0762    0.1384    0.0157    0.3102
           2   -0.1976    0.0162   -0.0229   -0.2948   -0.0724    0.1281    0.1987    0.1488
           3    0.4451   -0.0410   -0.0072   -0.0507   -0.1132    0.0972    0.1073    0.1150
           4   -0.0637   -0.0173   -0.0316    0.1586   -0.1002    0.1415    0.1156    0.3330
           5    0.2158   -0.1374   -0.1764    0.0408    0.1155   -0.0490    0.1302   -0.2362
           6   -0.2344    0.1288    0.1250    0.0503   -0.0198    0.0022    0.1480   -0.2315
           7    0.1296   -0.0066    0.1090   -0.0403    0.1242   -0.1804   -0.4114    0.0128
           8    0.0959   -0.0011    0.1677    0.4607   -0.0180    0.0677    0.0317    0.0685
           9   -0.2822    0.0192   -0.2253    0.2377   -0.0863   -0.0312   -0.1633    0.0463
          10   -0.0257   -0.0076   -0.0488   -0.0603   -0.0638   -0.0220   -0.4185   -0.1044
          11   -0.0568   -0.0065   -0.0813   -0.3271   -0.2286    0.2167   -0.0244   -0.0331
          12    0.0938    0.0258    0.1332   -0.1268    0.3547   -0.3317    0.1776    0.3432
          13    0.0155    0.0156    0.1118    0.0330   -0.1232    0.0556    0.4513   -0.1652
          14    0.0289    0.0395    0.2749    0.1066   -0.1698   -0.2100   -0.0565   -0.1339
          15   -0.1172   -0.0335   -0.3202    0.0848    0.2257    0.1534    0.0657   -0.0965
          16   -0.0045   -0.0057   -0.1629   -0.0902    0.0012   -0.1633    0.0955   -0.2157
          17   -0.0336    0.0082   -0.2359   -0.2182   -0.0510   -0.1795   -0.1363    0.2995
          18    0.0553    0.0055    0.3986   -0.2214    0.1132    0.2326   -0.1525    0.0395
          19   -0.0179    0.0389    0.0201   -0.1253    0.1932    0.0641    0.1428   -0.2549
          20   -0.0990    0.0886    0.0500    0.0589    0.3182    0.0521   -0.2070   -0.1035
          21    0.0835   -0.0969   -0.0299   -0.0401   -0.2710   -0.2923   -0.0701   -0.2187
          22   -0.1339    0.0182    0.0118    0.0561    0.0200   -0.0053    0.0749    0.0224
          23   -0.2329    0.0500    0.0369   -0.1099    0.1376   -0.1853    0.1288    0.0906
          24    0.2193   -0.0327   -0.0223   -0.0162   -0.0929    0.1084   -0.0141    0.0475
          25    0.1290   -0.0496   -0.0487    0.0691   -0.0389    0.0834    0.0076    0.1601
          26    0.0213   -0.0087   -0.0252   -0.1032   -0.1375    0.1853   -0.0179    0.0067
          27    0.3027   -0.0522   -0.0449   -0.0140   -0.1813    0.2312   -0.0583    0.0304
          28   -0.1691    0.0358    0.0256    0.0298   -0.0510    0.0516    0.0294    0.1592
          29    0.2046   -0.1235   -0.2345    0.0556    0.2267    0.0623    0.0371   -0.1667
          30   -0.0736    0.0217   -0.0194    0.0247    0.0556    0.0331    0.0410   -0.0772
          31    0.0801   -0.0403   -0.0493    0.1115    0.0240    0.0137   -0.0191    0.0429
          32    0.0845   -0.0451   -0.0503    0.0342    0.0385   -0.0313    0.0169   -0.0838
          33   -0.2246    0.1228    0.2211   -0.0019   -0.1919   -0.0918    0.0141    0.0103
          34   -0.0077   -0.1829    0.0832    0.1800    0.0455   -0.0528   -0.1324    0.0143
          35   -0.0204   -0.2806    0.1287    0.1763    0.0391   -0.0027    0.0279    0.0513
          36   -0.0249    0.4152   -0.1822    0.1706   -0.1089    0.0382   -0.1004   -0.0389
          37    0.0049    0.0875   -0.0604   -0.1440   -0.0602    0.0057   -0.1740   -0.0731
          38   -0.0018   -0.2338    0.1342    0.2382    0.0503   -0.0098    0.0339    0.0637
          39   -0.2499   -0.4845   -0.0292    0.0581   -0.0931    0.0443   -0.1056   -0.0463
          40    0.1609    0.1061    0.1134   -0.0758    0.1901   -0.1579   -0.0206    0.1207
          41    0.1506    0.5368   -0.0514    0.2355   -0.0290    0.0249   -0.0038    0.0183
          42   -0.0751    0.0540   -0.0793    0.0834   -0.0362   -0.0025   -0.0547    0.0071
          43    0.0101    0.0135    0.1007    0.0095   -0.0802   -0.0060    0.1402   -0.0925
          44    0.0036    0.0318    0.2070    0.0666   -0.1515   -0.0771    0.0009   -0.0427
          45   -0.0605   -0.0249   -0.2350    0.0507    0.1436    0.1096   -0.0038    0.1317
          46    0.0219   -0.0122   -0.0868   -0.0522   -0.0336   -0.1369    0.1445   -0.0108
          47    0.0155   -0.0079   -0.1183   -0.0543   -0.0326   -0.1965    0.0406    0.1287
          48   -0.0236    0.0159    0.2004   -0.1149    0.0388    0.3423   -0.1104   -0.0388
          49   -0.0140    0.0286    0.0468   -0.0937    0.1387    0.0876   -0.0197   -0.0522
          50   -0.0649    0.0554    0.0555    0.0581    0.2246    0.1402   -0.0446   -0.1007
          51    0.0587   -0.0624   -0.0658   -0.0126   -0.2356   -0.2262    0.0037   -0.0163


   Root No.       9        10        11        12        13        14        15        16

                 9 A      10 A      11 A      12 A      13 A      14 A      15 A      16 A   

                 736.0     787.2     842.7     891.8     942.6     955.4     982.1     996.6
  
           1    0.0316    0.0857   -0.0857    0.0206    0.1479    0.1936   -0.0369   -0.0209
           2   -0.0333    0.0774    0.2419    0.0057    0.1059    0.3705    0.0651    0.1927
           3    0.1347   -0.1564   -0.1476   -0.1376    0.3900    0.1133    0.0099    0.1556
           4    0.0211    0.0582   -0.1757    0.0211   -0.0850   -0.1088    0.0712    0.0671
           5   -0.1516   -0.0303    0.3104   -0.1401    0.2207   -0.1552   -0.1444   -0.1619
           6    0.1815   -0.1615    0.0682    0.0470   -0.1112    0.1105   -0.0308   -0.1350
           7    0.1002   -0.1321    0.3308   -0.1255    0.0357    0.0455   -0.0449    0.1388
           8    0.0232    0.0096   -0.0985   -0.0706   -0.0884   -0.2077   -0.0746    0.2374
           9    0.0150   -0.0406    0.1608    0.1329   -0.0861   -0.0329    0.2167    0.0673
          10    0.0803   -0.0668    0.0203   -0.0314    0.0189    0.0145    0.0323   -0.0942
          11    0.1060   -0.0326   -0.1289   -0.0112   -0.0671   -0.1175    0.0764   -0.0642
          12   -0.0588    0.0456    0.0468    0.0663   -0.0638   -0.0720   -0.1264    0.0418
          13    0.0605   -0.2789    0.2153   -0.1202   -0.1550   -0.1640    0.1123   -0.0512
          14   -0.1161   -0.0870   -0.1027   -0.0592   -0.0631    0.0289    0.2081    0.0234
          15    0.0225    0.1228    0.1326    0.0783   -0.0212   -0.1083   -0.1588    0.0833
          16   -0.1530    0.1062   -0.1256    0.1846    0.1131   -0.0129    0.0341    0.1134
          17    0.1535   -0.1205   -0.0329    0.2024   -0.0090   -0.2498   -0.0773   -0.3223
          18    0.0443    0.0531   -0.1075   -0.3007   -0.2604    0.0405   -0.0413   -0.1918
          19   -0.2324    0.0733   -0.2229    0.0457   -0.0547    0.0956   -0.1201   -0.0175
          20   -0.2436    0.0376   -0.2348    0.0575   -0.1217    0.1843   -0.1479    0.1297
          21   -0.0738    0.3403   -0.2127    0.0893    0.1511   -0.0367    0.2444    0.0143
          22    0.1340   -0.1089   -0.1191   -0.0176    0.1194    0.1131    0.0687   -0.1005
          23    0.1776   -0.1350   -0.1306   -0.1267    0.3355    0.1093   -0.0071    0.2221
          24   -0.0613    0.0511    0.0481    0.0049    0.0013    0.0137   -0.0212    0.0369
          25   -0.1430    0.1968    0.0645    0.0250    0.0153   -0.1030   -0.2529   -0.0335
          26   -0.0869    0.0863    0.1954    0.0868   -0.1604    0.2455    0.1612    0.0430
          27   -0.1464    0.1328    0.1644    0.0728   -0.1323    0.1016    0.0263    0.0106
          28   -0.1397    0.1845    0.0976    0.0379   -0.0428   -0.0610   -0.2005   -0.0143
          29    0.3126   -0.0837   -0.0585    0.1086   -0.1741    0.1451   -0.0142   -0.0431
          30    0.1203   -0.0069    0.0287    0.0801   -0.1281    0.0862   -0.0897   -0.0530
          31    0.1391   -0.0543   -0.2725    0.0433   -0.0982   -0.1213    0.1171   -0.0842
          32   -0.0202   -0.0311    0.0230   -0.0379    0.0525   -0.0971   -0.0120   -0.0954
          33   -0.3028    0.0392    0.1577   -0.1156    0.1758   -0.2246   -0.0927   -0.1694
          34    0.0128   -0.0463    0.1526   -0.0245    0.1981    0.3273   -0.0399   -0.3015
          35   -0.0174   -0.0006    0.0066    0.0572    0.0040    0.0239    0.0471   -0.0385
          36    0.0398   -0.0122    0.0235   -0.1124    0.0994    0.1244   -0.1106   -0.0994
          37    0.0974   -0.0447    0.0347   -0.2459   -0.0719   -0.2251   -0.1819    0.3869
          38   -0.0308    0.0044    0.0086    0.0862    0.0560    0.1241    0.0524   -0.1813
          39    0.0579   -0.0184   -0.0014   -0.1595    0.0186   -0.0384   -0.1362    0.1071
          40   -0.0532   -0.0460    0.2362    0.3019   -0.1401   -0.0439    0.3760    0.0893
          41    0.0044    0.0025   -0.0193   -0.0217    0.0706    0.0933   -0.0473   -0.1175
          42    0.0095   -0.0116    0.0417    0.0177   -0.0075    0.0094    0.0383    0.0004
          43    0.1866    0.0585    0.1087    0.1018   -0.0360   -0.0446   -0.1203    0.0147
          44    0.3369    0.1965    0.0674    0.2316   -0.0688   -0.0397   -0.1515    0.1498
          45   -0.3141   -0.2883   -0.0577   -0.2728   -0.0818   -0.0883    0.3322    0.0155
          46    0.0307    0.1536   -0.0402   -0.1763   -0.1300    0.0241    0.0034   -0.1477
          47    0.1129    0.1417   -0.0054   -0.2437   -0.2082    0.0319   -0.0054   -0.1799
          48   -0.0753   -0.3039   -0.0496    0.4334    0.2642   -0.2387   -0.0686   -0.0656
          49    0.0517    0.2400   -0.1124   -0.0283    0.1138   -0.0850    0.0645   -0.2771
          50    0.1150    0.3226    0.0698   -0.0870    0.1713   -0.1305    0.3036    0.1208
          51   -0.2435   -0.2837   -0.1505    0.1361   -0.2039    0.2050   -0.2702    0.0947


   Root No.      17        18        19        20        21        22        23        24

                17 A      18 A      19 A      20 A      21 A      22 A      23 A      24 A   

                1007.7    1044.1    1076.6    1090.0    1111.5    1125.4    1158.6    1224.9
  
           1    0.2511   -0.0600   -0.0945   -0.1949    0.1684    0.1349    0.0454   -0.0089
           2    0.0039   -0.0870    0.1041   -0.0433    0.1611   -0.0922    0.0488   -0.0204
           3    0.0920    0.1587   -0.0672    0.1416   -0.1605   -0.0120   -0.0131    0.0013
           4   -0.1429    0.0734    0.1236    0.0658   -0.1844   -0.1367   -0.0705    0.1794
           5    0.2111    0.1234    0.0546    0.0102   -0.1308   -0.0161    0.0273   -0.0158
           6    0.2062   -0.2258    0.0213    0.0319    0.2256   -0.0796    0.0263    0.0209
           7   -0.0190   -0.0848    0.0947    0.0009   -0.0018   -0.0134   -0.0167    0.0777
           8    0.1557   -0.0881   -0.0209   -0.0971   -0.0157   -0.0083    0.0259    0.0186
           9    0.1795    0.1590   -0.0915    0.0719    0.0249   -0.0209    0.0109    0.0456
          10   -0.0368    0.1206   -0.1262    0.0396    0.0061   -0.0514    0.0186   -0.2048
          11    0.0360    0.1518   -0.0413    0.1424    0.0539    0.0686   -0.0672   -0.0866
          12   -0.1013   -0.2526    0.1582   -0.1731   -0.0518    0.0364   -0.0395   -0.1373
          13   -0.2961   -0.0219   -0.2442   -0.1255   -0.0080   -0.0088   -0.0102    0.0467
          14   -0.0655   -0.2058   -0.0431    0.1011    0.0112    0.0493    0.0380    0.1457
          15   -0.2078    0.2931   -0.0022   -0.1377   -0.0050    0.0493    0.0407    0.1743
          16    0.0188   -0.0793    0.1971    0.1288    0.0249    0.1139    0.0179   -0.2363
          17   -0.1542   -0.1010   -0.1541   -0.1794   -0.0648   -0.0065   -0.0214   -0.0424
          18   -0.0010    0.1813   -0.0658    0.0241   -0.0024    0.0497   -0.0236   -0.1379
          19   -0.0027    0.0835   -0.0724   -0.0862   -0.0314   -0.0773   -0.0066   -0.0790
          20   -0.0572    0.1441   -0.0605   -0.0475   -0.0232    0.0371   -0.0104    0.1512
          21   -0.1147   -0.1666   -0.1480   -0.0983   -0.0375   -0.0283   -0.0177    0.0650
          22    0.3966   -0.0008    0.0232   -0.2913   -0.2920    0.3592    0.0497   -0.1650
          23   -0.1187    0.1362   -0.0611    0.2333    0.1229   -0.2356   -0.0306    0.1048
          24   -0.0584   -0.0071   -0.0101    0.0653    0.0587   -0.0705   -0.0084    0.0287
          25    0.0662   -0.1336   -0.2730    0.1637    0.5731    0.0728    0.1271   -0.0893
          26   -0.0319   -0.0845    0.2526   -0.2049   -0.1784   -0.0956   -0.0604    0.0399
          27   -0.0174   -0.0947    0.0938   -0.0577   -0.0112   -0.0589   -0.0222    0.0038
          28    0.0581   -0.1426   -0.1304    0.4752   -0.4654   -0.1014   -0.2072   -0.0771
          29    0.1036   -0.2317    0.0123    0.1891   -0.0115   -0.1030   -0.0735   -0.1103
          30    0.1140   -0.2310   -0.0605    0.2672   -0.0881   -0.0891   -0.0970   -0.0904
          31    0.0274    0.0892    0.4473   -0.0526    0.2619   -0.3400   -0.2684   -0.0795
          32    0.0949    0.0782    0.1895   -0.0212    0.0736   -0.1288   -0.0882   -0.0716
          33    0.1746    0.1586    0.2398   -0.0094    0.0619   -0.1712   -0.1166   -0.1558
          34   -0.2781   -0.0080    0.1043    0.0705    0.0103    0.0349   -0.0435    0.0795
          35    0.0098    0.0418   -0.0244    0.0186    0.0098   -0.0022    0.0005    0.0097
          36   -0.1464   -0.0784    0.0790   -0.0154   -0.0143    0.0253   -0.0188    0.0363
          37    0.1254   -0.2024    0.0921   -0.0982   -0.0184    0.0004    0.0082    0.1534
          38   -0.0835    0.0647   -0.0292    0.0274    0.0040   -0.0038   -0.0059   -0.0729
          39   -0.0251   -0.1220    0.0627   -0.0585   -0.0164   -0.0015   -0.0042    0.0633
          40    0.2767    0.2596   -0.1165    0.1383    0.0489   -0.0171    0.0083    0.1688
          41   -0.1064   -0.0175    0.0120   -0.0070   -0.0030   -0.0024   -0.0087   -0.0315
          42    0.0230    0.0297   -0.0149    0.0143    0.0039   -0.0041    0.0004    0.0093
          43   -0.0899    0.1155   -0.0493   -0.0787   -0.0176   -0.0063   -0.0138    0.0312
          44   -0.1654    0.2151    0.2770    0.1549   -0.0613    0.1336    0.4959   -0.2889
          45   -0.1619   -0.1356    0.1366    0.1964   -0.0022    0.0954    0.4109   -0.2529
          46    0.0643    0.0498    0.3053    0.2871    0.1062    0.4791   -0.0919    0.4012
          47    0.0087    0.0883   -0.0024    0.0279    0.0147    0.1160   -0.0363    0.1051
          48   -0.0808   -0.1692    0.1724    0.1013    0.0330    0.2723   -0.0603    0.2414
          49    0.1391   -0.1355    0.0181   -0.0218   -0.1165   -0.3474    0.5082    0.3543
          50   -0.1592   -0.0748   -0.0700   -0.0260    0.0578    0.2115   -0.3342   -0.2029
          51   -0.0046    0.1420   -0.0248   -0.0220   -0.0026    0.0211   -0.0284    0.0061


   Root No.      25        26        27        28        29        30        31        32

                25 A      26 A      27 A      28 A      29 A      30 A      31 A      32 A   

                1242.8    1346.2    1361.2    1386.3    1394.9    1400.0    1404.5    1444.7
  
           1    0.3376   -0.1934   -0.2175    0.0169   -0.0009   -0.3077   -0.0848   -0.0766
           2   -0.1695    0.1437    0.0243   -0.1654    0.0310   -0.1870    0.2062   -0.0078
           3   -0.0638    0.0068    0.0160   -0.0717    0.0142   -0.0779    0.0790   -0.0198
           4   -0.0704    0.3661   -0.2293   -0.0245   -0.0168    0.3690   -0.0345    0.2355
           5    0.1119    0.1501   -0.0276    0.1777   -0.0221   -0.0232   -0.1560    0.2058
           6    0.0615    0.2416   -0.0248    0.2102   -0.0256   -0.0145   -0.1778    0.2685
           7   -0.1506    0.1077    0.1631   -0.2002    0.0976    0.0164    0.1913    0.2470
           8    0.1040   -0.0231    0.0332   -0.1123    0.1379   -0.0346   -0.1751   -0.0315
           9   -0.0002    0.0353    0.1001   -0.1824   -0.1895   -0.0201   -0.0187    0.0809
          10    0.3635    0.1106    0.1130    0.0624    0.0200   -0.0052    0.0630   -0.1594
          11   -0.2346    0.0929   -0.1075    0.0569   -0.0171    0.0771   -0.0860   -0.0940
          12    0.0438    0.0921   -0.0173    0.0553   -0.0107    0.0274   -0.0189   -0.1276
          13   -0.0311   -0.1590    0.0996   -0.0673    0.0136   -0.0657    0.0761   -0.1532
          14    0.0284    0.0778    0.0626    0.0076    0.0065    0.0177    0.0465   -0.2457
          15   -0.0011    0.0056    0.0973   -0.0314    0.0125   -0.0033    0.0821   -0.2877
          16    0.0593    0.2717   -0.0418    0.1472   -0.0133    0.0937   -0.0724   -0.3383
          17    0.0344   -0.1208   -0.0163    0.0014   -0.0028   -0.0138   -0.0421    0.1182
          18    0.0441    0.0499   -0.0273    0.0651   -0.0090    0.0366   -0.0568   -0.0748
          19   -0.1067   -0.2384   -0.0775   -0.0560   -0.0056   -0.0621   -0.0471    0.4276
          20   -0.0469   -0.0326    0.0338   -0.0573    0.0082    0.0024    0.0573   -0.0619
          21   -0.0849   -0.1475   -0.0085   -0.0732    0.0029   -0.0327    0.0231    0.1509
          22   -0.3137   -0.0833    0.2977    0.0021   -0.0081    0.2485    0.0602   -0.0711
          23    0.2573   -0.2766    0.2185    0.1476   -0.0126    0.3081   -0.1508    0.0454
          24    0.0547    0.0774   -0.1537   -0.0562    0.0101   -0.2024    0.0365    0.0019
          25   -0.2445   -0.0357    0.2275    0.0244   -0.0007    0.2579    0.0152   -0.0023
          26    0.2269   -0.1663    0.1193    0.0986   -0.0155    0.1401   -0.0918    0.0155
          27    0.1054   -0.1974    0.2559    0.1392   -0.0219    0.3372   -0.1129    0.0223
          28   -0.0908   -0.1003    0.2314    0.1004    0.0035   -0.2647   -0.0174   -0.0524
          29    0.0705   -0.1795   -0.2796   -0.3207    0.0206    0.2569    0.1719   -0.1090
          30    0.0118   -0.1103   -0.0229   -0.0708    0.0080   -0.0183    0.0453   -0.0454
          31   -0.2043   -0.0916    0.2977    0.0834    0.0090   -0.2847    0.0167   -0.0545
          32   -0.0200   -0.0642    0.0701    0.0204    0.0028   -0.0953   -0.0006   -0.0092
          33    0.0586   -0.2310   -0.2579   -0.3286    0.0223    0.2403    0.1788   -0.1197
          34   -0.3146   -0.1041   -0.1791   -0.0228   -0.2758   -0.0034   -0.3853   -0.1613
          35   -0.0079   -0.0263   -0.0221   -0.0299   -0.3901   -0.0181   -0.0658   -0.0446
          36   -0.1578   -0.0592   -0.1051    0.0202    0.5499    0.0116   -0.2670   -0.0856
          37   -0.1314   -0.1612   -0.1483    0.0675   -0.2715   -0.0277   -0.1499   -0.0774
          38    0.0470    0.0682    0.0505    0.0790    0.3050    0.0292    0.2302    0.0841
          39   -0.1096   -0.1575   -0.2288    0.4731    0.1933    0.0352    0.3342   -0.0072
          40   -0.1897   -0.2242   -0.2598    0.3003    0.1867    0.0049   -0.0481   -0.0889
          41   -0.0126   -0.0448   -0.1013    0.3547   -0.3935    0.0296    0.4757    0.0459
          42   -0.0115    0.0016    0.0084    0.0020   -0.0655   -0.0002    0.0511    0.0259
          43   -0.0131   -0.0425    0.0300   -0.0235    0.0043   -0.0148    0.0264   -0.0508
          44   -0.0096   -0.1601   -0.0296   -0.0015   -0.0038   -0.0678   -0.0361    0.1438
          45   -0.0109   -0.1678   -0.0058   -0.0110   -0.0003   -0.0731   -0.0195    0.1022
[...]
 T-DIPOLE    0.0302         C  5 -- H 15         +14.0% ( 46.9%)      0.4%
 TRAVEL      0.1282         C  7 -- H 17         +13.2% ( 45.5%)      1.5%
 RED. MASS   0.2978         C  6 -- C  7          +8.2% ( 35.9%)     26.4%
 EFF. MASS   3.3490

 VIBRATION   25   25A         ATOM PAIR      ENERGY CONTRIBUTION    RADIAL
 FREQ.      1242.80         C  1 -- H  8         +17.9% ( 55.6%)      0.0%
 T-DIPOLE    0.0570         C  3 -- C  4         +15.2% ( 51.2%)     81.1%
 TRAVEL      0.1006         C  1 -- H  9         +14.6% ( 50.2%)      0.1%
 RED. MASS   0.7777         C  1 -- C  4         +11.3% ( 44.3%)      7.6%
 EFF. MASS   5.3589

 VIBRATION   26   26A         ATOM PAIR      ENERGY CONTRIBUTION    RADIAL
 FREQ.      1346.22         C  1 -- C  2         +12.1% ( 47.1%)     85.0%
 T-DIPOLE    0.0987         C  2 -- H 11         +11.9% ( 46.8%)      0.0%
 TRAVEL      0.0878         C  6 -- C  7         +11.3% ( 45.6%)     99.2%
 RED. MASS   0.8250         C  2 -- H 10         +11.2% ( 45.5%)      0.3%
 EFF. MASS   6.5005         C  2 -- C  5         +10.4% ( 43.7%)     52.7%

 VIBRATION   27   27A         ATOM PAIR      ENERGY CONTRIBUTION    RADIAL
 FREQ.      1361.19         C  2 -- H 11         +14.4% ( 39.6%)      1.2%
 T-DIPOLE    0.0498         C  1 -- H  8         +14.0% ( 39.0%)      1.3%
 TRAVEL      0.1346         C  2 -- H 10         +11.9% ( 35.9%)      2.1%
 RED. MASS   0.1952         C  1 -- H  9         +11.4% ( 35.2%)      2.2%
 EFF. MASS   2.7351

 VIBRATION   28   28A         ATOM PAIR      ENERGY CONTRIBUTION    RADIAL
 FREQ.      1386.31         C  3 -- H 13         +17.9% ( 46.4%)      3.7%
 T-DIPOLE    0.0272         C  3 -- H 14         +16.7% ( 44.8%)      5.0%
 TRAVEL      0.1173         C  2 -- H 10         +11.4% ( 37.0%)      4.4%
 RED. MASS   0.3146         C  2 -- H 11         +11.0% ( 36.3%)      5.9%
 EFF. MASS   3.5376

 VIBRATION   29   29A         ATOM PAIR      ENERGY CONTRIBUTION    RADIAL
 FREQ.      1394.94         C  3 -- H 12         +52.7% ( 63.1%)      0.0%
 T-DIPOLE    0.0740         C  3 -- H 13         +20.6% ( 39.4%)     11.8%
 TRAVEL      0.1742         C  3 -- H 14         +20.1% ( 38.9%)     10.6%
 RED. MASS   0.4136         C  3 -- C  4          +5.0% ( 19.3%)      0.1%
 EFF. MASS   1.5938

 VIBRATION   30   30A         ATOM PAIR      ENERGY CONTRIBUTION    RADIAL
 FREQ.      1399.98         C  1 -- H  9         +17.4% ( 48.0%)      5.1%
 T-DIPOLE    0.0615         C  1 -- C  2         +17.0% ( 47.6%)     93.7%
 TRAVEL      0.1088         C  1 -- H  8         +16.9% ( 47.3%)      6.5%
 RED. MASS   0.5692         C  2 -- H 11         +15.0% ( 44.6%)      3.4%
 EFF. MASS   4.0717         C  2 -- H 10         +14.3% ( 43.5%)      3.2%

 VIBRATION   31   31A         ATOM PAIR      ENERGY CONTRIBUTION    RADIAL
 FREQ.      1404.52         C  3 -- H 14         +17.8% ( 45.1%)      0.0%
 T-DIPOLE    0.0646         C  3 -- H 12         +17.1% ( 44.2%)     10.6%
 TRAVEL      0.1230         C  3 -- H 13         +15.1% ( 41.5%)      0.0%
 RED. MASS   0.2810         C  1 -- C  2          +6.9% ( 28.1%)      1.3%
 EFF. MASS   3.1751

 VIBRATION   32   32A         ATOM PAIR      ENERGY CONTRIBUTION    RADIAL
 FREQ.      1444.69         C  6 -- C  7         +17.0% ( 61.9%)    100.0%
 T-DIPOLE    0.1178         C  2 -- C  5         +14.7% ( 57.6%)     99.3%
 TRAVEL      0.0689         C  5 -- C  7         +11.2% ( 50.2%)      0.1%
 RED. MASS   1.5161         C  7 -- H 17          +8.3% ( 43.2%)      7.7%
 EFF. MASS   9.8437

 VIBRATION   33   33A         ATOM PAIR      ENERGY CONTRIBUTION    RADIAL
 FREQ.      1479.36         C  1 -- C  4         +24.4% ( 74.7%)     85.7%
 T-DIPOLE    0.0726         C  3 -- C  4         +21.8% ( 70.5%)     79.5%
 TRAVEL      0.0661         C  4 -- C  6         +13.3% ( 55.1%)      1.4%
 RED. MASS   3.1380         C  1 -- C  2          +7.0% ( 39.9%)     64.5%
 EFF. MASS  10.4398

 VIBRATION   34   34A         ATOM PAIR      ENERGY CONTRIBUTION    RADIAL
 FREQ.      1848.19         C  5 -- C  7         +40.0% ( 93.8%)     99.9%
 T-DIPOLE    0.2769         C  6 -- C  7         +15.6% ( 58.6%)     74.8%
 TRAVEL      0.0554         C  2 -- C  5         +12.5% ( 52.5%)     48.0%
 RED. MASS   4.6169         C  7 -- H 17         +12.4% ( 52.1%)      3.8%
 EFF. MASS  11.8957         C  5 -- H 15         +11.5% ( 50.3%)      5.4%

 VIBRATION   35   35A         ATOM PAIR      ENERGY CONTRIBUTION    RADIAL
 FREQ.      1873.19         C  4 -- C  6         +40.0% ( 92.9%)     99.3%
 T-DIPOLE    0.6330         C  3 -- C  4         +14.5% ( 55.8%)     40.1%
 TRAVEL      0.0552         C  1 -- C  4         +14.2% ( 55.3%)     28.7%
 RED. MASS   4.6533         C  6 -- C  7         +12.0% ( 50.9%)     20.5%
 EFF. MASS  11.8038         C  6 -- H 16         +10.7% ( 48.1%)      5.4%

 VIBRATION   36   36A         ATOM PAIR      ENERGY CONTRIBUTION    RADIAL
 FREQ.      2934.53         C  1 -- H  9         +34.4% ( 61.0%)     97.4%
 T-DIPOLE    0.0153         C  2 -- H 10         +26.4% ( 53.5%)     97.5%
 TRAVEL      0.1219         C  1 -- H  8         +21.8% ( 48.6%)     94.9%
 RED. MASS   0.2794         C  2 -- H 11         +15.1% ( 40.4%)     94.4%
 EFF. MASS   1.5466

 VIBRATION   37   37A         ATOM PAIR      ENERGY CONTRIBUTION    RADIAL
 FREQ.      2947.48         C  2 -- H 10         +34.3% ( 60.6%)     97.6%
 T-DIPOLE    0.0374         C  1 -- H  9         +24.1% ( 50.8%)     97.3%
 TRAVEL      0.1224         C  2 -- H 11         +22.1% ( 48.6%)     95.1%
 RED. MASS   0.2745         C  1 -- H  8         +17.5% ( 43.2%)     95.6%
 EFF. MASS   1.5272

 VIBRATION   38   38A         ATOM PAIR      ENERGY CONTRIBUTION    RADIAL
 FREQ.      3021.05         C  1 -- H  8         +44.0% ( 65.4%)     98.7%
 T-DIPOLE    0.0406         C  1 -- H  9         +29.4% ( 53.5%)     96.3%
 TRAVEL      0.1319         C  2 -- H 11         +15.2% ( 38.4%)     98.7%
 RED. MASS   0.3094         C  2 -- H 10         +10.0% ( 31.2%)     96.2%
 EFF. MASS   1.2825

 VIBRATION   39   39A         ATOM PAIR      ENERGY CONTRIBUTION    RADIAL
 FREQ.      3028.00         C  2 -- H 11         +46.4% ( 67.2%)     99.0%
 T-DIPOLE    0.0843         C  2 -- H 10         +26.1% ( 50.4%)     95.6%
 TRAVEL      0.1318         C  1 -- H  8         +15.8% ( 39.2%)     98.9%
 RED. MASS   0.3127         C  1 -- H  9          +9.2% ( 29.9%)     95.8%
 EFF. MASS   1.2812

 VIBRATION   40   40A         ATOM PAIR      ENERGY CONTRIBUTION    RADIAL
 FREQ.      3054.57         C  7 -- H 17         +40.3% ( 64.5%)    100.0%
 T-DIPOLE    0.0920         C  6 -- H 16         +34.3% ( 59.5%)    100.0%
 TRAVEL      0.1217         C  5 -- H 15         +22.4% ( 48.1%)    100.0%
 RED. MASS   0.3238         C  6 -- C  7          +1.1% ( 10.6%)      0.1%
 EFF. MASS   1.4900

 VIBRATION   41   41A         ATOM PAIR      ENERGY CONTRIBUTION    RADIAL
 FREQ.      3060.37         C  6 -- H 16         +55.5% ( 75.6%)    100.0%
 T-DIPOLE    0.4016         C  5 -- H 15         +34.9% ( 60.0%)    100.0%
 TRAVEL      0.1212         C  7 -- H 17          +6.1% ( 25.1%)     99.7%
 RED. MASS   0.4282         C  6 -- C  7          +1.0% (  9.9%)     45.4%
 EFF. MASS   1.5008

 VIBRATION   42   42A         ATOM PAIR      ENERGY CONTRIBUTION    RADIAL
 FREQ.      3066.73         C  3 -- H 14         +55.3% ( 76.7%)     97.8%
 T-DIPOLE    0.0300         C  3 -- H 13         +42.1% ( 67.0%)     95.9%
 TRAVEL      0.1210         C  3 -- H 12          +1.5% ( 12.7%)     14.5%
 RED. MASS   0.5119         C  3 -- C  4          +1.0% ( 10.2%)      0.0%
 EFF. MASS   1.5016

 VIBRATION   43   43A         ATOM PAIR      ENERGY CONTRIBUTION    RADIAL
 FREQ.      3075.99         C  3 -- H 12         +58.7% ( 79.0%)     98.7%
 T-DIPOLE    0.0936         C  3 -- H 13         +24.4% ( 51.0%)     90.1%
 TRAVEL      0.1203         C  3 -- H 14         +12.5% ( 36.5%)     78.8%
 RED. MASS   0.4481         C  7 -- H 17          +1.7% ( 13.5%)     99.9%
 EFF. MASS   1.5157

 VIBRATION   44   44A         ATOM PAIR      ENERGY CONTRIBUTION    RADIAL
 FREQ.      3077.53         C  7 -- H 17         +48.7% ( 70.8%)     99.9%
 T-DIPOLE    0.3513         C  5 -- H 15         +36.9% ( 61.7%)     99.9%
 TRAVEL      0.1172         C  6 -- H 16          +7.0% ( 26.9%)    100.0%
 RED. MASS   0.3815         C  3 -- H 12          +2.0% ( 14.4%)     98.7%
 EFF. MASS   1.5951

 VIBRATION   45   45A         ATOM PAIR      ENERGY CONTRIBUTION    RADIAL
 FREQ.      3166.96         C  3 -- H 12         +37.4% ( 58.9%)     97.6%
 T-DIPOLE    0.0593         C  3 -- H 13         +31.7% ( 54.2%)     96.8%
 TRAVEL      0.1367         C  3 -- H 14         +30.6% ( 53.3%)     96.7%
 RED. MASS   0.3292         C  3 -- C  4          +0.3% (  5.4%)     99.6%
 EFF. MASS   1.1390

      SYMMETRY NUMBER FOR POINT-GROUP C1  =  1


          SYSTEM IS A GROUND STATE



 InChI=1S/C7H10/c1-7-5-3-2-4-6-7/h2-3,5H,4,6H2,1H3


          MOLECULE IS NOT LINEAR

          THERE ARE 45 GENUINE VIBRATIONS IN THIS SYSTEM
          THIS THERMODYNAMICS CALCULATION IS LIMITED TO
          MOLECULES WHICH HAVE NO INTERNAL ROTATIONS




                    CALCULATED THERMODYNAMIC PROPERTIES
                                          *
   TEMP. (K)   PARTITION FUNCTION   H.O.F.    ENTHALPY  HEAT CAPACITY ENTROPY
                                   KCAL/MOL   CAL/MOLE    CAL/K/MOL  CAL/K/MOL


 298.00  VIB.     0.1703D+02                  2496.4691    19.8489    14.0110
         ROT.     0.1936D+06                   888.2813     2.9808    27.1717
         INT.     0.3296D+07                  3384.7504    22.8297    41.1828
         TRA.     0.8833D+27                  1480.4688     4.9680    39.5363
         TOT.                       10.437    4865.2193    27.7977    80.7190

 200.00  VIB.     0.4645D+01                   980.8155    11.3646     7.9559
         ROT.     0.1064D+06                   596.1620     2.9808    25.9831
         INT.     0.4943D+06                  1576.9775    14.3454    33.9390
         TRA.     0.4856D+27                   993.6033     4.9680    37.5551
         TOT.                        8.142    2570.5807    19.3134    71.4941

 210.00  VIB.     0.5260D+01                  1098.3207    12.1407     8.5291
         ROT.     0.1145D+06                   625.9700     2.9808    26.1285
         INT.     0.6023D+06                  1724.2907    15.1215    34.6576
         TRA.     0.5225D+27                  1043.2834     4.9680    37.7975
         TOT.                        8.339    2767.5742    20.0895    72.4551

 220.00  VIB.     0.5968D+01                  1223.7132    12.9419     9.1122
         ROT.     0.1228D+06                   655.7781     2.9808    26.2672
         INT.     0.7327D+06                  1879.4914    15.9227    35.3794
         TRA.     0.5603D+27                  1092.9636     4.9680    38.0286
         TOT.                        8.544    2972.4549    20.8907    73.4081

 230.00  VIB.     0.6784D+01                  1357.2388    13.7671     9.7057
         ROT.     0.1312D+06                   685.5862     2.9808    26.3997
         INT.     0.8903D+06                  2042.8250    16.7479    36.1053
         TRA.     0.5989D+27                  1142.6437     4.9680    38.2495
         TOT.                        8.757    3185.4687    21.7159    74.3548

 240.00  VIB.     0.7726D+01                  1499.1286    14.6145    10.3094
         ROT.     0.1399D+06                   715.3943     2.9808    26.5265
         INT.     0.1081D+07                  2214.5229    17.5953    36.8359
         TRA.     0.6384D+27                  1192.3239     4.9680    38.4609
         TOT.                        8.978    3406.8468    22.5633    75.2969

 250.00  VIB.     0.8815D+01                  1649.5951    15.4820    10.9235
         ROT.     0.1487D+06                   745.2024     2.9808    26.6482
         INT.     0.1311D+07                  2394.7976    18.4628    37.5717
         TRA.     0.6787D+27                  1242.0041     4.9680    38.6637
         TOT.                        9.208    3636.8016    23.4309    76.2355

 260.00  VIB.     0.1008D+02                  1808.8286    16.3674    11.5479
         ROT.     0.1577D+06                   775.0105     2.9808    26.7651
         INT.     0.1590D+07                  2583.8392    19.3482    38.3131
         TRA.     0.7198D+27                  1291.6842     4.9680    38.8586
         TOT.                        9.447    3875.5234    24.3163    77.1716

 270.00  VIB.     0.1154D+02                  1976.9948    17.2681    12.1825
         ROT.     0.1669D+06                   804.8186     2.9808    26.8776
         INT.     0.1926D+07                  2781.8134    20.2489    39.0601
         TRA.     0.7618D+27                  1341.3644     4.9680    39.0461
         TOT.                        9.695    4123.1778    25.2169    78.1062

 280.00  VIB.     0.1324D+02                  2154.2332    18.1815    12.8270
         ROT.     0.1763D+06                   834.6267     2.9808    26.9860
         INT.     0.2334D+07                  2988.8600    21.1623    39.8130
         TRA.     0.8045D+27                  1391.0445     4.9680    39.2267
         TOT.                        9.951    4379.9045    26.1303    79.0397

 290.00  VIB.     0.1522D+02                  2340.6572    19.1048    13.4811
         ROT.     0.1858D+06                   864.4348     2.9808    27.0906
         INT.     0.2827D+07                  3205.0921    22.0856    40.5717
         TRA.     0.8479D+27                  1440.7247     4.9680    39.4011
         TOT.                       10.217    4645.8168    27.0536    79.9728

 300.00  VIB.     0.1752D+02                  2536.3534    20.0355    14.1444
         ROT.     0.1955D+06                   894.2429     2.9808    27.1917
         INT.     0.3425D+07                  3430.5963    23.0163    41.3361
         TRA.     0.8922D+27                  1490.4049     4.9680    39.5695
         TOT.                       10.492    4921.0012    27.9843    80.9056

 310.00  VIB.     0.2021D+02                  2741.3825    20.9710    14.8166
         ROT.     0.2054D+06                   924.0510     2.9808    27.2894
         INT.     0.4150D+07                  3665.4336    23.9518    42.1060
         TRA.     0.9372D+27                  1540.0850     4.9680    39.7324
         TOT.                       10.777    5205.5186    28.9198    81.8384

 320.00  VIB.     0.2334D+02                  2955.7807    21.9089    15.4972
         ROT.     0.2154D+06                   953.8591     2.9808    27.3841
         INT.     0.5028D+07                  3909.6398    24.8897    42.8813
         TRA.     0.9829D+27                  1589.7652     4.9680    39.8901
         TOT.                       11.071    5499.4050    29.8577    82.7714

 330.00  VIB.     0.2702D+02                  3179.5604    22.8469    16.1857
         ROT.     0.2256D+06                   983.6672     2.9808    27.4758
         INT.     0.6094D+07                  4163.2276    25.8277    43.6615
         TRA.     0.1029D+28                  1639.4454     4.9680    40.0430
         TOT.                       11.374    5802.6730    30.7958    83.7045

 340.00  VIB.     0.3132D+02                  3412.7127    23.7831    16.8817
         ROT.     0.2359D+06                  1013.4753     2.9808    27.5648
         INT.     0.7388D+07                  4426.1881    26.7639    44.4465
         TRA.     0.1076D+28                  1689.1255     4.9680    40.1913
         TOT.                       11.687    6115.3136    31.7319    84.6378

 350.00  VIB.     0.3636D+02                  3655.2086    24.7153    17.5846
         ROT.     0.2464D+06                  1043.2834     2.9808    27.6512
         INT.     0.8959D+07                  4698.4920    27.6961    45.2358
         TRA.     0.1124D+28                  1738.8057     4.9680    40.3353
         TOT.                       12.009    6437.2977    32.6642    85.5711

 360.00  VIB.     0.4229D+02                  3907.0010    25.6421    18.2938
         ROT.     0.2570D+06                  1073.0915     2.9808    27.7351
         INT.     0.1087D+08                  4980.0925    28.6229    46.0290
         TRA.     0.1173D+28                  1788.4859     4.9680    40.4753
         TOT.                       12.340    6768.5783    33.5909    86.5043

 370.00  VIB.     0.4925D+02                  4168.0266    26.5617    19.0090
         ROT.     0.2678D+06                  1102.8996     2.9808    27.8168
         INT.     0.1319D+08                  5270.9262    29.5426    46.8258
         TRA.     0.1222D+28                  1838.1660     4.9680    40.6114
         TOT.                       12.680    7109.0922    34.5106    87.4372

 380.00  VIB.     0.5745D+02                  4438.2078    27.4730    19.7294
         ROT.     0.2787D+06                  1132.7077     2.9808    27.8963
         INT.     0.1601D+08                  5570.9155    30.4538    47.6257
         TRA.     0.1272D+28                  1887.8462     4.9680    40.7439
         TOT.                       13.030    7458.7617    35.4218    88.3696

 390.00  VIB.     0.6710D+02                  4717.4546    28.3747    20.4547
         ROT.     0.2898D+06                  1162.5158     2.9808    27.9737
         INT.     0.1945D+08                  5879.9704    31.3555    48.4285
         TRA.     0.1322D+28                  1937.5263     4.9680    40.8729
         TOT.                       13.389    7817.4968    36.3235    89.3014

 400.00  VIB.     0.7849D+02                  5005.6662    29.2658    21.1844
         ROT.     0.3010D+06                  1192.3239     2.9808    28.0492
         INT.     0.2363D+08                  6197.9901    32.2466    49.2336
         TRA.     0.1374D+28                  1987.2065     4.9680    40.9987
         TOT.                       13.757    8185.1966    37.2146    90.2323

   *: NOTE: HEATS OF FORMATION ARE RELATIVE TO THE
            ELEMENTS IN THEIR STANDARD STATE AT 298K
              (=  Standard Enthalpy of Formation).

            Hvib:  Zero-point energy is not included.
                   frequencies of less than zero cm-1 are not included.
            Hrot = (3/2)RT
            Htra = (3/2)RT + pV = (5/2)RT

            Heat capacity is Cp, not Cv

          For more information, see: HTTP://OpenMOPAC.net/Manual/thermochemistry.html


           FORCE CONSTANT IN CARTESIAN COORDINATES (Millidynes/A)

    ATOM   CHEMICAL       X               Y               Z
   NUMBER   SYMBOL  FORCE CONSTANT  FORCE CONSTANT  FORCE CONSTANT

      1       C        8.453661        8.557550        8.302330
      2       C        8.328699        8.744218        8.297609
      3       C        8.916758        8.431450        8.129851
      4       C       10.801943       10.154649        6.866218
      5       C       10.505441        9.732091        6.801060
      6       C       10.785252       10.448196        6.525822
      7       C       10.543356        9.995692        7.155833
      8       H        1.180373        0.875214        4.306510
      9       H        1.171567        2.716894        2.342662
     10       H        1.177150        1.183760        3.869659
     11       H        1.171969        4.480017        0.700016
     12       H        1.338383        3.951969        1.484389
     13       H        2.264498        3.426821        0.969209
     14       H        0.666479        0.702549        5.283048
     15       H        4.626154        0.782370        0.866417
     16       H        1.438909        3.886012        0.939753
     17       H        1.448919        2.081100        2.742971

 **********************
 *                    *
 * JOB ENDED NORMALLY *
 *                    *
 **********************



 TOTAL JOB TIME:             1.22 SECONDS

 == MOPAC DONE ==
