 *******************************************************************************
 ** Site#: 14399        For non-commercial use only    Version 18.184L 64BITS **
 *******************************************************************************
 ** Cite this program as: MOPAC2016, Version: 18.184L, James J. P. Stewart,   **
 ** Stewart Computational Chemistry, web: HTTP://OpenMOPAC.net. Days left:  18**
 *******************************************************************************
 **                                                                           **
 **                                MOPAC2016                                  **
 **                                                                           **
 *******************************************************************************

                              PM3 CALCULATION RESULTS

 *******************************************************************************
 *  CALCULATION DONE:                                Sat Jun 15 10:20:27 2019  *
 *  PM3        - The PM3 Hamiltonian to be used
 *  PRECISE    - CRITERIA TO BE INCREASED BY 100 TIMES
 *  NOSYM      - POINT-GROUP SYMMETRY SET TO C1
 *  THREADS=1  - MULTI-THREADING NOT USED
 *  T=         - A TIME OF 172800.0 SECONDS REQUESTED
 *  DUMP=N     - RESTART FILE WRITTEN EVERY  7200.000 SECONDS
 *******************************************************************************
pm3  precise nosym THREADS=1
 InChI=1S/C7H12/c1-3-7-5-4-6(7)2/h4-7H,3H2,1-2H3

   ATOM   CHEMICAL          X               Y               Z
  NUMBER   SYMBOL      (ANGSTROMS)     (ANGSTROMS)     (ANGSTROMS)
 
     1       C         -0.17860000  *   0.57490000  *  -0.24800000  *
     2       C          0.97370000  *  -0.28130000  *  -0.07280000  *
     3       C         -1.50600000  *  -0.16290000  *  -0.49830000  *
     4       C          1.83220000  *   0.05600000  *   1.15000000  *
     5       C         -2.06580000  *  -0.74910000  *   0.79530000  *
     6       C          0.42620000  *   1.08060000  *  -1.52170000  *
     7       C          1.54940000  *   0.27270000  *  -1.33780000  *
     8       H         -0.28000000  *   1.39730000  *   0.49720000  *
     9       H          0.77500000  *  -1.37330000  *  -0.16230000  *
    10       H         -1.37550000  *  -0.97730000  *  -1.24580000  *
    11       H         -2.24610000  *   0.55840000  *  -0.90790000  *
    12       H         -3.03510000  *  -1.24910000  *   0.58770000  *
    13       H         -2.23370000  *   0.05610000  *   1.54190000  *
    14       H          2.77340000  *  -0.53230000  *   1.11710000  *
    15       H          1.28050000  *  -0.21120000  *   2.07600000  *
    16       H          2.08890000  *   1.13760000  *   1.18200000  *
    17       H         -1.36400000  *  -1.49880000  *   1.21800000  *
    18       H          2.46530000  *   0.10490000  *  -1.89410000  *
    19       H          0.12000000  *   1.79680000  *  -2.27660000  *
 


          CARTESIAN COORDINATES 

    NO.       ATOM           X           Y           Z

     1         C         -0.1786      0.5749     -0.2480
     2         C          0.9737     -0.2813     -0.0728
     3         C         -1.5060     -0.1629     -0.4983
     4         C          1.8322      0.0560      1.1500
     5         C         -2.0658     -0.7491      0.7953
     6         C          0.4262      1.0806     -1.5217
     7         C          1.5494      0.2727     -1.3378
     8         H         -0.2800      1.3973      0.4972
     9         H          0.7750     -1.3733     -0.1623
    10         H         -1.3755     -0.9773     -1.2458
    11         H         -2.2461      0.5584     -0.9079
    12         H         -3.0351     -1.2491      0.5877
    13         H         -2.2337      0.0561      1.5419
    14         H          2.7734     -0.5323      1.1171
    15         H          1.2805     -0.2112      2.0760
    16         H          2.0889      1.1376      1.1820
    17         H         -1.3640     -1.4988      1.2180
    18         H          2.4653      0.1049     -1.8941
    19         H          0.1200      1.7968     -2.2766

  H: (PM3): J. J. P. STEWART, J. COMP. CHEM. 10, 209 (1989).
  C: (PM3): J. J. P. STEWART, J. COMP. CHEM. 10, 209 (1989).

           Empirical Formula: C7 H12  =    19 atoms



      MOLECULAR POINT GROUP   :   C1  


      RHF CALCULATION, NO. OF DOUBLY OCCUPIED LEVELS = 20


          Geometry optimization using EF

          DIAGONAL MATRIX USED AS START HESSIAN

 CYCLE:     1 TIME:   0.004 TIME LEFT:  2.00D  GRAD.:   213.881 HEAT:  30.97648
 CYCLE:     2 TIME:   0.004 TIME LEFT:  2.00D  GRAD.:    58.408 HEAT:  21.50551
 CYCLE:     3 TIME:   0.008 TIME LEFT:  2.00D  GRAD.:    63.032 HEAT:  20.95661
 CYCLE:     4 TIME:   0.008 TIME LEFT:  2.00D  GRAD.:    33.888 HEAT:  20.13324
 CYCLE:     5 TIME:   0.004 TIME LEFT:  2.00D  GRAD.:    22.427 HEAT:  19.82254
 CYCLE:     6 TIME:   0.004 TIME LEFT:  2.00D  GRAD.:    31.869 HEAT:  19.72013
 CYCLE:     7 TIME:   0.004 TIME LEFT:  2.00D  GRAD.:    27.115 HEAT:  19.51099
 CYCLE:     8 TIME:   0.004 TIME LEFT:  2.00D  GRAD.:    13.444 HEAT:  19.33635
 CYCLE:     9 TIME:   0.008 TIME LEFT:  2.00D  GRAD.:     9.694 HEAT:  19.27400
 CYCLE:    10 TIME:   0.004 TIME LEFT:  2.00D  GRAD.:    10.576 HEAT:  19.21429
 CYCLE:    11 TIME:   0.000 TIME LEFT:  2.00D  GRAD.:    16.789 HEAT:  19.20534
 CYCLE:    12 TIME:   0.008 TIME LEFT:  2.00D  GRAD.:     9.591 HEAT:  19.14669
 CYCLE:    13 TIME:   0.008 TIME LEFT:  2.00D  GRAD.:     8.293 HEAT:  19.12926
 CYCLE:    14 TIME:   0.000 TIME LEFT:  2.00D  GRAD.:     6.559 HEAT:  19.11206
 CYCLE:    15 TIME:   0.004 TIME LEFT:  2.00D  GRAD.:     8.784 HEAT:  19.10896
 CYCLE:    16 TIME:   0.004 TIME LEFT:  2.00D  GRAD.:     4.141 HEAT:  19.08273
 CYCLE:    17 TIME:   0.004 TIME LEFT:  2.00D  GRAD.:     4.285 HEAT:  19.07550
 CYCLE:    18 TIME:   0.004 TIME LEFT:  2.00D  GRAD.:     2.850 HEAT:  19.06463
 CYCLE:    19 TIME:   0.004 TIME LEFT:  2.00D  GRAD.:     2.329 HEAT:  19.05465
 CYCLE:    20 TIME:   0.004 TIME LEFT:  2.00D  GRAD.:     2.908 HEAT:  19.04365
 CYCLE:    21 TIME:   0.004 TIME LEFT:  2.00D  GRAD.:     2.468 HEAT:  19.03747
 CYCLE:    22 TIME:   0.004 TIME LEFT:  2.00D  GRAD.:     1.972 HEAT:  19.03230
 CYCLE:    23 TIME:   0.004 TIME LEFT:  2.00D  GRAD.:     3.061 HEAT:  19.02829
 CYCLE:    24 TIME:   0.000 TIME LEFT:  2.00D  GRAD.:     2.575 HEAT:  19.02409
 CYCLE:    25 TIME:   0.004 TIME LEFT:  2.00D  GRAD.:     1.932 HEAT:  19.02034
 CYCLE:    26 TIME:   0.004 TIME LEFT:  2.00D  GRAD.:     2.472 HEAT:  19.01765
 CYCLE:    27 TIME:   0.004 TIME LEFT:  2.00D  GRAD.:     1.628 HEAT:  19.01376
 CYCLE:    28 TIME:   0.004 TIME LEFT:  2.00D  GRAD.:     1.245 HEAT:  19.01162
 CYCLE:    29 TIME:   0.004 TIME LEFT:  2.00D  GRAD.:     1.162 HEAT:  19.01036
 CYCLE:    30 TIME:   0.000 TIME LEFT:  2.00D  GRAD.:     0.718 HEAT:  19.00921
 CYCLE:    31 TIME:   0.004 TIME LEFT:  2.00D  GRAD.:     0.732 HEAT:  19.00781
 CYCLE:    32 TIME:   0.004 TIME LEFT:  2.00D  GRAD.:     0.884 HEAT:  19.00642
 CYCLE:    33 TIME:   0.004 TIME LEFT:  2.00D  GRAD.:     0.955 HEAT:  19.00444
 CYCLE:    34 TIME:   0.004 TIME LEFT:  2.00D  GRAD.:     0.989 HEAT:  19.00226
 CYCLE:    35 TIME:   0.004 TIME LEFT:  2.00D  GRAD.:     1.024 HEAT:  18.99977
 CYCLE:    36 TIME:   0.004 TIME LEFT:  2.00D  GRAD.:     1.078 HEAT:  18.99736
 CYCLE:    37 TIME:   0.004 TIME LEFT:  2.00D  GRAD.:     0.852 HEAT:  18.99544
 CYCLE:    38 TIME:   0.000 TIME LEFT:  2.00D  GRAD.:     0.706 HEAT:  18.99400
 CYCLE:    39 TIME:   0.004 TIME LEFT:  2.00D  GRAD.:     0.731 HEAT:  18.99277
 CYCLE:    40 TIME:   0.004 TIME LEFT:  2.00D  GRAD.:     0.837 HEAT:  18.99126
 CYCLE:    41 TIME:   0.004 TIME LEFT:  2.00D  GRAD.:     0.900 HEAT:  18.98939
 CYCLE:    42 TIME:   0.004 TIME LEFT:  2.00D  GRAD.:     0.695 HEAT:  18.98786
 CYCLE:    43 TIME:   0.004 TIME LEFT:  2.00D  GRAD.:     0.473 HEAT:  18.98696
 CYCLE:    44 TIME:   0.000 TIME LEFT:  2.00D  GRAD.:     0.445 HEAT:  18.98649
 CYCLE:    45 TIME:   0.004 TIME LEFT:  2.00D  GRAD.:     0.454 HEAT:  18.98612
 CYCLE:    46 TIME:   0.004 TIME LEFT:  2.00D  GRAD.:     0.510 HEAT:  18.98556
 CYCLE:    47 TIME:   0.004 TIME LEFT:  2.00D  GRAD.:     0.524 HEAT:  18.98501
 CYCLE:    48 TIME:   0.004 TIME LEFT:  2.00D  GRAD.:     0.502 HEAT:  18.98424
 CYCLE:    49 TIME:   0.004 TIME LEFT:  2.00D  GRAD.:     0.400 HEAT:  18.98387
 CYCLE:    50 TIME:   0.004 TIME LEFT:  2.00D  GRAD.:     0.507 HEAT:  18.98349
 CYCLE:    51 TIME:   0.000 TIME LEFT:  2.00D  GRAD.:     0.334 HEAT:  18.98321
 CYCLE:    52 TIME:   0.004 TIME LEFT:  2.00D  GRAD.:     0.251 HEAT:  18.98302
 CYCLE:    53 TIME:   0.004 TIME LEFT:  2.00D  GRAD.:     0.353 HEAT:  18.98262
 CYCLE:    54 TIME:   0.004 TIME LEFT:  2.00D  GRAD.:     0.325 HEAT:  18.98239
 CYCLE:    55 TIME:   0.004 TIME LEFT:  2.00D  GRAD.:     0.400 HEAT:  18.98181
 CYCLE:    56 TIME:   0.004 TIME LEFT:  2.00D  GRAD.:     0.347 HEAT:  18.98159
 CYCLE:    57 TIME:   0.000 TIME LEFT:  2.00D  GRAD.:     0.622 HEAT:  18.98041
 CYCLE:    58 TIME:   0.004 TIME LEFT:  2.00D  GRAD.:     0.450 HEAT:  18.98003
 CYCLE:    59 TIME:   0.004 TIME LEFT:  2.00D  GRAD.:     0.513 HEAT:  18.97924
 CYCLE:    60 TIME:   0.004 TIME LEFT:  2.00D  GRAD.:     0.263 HEAT:  18.97904
 CYCLE:    61 TIME:   0.004 TIME LEFT:  2.00D  GRAD.:     0.252 HEAT:  18.97886
 CYCLE:    62 TIME:   0.004 TIME LEFT:  2.00D  GRAD.:     0.227 HEAT:  18.97878
 CYCLE:    63 TIME:   0.004 TIME LEFT:  2.00D  GRAD.:     0.240 HEAT:  18.97865
 CYCLE:    64 TIME:   0.004 TIME LEFT:  2.00D  GRAD.:     0.156 HEAT:  18.97856
 CYCLE:    65 TIME:   0.000 TIME LEFT:  2.00D  GRAD.:     0.118 HEAT:  18.97848
 CYCLE:    66 TIME:   0.004 TIME LEFT:  2.00D  GRAD.:     0.125 HEAT:  18.97844
 CYCLE:    67 TIME:   0.004 TIME LEFT:  2.00D  GRAD.:     0.134 HEAT:  18.97835
 CYCLE:    68 TIME:   0.004 TIME LEFT:  2.00D  GRAD.:     0.103 HEAT:  18.97831
 CYCLE:    69 TIME:   0.004 TIME LEFT:  2.00D  GRAD.:     0.063 HEAT:  18.97829
 CYCLE:    70 TIME:   0.000 TIME LEFT:  2.00D  GRAD.:     0.053 HEAT:  18.97828
 CYCLE:    71 TIME:   0.004 TIME LEFT:  2.00D  GRAD.:     0.075 HEAT:  18.97827
 CYCLE:    72 TIME:   0.004 TIME LEFT:  2.00D  GRAD.:     0.060 HEAT:  18.97826
 CYCLE:    73 TIME:   0.004 TIME LEFT:  2.00D  GRAD.:     0.088 HEAT:  18.97823
 CYCLE:    74 TIME:   0.004 TIME LEFT:  2.00D  GRAD.:     0.084 HEAT:  18.97822
 CYCLE:    75 TIME:   0.004 TIME LEFT:  2.00D  GRAD.:     0.160 HEAT:  18.97814
 CYCLE:    76 TIME:   0.004 TIME LEFT:  2.00D  GRAD.:     0.109 HEAT:  18.97810
 CYCLE:    77 TIME:   0.000 TIME LEFT:  2.00D  GRAD.:     0.135 HEAT:  18.97803
 CYCLE:    78 TIME:   0.004 TIME LEFT:  2.00D  GRAD.:     0.059 HEAT:  18.97800
 CYCLE:    79 TIME:   0.004 TIME LEFT:  2.00D  GRAD.:     0.034 HEAT:  18.97797

     GRADIENT =  0.03394  IS LESS THAN CUTOFF =  0.05000



 -------------------------------------------------------------------------------
 pm3  precise nosym THREADS=1
 InChI=1S/C7H12/c1-3-7-5-4-6(7)2/h4-7H,3H2,1-2H3



     GEOMETRY OPTIMISED USING EIGENVECTOR FOLLOWING (EF).     
     SCF FIELD WAS ACHIEVED                                   


                              PM3 CALCULATION
                                                       MOPAC2016 (Version: 18.184L)
                                                       Sat Jun 15 10:20:28 2019
                                                       No. of days remaining =  18




          FINAL HEAT OF FORMATION =         18.97797 KCAL/MOL =      79.40384 KJ/MOL


          TOTAL ENERGY            =      -1013.65209 EV
          ELECTRONIC ENERGY       =      -4901.92142 EV  POINT GROUP:     C1  
          CORE-CORE REPULSION     =       3888.26933 EV
          COSMO AREA              =        152.10 SQUARE ANGSTROMS
          COSMO VOLUME            =        149.92 CUBIC ANGSTROMS

          GRADIENT NORM           =          0.03394 = 0.00779 PER ATOM
          IONIZATION POTENTIAL    =          9.881394 EV
          HOMO LUMO ENERGIES (EV) =         -9.881  1.052
          NO. OF FILLED LEVELS    =         20
          MOLECULAR WEIGHT        =         96.1718

          MOLECULAR DIMENSIONS (Angstroms)

            Atom       Atom       Distance
            H    18    H    12     6.23540
            H    19    H    14     4.93132
            H    10    H    16     3.15660


          SCF CALCULATIONS        =         89
 
          WALL-CLOCK TIME         =          0.293 SECONDS
          COMPUTATION TIME        =          0.265 SECONDS




   ATOM   CHEMICAL          X               Y               Z
  NUMBER   SYMBOL      (ANGSTROMS)     (ANGSTROMS)     (ANGSTROMS)
 
     1       C         -0.24306340  *   0.58517983  *  -0.28365579  *
     2       C          1.05236854  *  -0.30248065  *  -0.07015989  *
     3       C         -1.53674446  *  -0.16670113  *  -0.49280686  *
     4       C          1.85076395  *  -0.00121376  *   1.16615137  *
     5       C         -2.08215430  *  -0.70706290  *   0.81029271  *
     6       C          0.44388026  *   1.06877373  *  -1.55556702  *
     7       C          1.55631725  *   0.33560313  *  -1.35958038  *
     8       H         -0.36134822  *   1.37799892  *   0.48463105  *
     9       H          0.85669673  *  -1.39127575  *  -0.16400241  *
    10       H         -1.38595230  *  -0.99464009  *  -1.21388563  *
    11       H         -2.27501728  *   0.51053105  *  -0.96565044  *
    12       H         -3.00976381  *  -1.27114544  *   0.65119620  *
    13       H         -2.30457298  *   0.09847479  *   1.52269458  *
    14       H          2.82046026  *  -0.51463859  *   1.14421607  *
    15       H          1.31585426  *  -0.33273312  *   2.06570708  *
    16       H          2.04935918  *   1.07294301  *   1.27733599  *
    17       H         -1.36335622  *  -1.38155607  *   1.29549984  *
    18       H          2.49730583  *   0.20152078  *  -1.87539384  *
    19       H          0.09358914  *   1.76044245  *  -2.30955113  *

                             CARTESIAN COORDINATES

   1    C       -0.243063402     0.585179828    -0.283655785
   2    C        1.052368540    -0.302480652    -0.070159886
   3    C       -1.536744459    -0.166701128    -0.492806856
   4    C        1.850763948    -0.001213758     1.166151371
   5    C       -2.082154296    -0.707062899     0.810292715
   6    C        0.443880260     1.068773735    -1.555567016
   7    C        1.556317253     0.335603129    -1.359580381
   8    H       -0.361348223     1.377998917     0.484631050
   9    H        0.856696730    -1.391275749    -0.164002414
  10    H       -1.385952300    -0.994640092    -1.213885631
  11    H       -2.275017284     0.510531046    -0.965650437
  12    H       -3.009763812    -1.271145443     0.651196204
  13    H       -2.304572979     0.098474790     1.522694577
  14    H        2.820460256    -0.514638587     1.144216074
  15    H        1.315854255    -0.332733122     2.065707078
  16    H        2.049359181     1.072943012     1.277335989
  17    H       -1.363356217    -1.381556073     1.295499839
  18    H        2.497305833     0.201520782    -1.875393835
  19    H        0.093589142     1.760442446    -2.309551133


           Empirical Formula: C7 H12  =    19 atoms



      MOLECULAR POINT GROUP   :   C1  


                  EIGENVALUES  
 -40.87486 -33.42477 -29.75799 -24.69659 -21.99153 -21.01942 -17.88814 -17.11172
 -15.98658 -15.24049 -14.72702 -14.18633 -13.60898 -13.31004 -12.73284 -12.36301
 -12.07076 -11.39237 -11.18039  -9.88139   1.05227   3.19461   3.24322   3.35295
   3.79885   3.83770   3.93886   4.08116   4.18389   4.28176   4.34213   4.40106
   4.58927   4.74470   4.79218   4.92681   5.01857   5.22849   5.28291   6.20009


              NET ATOMIC CHARGES AND DIPOLE CONTRIBUTIONS

  ATOM NO.   TYPE          CHARGE      No. of ELECS.   s-Pop       p-Pop       
    1          C          -0.071812        4.0718     1.19276     2.87906
    2          C          -0.068130        4.0681     1.18866     2.87947
    3          C          -0.085391        4.0854     1.15394     2.93145
    4          C          -0.098074        4.0981     1.13398     2.96409
    5          C          -0.109607        4.1096     1.13816     2.97144
    6          C          -0.159484        4.1595     1.22008     2.93941
    7          C          -0.157889        4.1579     1.22025     2.93764
    8          H           0.080772        0.9192     0.91923
    9          H           0.078862        0.9211     0.92114
   10          H           0.053094        0.9469     0.94691
   11          H           0.050466        0.9495     0.94953
   12          H           0.037316        0.9627     0.96268
   13          H           0.037627        0.9624     0.96237
   14          H           0.040432        0.9596     0.95957
   15          H           0.040237        0.9598     0.95976
   16          H           0.042386        0.9576     0.95761
   17          H           0.039594        0.9604     0.96041
   18          H           0.124771        0.8752     0.87523
   19          H           0.124831        0.8752     0.87517
 DIPOLE           X         Y         Z       TOTAL
 POINT-CHG.    -0.090    -0.099     0.163     0.211
 HYBRID         0.040     0.033    -0.035     0.063
 SUM           -0.050    -0.067     0.128     0.152


          ATOMIC ORBITAL ELECTRON POPULATIONS

     Atom    s        px        py        pz   
    1  C   1.19276   0.93804   0.97489   0.96613
    2  C   1.18866   0.95294   0.98790   0.93863
    3  C   1.15394   0.96175   0.99697   0.97273
    4  C   1.13398   0.98982   1.01038   0.96390
    5  C   1.13816   0.99959   1.00262   0.96923
    6  C   1.22008   0.97083   0.98985   0.97873
    7  C   1.22025   0.97802   0.98501   0.97462
    8  H   0.91923
    9  H   0.92114
   10  H   0.94691
   11  H   0.94953
   12  H   0.96268
   13  H   0.96237
   14  H   0.95957
   15  H   0.95976
   16  H   0.95761
   17  H   0.96041
   18  H   0.87523
   19  H   0.87517
 *******************************************************************************
 ** Site#: 14399        For non-commercial use only    Version 18.184L 64BITS **
 *******************************************************************************
 ** Cite this program as: MOPAC2016, Version: 18.184L, James J. P. Stewart,   **
 ** Stewart Computational Chemistry, web: HTTP://OpenMOPAC.net. Days left:  18**
 *******************************************************************************
 **                                                                           **
 **                                MOPAC2016                                  **
 **                                                                           **
 *******************************************************************************

                              PM3 CALCULATION RESULTS

 *******************************************************************************
 *  CALCULATION DONE:                                Sat Jun 15 10:20:28 2019  *
 *  PM3        - The PM3 Hamiltonian to be used
 *  OLDGEO     - PREVIOUS GEOMETRY TO BE USED
 *  PRECISE    - CRITERIA TO BE INCREASED BY 100 TIMES
 *  NOSYM      - POINT-GROUP SYMMETRY SET TO C1
 *  THREADS=1  - MULTI-THREADING NOT USED
 *  T=         - A TIME OF 172800.0 SECONDS REQUESTED
 *  DUMP=N     - RESTART FILE WRITTEN EVERY  7200.000 SECONDS
 *  THERMO     - THERMODYNAMIC QUANTITIES TO BE CALCULATED
 *******************************************************************************
oldgeo thermo nosym precise THREADS=1  pm3
 InChI=1S/C7H12/c1-3-7-5-4-6(7)2/h4-7H,3H2,1-2H3

   ATOM   CHEMICAL          X               Y               Z
  NUMBER   SYMBOL      (ANGSTROMS)     (ANGSTROMS)     (ANGSTROMS)
 
     1       C         -0.24306340  *   0.58517983  *  -0.28365579  *
     2       C          1.05236854  *  -0.30248065  *  -0.07015989  *
     3       C         -1.53674446  *  -0.16670113  *  -0.49280686  *
     4       C          1.85076395  *  -0.00121376  *   1.16615137  *
     5       C         -2.08215430  *  -0.70706290  *   0.81029271  *
     6       C          0.44388026  *   1.06877373  *  -1.55556702  *
     7       C          1.55631725  *   0.33560313  *  -1.35958038  *
     8       H         -0.36134822  *   1.37799892  *   0.48463105  *
     9       H          0.85669673  *  -1.39127575  *  -0.16400241  *
    10       H         -1.38595230  *  -0.99464009  *  -1.21388563  *
    11       H         -2.27501728  *   0.51053105  *  -0.96565044  *
    12       H         -3.00976381  *  -1.27114544  *   0.65119620  *
    13       H         -2.30457298  *   0.09847479  *   1.52269458  *
    14       H          2.82046026  *  -0.51463859  *   1.14421607  *
    15       H          1.31585426  *  -0.33273312  *   2.06570708  *
    16       H          2.04935918  *   1.07294301  *   1.27733599  *
    17       H         -1.36335622  *  -1.38155607  *   1.29549984  *
    18       H          2.49730583  *   0.20152078  *  -1.87539384  *
    19       H          0.09358914  *   1.76044245  *  -2.30955113  *
 


          CARTESIAN COORDINATES 

    NO.       ATOM           X           Y           Z

     1         C         -0.2431      0.5852     -0.2837
     2         C          1.0524     -0.3025     -0.0702
     3         C         -1.5367     -0.1667     -0.4928
     4         C          1.8508     -0.0012      1.1662
     5         C         -2.0822     -0.7071      0.8103
     6         C          0.4439      1.0688     -1.5556
     7         C          1.5563      0.3356     -1.3596
     8         H         -0.3613      1.3780      0.4846
     9         H          0.8567     -1.3913     -0.1640
    10         H         -1.3860     -0.9946     -1.2139
    11         H         -2.2750      0.5105     -0.9657
    12         H         -3.0098     -1.2711      0.6512
    13         H         -2.3046      0.0985      1.5227
    14         H          2.8205     -0.5146      1.1442
    15         H          1.3159     -0.3327      2.0657
    16         H          2.0494      1.0729      1.2773
    17         H         -1.3634     -1.3816      1.2955
    18         H          2.4973      0.2015     -1.8754
    19         H          0.0936      1.7604     -2.3096

  H: (PM3): J. J. P. STEWART, J. COMP. CHEM. 10, 209 (1989).
  C: (PM3): J. J. P. STEWART, J. COMP. CHEM. 10, 209 (1989).

           Empirical Formula: C7 H12  =    19 atoms



      MOLECULAR POINT GROUP   :   C1  


      RHF CALCULATION, NO. OF DOUBLY OCCUPIED LEVELS = 20



          HEAT OF FORMATION =      18.977974 KCALS/MOLE


          CARTESIAN COORDINATE DERIVATIVES

   NUMBER  ATOM         X            Y            Z

     1       C     -0.002645    -0.001198     0.000267
     2       C      0.000374     0.000919    -0.001161
     3       C     -0.003442     0.000190     0.000481
     4       C      0.001976     0.000846    -0.005273
     5       C      0.001212     0.008112    -0.003403
     6       C     -0.005898     0.005971    -0.003717
     7       C     -0.005771     0.017715     0.000492
     8       H     -0.001341    -0.006307    -0.000722
     9       H     -0.002298    -0.003176    -0.003850
    10       H      0.002664    -0.005171     0.005608
    11       H      0.005202    -0.009321    -0.000872
    12       H      0.001456     0.007588     0.000063
    13       H      0.006459    -0.003838     0.003727
    14       H     -0.000329    -0.005823    -0.002264
    15       H     -0.003031     0.000085     0.006622
    16       H      0.004696     0.000162    -0.000775
    17       H     -0.002439    -0.002659     0.002528
    18       H     -0.005143    -0.002022    -0.000486
    19       H      0.008297    -0.002074     0.002736
 


          GRADIENT NORM =   0.03455

          MOLECULAR WEIGHT =   96.17



          ROTATIONAL CONSTANTS IN CM(-1)

          A =    0.13168889   B =    0.07030677   C =    0.05125114



           PRINCIPAL MOMENTS OF INERTIA IN UNITS OF 10**(-40)*GRAM-CM**2

          A =      212.5675   B =      398.1519   C =      546.1883


          ORIENTATION OF MOLECULE IN FORCE CALCULATION

    NO.       ATOM         X         Y         Z

     1          C      -0.5827   -0.2009    0.0202
     2          C       1.0021   -0.2009    0.0202
     3          C      -1.2472    1.1559    0.0202
     4          C       1.6525   -1.0011   -1.0722
     5          C      -1.2149    1.7904   -1.3524
     6          C      -0.4634   -0.8694    1.3849
     7          C       0.8829   -0.8946    1.3724
     8          H      -1.0200   -0.8600   -0.7590
     9          H       1.4393    0.8175    0.0840
    10          H      -0.7574    1.8220    0.7582
    11          H      -2.2937    1.0450    0.3664
    12          H      -1.6786    2.7848   -1.3433
    13          H      -1.7519    1.1833   -2.0933
    14          H       2.7297   -1.1102   -0.8932
    15          H       1.5221   -0.5099   -2.0453
    16          H       1.2282   -2.0106   -1.1526
    17          H      -0.1842    1.9088   -1.7139
    18          H       1.6577   -1.2585    2.0333
    19          H      -1.2387   -1.1821    2.0710


    FIRST DERIVATIVES WILL BE USED IN THE CALCULATION OF SECOND DERIVATIVES

    FOR POINT-GROUP C1   THERE ARE   1 UNIQUE SYMMETRY FUNCTIONS.

 STEP:   1 TIME =     0.02 SECS, INTEGRAL =      0.02 TIME LEFT: 172799.98
 STEP:   2 TIME =     0.01 SECS, INTEGRAL =      0.03 TIME LEFT: 172799.97
 STEP:   3 TIME =     0.02 SECS, INTEGRAL =      0.04 TIME LEFT: 172799.96
 STEP:   4 TIME =     0.01 SECS, INTEGRAL =      0.05 TIME LEFT: 172799.95
 STEP:   5 TIME =     0.02 SECS, INTEGRAL =      0.07 TIME LEFT: 172799.93
 STEP:   6 TIME =     0.02 SECS, INTEGRAL =      0.09 TIME LEFT: 172799.91
 STEP:   7 TIME =     0.01 SECS, INTEGRAL =      0.10 TIME LEFT: 172799.90
 STEP:   8 TIME =     0.02 SECS, INTEGRAL =      0.11 TIME LEFT: 172799.89
 STEP:   9 TIME =     0.01 SECS, INTEGRAL =      0.12 TIME LEFT: 172799.88
 STEP:  10 TIME =     0.02 SECS, INTEGRAL =      0.14 TIME LEFT: 172799.86
 STEP:  11 TIME =     0.01 SECS, INTEGRAL =      0.15 TIME LEFT: 172799.85
 STEP:  12 TIME =     0.02 SECS, INTEGRAL =      0.17 TIME LEFT: 172799.83
 STEP:  13 TIME =     0.01 SECS, INTEGRAL =      0.18 TIME LEFT: 172799.82
 STEP:  14 TIME =     0.02 SECS, INTEGRAL =      0.20 TIME LEFT: 172799.80
 STEP:  15 TIME =     0.01 SECS, INTEGRAL =      0.21 TIME LEFT: 172799.79
 STEP:  16 TIME =     0.02 SECS, INTEGRAL =      0.22 TIME LEFT: 172799.78
 STEP:  17 TIME =     0.01 SECS, INTEGRAL =      0.23 TIME LEFT: 172799.77
 STEP:  18 TIME =     0.01 SECS, INTEGRAL =      0.25 TIME LEFT: 172799.75
 STEP:  19 TIME =     0.02 SECS, INTEGRAL =      0.26 TIME LEFT: 172799.74
 STEP:  20 TIME =     0.01 SECS, INTEGRAL =      0.27 TIME LEFT: 172799.73
 STEP:  21 TIME =     0.02 SECS, INTEGRAL =      0.29 TIME LEFT: 172799.71
 STEP:  22 TIME =     0.01 SECS, INTEGRAL =      0.30 TIME LEFT: 172799.70
 STEP:  23 TIME =     0.02 SECS, INTEGRAL =      0.32 TIME LEFT: 172799.68
 STEP:  24 TIME =     0.01 SECS, INTEGRAL =      0.33 TIME LEFT: 172799.67
 STEP:  25 TIME =     0.02 SECS, INTEGRAL =      0.34 TIME LEFT: 172799.66
 STEP:  26 TIME =     0.02 SECS, INTEGRAL =      0.36 TIME LEFT: 172799.64
 STEP:  27 TIME =     0.01 SECS, INTEGRAL =      0.37 TIME LEFT: 172799.63
 STEP:  28 TIME =     0.02 SECS, INTEGRAL =      0.39 TIME LEFT: 172799.61
 STEP:  29 TIME =     0.01 SECS, INTEGRAL =      0.40 TIME LEFT: 172799.60
 STEP:  30 TIME =     0.02 SECS, INTEGRAL =      0.41 TIME LEFT: 172799.59
 STEP:  31 TIME =     0.01 SECS, INTEGRAL =      0.43 TIME LEFT: 172799.57
 STEP:  32 TIME =     0.02 SECS, INTEGRAL =      0.44 TIME LEFT: 172799.56
 STEP:  33 TIME =     0.01 SECS, INTEGRAL =      0.45 TIME LEFT: 172799.55
 STEP:  34 TIME =     0.01 SECS, INTEGRAL =      0.46 TIME LEFT: 172799.54
 STEP:  35 TIME =     0.02 SECS, INTEGRAL =      0.48 TIME LEFT: 172799.52
 STEP:  36 TIME =     0.01 SECS, INTEGRAL =      0.49 TIME LEFT: 172799.51
 STEP:  37 TIME =     0.02 SECS, INTEGRAL =      0.51 TIME LEFT: 172799.49
 STEP:  38 TIME =     0.01 SECS, INTEGRAL =      0.52 TIME LEFT: 172799.48
 STEP:  39 TIME =     0.02 SECS, INTEGRAL =      0.54 TIME LEFT: 172799.46
 STEP:  40 TIME =     0.01 SECS, INTEGRAL =      0.55 TIME LEFT: 172799.45
 STEP:  41 TIME =     0.02 SECS, INTEGRAL =      0.56 TIME LEFT: 172799.44
 STEP:  42 TIME =     0.01 SECS, INTEGRAL =      0.57 TIME LEFT: 172799.43
 STEP:  43 TIME =     0.01 SECS, INTEGRAL =      0.59 TIME LEFT: 172799.41
 STEP:  44 TIME =     0.02 SECS, INTEGRAL =      0.60 TIME LEFT: 172799.40
 STEP:  45 TIME =     0.01 SECS, INTEGRAL =      0.61 TIME LEFT: 172799.39
 STEP:  46 TIME =     0.02 SECS, INTEGRAL =      0.63 TIME LEFT: 172799.37
 STEP:  47 TIME =     0.01 SECS, INTEGRAL =      0.64 TIME LEFT: 172799.36
 STEP:  48 TIME =     0.02 SECS, INTEGRAL =      0.66 TIME LEFT: 172799.34
 STEP:  49 TIME =     0.01 SECS, INTEGRAL =      0.67 TIME LEFT: 172799.33
 STEP:  50 TIME =     0.02 SECS, INTEGRAL =      0.68 TIME LEFT: 172799.32
 STEP:  51 TIME =     0.01 SECS, INTEGRAL =      0.70 TIME LEFT: 172799.30
 STEP:  52 TIME =     0.02 SECS, INTEGRAL =      0.71 TIME LEFT: 172799.29
 STEP:  53 TIME =     0.02 SECS, INTEGRAL =      0.73 TIME LEFT: 172799.27
 STEP:  54 TIME =     0.01 SECS, INTEGRAL =      0.74 TIME LEFT: 172799.26
 STEP:  55 TIME =     0.02 SECS, INTEGRAL =      0.75 TIME LEFT: 172799.25
 STEP:  56 TIME =     0.01 SECS, INTEGRAL =      0.77 TIME LEFT: 172799.23
 STEP:  57 TIME =     0.02 SECS, INTEGRAL =      0.78 TIME LEFT: 172799.22

(To convert to Hartree/Bohr^2, multiply by (10^(-21) x N x a0^2)/(4.184 x 627.51) =  0.0642)


           FORCE MATRIX IN MILLIDYNES/ANGSTROM


                  C  1       C  2       C  3       C  4       C  5       C  6
 ------------------------------------------------------------------------------
     C    1  14.359901
     C    2   2.603751  14.392670
     C    3   4.398620   0.485539  14.515993
     C    4   0.497678   4.705928   0.028893  14.536369
     C    5   0.673269   0.027670   4.457965   0.002463  14.371048
     C    6   3.925212   2.229339   0.547219   0.050334   0.050273  18.377560
     C    7   2.230176   3.919537   0.048161   0.561107   0.008064  10.391323
     H    8   4.409044   0.422983   0.435178   0.026249   0.028909   0.413227
     H    9   0.422114   4.413361   0.025964   0.427985   0.007092   0.043330
     H   10   0.449759   0.022411   4.453739   0.001092   0.437041   0.014609
     H   11   0.432553   0.043653   4.464288   0.005608   0.440615   0.016183
     H   12   0.052445   0.001930   0.450364   0.000269   4.756420   0.009101
     H   13   0.023856   0.002233   0.463492   0.000669   4.725020   0.001485
     H   14   0.044814   0.452755   0.005469   4.748513   0.000465   0.003716
     H   15   0.010432   0.451064   0.001945   4.736111   0.001637   0.006036
     H   16   0.018937   0.468630   0.000992   4.734035   0.000391   0.002470
     H   17   0.021646   0.005676   0.462675   0.002614   4.712606   0.001566
     H   18   0.113604   0.340837   0.016182   0.008717   0.002210   0.423807
     H   19   0.341351   0.114560   0.010607   0.016691   0.002340   5.278221


                  C  7       H  8       H  9       H 10       H 11       H 12
 ------------------------------------------------------------------------------
     C    7  18.372174
     H    8   0.043001   4.927504
     H    9   0.413923   0.022508   4.929276
     H   10   0.002960   0.042778   0.023439   5.065336
     H   11   0.003390   0.023625   0.002401   0.569463   5.070945
     H   12   0.001419   0.002051   0.000522   0.030975   0.027834   5.490992
     H   13   0.000968   0.019802   0.000562   0.047604   0.025098   0.571937
     H   14   0.010963   0.002329   0.027975   0.000444   0.001201   0.000133
     H   15   0.047830   0.003599   0.028738   0.000310   0.000385   0.000244
     H   16   0.013252   0.018924   0.044908   0.000473   0.000370   0.000149
     H   17   0.000847   0.002135   0.008043   0.023775   0.048584   0.568388
     H   18   5.280380   0.013843   0.005663   0.001235   0.001140   0.000455
     H   19   0.423657   0.005705   0.014294   0.002029   0.004141   0.000574


                  H 13       H 14       H 15       H 16       H 17       H 18
 ------------------------------------------------------------------------------
     H   13   5.468183
     H   14   0.000210   5.472242
     H   15   0.000591   0.565329   5.456719
     H   16   0.000290   0.571826   0.569263   5.465642
     H   17   0.575780   0.000200   0.006953   0.000278   5.446025
     H   18   0.000211   0.003102   0.001603   0.002227   0.000384   5.665558
     H   19   0.000602   0.001159   0.002485   0.001325   0.000667   0.030441


                  H 19
 ------------------
     H   19   5.664448


          HEAT OF FORMATION =      18.977974 KCALS/MOLE

          ZERO POINT ENERGY     106.810 KCAL/MOL


           NORMAL COORDINATE ANALYSIS (Total motion = 1 Angstrom)


   Root No.       1         2         3         4         5         6         7         8

                 1 A       2 A       3 A       4 A       5 A       6 A       7 A       8 A   

                  90.3     131.8     175.8     187.2     286.6     310.7     350.6     427.5
  
           1   -0.0156   -0.0067   -0.0036   -0.0078    0.0074   -0.0338    0.0152   -0.0191
           2   -0.0178    0.0047    0.0004   -0.0115    0.0047   -0.0237   -0.0324   -0.0230
           3    0.0059    0.0266    0.0078   -0.0076    0.0055   -0.0019   -0.0187    0.0208
           4   -0.0158   -0.0076   -0.0032   -0.0069    0.0107   -0.0327    0.0105   -0.0240
           5    0.0066    0.0004   -0.0012    0.0071   -0.0282   -0.0201   -0.0232    0.0029
           6   -0.0134    0.0176   -0.0038   -0.0088    0.0005   -0.0298    0.0140    0.0077
           7   -0.0324    0.0070   -0.0079   -0.0066   -0.0296    0.0236    0.0312    0.0193
           8   -0.0262    0.0102   -0.0019   -0.0105   -0.0130    0.0059   -0.0277    0.0025
           9   -0.0057   -0.0036   -0.0010    0.0031   -0.0210    0.0161   -0.0147   -0.0418
          10   -0.0191   -0.0187    0.0010    0.0072    0.0289    0.0429   -0.0165   -0.0095
          11    0.0007    0.0523    0.0051   -0.0027   -0.0026    0.0102    0.0167    0.0063
          12   -0.0111   -0.0253   -0.0061    0.0068   -0.0080   -0.0054   -0.0308    0.0199
          13    0.0564    0.0277    0.0013    0.0073   -0.0181    0.0083   -0.0058   -0.0120
          14    0.0090   -0.0366   -0.0073    0.0010    0.0270   -0.0077    0.0139    0.0473
          15    0.0127   -0.0262   -0.0033    0.0090   -0.0014    0.0111    0.0059   -0.0307
          16    0.0114   -0.0020    0.0060    0.0013    0.0030   -0.0125   -0.0146    0.0223
          17    0.0033   -0.0030    0.0079   -0.0059    0.0462    0.0151    0.0126   -0.0386
          18    0.0141    0.0216    0.0108   -0.0057    0.0278    0.0151    0.0066    0.0249
          19    0.0118   -0.0024    0.0056    0.0018    0.0008   -0.0131   -0.0136    0.0229
          20    0.0249   -0.0324   -0.0021    0.0226   -0.0380    0.0101    0.0252   -0.0094
          21   -0.0018    0.0011   -0.0037   -0.0004   -0.0052   -0.0135    0.0401    0.0017
          22   -0.0150   -0.0104   -0.0098   -0.0070    0.0094   -0.0668    0.0232   -0.0309
          23   -0.0338   -0.0011   -0.0068   -0.0093   -0.0231   -0.0248   -0.0385   -0.0385
          24    0.0193    0.0325    0.0170   -0.0088    0.0276    0.0206   -0.0166    0.0414
          25   -0.0307   -0.0075   -0.0023   -0.0180    0.0158   -0.0616    0.0086   -0.0464
          26    0.0144   -0.0011   -0.0017    0.0128   -0.0314   -0.0046   -0.0212    0.0135
          27   -0.0339    0.0525    0.0011   -0.0235    0.0262   -0.0371    0.0149   -0.0007
          28   -0.0897    0.0125   -0.0166   -0.0038   -0.0778    0.0834    0.0533    0.0496
          29   -0.0395    0.0249    0.0025   -0.0218   -0.0087   -0.0119   -0.0435   -0.0014
          30    0.0443   -0.0208    0.0007    0.0118    0.0069   -0.0063   -0.0137   -0.0571
          31   -0.0546    0.0038   -0.0104   -0.0085   -0.0378    0.0317    0.0382    0.0205
          32   -0.0464    0.0351   -0.0050   -0.0048   -0.0568    0.0608   -0.0251    0.0418
          33   -0.0799   -0.0064   -0.0094   -0.0016   -0.0573    0.0573    0.0086   -0.0260
          34    0.0391    0.0812   -0.0258    0.2019    0.0177   -0.0193   -0.0205   -0.0256
          35    0.0010   -0.0117   -0.0198    0.0911    0.0438   -0.0206    0.0071    0.0420
          36    0.0044   -0.0570   -0.0169    0.0580    0.0377   -0.0011    0.0564    0.0304
          37    0.1203   -0.0112    0.0323   -0.1697   -0.0470    0.0263   -0.0167   -0.0267
          38    0.0184   -0.0338   -0.0252    0.1144    0.0723   -0.0318    0.0342    0.0775
          39   -0.0413   -0.0004   -0.0110    0.0449   -0.0170    0.0177   -0.0024   -0.0437
          40   -0.0148   -0.0106   -0.0409   -0.0003    0.0328    0.0413   -0.0119   -0.0119
          41    0.0201    0.0733   -0.1953   -0.0252    0.0287    0.0696   -0.0015    0.0142
          42   -0.0255   -0.0622    0.1263    0.0387   -0.0102    0.0452   -0.0741    0.0403
          43   -0.0413   -0.0612    0.2140    0.0460    0.0140    0.0637   -0.0452    0.0038
          44   -0.0151    0.0845    0.1281    0.0030    0.0015    0.0029    0.0738   -0.0006
          45   -0.0161   -0.0038    0.0275    0.0044   -0.0039   -0.0117    0.0005    0.0151
          46   -0.0047    0.0039   -0.1573   -0.0111    0.0594    0.1009   -0.0282   -0.0024
          47   -0.0070    0.0448    0.0841    0.0062   -0.0144   -0.0116    0.0255    0.0032
          48    0.0097   -0.0483   -0.1698   -0.0087   -0.0156   -0.0238   -0.0763    0.0204
          49    0.0805    0.0312    0.0052    0.0023   -0.0173    0.0055   -0.0172   -0.0257
          50    0.0357   -0.1055    0.0191   -0.1961    0.0030    0.0169    0.0434    0.0820
          51    0.0897   -0.0397    0.0162   -0.0710   -0.0063    0.0108   -0.0160   -0.0562
          52    0.0257   -0.0007    0.0105    0.0072   -0.0062   -0.0005   -0.0288    0.0493
          53    0.0473   -0.0618   -0.0076    0.0469   -0.0893    0.0285    0.0788   -0.0043
          54   -0.0058   -0.0170   -0.0123    0.0066   -0.0252   -0.0182    0.0872   -0.0260
          55    0.0250    0.0015    0.0112    0.0055    0.0010    0.0007   -0.0315    0.0484
          56   -0.0001    0.0054    0.0167   -0.0185    0.1208    0.0471    0.0439   -0.0860
          57    0.0279    0.0295    0.0207   -0.0067    0.0596    0.0447    0.0018    0.0325


   Root No.       9        10        11        12        13        14        15        16

                 9 A      10 A      11 A      12 A      13 A      14 A      15 A      16 A   

                 564.6     763.8     792.2     833.0     878.7     936.9     942.3     969.3
  
           1    0.0068   -0.0189   -0.0253   -0.0019    0.0309   -0.0052   -0.0128   -0.0142
           2   -0.0217   -0.0079   -0.0114   -0.0004    0.0185   -0.0084    0.0148    0.0133
           3   -0.0260   -0.0273   -0.0011    0.0320    0.0072    0.0035    0.0061    0.0198
           4   -0.0087   -0.0027    0.0292    0.0304   -0.0209   -0.0011    0.0041    0.0033
           5    0.0425   -0.0176    0.0047    0.0331    0.0010    0.0115   -0.0101    0.0009
           6    0.0036    0.0162    0.0103   -0.0073   -0.0106   -0.0095    0.0022    0.0003
           7    0.0265   -0.0230   -0.0294    0.0008   -0.0091   -0.0029    0.0052    0.0020
           8   -0.0324    0.0137   -0.0059   -0.0078   -0.0121    0.0024   -0.0098   -0.0039
           9   -0.0047    0.0055   -0.0044   -0.0038   -0.0059    0.0007   -0.0076   -0.0018
          10   -0.0276   -0.0089    0.0136    0.0197   -0.0145    0.0005   -0.0039    0.0012
          11    0.0150    0.0051   -0.0045    0.0006    0.0010    0.0162    0.0018   -0.0050
          12    0.0327    0.0189   -0.0032   -0.0179   -0.0082   -0.0252    0.0156    0.0039
          13    0.0058   -0.0037   -0.0051    0.0007   -0.0076    0.0018    0.0070    0.0112
          14   -0.0109    0.0054    0.0011   -0.0009   -0.0081    0.0039   -0.0182   -0.0269
          15    0.0128   -0.0028   -0.0001   -0.0039   -0.0017    0.0010    0.0059   -0.0015
          16   -0.0003    0.0257    0.0014   -0.0267   -0.0018    0.0143    0.0030    0.0060
          17    0.0326   -0.0095    0.0137   -0.0329   -0.0040    0.0151    0.0393   -0.0121
          18   -0.0024   -0.0286   -0.0022    0.0175    0.0079   -0.0141   -0.0042   -0.0313
          19   -0.0015    0.0257    0.0011   -0.0274   -0.0018    0.0118    0.0010    0.0083
          20   -0.0182   -0.0246    0.0116   -0.0081   -0.0086   -0.0278   -0.0221    0.0109
          21   -0.0298    0.0001    0.0030   -0.0307    0.0072    0.0324   -0.0338    0.0118
          22    0.0282   -0.0168   -0.0123    0.0218    0.0531   -0.0572   -0.0673   -0.0647
          23   -0.0434    0.0213   -0.0396   -0.0083    0.0253   -0.0463   -0.0148    0.0408
          24   -0.0195   -0.0515    0.0178    0.0260   -0.0131    0.0648    0.0613    0.0248
          25   -0.0269   -0.0089    0.0315    0.0487    0.0065   -0.0562    0.0600   -0.0187
          26    0.0485   -0.0172    0.0020    0.0208   -0.0089    0.0333   -0.0384    0.0140
          27    0.0216    0.0584    0.0122    0.0275   -0.0214   -0.0034    0.0792   -0.0630
          28    0.0648    0.0329    0.1052    0.0150    0.0525    0.0005    0.0046   -0.0142
          29   -0.0557    0.0000   -0.0224    0.0053    0.0375   -0.0131   -0.0054    0.0393
          30   -0.0067   -0.0184   -0.0739   -0.0240   -0.0875    0.0125   -0.0103   -0.0287
          31    0.0366   -0.0130   -0.0021    0.0013    0.0303   -0.0110   -0.0002   -0.0101
          32   -0.0187    0.0640    0.1043    0.0155   -0.0196    0.0293   -0.0014    0.0242
          33    0.0293    0.0476    0.1043    0.0041    0.1023   -0.0143   -0.0179   -0.0247
          34   -0.0045    0.0162    0.0278   -0.0014    0.0351   -0.0052   -0.0140   -0.0200
          35   -0.0160    0.0143    0.0164   -0.0012    0.0118    0.0007   -0.0273   -0.0394
          36    0.0491   -0.0504   -0.0062    0.0343    0.0337   -0.0145    0.1081    0.1746
          37   -0.0008    0.0207    0.0345   -0.0015    0.0363   -0.0067   -0.0132   -0.0199
          38    0.0021   -0.0035    0.0362    0.0259    0.0662   -0.0165    0.0293    0.0688
          39    0.0073   -0.0130   -0.0547   -0.0230   -0.0898    0.0230   -0.0168   -0.0545
          40   -0.0325   -0.0072    0.0196    0.0184   -0.0229   -0.0134   -0.0017    0.0051
          41   -0.0122    0.0071   -0.0448   -0.0698    0.0574   -0.0166    0.0114    0.0089
          42    0.0418    0.0064   -0.0678   -0.0543    0.0865    0.0443    0.0070   -0.0108
          43   -0.0157   -0.0266   -0.0237    0.0202    0.0465    0.0772   -0.0231   -0.0140
          44   -0.0252    0.0302    0.0094   -0.0692   -0.0273   -0.1226    0.0329    0.0299
          45    0.0122    0.0340    0.0080   -0.0522   -0.0296   -0.1026    0.0342    0.0224
          46   -0.0611   -0.0088   -0.0248   -0.0513    0.0437   -0.0373    0.0012    0.0151
          47    0.0236    0.0062    0.0104    0.0212   -0.0218    0.0199    0.0017   -0.0068
          48    0.0829    0.0046    0.0045    0.0701   -0.0169    0.0974   -0.0010   -0.0324
          49   -0.0013    0.0156    0.0269   -0.0015    0.0309   -0.0057   -0.0085   -0.0139
          50    0.0096   -0.0236   -0.0178    0.0173   -0.0170    0.0026    0.0318    0.0637
          51   -0.0007    0.0395    0.0788   -0.0035    0.0968   -0.0191   -0.0183   -0.0384
          52    0.0032    0.0284   -0.0248   -0.0237    0.0162   -0.0707    0.0180   -0.0403
          53   -0.0995    0.1424   -0.0932    0.1395    0.0381   -0.0164    0.1745   -0.0819
          54   -0.0806    0.0896   -0.0236    0.0458    0.0111    0.1358    0.0538    0.0176
          55   -0.0038    0.0365    0.0134    0.0067   -0.0331   -0.0437    0.0010   -0.0163
          56    0.1054    0.1809   -0.0725    0.0970    0.0057   -0.0070   -0.1444    0.1108
          57    0.0263    0.0698   -0.0273    0.1162   -0.0232   -0.0891   -0.0914   -0.0005


   Root No.      17        18        19        20        21        22        23        24

                17 A      18 A      19 A      20 A      21 A      22 A      23 A      24 A   

                 997.0    1022.0    1033.5    1044.7    1118.7    1122.5    1139.2    1151.0
  
           1   -0.0081    0.0097    0.0026    0.0095    0.0155    0.0068   -0.0250    0.0154
           2    0.0034   -0.0026    0.0012    0.0033    0.0072    0.0128   -0.0323    0.0247
           3   -0.0023    0.0214    0.0016   -0.0030   -0.0125   -0.0003    0.0057   -0.0064
           4    0.0075    0.0120   -0.0106   -0.0120   -0.0123   -0.0123    0.0166   -0.0418
           5    0.0035    0.0154   -0.0092    0.0077   -0.0049   -0.0055    0.0256    0.0330
           6    0.0062   -0.0042    0.0049   -0.0026   -0.0026   -0.0064    0.0227   -0.0125
           7   -0.0129   -0.0070   -0.0109   -0.0175   -0.0046   -0.0335    0.0064    0.0044
           8   -0.0046   -0.0066    0.0002    0.0000    0.0131   -0.0207    0.0124   -0.0030
           9   -0.0027   -0.0043   -0.0002    0.0016   -0.0483    0.0068    0.0128   -0.0023
          10   -0.0170   -0.0102    0.0098    0.0126    0.0036    0.0050   -0.0068    0.0157
          11   -0.0030   -0.0120    0.0045   -0.0064    0.0000    0.0016   -0.0278   -0.0304
          12   -0.0132    0.0098   -0.0088    0.0031    0.0003    0.0031   -0.0177   -0.0054
          13    0.0113    0.0001    0.0067    0.0118    0.0041    0.0382    0.0041   -0.0061
          14   -0.0026    0.0149   -0.0027   -0.0044   -0.0080    0.0193    0.0016   -0.0039
          15    0.0026    0.0036    0.0007   -0.0001    0.0545   -0.0094   -0.0028   -0.0051
          16    0.0008   -0.0031   -0.0024    0.0005   -0.0012    0.0018    0.0002    0.0096
          17   -0.0005   -0.0055   -0.0092    0.0100   -0.0078   -0.0026    0.0121   -0.0073
          18    0.0012   -0.0103    0.0032    0.0195   -0.0053   -0.0052   -0.0017   -0.0005
          19   -0.0005   -0.0007    0.0050    0.0011   -0.0033   -0.0009    0.0051    0.0018
          20    0.0078   -0.0062    0.0087   -0.0252    0.0035    0.0057   -0.0030    0.0014
          21    0.0012   -0.0095    0.0148    0.0044    0.0041    0.0006   -0.0083    0.0102
          22    0.0719    0.0069    0.0002    0.1211    0.0294   -0.0268    0.0823   -0.0159
          23    0.0093   -0.1021   -0.0051    0.0438   -0.0856   -0.0036   -0.0382   -0.0319
          24   -0.0523    0.1063    0.0084   -0.1001    0.0554    0.0310   -0.0492    0.0588
          25    0.0934    0.0288    0.0211   -0.1098   -0.0300    0.0063   -0.1046   -0.0459
          26   -0.0372    0.0138   -0.0294    0.0569    0.0010   -0.0162    0.0723    0.0229
          27    0.0536   -0.0932    0.1039   -0.1177    0.0324    0.0406    0.1134    0.2108
          28    0.0392    0.0326    0.0158    0.0298   -0.0124    0.0211   -0.0736    0.0421
          29   -0.0682   -0.0464   -0.0203   -0.0307    0.1382    0.0406    0.1455   -0.1089
          30    0.0205    0.0055    0.0012   -0.0002   -0.1555   -0.0842   -0.0535    0.0698
          31   -0.0329   -0.0101   -0.0225   -0.0292   -0.0174    0.0405    0.0180    0.0005
          32    0.0978    0.0406    0.0663    0.0980    0.0673   -0.1283   -0.0547    0.0140
          33   -0.0297   -0.0006   -0.0130   -0.0035   -0.0714    0.1953    0.0283   -0.0105
          34   -0.0239   -0.0017   -0.0127   -0.0184   -0.0129   -0.0293    0.0001    0.0057
          35   -0.0185    0.0135   -0.0112   -0.0176   -0.0166   -0.0120    0.0012    0.0004
          36    0.0330   -0.0672    0.0293    0.0431    0.0416   -0.0168    0.0072    0.0052
          37   -0.0224   -0.0015   -0.0123   -0.0176   -0.0144   -0.0294   -0.0030    0.0074
          38   -0.0197   -0.0431   -0.0027   -0.0030   -0.0747   -0.0490    0.0148    0.0079
          39    0.0391    0.0505    0.0140    0.0190    0.1233    0.0928   -0.0074   -0.0240
          40   -0.0256   -0.0060    0.0085    0.0199    0.0042    0.0064   -0.0054    0.0278
          41    0.0627    0.0472   -0.0361   -0.0396   -0.0152   -0.0151    0.0231   -0.0369
          42    0.0943    0.0247   -0.0265   -0.0694   -0.0173   -0.0197    0.0153   -0.0859
          43    0.0562   -0.0186    0.0123   -0.0319   -0.0078   -0.0120    0.0308   -0.0225
          44   -0.0334    0.0614   -0.0406    0.0257   -0.0007    0.0045   -0.0102    0.0246
          45   -0.0369    0.0463   -0.0309    0.0231    0.0015    0.0069   -0.0145    0.0250
          46    0.0575    0.0534   -0.0295   -0.0150   -0.0118   -0.0160    0.0754    0.0348
          47   -0.0319   -0.0291    0.0150    0.0060    0.0051    0.0093   -0.0564   -0.0332
          48   -0.0275   -0.0795    0.0442   -0.0185    0.0082    0.0138   -0.0946   -0.0837
          49   -0.0183   -0.0028   -0.0098   -0.0145    0.0049   -0.0235   -0.0026    0.0046
          50    0.0300   -0.0138    0.0208    0.0344   -0.0354    0.0617    0.0160   -0.0104
          51   -0.0648   -0.0140   -0.0349   -0.0586    0.0515   -0.1666   -0.0180    0.0228
          52   -0.0183   -0.0063    0.1765    0.0101   -0.0029   -0.0223    0.0139   -0.0500
          53   -0.0236    0.0255    0.0409    0.0448   -0.0074   -0.0160    0.0185   -0.0286
          54    0.0051    0.0138   -0.1672    0.0329   -0.0030    0.0129   -0.0061    0.0532
          55    0.0493   -0.0839   -0.1510   -0.0165    0.0507    0.0255   -0.0381    0.0226
          56   -0.0161    0.0644    0.0817   -0.0392   -0.0111   -0.0021    0.0031    0.0077
          57    0.0489   -0.0692   -0.1224   -0.0217    0.0509    0.0210   -0.0483    0.0195


   Root No.      25        26        27        28        29        30        31        32

                25 A      26 A      27 A      28 A      29 A      30 A      31 A      32 A   

                1165.4    1185.6    1193.6    1223.3    1276.1    1341.5    1378.7    1397.4
  
           1   -0.0365   -0.0010   -0.0046   -0.0401   -0.0140    0.0097    0.0169   -0.0008
           2    0.0161   -0.0129   -0.0276    0.0123    0.0167    0.0098   -0.0233   -0.0009
           3    0.0310    0.0330   -0.0368    0.0061   -0.0306   -0.0137    0.0172    0.0012
           4   -0.0019   -0.0204   -0.0121   -0.0261    0.0203   -0.0251   -0.0068    0.0064
           5    0.0118   -0.0271    0.0413    0.0110   -0.0124   -0.0083    0.0005   -0.0029
           6    0.0079   -0.0239   -0.0271    0.0066    0.0140    0.0534   -0.0001   -0.0118
           7    0.0153    0.0045   -0.0027    0.0109   -0.0108    0.0029    0.0005   -0.0025
           8   -0.0300   -0.0012    0.0102    0.0184    0.0398   -0.0147    0.0024    0.0047
           9   -0.0381    0.0077    0.0072   -0.0067   -0.0283    0.0109   -0.0158    0.0007
          10    0.0055    0.0041    0.0040    0.0101   -0.0052   -0.0075   -0.0057   -0.0289
          11   -0.0073    0.0121   -0.0044    0.0043    0.0015    0.0145    0.0056   -0.0244
          12   -0.0054    0.0130    0.0087   -0.0009   -0.0035    0.0110    0.0109    0.0117
          13   -0.0041   -0.0037    0.0035   -0.0007    0.0054   -0.0015    0.0040   -0.0009
          14    0.0111    0.0040   -0.0029   -0.0053   -0.0113   -0.0010    0.0121   -0.0027
          15    0.0228   -0.0020    0.0025   -0.0016    0.0007    0.0052   -0.0286    0.0028
          16    0.0063    0.0107    0.0128    0.0024    0.0096    0.0038   -0.0044   -0.0002
          17    0.0046   -0.0017   -0.0103    0.0067   -0.0251   -0.0029    0.0080   -0.0006
          18   -0.0009   -0.0005    0.0436   -0.0226    0.0435    0.0064   -0.0121    0.0005
          19    0.0108    0.0142    0.0024    0.0031    0.0084    0.0090   -0.0000   -0.0015
          20   -0.0027    0.0257   -0.0162   -0.0144    0.0124    0.0136    0.0009   -0.0012
          21    0.0013   -0.0316    0.0152    0.0232   -0.0239   -0.0330   -0.0032    0.0036
          22   -0.0442    0.1677   -0.0890    0.1694    0.0037   -0.0316   -0.0216    0.0098
          23    0.1969   -0.0224    0.0420   -0.1329   -0.0395   -0.0126    0.0402   -0.0019
          24   -0.1173   -0.0564   -0.0481    0.0057    0.0091    0.0289   -0.0144   -0.0040
          25    0.0132    0.0340    0.2258    0.1267   -0.0564    0.0227    0.0203   -0.0121
          26    0.0053   -0.0574   -0.0633   -0.0535    0.0236   -0.0221   -0.0116    0.0030
          27   -0.0005    0.0844   -0.0258   -0.0871   -0.0119   -0.0672    0.0012    0.0135
          28    0.0586   -0.0139   -0.0509    0.0067    0.0265    0.0004   -0.1111    0.0233
          29   -0.0526    0.0377    0.0996   -0.0252   -0.0898    0.0248   -0.0028   -0.0065
          30   -0.0503   -0.0152   -0.0434    0.0350    0.0652   -0.0242    0.0775   -0.0091
          31    0.0265   -0.0089   -0.0100    0.0380    0.0342   -0.0140    0.0249   -0.0034
          32   -0.0797    0.0280    0.0135   -0.1208   -0.0994    0.0320    0.0774   -0.0198
          33   -0.0234   -0.0258   -0.0119    0.0276    0.0661   -0.0277    0.1138   -0.0158
          34   -0.0020    0.0038   -0.0051    0.0019   -0.0134    0.0134   -0.0400    0.0132
          35    0.0092    0.0086   -0.0056   -0.0061   -0.0251    0.0094   -0.0173    0.0050
          36   -0.0623   -0.0204    0.0135    0.0377    0.1025   -0.0464    0.1028   -0.0049
          37    0.0039    0.0029   -0.0056    0.0019   -0.0120    0.0099   -0.0541    0.0057
          38   -0.0675    0.0083    0.0087   -0.0020   -0.0296    0.0221   -0.0650    0.0017
          39    0.0789   -0.0104   -0.0007   -0.0036    0.0332   -0.0253    0.0892   -0.0056
          40    0.0094    0.0012    0.0120    0.0175   -0.0100    0.0168    0.0069    0.0489
          41   -0.0080   -0.0185   -0.0028   -0.0418    0.0152   -0.0677   -0.0121    0.2056
          42   -0.0226   -0.0015   -0.0335   -0.0600    0.0321   -0.1269   -0.0533   -0.2286
          43    0.0111   -0.0345   -0.0173    0.0138    0.0061    0.0955    0.0363    0.3185
          44   -0.0078    0.0215    0.0308   -0.0239   -0.0039   -0.1194   -0.0331    0.1281
          45   -0.0076    0.0251    0.0267   -0.0183   -0.0061   -0.0805   -0.0191    0.0310
          46    0.0181   -0.0489    0.0156    0.0057   -0.0006    0.0717    0.0203   -0.0639
          47   -0.0109    0.0299   -0.0046    0.0045   -0.0012   -0.0203   -0.0044    0.0058
          48   -0.0257    0.0628   -0.0343   -0.0072    0.0115   -0.0838   -0.0329    0.1325
          49    0.0100   -0.0012   -0.0034    0.0076    0.0163   -0.0134    0.0484   -0.0056
          50   -0.0516    0.0005    0.0111   -0.0086   -0.0168    0.0175   -0.0412    0.0128
          51    0.0422    0.0030   -0.0121    0.0222    0.0394   -0.0309    0.1133   -0.0098
          52   -0.0022   -0.1272   -0.0331    0.0533   -0.0614   -0.0487    0.0002    0.0043
          53   -0.0017   -0.0569   -0.0250    0.0163   -0.0202   -0.0052    0.0015   -0.0002
          54    0.0185    0.0863    0.0540   -0.0174    0.0421    0.0229   -0.0047   -0.0026
          55   -0.0466   -0.0728   -0.0775    0.0392   -0.0961   -0.0201    0.0162    0.0002
          56    0.0261    0.0344    0.0129    0.0010    0.0295    0.0107   -0.0054   -0.0011
          57   -0.0499   -0.0801   -0.0456    0.0161   -0.0493   -0.0169    0.0042    0.0011


   Root No.      33        34        35        36        37        38        39        40

                33 A      34 A      35 A      36 A      37 A      38 A      39 A      40 A   

                1404.7    1407.6    1411.2    1415.8    1429.4    1451.7    1778.2    2948.4
  
           1   -0.0022   -0.0016    0.0039    0.0179    0.0071    0.0371    0.0045   -0.0106
           2    0.0014    0.0052   -0.0060   -0.0280   -0.0186   -0.0483   -0.0150   -0.0160
           3    0.0005   -0.0033    0.0029    0.0137    0.0159    0.0221    0.0184   -0.0197
           4    0.0007   -0.0042    0.0003    0.0056    0.0145   -0.0415   -0.0046    0.0059
           5    0.0002    0.0018   -0.0003   -0.0017   -0.0043    0.0157   -0.0055    0.0152
           6   -0.0009    0.0062   -0.0021   -0.0156   -0.0296    0.0545    0.0231    0.0006
           7    0.0026    0.0045   -0.0024   -0.0228   -0.0059   -0.0188   -0.0017    0.0200
           8   -0.0026   -0.0080    0.0014    0.0313    0.0275    0.0420    0.0063    0.0103
           9   -0.0085   -0.0020    0.0028    0.0190   -0.0358   -0.0200   -0.0044    0.0057
          10    0.0027   -0.0184   -0.0016   -0.0124   -0.0157    0.0247    0.0017   -0.0006
          11   -0.0010    0.0108    0.0023    0.0151    0.0183   -0.0267   -0.0011   -0.0006
          12    0.0012   -0.0293    0.0038    0.0159    0.0251   -0.0397   -0.0065    0.0003
          13   -0.0246   -0.0024   -0.0276    0.0014    0.0011    0.0012   -0.0003   -0.0010
          14   -0.0252    0.0002    0.0285   -0.0001   -0.0192   -0.0118   -0.0000   -0.0007
          15   -0.0066   -0.0012    0.0012   -0.0168    0.0402    0.0187    0.0010   -0.0003
          16    0.0003    0.0006   -0.0009   -0.0046   -0.0035   -0.0086    0.2116   -0.0005
          17   -0.0004   -0.0009    0.0016    0.0062    0.0021    0.0140   -0.0035    0.0001
          18    0.0003    0.0012   -0.0018   -0.0078   -0.0053   -0.0187   -0.0033   -0.0001
          19    0.0001    0.0009   -0.0004   -0.0026   -0.0032    0.0096   -0.2115    0.0005
          20   -0.0002    0.0003   -0.0000   -0.0007   -0.0023    0.0058    0.0048   -0.0001
          21    0.0007   -0.0010   -0.0000    0.0020    0.0081   -0.0224    0.0007   -0.0000
          22   -0.0007   -0.0057   -0.0059   -0.0203   -0.0016   -0.0584    0.0169    0.1359
          23    0.0058   -0.0008    0.0097    0.0296    0.0290    0.0529    0.0268    0.1979
          24   -0.0046    0.0044   -0.0053   -0.0121   -0.0183   -0.0084   -0.0142    0.2371
          25    0.0026    0.0001    0.0020   -0.0060   -0.0105    0.0649   -0.0171   -0.0796
          26   -0.0010    0.0011   -0.0015    0.0018    0.0027   -0.0247   -0.0043   -0.1833
          27    0.0015   -0.0130    0.0031    0.0224    0.0327   -0.0471   -0.0297   -0.0105
          28   -0.0392   -0.0349   -0.0041    0.1746   -0.0458    0.0326    0.0018   -0.0802
          29   -0.0009    0.0090    0.0076   -0.0335   -0.0458   -0.0501   -0.0052   -0.1097
          30    0.0217    0.0130   -0.0014   -0.0760    0.0650    0.0260    0.0033   -0.1244
          31    0.0103    0.0060   -0.0042   -0.0391    0.0310    0.0053    0.0019   -0.1582
          32    0.0191    0.0283    0.0062   -0.1255   -0.0006   -0.0420   -0.0024   -0.0164
          33    0.0344    0.0236    0.0007   -0.1290    0.0850    0.0197    0.0018    0.0545
          34    0.3118    0.0201    0.0728    0.0147    0.0073    0.0072   -0.0001   -0.0002
          35    0.1402    0.0104    0.0453    0.0043   -0.0068   -0.0048    0.0004   -0.0002
          36    0.0132    0.0012    0.2044    0.0609   -0.0868   -0.0148   -0.0001    0.0001
          37    0.0235    0.0067    0.3171   -0.0303    0.0331    0.0157    0.0004    0.0058
          38   -0.1304   -0.0133   -0.1873   -0.0348    0.0792    0.0305    0.0003    0.0066
          39    0.0770    0.0054   -0.0759    0.0445   -0.0789   -0.0322    0.0001    0.0064
          40    0.0012   -0.0315    0.0004   -0.0065   -0.0050    0.0085   -0.0002    0.0025
          41    0.0157   -0.2262   -0.0048   -0.0701   -0.0560    0.0526    0.0008    0.0001
          42    0.0082    0.0133   -0.0088   -0.0350   -0.0466    0.0577    0.0028    0.0013
          43   -0.0146    0.0505    0.0033    0.0131    0.0176   -0.0253    0.0038   -0.0013
          44   -0.0128    0.1835   -0.0126   -0.0305   -0.0468    0.0648   -0.0034    0.0027
          45   -0.0035    0.0732   -0.0060   -0.0127   -0.0174    0.0218   -0.0081   -0.0037
          46   -0.0203    0.2394    0.0053    0.0745    0.0656   -0.0737   -0.0031    0.0030
          47    0.0101   -0.1185   -0.0005   -0.0248   -0.0176    0.0157    0.0006    0.0067
          48   -0.0176    0.2255   -0.0132   -0.0335   -0.0563    0.0804    0.0057   -0.0002
          49   -0.0317   -0.0016   -0.0481    0.0178   -0.0431   -0.0201   -0.0006    0.0086
          50    0.2839    0.0123   -0.1886    0.0261    0.0244    0.0178    0.0001    0.0000
          51    0.0282    0.0012   -0.1796    0.0501   -0.0970   -0.0439   -0.0002   -0.0014
          52    0.0009   -0.0021    0.0006    0.0050    0.0110   -0.0181   -0.1137    0.0021
          53    0.0000   -0.0008    0.0000    0.0006    0.0002    0.0016    0.0786   -0.0010
          54    0.0001    0.0020   -0.0014   -0.0075   -0.0074    0.0049   -0.1532    0.0019
          55   -0.0008   -0.0018    0.0028    0.0119    0.0069    0.0175    0.1136   -0.0013
          56    0.0005    0.0015   -0.0017   -0.0071   -0.0045   -0.0024    0.0758   -0.0009
          57   -0.0004   -0.0005    0.0010    0.0048    0.0044    0.0005   -0.1549    0.0013


   Root No.      41        42        43        44        45        46        47        48

                41 A      42 A      43 A      44 A      45 A      46 A      47 A      48 A   

                2954.6    2959.7    3034.2    3075.6    3079.5    3083.0    3085.0    3177.4
  
           1   -0.0006   -0.0107   -0.0001    0.0000    0.0001    0.0001   -0.0001    0.0000
           2   -0.0003   -0.0153    0.0008    0.0000   -0.0000   -0.0002    0.0002   -0.0001
           3   -0.0000   -0.0183    0.0004    0.0002    0.0000   -0.0003   -0.0003   -0.0001
           4   -0.0135   -0.0069   -0.0001    0.0001   -0.0008   -0.0004   -0.0000   -0.0002
           5   -0.0308   -0.0153   -0.0006    0.0000   -0.0018   -0.0005   -0.0001    0.0000
           6   -0.0016   -0.0010   -0.0000    0.0000    0.0000   -0.0001   -0.0000    0.0003
           7    0.0255   -0.0210   -0.0171   -0.0026    0.0002   -0.0000    0.0008    0.0000
           8    0.0131   -0.0109    0.0156   -0.0009    0.0002   -0.0001   -0.0014   -0.0001
           9    0.0067   -0.0057    0.0312    0.0000    0.0001   -0.0002   -0.0023    0.0000
          10    0.0010    0.0004    0.0000   -0.0001   -0.0160   -0.0401    0.0019   -0.0097
          11    0.0012    0.0006    0.0001   -0.0050   -0.0399    0.0028   -0.0013    0.0112
          12   -0.0005   -0.0002   -0.0001    0.0037    0.0192   -0.0267    0.0021    0.0146
          13   -0.0016    0.0009    0.0025   -0.0446    0.0049   -0.0012    0.0151    0.0004
          14   -0.0007    0.0005   -0.0036   -0.0138    0.0028   -0.0032   -0.0388   -0.0019
          15   -0.0003    0.0003   -0.0010   -0.0067    0.0015   -0.0016   -0.0187    0.0035
          16    0.0004   -0.0002   -0.0001    0.0000    0.0000    0.0000    0.0000   -0.0001
          17   -0.0001   -0.0001    0.0002    0.0000   -0.0000   -0.0000    0.0000   -0.0000
          18   -0.0003   -0.0004   -0.0000   -0.0000   -0.0000    0.0000    0.0000    0.0001
          19   -0.0004    0.0001   -0.0000    0.0000    0.0001   -0.0001    0.0000   -0.0000
          20   -0.0002   -0.0003    0.0000   -0.0000   -0.0001    0.0000   -0.0000    0.0000
          21    0.0002    0.0002   -0.0000   -0.0000   -0.0002    0.0001   -0.0000   -0.0001
          22    0.0049    0.1277   -0.0027   -0.0013    0.0005    0.0011   -0.0001    0.0003
          23    0.0005    0.1881   -0.0049   -0.0008   -0.0009    0.0006    0.0009    0.0010
          24    0.0026    0.2230   -0.0043   -0.0019   -0.0004    0.0006   -0.0003    0.0012
          25    0.1655    0.0836    0.0021   -0.0004    0.0073    0.0014    0.0004    0.0004
          26    0.3767    0.1845    0.0062   -0.0011    0.0216    0.0072    0.0009    0.0019
          27    0.0217    0.0102    0.0006    0.0006    0.0040    0.0005   -0.0000    0.0006
          28   -0.0978    0.0792   -0.2105    0.0039   -0.0014    0.0012    0.0159    0.0003
          29   -0.1358    0.1142   -0.2514    0.0061   -0.0017    0.0015    0.0172    0.0003
          30   -0.1519    0.1257   -0.2659    0.0107   -0.0024    0.0019    0.0219    0.0005
          31   -0.2105    0.1718    0.4186    0.0251   -0.0015   -0.0006   -0.0246   -0.0005
          32   -0.0204    0.0157    0.0611    0.0040   -0.0002   -0.0002   -0.0051   -0.0002
          33    0.0724   -0.0595   -0.1141   -0.0113    0.0009    0.0000    0.0073    0.0003
          34   -0.0005    0.0008   -0.0178    0.0013    0.0046   -0.0107   -0.1710   -0.0238
          35    0.0001   -0.0013    0.0367   -0.0584   -0.0030    0.0198    0.3584    0.0500
          36    0.0001   -0.0000    0.0043   -0.0055    0.0006   -0.0001    0.0041    0.0034
          37    0.0066   -0.0044    0.0087    0.1471   -0.0229    0.0173    0.1481   -0.0259
          38    0.0087   -0.0065    0.0077    0.1881   -0.0277    0.0188    0.1412   -0.0307
          39    0.0073   -0.0042    0.0092    0.2220   -0.0330    0.0228    0.1764   -0.0330
          40   -0.0079   -0.0050   -0.0002   -0.0086    0.0809    0.4168   -0.0227    0.2709
          41    0.0000    0.0002    0.0000   -0.0018   -0.0284   -0.0367    0.0014   -0.0187
          42   -0.0031   -0.0016   -0.0001    0.0002    0.0264    0.0690   -0.0034    0.0581
          43    0.0022    0.0009    0.0002   -0.0074   -0.0528    0.0201   -0.0027   -0.0391
          44   -0.0052   -0.0025   -0.0005    0.0239    0.1384   -0.1420    0.0122    0.1289
          45    0.0068    0.0033    0.0009   -0.0485   -0.2886    0.2560   -0.0229   -0.2268
          46   -0.0068   -0.0035   -0.0004    0.0173    0.1619    0.0425    0.0024   -0.1147
          47   -0.0123   -0.0051   -0.0010    0.0369    0.3673    0.1451    0.0026   -0.2469
          48    0.0007    0.0005   -0.0001    0.0042    0.0325   -0.0052    0.0013   -0.0083
          49    0.0149   -0.0083   -0.0211    0.3851   -0.0406    0.0077   -0.1570    0.0447
          50    0.0008   -0.0001   -0.0034    0.0358   -0.0028   -0.0010   -0.0372    0.0040
          51   -0.0037    0.0011    0.0061   -0.1364    0.0148   -0.0036    0.0438   -0.0129
          52   -0.0002    0.0020    0.0001    0.0000   -0.0000   -0.0002    0.0001    0.0003
          53   -0.0003   -0.0013   -0.0001   -0.0000   -0.0001    0.0000   -0.0001   -0.0002
          54   -0.0005    0.0015    0.0001    0.0000   -0.0001    0.0001    0.0001    0.0004
          55    0.0026    0.0010   -0.0000   -0.0000    0.0003    0.0003   -0.0001    0.0008
          56    0.0007    0.0000    0.0003    0.0000    0.0002    0.0001   -0.0001    0.0004
          57   -0.0023   -0.0013   -0.0002   -0.0000   -0.0003   -0.0002    0.0001   -0.0007


   Root No.      49        50        51

                49 A      50 A      51 A   

                3178.9    3193.9    3214.4
  
           1   -0.0001    0.0004    0.0014
           2    0.0000   -0.0001   -0.0006
           3   -0.0001    0.0005    0.0015
           4    0.0001    0.0005   -0.0014
           5    0.0001    0.0004   -0.0008
           6   -0.0000   -0.0004    0.0013
           7    0.0001   -0.0000   -0.0000
           8   -0.0003    0.0000    0.0000
           9    0.0002    0.0000   -0.0000
          10    0.0018    0.0000   -0.0000
          11   -0.0020   -0.0000   -0.0000
          12   -0.0029   -0.0000   -0.0000
          13    0.0013   -0.0000   -0.0000
          14   -0.0099   -0.0000    0.0000
          15    0.0183    0.0000    0.0000
          16    0.0000   -0.0280    0.0353
          17    0.0000   -0.0112    0.0113
          18   -0.0000    0.0246   -0.0251
          19    0.0000   -0.0274   -0.0358
          20   -0.0000    0.0128    0.0136
          21    0.0000   -0.0233   -0.0244
          22    0.0006   -0.0014   -0.0006
          23    0.0004   -0.0016   -0.0015
          24    0.0010   -0.0018   -0.0018
          25   -0.0005   -0.0014    0.0006
          26   -0.0016   -0.0025    0.0023
          27   -0.0000   -0.0002    0.0001
          28    0.0012    0.0000    0.0001
          29    0.0011    0.0000   -0.0001
          30    0.0022    0.0000   -0.0000
          31   -0.0025   -0.0004   -0.0001
          32   -0.0008   -0.0001    0.0002
          33    0.0015    0.0002   -0.0001
          34   -0.1234   -0.0001    0.0001
          35    0.2585    0.0001   -0.0001
          36    0.0177    0.0000    0.0000
          37   -0.1347   -0.0000   -0.0001
          38   -0.1596   -0.0001   -0.0001
          39   -0.1711   -0.0001   -0.0001
          40   -0.0506   -0.0012    0.0006
          41    0.0036    0.0001   -0.0001
          42   -0.0109   -0.0003   -0.0001
          43    0.0077    0.0002   -0.0000
          44   -0.0253   -0.0005    0.0000
          45    0.0444    0.0009   -0.0003
          46    0.0213    0.0004   -0.0002
          47    0.0460    0.0007   -0.0001
          48    0.0014    0.0000    0.0001
          49    0.2432    0.0001    0.0001
          50    0.0213    0.0000    0.0000
          51   -0.0707   -0.0000   -0.0000
          52   -0.0001    0.3238    0.3246
          53    0.0001   -0.1521   -0.1524
          54   -0.0002    0.2768    0.2769
          55   -0.0002    0.3291   -0.3195
          56   -0.0001    0.1332   -0.1290
          57    0.0002   -0.2917    0.2828


           MASS-WEIGHTED COORDINATE ANALYSIS (NORMAL COORDINATES)


   Root No.       1         2         3         4         5         6         7         8

                 1 A       2 A       3 A       4 A       5 A       6 A       7 A       8 A   

                  90.3     131.8     175.8     187.2     286.6     310.7     350.6     427.5
  
           1   -0.1336   -0.0560   -0.0287   -0.0657    0.0622   -0.2953    0.1303   -0.1526
           2   -0.1527    0.0393    0.0033   -0.0976    0.0397   -0.2073   -0.2769   -0.1832
           3    0.0509    0.2209    0.0617   -0.0647    0.0463   -0.0168   -0.1594    0.1657
           4   -0.1351   -0.0635   -0.0255   -0.0589    0.0900   -0.2855    0.0899   -0.1918
           5    0.0564    0.0031   -0.0097    0.0603   -0.2379   -0.1755   -0.1980    0.0232
           6   -0.1149    0.1463   -0.0302   -0.0743    0.0038   -0.2603    0.1194    0.0613
           7   -0.2775    0.0582   -0.0620   -0.0560   -0.2498    0.2060    0.2663    0.1537
           8   -0.2247    0.0846   -0.0152   -0.0891   -0.1097    0.0520   -0.2364    0.0196
           9   -0.0487   -0.0302   -0.0076    0.0261   -0.1772    0.1405   -0.1252   -0.3337
          10   -0.1639   -0.1554    0.0076    0.0606    0.2439    0.3751   -0.1412   -0.0760
          11    0.0060    0.4344    0.0405   -0.0226   -0.0218    0.0894    0.1425    0.0504
          12   -0.0951   -0.2101   -0.0478    0.0572   -0.0673   -0.0469   -0.2628    0.1590
          13    0.4828    0.2304    0.0106    0.0619   -0.1525    0.0730   -0.0496   -0.0956
          14    0.0771   -0.3043   -0.0572    0.0086    0.2278   -0.0677    0.1185    0.3770
          15    0.1084   -0.2173   -0.0260    0.0765   -0.0119    0.0971    0.0508   -0.2449
          16    0.0979   -0.0169    0.0474    0.0110    0.0252   -0.1096   -0.1245    0.1782
          17    0.0279   -0.0246    0.0621   -0.0503    0.3894    0.1323    0.1078   -0.3083
          18    0.1204    0.1798    0.0851   -0.0484    0.2340    0.1322    0.0561    0.1984
          19    0.1008   -0.0195    0.0440    0.0153    0.0066   -0.1142   -0.1163    0.1826
          20    0.2136   -0.2694   -0.0167    0.1917   -0.3204    0.0886    0.2155   -0.0746
          21   -0.0157    0.0091   -0.0288   -0.0037   -0.0437   -0.1180    0.3424    0.0139
          22   -0.0373   -0.0250   -0.0224   -0.0172    0.0229   -0.1693    0.0575   -0.0713
          23   -0.0837   -0.0026   -0.0156   -0.0229   -0.0565   -0.0628   -0.0954   -0.0890
          24    0.0478    0.0783    0.0388   -0.0215    0.0673    0.0521   -0.0412    0.0958
          25   -0.0761   -0.0182   -0.0052   -0.0442    0.0386   -0.1561    0.0213   -0.1072
          26    0.0356   -0.0027   -0.0039    0.0315   -0.0767   -0.0117   -0.0525    0.0311
          27   -0.0842    0.1264    0.0026   -0.0577    0.0640   -0.0940    0.0369   -0.0015
          28   -0.2226    0.0301   -0.0379   -0.0092   -0.1899    0.2111    0.1319    0.1146
          29   -0.0979    0.0599    0.0058   -0.0535   -0.0212   -0.0302   -0.1077   -0.0032
          30    0.1098   -0.0501    0.0015    0.0289    0.0168   -0.0160   -0.0339   -0.1319
          31   -0.1355    0.0092   -0.0237   -0.0208   -0.0923    0.0804    0.0946    0.0473
          32   -0.1152    0.0846   -0.0113   -0.0117   -0.1387    0.1540   -0.0621    0.0965
          33   -0.1981   -0.0153   -0.0214   -0.0038   -0.1399    0.1451    0.0214   -0.0601
          34    0.0970    0.1954   -0.0589    0.4958    0.0433   -0.0489   -0.0507   -0.0591
          35    0.0025   -0.0281   -0.0452    0.2236    0.1070   -0.0522    0.0177    0.0971
          36    0.0109   -0.1371   -0.0387    0.1424    0.0921   -0.0027    0.1396    0.0703
          37    0.2984   -0.0269    0.0737   -0.4166   -0.1148    0.0665   -0.0413   -0.0617
          38    0.0456   -0.0813   -0.0576    0.2807    0.1765   -0.0806    0.0848    0.1792
          39   -0.1023   -0.0010   -0.0252    0.1102   -0.0414    0.0449   -0.0059   -0.1009
          40   -0.0368   -0.0255   -0.0933   -0.0008    0.0800    0.1046   -0.0295   -0.0276
          41    0.0498    0.1764   -0.4458   -0.0620    0.0700    0.1762   -0.0038    0.0329
          42   -0.0633   -0.1497    0.2882    0.0950   -0.0250    0.1145   -0.1834    0.0930
          43   -0.1024   -0.1474    0.4885    0.1130    0.0341    0.1612   -0.1120    0.0089
          44   -0.0375    0.2033    0.2923    0.0073    0.0035    0.0074    0.1827   -0.0015
          45   -0.0400   -0.0092    0.0627    0.0107   -0.0095   -0.0296    0.0012    0.0350
          46   -0.0117    0.0095   -0.3590   -0.0273    0.1451    0.2554   -0.0697   -0.0055
          47   -0.0173    0.1078    0.1920    0.0153   -0.0352   -0.0295    0.0630    0.0074
          48    0.0240   -0.1163   -0.3874   -0.0215   -0.0382   -0.0604   -0.1890    0.0472
          49    0.1995    0.0752    0.0118    0.0057   -0.0423    0.0139   -0.0426   -0.0595
          50    0.0884   -0.2539    0.0437   -0.4815    0.0073    0.0427    0.1075    0.1895
          51    0.2224   -0.0954    0.0371   -0.1744   -0.0153    0.0274   -0.0395   -0.1298
          52    0.0638   -0.0017    0.0239    0.0176   -0.0152   -0.0012   -0.0713    0.1140
          53    0.1174   -0.1487   -0.0173    0.1150   -0.2181    0.0721    0.1951   -0.0099
          54   -0.0145   -0.0410   -0.0280    0.0163   -0.0615   -0.0460    0.2159   -0.0600
          55    0.0621    0.0037    0.0256    0.0135    0.0023    0.0019   -0.0781    0.1119
          56   -0.0002    0.0131    0.0382   -0.0454    0.2950    0.1193    0.1086   -0.1988
          57    0.0691    0.0710    0.0473   -0.0165    0.1455    0.1132    0.0044    0.0751


   Root No.       9        10        11        12        13        14        15        16

                 9 A      10 A      11 A      12 A      13 A      14 A      15 A      16 A   

                 564.6     763.8     792.2     833.0     878.7     936.9     942.3     969.3
  
           1    0.0562   -0.1620   -0.2533   -0.0159    0.3233   -0.0478   -0.1118   -0.1398
           2   -0.1788   -0.0677   -0.1139   -0.0032    0.1935   -0.0769    0.1294    0.1305
           3   -0.2136   -0.2347   -0.0109    0.2680    0.0753    0.0317    0.0531    0.1943
           4   -0.0717   -0.0231    0.2926    0.2542   -0.2188   -0.0104    0.0360    0.0328
           5    0.3495   -0.1515    0.0474    0.2768    0.0100    0.1052   -0.0883    0.0085
           6    0.0299    0.1393    0.1035   -0.0608   -0.1106   -0.0869    0.0195    0.0025
           7    0.2180   -0.1976   -0.2937    0.0069   -0.0949   -0.0261    0.0458    0.0194
           8   -0.2661    0.1172   -0.0595   -0.0650   -0.1266    0.0221   -0.0855   -0.0384
           9   -0.0386    0.0469   -0.0439   -0.0321   -0.0619    0.0065   -0.0664   -0.0176
          10   -0.2268   -0.0764    0.1365    0.1651   -0.1517    0.0047   -0.0344    0.0114
          11    0.1234    0.0435   -0.0446    0.0052    0.0099    0.1482    0.0157   -0.0487
          12    0.2692    0.1619   -0.0318   -0.1499   -0.0855   -0.2316    0.1358    0.0388
          13    0.0479   -0.0319   -0.0507    0.0059   -0.0789    0.0168    0.0609    0.1098
          14   -0.0897    0.0464    0.0112   -0.0074   -0.0846    0.0355   -0.1585   -0.2647
          15    0.1051   -0.0244   -0.0013   -0.0328   -0.0180    0.0090    0.0516   -0.0147
          16   -0.0021    0.2204    0.0141   -0.2235   -0.0188    0.1313    0.0264    0.0593
          17    0.2680   -0.0812    0.1370   -0.2751   -0.0419    0.1381    0.3432   -0.1189
          18   -0.0197   -0.2454   -0.0221    0.1467    0.0826   -0.1297   -0.0367   -0.3079
          19   -0.0121    0.2208    0.0108   -0.2296   -0.0191    0.1082    0.0090    0.0818
          20   -0.1500   -0.2108    0.1161   -0.0677   -0.0895   -0.2547   -0.1926    0.1072
          21   -0.2447    0.0005    0.0299   -0.2565    0.0752    0.2970   -0.2948    0.1158
          22    0.0672   -0.0417   -0.0355    0.0528    0.1609   -0.1520   -0.1701   -0.1841
          23   -0.1034    0.0530   -0.1149   -0.0201    0.0766   -0.1230   -0.0375    0.1162
          24   -0.0464   -0.1281    0.0516    0.0631   -0.0398    0.1721    0.1551    0.0707
          25   -0.0641   -0.0222    0.0913    0.1180    0.0195   -0.1493    0.1516   -0.0531
          26    0.1156   -0.0428    0.0059    0.0505   -0.0271    0.0883   -0.0972    0.0400
          27    0.0514    0.1451    0.0353    0.0666   -0.0649   -0.0089    0.2002   -0.1792
          28    0.1545    0.0818    0.3049    0.0364    0.1591    0.0013    0.0116   -0.0406
          29   -0.1326    0.0001   -0.0649    0.0130    0.1137   -0.0349   -0.0136    0.1119
          30   -0.0160   -0.0457   -0.2142   -0.0581   -0.2649    0.0333   -0.0259   -0.0816
          31    0.0872   -0.0322   -0.0060    0.0032    0.0918   -0.0293   -0.0006   -0.0288
          32   -0.0445    0.1591    0.3023    0.0376   -0.0593    0.0778   -0.0037    0.0689
          33    0.0697    0.1184    0.3022    0.0100    0.3096   -0.0379   -0.0452   -0.0704
          34   -0.0108    0.0403    0.0806   -0.0033    0.1063   -0.0139   -0.0354   -0.0568
          35   -0.0382    0.0356    0.0476   -0.0028    0.0356    0.0019   -0.0690   -0.1121
          36    0.1171   -0.1253   -0.0179    0.0832    0.1021   -0.0384    0.2734    0.4969
          37   -0.0019    0.0514    0.1000   -0.0037    0.1099   -0.0178   -0.0333   -0.0567
          38    0.0050   -0.0088    0.1049    0.0629    0.2005   -0.0439    0.0740    0.1958
          39    0.0174   -0.0324   -0.1585   -0.0558   -0.2719    0.0612   -0.0426   -0.1550
          40   -0.0773   -0.0178    0.0568    0.0445   -0.0694   -0.0357   -0.0043    0.0144
          41   -0.0292    0.0177   -0.1297   -0.1692    0.1737   -0.0441    0.0289    0.0252
          42    0.0995    0.0159   -0.1965   -0.1316    0.2619    0.1178    0.0178   -0.0308
          43   -0.0375   -0.0662   -0.0687    0.0490    0.1409    0.2051   -0.0583   -0.0399
          44   -0.0600    0.0750    0.0272   -0.1678   -0.0827   -0.3257    0.0832    0.0850
          45    0.0290    0.0846    0.0232   -0.1264   -0.0897   -0.2727    0.0866    0.0639
          46   -0.1457   -0.0219   -0.0718   -0.1244    0.1323   -0.0991    0.0030    0.0429
          47    0.0562    0.0154    0.0302    0.0514   -0.0661    0.0529    0.0043   -0.0193
          48    0.1976    0.0114    0.0131    0.1698   -0.0510    0.2588   -0.0025   -0.0922
          49   -0.0031    0.0389    0.0780   -0.0035    0.0934   -0.0152   -0.0216   -0.0396
          50    0.0228   -0.0586   -0.0516    0.0420   -0.0514    0.0070    0.0804    0.1812
          51   -0.0017    0.0982    0.2285   -0.0084    0.2931   -0.0507   -0.0464   -0.1093
          52    0.0076    0.0707   -0.0719   -0.0575    0.0490   -0.1879    0.0454   -0.1146
          53   -0.2371    0.3540   -0.2701    0.3380    0.1153   -0.0437    0.4413   -0.2331
[...]
 FREQ.      1341.50         C  2 -- C  7         +17.5% ( 60.0%)     87.5%
 T-DIPOLE    0.1107         C  2 -- H  9         +12.5% ( 50.7%)      1.6%
 TRAVEL      0.0939         C  1 -- C  2         +11.5% ( 48.6%)     20.1%
 RED. MASS   1.1086         C  2 -- C  6         +10.2% ( 45.8%)     88.6%
 EFF. MASS   5.6964

 VIBRATION   31   31A         ATOM PAIR      ENERGY CONTRIBUTION    RADIAL
 FREQ.      1378.73         C  5 -- H 17         +12.2% ( 41.1%)      4.0%
 T-DIPOLE    0.0155         C  5 -- H 13         +11.7% ( 40.3%)      2.4%
 TRAVEL      0.1191         C  5 -- H 12         +10.6% ( 38.3%)      1.8%
 RED. MASS   0.3425         C  3 -- H 11          +9.0% ( 35.3%)      1.7%
 EFF. MASS   3.4472

 VIBRATION   32   32A         ATOM PAIR      ENERGY CONTRIBUTION    RADIAL
 FREQ.      1397.41         C  4 -- H 15         +43.5% ( 59.0%)      1.3%
 T-DIPOLE    0.0526         C  4 -- H 14         +35.8% ( 53.5%)      3.0%
 TRAVEL      0.1657         C  4 -- H 16          +9.0% ( 26.8%)     59.8%
 RED. MASS   0.4158         C  2 -- C  4          +6.7% ( 23.0%)     19.4%
 EFF. MASS   1.7578

 VIBRATION   33   33A         ATOM PAIR      ENERGY CONTRIBUTION    RADIAL
 FREQ.      1404.70         C  5 -- H 12         +47.4% ( 59.8%)      0.7%
 T-DIPOLE    0.0451         C  5 -- H 17         +33.5% ( 50.3%)      3.7%
 TRAVEL      0.1739         C  5 -- H 13         +10.4% ( 28.0%)     39.2%
 RED. MASS   0.4013         C  3 -- C  5          +5.2% ( 19.9%)     11.1%
 EFF. MASS   1.5866

 VIBRATION   34   34A         ATOM PAIR      ENERGY CONTRIBUTION    RADIAL
 FREQ.      1407.60         C  4 -- H 16         +49.7% ( 62.2%)      0.0%
 T-DIPOLE    0.0488         C  4 -- H 14         +22.0% ( 41.4%)      6.9%
 TRAVEL      0.1690         C  4 -- H 15         +17.5% ( 36.9%)     16.2%
 RED. MASS   0.3970         C  2 -- C  4          +5.5% ( 20.7%)     14.4%
 EFF. MASS   1.6779

 VIBRATION   35   35A         ATOM PAIR      ENERGY CONTRIBUTION    RADIAL
 FREQ.      1411.19         C  5 -- H 13         +49.5% ( 61.6%)      0.0%
 T-DIPOLE    0.0535         C  5 -- H 17         +25.4% ( 44.2%)      4.6%
 TRAVEL      0.1713         C  5 -- H 12         +17.6% ( 36.8%)     19.4%
 RED. MASS   0.4009         C  3 -- C  5          +5.2% ( 20.0%)     11.0%
 EFF. MASS   1.6279

 VIBRATION   36   36A         ATOM PAIR      ENERGY CONTRIBUTION    RADIAL
 FREQ.      1415.83         C  3 -- H 10         +17.4% ( 51.8%)      4.4%
 T-DIPOLE    0.0624         C  3 -- H 11         +15.8% ( 49.3%)      5.9%
 TRAVEL      0.1019         C  1 -- C  3         +13.5% ( 45.6%)     97.3%
 RED. MASS   0.5292         C  3 -- C  5          +6.9% ( 32.5%)     13.8%
 EFF. MASS   4.5869

 VIBRATION   37   37A         ATOM PAIR      ENERGY CONTRIBUTION    RADIAL
 FREQ.      1429.45         C  3 -- C  5         +13.3% ( 51.9%)     97.6%
 T-DIPOLE    0.0465         C  5 -- H 13          +8.3% ( 41.1%)      3.9%
 TRAVEL      0.0832         C  2 -- C  4          +8.0% ( 40.4%)     95.4%
 RED. MASS   0.8501         C  5 -- H 17          +7.9% ( 40.1%)      2.8%
 EFF. MASS   6.8110

 VIBRATION   38   38A         ATOM PAIR      ENERGY CONTRIBUTION    RADIAL
 FREQ.      1451.68         C  2 -- C  4         +12.4% ( 58.4%)     95.3%
 T-DIPOLE    0.0619         C  1 -- C  2         +11.4% ( 56.2%)     54.5%
 TRAVEL      0.0696         C  1 -- C  3         +10.1% ( 52.8%)     85.6%
 RED. MASS   1.6702         C  2 -- C  7          +7.3% ( 44.7%)     53.2%
 EFF. MASS   9.5769

 VIBRATION   39   39A         ATOM PAIR      ENERGY CONTRIBUTION    RADIAL
 FREQ.      1778.24         C  6 -- C  7         +36.2% (102.1%)    100.0%
 T-DIPOLE    0.1005         C  2 -- C  6         +11.1% ( 56.6%)     59.4%
 TRAVEL      0.0562         C  1 -- C  7         +11.1% ( 56.6%)     59.4%
 RED. MASS   4.9977         C  1 -- C  6         +10.9% ( 56.0%)      0.2%
 EFF. MASS  12.0068         C  2 -- C  7         +10.9% ( 56.0%)      0.2%

 VIBRATION   40   40A         ATOM PAIR      ENERGY CONTRIBUTION    RADIAL
 FREQ.      2948.38         C  1 -- H  8         +49.5% ( 72.4%)    100.0%
 T-DIPOLE    0.0549         C  2 -- H  9         +17.4% ( 43.0%)    100.0%
 TRAVEL      0.1243         C  3 -- H 10         +15.8% ( 40.9%)     96.8%
 RED. MASS   0.3301         C  3 -- H 11         +13.4% ( 37.6%)     95.9%
 EFF. MASS   1.4801

 VIBRATION   41   41A         ATOM PAIR      ENERGY CONTRIBUTION    RADIAL
 FREQ.      2954.58         C  2 -- H  9         +58.7% ( 78.7%)    100.0%
 T-DIPOLE    0.0804         C  3 -- H 10         +19.0% ( 44.8%)     96.5%
 TRAVEL      0.1244         C  3 -- H 11         +18.6% ( 44.3%)     96.4%
 RED. MASS   0.4312         C  2 -- C  4          +0.6% (  8.2%)     10.8%
 EFF. MASS   1.4750

 VIBRATION   42   42A         ATOM PAIR      ENERGY CONTRIBUTION    RADIAL
 FREQ.      2959.67         C  1 -- H  8         +45.3% ( 68.9%)    100.0%
 T-DIPOLE    0.1229         C  2 -- H  9         +18.4% ( 43.9%)    100.0%
 TRAVEL      0.1246         C  3 -- H 10         +16.8% ( 42.0%)     96.8%
 RED. MASS   0.3023         C  3 -- H 11         +16.0% ( 41.0%)     96.4%
 EFF. MASS   1.4665

 VIBRATION   43   43A         ATOM PAIR      ENERGY CONTRIBUTION    RADIAL
 FREQ.      3034.17         C  3 -- H 11         +50.9% ( 70.3%)     97.9%
 T-DIPOLE    0.0363         C  3 -- H 10         +47.1% ( 67.6%)     97.5%
 TRAVEL      0.1320         C  3 -- C  5          +0.6% (  7.8%)     26.0%
 RED. MASS   0.4780         C  1 -- C  3          +0.6% (  7.7%)     29.6%
 EFF. MASS   1.2755

 VIBRATION   44   44A         ATOM PAIR      ENERGY CONTRIBUTION    RADIAL
 FREQ.      3075.62         C  5 -- H 17         +57.9% ( 78.5%)     98.2%
 T-DIPOLE    0.0079         C  5 -- H 13         +37.2% ( 62.9%)     95.1%
 TRAVEL      0.1208         C  5 -- H 12          +1.9% ( 14.3%)     23.1%
 RED. MASS   0.5011         C  4 -- H 15          +1.0% ( 10.5%)     98.4%
 EFF. MASS   1.5018

 VIBRATION   45   45A         ATOM PAIR      ENERGY CONTRIBUTION    RADIAL
 FREQ.      3079.52         C  4 -- H 16         +56.8% ( 77.8%)     98.2%
 T-DIPOLE    0.0256         C  4 -- H 15         +37.0% ( 62.8%)     94.8%
 TRAVEL      0.1206         C  4 -- H 14          +3.5% ( 19.3%)     42.0%
 RED. MASS   0.4890         C  2 -- C  4          +1.0% ( 10.3%)      0.0%
 EFF. MASS   1.5059

 VIBRATION   46   46A         ATOM PAIR      ENERGY CONTRIBUTION    RADIAL
 FREQ.      3083.00         C  4 -- H 14         +60.8% ( 80.4%)     98.6%
 T-DIPOLE    0.0247         C  4 -- H 15         +29.3% ( 55.8%)     92.3%
 TRAVEL      0.1205         C  4 -- H 16          +8.3% ( 29.8%)     68.8%
 RED. MASS   0.4912         C  2 -- C  4          +1.0% ( 10.4%)      0.0%
 EFF. MASS   1.5070

 VIBRATION   47   47A         ATOM PAIR      ENERGY CONTRIBUTION    RADIAL
 FREQ.      3084.96         C  5 -- H 12         +59.5% ( 79.5%)     98.6%
 T-DIPOLE    0.0032         C  5 -- H 13         +27.5% ( 54.1%)     91.5%
 TRAVEL      0.1206         C  5 -- H 17         +11.0% ( 34.1%)     75.7%
 RED. MASS   0.4700         C  3 -- C  5          +1.0% ( 10.3%)      0.0%
 EFF. MASS   1.5037

 VIBRATION   48   48A         ATOM PAIR      ENERGY CONTRIBUTION    RADIAL
 FREQ.      3177.38         C  4 -- H 14         +33.7% ( 55.9%)     97.4%
 T-DIPOLE    0.0362         C  4 -- H 16         +32.3% ( 54.7%)     97.1%
 TRAVEL      0.1366         C  4 -- H 15         +30.2% ( 52.9%)     96.7%
 RED. MASS   0.3056         C  5 -- H 12          +1.4% ( 11.2%)     97.9%
 EFF. MASS   1.1368

 VIBRATION   49   49A         ATOM PAIR      ENERGY CONTRIBUTION    RADIAL
 FREQ.      3178.94         C  5 -- H 12         +36.4% ( 58.1%)     97.7%
 T-DIPOLE    0.0141         C  5 -- H 13         +31.9% ( 54.3%)     97.0%
 TRAVEL      0.1366         C  5 -- H 17         +27.9% ( 50.9%)     96.3%
 RED. MASS   0.3080         C  4 -- H 14          +1.2% ( 10.5%)     97.2%
 EFF. MASS   1.1369

 VIBRATION   50   50A         ATOM PAIR      ENERGY CONTRIBUTION    RADIAL
 FREQ.      3193.95         C  6 -- H 19         +48.7% ( 71.4%)    100.0%
 T-DIPOLE    0.4690         C  7 -- H 18         +47.1% ( 70.3%)    100.0%
 TRAVEL      0.1201         C  6 -- C  7          +1.1% ( 10.5%)      0.0%
 RED. MASS   0.4650         C  2 -- C  6          +0.8% (  9.2%)     99.9%
 EFF. MASS   1.4627

 VIBRATION   51   51A         ATOM PAIR      ENERGY CONTRIBUTION    RADIAL
 FREQ.      3214.36         C  7 -- H 18         +47.0% ( 71.0%)     99.9%
 T-DIPOLE    0.3747         C  6 -- H 19         +45.6% ( 69.8%)     99.9%
 TRAVEL      0.1099         C  6 -- C  7          +3.0% ( 18.0%)    100.0%
 RED. MASS   0.4705         C  1 -- C  7          +1.1% ( 10.9%)     98.2%
 EFF. MASS   1.7366

      SYMMETRY NUMBER FOR POINT-GROUP C1  =  1


          SYSTEM IS A GROUND STATE



 InChI=1S/C7H12/c1-3-7-5-4-6(7)2/h4-7H,3H2,1-2H3


          MOLECULE IS NOT LINEAR

          THERE ARE 51 GENUINE VIBRATIONS IN THIS SYSTEM
          THIS THERMODYNAMICS CALCULATION IS LIMITED TO
          MOLECULES WHICH HAVE NO INTERNAL ROTATIONS




                    CALCULATED THERMODYNAMIC PROPERTIES
                                          *
   TEMP. (K)   PARTITION FUNCTION   H.O.F.    ENTHALPY  HEAT CAPACITY ENTROPY
                                   KCAL/MOL   CAL/MOLE    CAL/K/MOL  CAL/K/MOL


 298.00  VIB.     0.5467D+02                  3185.9816    23.2430    18.6428
         ROT.     0.2425D+06                   888.2813     2.9808    27.6200
         INT.     0.1326D+08                  4074.2629    26.2238    46.2628
         TRA.     0.9118D+27                  1480.4688     4.9680    39.5994
         TOT.                       18.978    5554.7317    31.1918    85.8622

 200.00  VIB.     0.9773D+01                  1359.0057    14.4211    11.3252
         ROT.     0.1334D+06                   596.1620     2.9808    26.4314
         INT.     0.1303D+07                  1955.1677    17.4019    37.7565
         TRA.     0.5013D+27                   993.6033     4.9680    37.6183
         TOT.                       16.372    2948.7709    22.3699    75.3748

 210.00  VIB.     0.1160D+02                  1507.1261    15.2076    12.0477
         ROT.     0.1435D+06                   625.9700     2.9808    26.5768
         INT.     0.1665D+07                  2133.0961    18.1884    38.6245
         TRA.     0.5394D+27                  1043.2834     4.9680    37.8607
         TOT.                       16.600    3176.3795    23.1565    76.4851

 220.00  VIB.     0.1378D+02                  1663.2532    16.0226    12.7738
         ROT.     0.1538D+06                   655.7781     2.9808    26.7155
         INT.     0.2121D+07                  2319.0313    19.0034    39.4893
         TRA.     0.5784D+27                  1092.9636     4.9680    38.0918
         TOT.                       16.835    3411.9949    23.9714    77.5811

 230.00  VIB.     0.1639D+02                  1827.6738    16.8663    13.5046
         ROT.     0.1645D+06                   685.5862     2.9808    26.8480
         INT.     0.2696D+07                  2513.2600    19.8471    40.3525
         TRA.     0.6182D+27                  1142.6437     4.9680    38.3126
         TOT.                       17.079    3655.9038    24.8151    78.6652

 240.00  VIB.     0.1952D+02                  2000.6728    17.7381    14.2407
         ROT.     0.1753D+06                   715.3943     2.9808    26.9748
         INT.     0.3421D+07                  2716.0672    20.7189    41.2155
         TRA.     0.6590D+27                  1192.3239     4.9680    38.5241
         TOT.                       17.332    3908.3911    25.6869    79.7396

 250.00  VIB.     0.2326D+02                  2182.5246    18.6365    14.9830
         ROT.     0.1864D+06                   745.2024     2.9808    27.0965
         INT.     0.4334D+07                  2927.7270    21.6173    42.0795
         TRA.     0.7006D+27                  1242.0041     4.9680    38.7269
         TOT.                       17.593    4169.7311    26.5854    80.8063

 260.00  VIB.     0.2774D+02                  2373.4855    19.5595    15.7318
         ROT.     0.1977D+06                   775.0105     2.9808    27.2134
         INT.     0.5482D+07                  3148.4960    22.5403    42.9452
         TRA.     0.7431D+27                  1291.6842     4.9680    38.9217
         TOT.                       17.863    4440.1803    27.5084    81.8669

 270.00  VIB.     0.3311D+02                  2573.7888    20.5046    16.4876
         ROT.     0.2092D+06                   804.8186     2.9808    27.3259
         INT.     0.6926D+07                  3378.6074    23.4854    43.8135
         TRA.     0.7864D+27                  1341.3644     4.9680    39.1092
         TOT.                       18.143    4719.9718    28.4534    82.9228

 280.00  VIB.     0.3957D+02                  2783.6406    21.4688    17.2507
         ROT.     0.2209D+06                   834.6267     2.9808    27.4343
         INT.     0.8741D+07                  3618.2674    24.4496    44.6850
         TRA.     0.8304D+27                  1391.0445     4.9680    39.2899
         TOT.                       18.433    5009.3119    29.4176    83.9749

 290.00  VIB.     0.4734D+02                  3003.2180    22.4491    18.0211
         ROT.     0.2328D+06                   864.4348     2.9808    27.5389
         INT.     0.1102D+08                  3867.6528    25.4300    45.5601
         TRA.     0.8753D+27                  1440.7247     4.9680    39.4642
         TOT.                       18.732    5308.3775    30.3980    85.0243

 300.00  VIB.     0.5668D+02                  3232.6671    23.4426    18.7989
         ROT.     0.2450D+06                   894.2429     2.9808    27.6400
         INT.     0.1389D+08                  4126.9101    26.4234    46.4389
         TRA.     0.9210D+27                  1490.4049     4.9680    39.6326
         TOT.                       19.041    5617.3149    31.3914    86.0715

 310.00  VIB.     0.6795D+02                  3472.1036    24.4461    19.5839
         ROT.     0.2573D+06                   924.0510     2.9808    27.7377
         INT.     0.1749D+08                  4396.1546    27.4269    47.3216
         TRA.     0.9674D+27                  1540.0850     4.9680    39.7955
         TOT.                       19.359    5936.2397    32.3949    87.1172

 320.00  VIB.     0.8154D+02                  3721.6127    25.4566    20.3760
         ROT.     0.2699D+06                   953.8591     2.9808    27.8323
         INT.     0.2201D+08                  4675.4718    28.4375    48.2083
         TRA.     0.1015D+28                  1589.7652     4.9680    39.9533
         TOT.                       19.688    6265.2370    33.4055    88.1616

 330.00  VIB.     0.9796D+02                  3981.2506    26.4714    21.1749
         ROT.     0.2826D+06                   983.6672     2.9808    27.9241
         INT.     0.2769D+08                  4964.9178    29.4522    49.0989
         TRA.     0.1063D+28                  1639.4454     4.9680    40.1062
         TOT.                       20.028    6604.3632    34.4202    89.2051

 340.00  VIB.     0.1178D+03                  4251.0459    27.4877    21.9802
         ROT.     0.2956D+06                  1013.4753     2.9808    28.0131
         INT.     0.3482D+08                  5264.5212    30.4685    49.9933
         TRA.     0.1111D+28                  1689.1255     4.9680    40.2545
         TOT.                       20.377    6953.6467    35.4365    90.2477

 350.00  VIB.     0.1418D+03                  4531.0014    28.5031    22.7917
         ROT.     0.3087D+06                  1043.2834     2.9808    28.0995
         INT.     0.4379D+08                  5574.2848    31.4839    50.8911
         TRA.     0.1161D+28                  1738.8057     4.9680    40.3985
         TOT.                       20.736    7313.0905    36.4519    91.2896

 360.00  VIB.     0.1709D+03                  4821.0965    29.5153    23.6088
         ROT.     0.3220D+06                  1073.0915     2.9808    28.1834
         INT.     0.5505D+08                  5894.1880    32.4961    51.7923
         TRA.     0.1211D+28                  1788.4859     4.9680    40.5384
         TOT.                       21.106    7682.6739    37.4641    92.3307

 370.00  VIB.     0.2062D+03                  5121.2892    30.5222    24.4313
         ROT.     0.3356D+06                  1102.8996     2.9808    28.2651
         INT.     0.6921D+08                  6224.1888    33.5031    52.6964
         TRA.     0.1261D+28                  1838.1660     4.9680    40.6745
         TOT.                       21.486    8062.3548    38.4711    93.3709

 380.00  VIB.     0.2491D+03                  5431.5181    31.5222    25.2585
         ROT.     0.3492D+06                  1132.7077     2.9808    28.3446
         INT.     0.8700D+08                  6564.2258    34.5030    53.6031
         TRA.     0.1313D+28                  1887.8462     4.9680    40.8070
         TOT.                       21.875    8452.0719    39.4711    94.4102

 390.00  VIB.     0.3012D+03                  5751.7050    32.5136    26.0902
         ROT.     0.3631D+06                  1162.5158     2.9808    28.4220
         INT.     0.1094D+09                  6914.2208    35.4944    54.5122
         TRA.     0.1365D+28                  1937.5263     4.9680    40.9361
         TOT.                       22.275    8851.7471    40.4624    95.4483

 400.00  VIB.     0.3645D+03                  6081.7568    33.4950    26.9257
         ROT.     0.3772D+06                  1192.3239     2.9808    28.4975
         INT.     0.1375D+09                  7274.0807    36.4758    55.4232
         TRA.     0.1418D+28                  1987.2065     4.9680    41.0619
         TOT.                       22.685    9261.2872    41.4438    96.4851

   *: NOTE: HEATS OF FORMATION ARE RELATIVE TO THE
            ELEMENTS IN THEIR STANDARD STATE AT 298K
              (=  Standard Enthalpy of Formation).

            Hvib:  Zero-point energy is not included.
                   frequencies of less than zero cm-1 are not included.
            Hrot = (3/2)RT
            Htra = (3/2)RT + pV = (5/2)RT

            Heat capacity is Cp, not Cv

          For more information, see: HTTP://OpenMOPAC.net/Manual/thermochemistry.html


           FORCE CONSTANT IN CARTESIAN COORDINATES (Millidynes/A)

    ATOM   CHEMICAL       X               Y               Z
   NUMBER   SYMBOL  FORCE CONSTANT  FORCE CONSTANT  FORCE CONSTANT

      1       C        7.226895        8.555732        8.456168
      2       C        7.264849        8.553350        8.466907
      3       C        8.315843        8.372323        8.453102
      4       C        8.390618        8.336780        8.447475
      5       C        8.232713        8.422749        8.232615
      6       C       15.243722        3.582469        7.757800
      7       C       15.237506        3.706594        7.630967
      8       H        1.376462        2.148657        2.693500
      9       H        1.384299        4.145415        0.687089
     10       H        1.615515        2.249586        2.530592
     11       H        4.548151        0.750804        1.073137
     12       H        1.527941        4.539366        0.727269
     13       H        1.824828        2.205328        2.750010
     14       H        5.196438        0.716505        0.832002
     15       H        0.736521        1.697684        4.295280
     16       H        1.442727        4.618593        0.705283
     17       H        4.859990        0.719406        1.164288
     18       H        3.190190        0.966634        2.433619
     19       H        3.192240        0.812256        2.583367

 **********************
 *                    *
 * JOB ENDED NORMALLY *
 *                    *
 **********************



 TOTAL JOB TIME:             1.39 SECONDS

 == MOPAC DONE ==
