 *******************************************************************************
 ** Site#: 14399        For non-commercial use only    Version 18.184L 64BITS **
 *******************************************************************************
 ** Cite this program as: MOPAC2016, Version: 18.184L, James J. P. Stewart,   **
 ** Stewart Computational Chemistry, web: HTTP://OpenMOPAC.net. Days left:  18**
 *******************************************************************************
 **                                                                           **
 **                                MOPAC2016                                  **
 **                                                                           **
 *******************************************************************************

                              PM3 CALCULATION RESULTS

 *******************************************************************************
 *  CALCULATION DONE:                                Sat Jun 15 10:10:12 2019  *
 *  PM3        - The PM3 Hamiltonian to be used
 *  PRECISE    - CRITERIA TO BE INCREASED BY 100 TIMES
 *  NOSYM      - POINT-GROUP SYMMETRY SET TO C1
 *  THREADS=1  - MULTI-THREADING NOT USED
 *  T=         - A TIME OF 172800.0 SECONDS REQUESTED
 *  DUMP=N     - RESTART FILE WRITTEN EVERY  7200.000 SECONDS
 *******************************************************************************
pm3  precise nosym THREADS=1
 InChI=1S/C12H18/c1-2-6-11-7-10-12(11)8-4-3-5-9-12/h4-5,8-9,11H,2-3,6-7,10H2,1H3

   ATOM   CHEMICAL          X               Y               Z
  NUMBER   SYMBOL      (ANGSTROMS)     (ANGSTROMS)     (ANGSTROMS)
 
     1       C         -0.95000000  *  -0.71370000  *  -0.20120000  *
     2       C          0.47150000  *  -1.26170000  *   0.07530000  *
     3       C         -1.23280000  *  -1.93770000  *  -1.08450000  *
     4       C          1.68240000  *  -0.42110000  *  -0.38140000  *
     5       C          0.18350000  *  -2.45030000  *  -0.84400000  *
     6       C          1.94310000  *   0.74670000  *   0.57870000  *
     7       C         -2.24100000  *   1.74980000  *   0.84580000  *
     8       C          3.13130000  *   1.58450000  *   0.11680000  *
     9       C         -1.80170000  *  -0.70430000  *   1.05300000  *
    10       C         -1.02970000  *   0.57640000  *  -1.00120000  *
    11       C         -1.60700000  *   1.68440000  *  -0.51860000  *
    12       C         -2.36600000  *   0.41320000  *   1.52900000  *
    13       H          0.60630000  *  -1.61300000  *   1.12460000  *
    14       H          2.15520000  *   0.35180000  *   1.59620000  *
    15       H          1.04910000  *   1.40140000  *   0.64220000  *
    16       H          2.57840000  *  -1.08000000  *  -0.38470000  *
    17       H          1.54760000  *  -0.04920000  *  -1.41920000  *
    18       H          0.78860000  *  -2.45710000  *  -1.77780000  *
    19       H          0.19610000  *  -3.42100000  *  -0.30170000  *
    20       H         -1.99960000  *  -2.63020000  *  -0.67070000  *
    21       H         -1.41040000  *  -1.70080000  *  -2.15730000  *
    22       H         -1.65100000  *   2.43500000  *   1.48950000  *
    23       H         -3.26090000  *   2.17310000  *   0.73070000  *
    24       H          3.30110000  *   2.41560000  *   0.83340000  *
    25       H          2.93080000  *   2.01650000  *  -0.88680000  *
    26       H          4.04940000  *   0.96080000  *   0.07170000  *
    27       H         -1.92570000  *  -1.62720000  *   1.61370000  *
    28       H         -0.60030000  *   0.61360000  *  -1.99840000  *
    29       H         -1.60880000  *   2.58270000  *  -1.12860000  *
    30       H         -2.92960000  *   0.36180000  *   2.45560000  *
 


          CARTESIAN COORDINATES 

    NO.       ATOM           X           Y           Z

     1         C         -0.9500     -0.7137     -0.2012
     2         C          0.4715     -1.2617      0.0753
     3         C         -1.2328     -1.9377     -1.0845
     4         C          1.6824     -0.4211     -0.3814
     5         C          0.1835     -2.4503     -0.8440
     6         C          1.9431      0.7467      0.5787
     7         C         -2.2410      1.7498      0.8458
     8         C          3.1313      1.5845      0.1168
     9         C         -1.8017     -0.7043      1.0530
    10         C         -1.0297      0.5764     -1.0012
    11         C         -1.6070      1.6844     -0.5186
    12         C         -2.3660      0.4132      1.5290
    13         H          0.6063     -1.6130      1.1246
    14         H          2.1552      0.3518      1.5962
    15         H          1.0491      1.4014      0.6422
    16         H          2.5784     -1.0800     -0.3847
    17         H          1.5476     -0.0492     -1.4192
    18         H          0.7886     -2.4571     -1.7778
    19         H          0.1961     -3.4210     -0.3017
    20         H         -1.9996     -2.6302     -0.6707
    21         H         -1.4104     -1.7008     -2.1573
    22         H         -1.6510      2.4350      1.4895
    23         H         -3.2609      2.1731      0.7307
    24         H          3.3011      2.4156      0.8334
    25         H          2.9308      2.0165     -0.8868
    26         H          4.0494      0.9608      0.0717
    27         H         -1.9257     -1.6272      1.6137
    28         H         -0.6003      0.6136     -1.9984
    29         H         -1.6088      2.5827     -1.1286
    30         H         -2.9296      0.3618      2.4556

  H: (PM3): J. J. P. STEWART, J. COMP. CHEM. 10, 209 (1989).
  C: (PM3): J. J. P. STEWART, J. COMP. CHEM. 10, 209 (1989).

           Empirical Formula: C12 H18  =    30 atoms



      MOLECULAR POINT GROUP   :   C1  


      RHF CALCULATION, NO. OF DOUBLY OCCUPIED LEVELS = 33


          Geometry optimization using EF

          DIAGONAL MATRIX USED AS START HESSIAN

 CYCLE:     1 TIME:   0.008 TIME LEFT:  2.00D  GRAD.:    98.519 HEAT:  17.46166
 CYCLE:     2 TIME:   0.016 TIME LEFT:  2.00D  GRAD.:   105.856 HEAT:  16.29541
 CYCLE:     3 TIME:   0.008 TIME LEFT:  2.00D  GRAD.:   115.433 HEAT:  15.20401
 CYCLE:     4 TIME:   0.016 TIME LEFT:  2.00D  GRAD.:    50.141 HEAT:  13.28477
 CYCLE:     5 TIME:   0.012 TIME LEFT:  2.00D  GRAD.:    24.874 HEAT:  12.60244
 CYCLE:     6 TIME:   0.016 TIME LEFT:  2.00D  GRAD.:    24.079 HEAT:  12.37590
 CYCLE:     7 TIME:   0.008 TIME LEFT:  2.00D  GRAD.:    21.531 HEAT:  12.15374
 CYCLE:     8 TIME:   0.008 TIME LEFT:  2.00D  GRAD.:    31.556 HEAT:  12.06448
 CYCLE:     9 TIME:   0.016 TIME LEFT:  2.00D  GRAD.:    17.445 HEAT:  11.87048
 CYCLE:    10 TIME:   0.012 TIME LEFT:  2.00D  GRAD.:    12.948 HEAT:  11.81514
 CYCLE:    11 TIME:   0.008 TIME LEFT:  2.00D  GRAD.:     9.443 HEAT:  11.77078
 CYCLE:    12 TIME:   0.016 TIME LEFT:  2.00D  GRAD.:     7.322 HEAT:  11.74532
 CYCLE:    13 TIME:   0.008 TIME LEFT:  2.00D  GRAD.:     4.983 HEAT:  11.72622
 CYCLE:    14 TIME:   0.016 TIME LEFT:  2.00D  GRAD.:     5.297 HEAT:  11.71842
 CYCLE:    15 TIME:   0.008 TIME LEFT:  2.00D  GRAD.:     5.686 HEAT:  11.71505
 CYCLE:    16 TIME:   0.008 TIME LEFT:  2.00D  GRAD.:     4.993 HEAT:  11.70813
 CYCLE:    17 TIME:   0.012 TIME LEFT:  2.00D  GRAD.:     2.728 HEAT:  11.70289
 CYCLE:    18 TIME:   0.008 TIME LEFT:  2.00D  GRAD.:     6.203 HEAT:  11.70581
 CYCLE:    19 TIME:   0.008 TIME LEFT:  2.00D  GRAD.:     6.364 HEAT:  11.70337
 CYCLE:    20 TIME:   0.016 TIME LEFT:  2.00D  GRAD.:     5.302 HEAT:  11.69886
 CYCLE:    21 TIME:   0.008 TIME LEFT:  2.00D  GRAD.:     5.552 HEAT:  11.69945
 CYCLE:    22 TIME:   0.004 TIME LEFT:  2.00D  GRAD.:     4.660 HEAT:  11.69515
 CYCLE:    23 TIME:   0.008 TIME LEFT:  2.00D  GRAD.:     4.647 HEAT:  11.69416
 CYCLE:    24 TIME:   0.016 TIME LEFT:  2.00D  GRAD.:     4.468 HEAT:  11.69256
 CYCLE:    25 TIME:   0.008 TIME LEFT:  2.00D  GRAD.:     3.372 HEAT:  11.69046
 CYCLE:    26 TIME:   0.008 TIME LEFT:  2.00D  GRAD.:     4.643 HEAT:  11.69138
 CYCLE:    27 TIME:   0.008 TIME LEFT:  2.00D  GRAD.:     5.913 HEAT:  11.69434
 CYCLE:    28 TIME:   0.008 TIME LEFT:  2.00D  GRAD.:     4.714 HEAT:  11.69093
 CYCLE:    29 TIME:   0.008 TIME LEFT:  2.00D  GRAD.:     5.590 HEAT:  11.69374
 CYCLE:    30 TIME:   0.008 TIME LEFT:  2.00D  GRAD.:     3.999 HEAT:  11.68776
 CYCLE:    31 TIME:   0.008 TIME LEFT:  2.00D  GRAD.:     3.490 HEAT:  11.68702
 CYCLE:    32 TIME:   0.008 TIME LEFT:  2.00D  GRAD.:     2.112 HEAT:  11.68404
 CYCLE:    33 TIME:   0.012 TIME LEFT:  2.00D  GRAD.:     1.804 HEAT:  11.68365
 CYCLE:    34 TIME:   0.004 TIME LEFT:  2.00D  GRAD.:     1.254 HEAT:  11.68257
 CYCLE:    35 TIME:   0.008 TIME LEFT:  2.00D  GRAD.:     1.380 HEAT:  11.68237
 CYCLE:    36 TIME:   0.008 TIME LEFT:  2.00D  GRAD.:     0.913 HEAT:  11.68162
 CYCLE:    37 TIME:   0.008 TIME LEFT:  2.00D  GRAD.:     0.928 HEAT:  11.68111
 CYCLE:    38 TIME:   0.008 TIME LEFT:  2.00D  GRAD.:     1.244 HEAT:  11.68059
 CYCLE:    39 TIME:   0.012 TIME LEFT:  2.00D  GRAD.:     0.631 HEAT:  11.67983
 CYCLE:    40 TIME:   0.008 TIME LEFT:  2.00D  GRAD.:     0.931 HEAT:  11.67962
 CYCLE:    41 TIME:   0.008 TIME LEFT:  2.00D  GRAD.:     0.611 HEAT:  11.67911
 CYCLE:    42 TIME:   0.008 TIME LEFT:  2.00D  GRAD.:     0.934 HEAT:  11.67824
 CYCLE:    43 TIME:   0.008 TIME LEFT:  2.00D  GRAD.:     0.900 HEAT:  11.67750
 CYCLE:    44 TIME:   0.008 TIME LEFT:  2.00D  GRAD.:     0.921 HEAT:  11.67726
 CYCLE:    45 TIME:   0.008 TIME LEFT:  2.00D  GRAD.:     0.598 HEAT:  11.67694
 CYCLE:    46 TIME:   0.008 TIME LEFT:  2.00D  GRAD.:     0.400 HEAT:  11.67671
 CYCLE:    47 TIME:   0.008 TIME LEFT:  2.00D  GRAD.:     0.287 HEAT:  11.67639
 CYCLE:    48 TIME:   0.008 TIME LEFT:  2.00D  GRAD.:     0.396 HEAT:  11.67597
 CYCLE:    49 TIME:   0.008 TIME LEFT:  2.00D  GRAD.:     0.362 HEAT:  11.67572
 CYCLE:    50 TIME:   0.008 TIME LEFT:  2.00D  GRAD.:     0.338 HEAT:  11.67547
 CYCLE:    51 TIME:   0.008 TIME LEFT:  2.00D  GRAD.:     0.413 HEAT:  11.67511
 CYCLE:    52 TIME:   0.008 TIME LEFT:  2.00D  GRAD.:     0.501 HEAT:  11.67459
 CYCLE:    53 TIME:   0.008 TIME LEFT:  2.00D  GRAD.:     0.477 HEAT:  11.67415
 CYCLE:    54 TIME:   0.008 TIME LEFT:  2.00D  GRAD.:     0.455 HEAT:  11.67367
 CYCLE:    55 TIME:   0.008 TIME LEFT:  2.00D  GRAD.:     0.479 HEAT:  11.67319
 CYCLE:    56 TIME:   0.008 TIME LEFT:  2.00D  GRAD.:     0.472 HEAT:  11.67262
 CYCLE:    57 TIME:   0.008 TIME LEFT:  2.00D  GRAD.:     0.419 HEAT:  11.67217
 CYCLE:    58 TIME:   0.008 TIME LEFT:  2.00D  GRAD.:     0.364 HEAT:  11.67180
 CYCLE:    59 TIME:   0.008 TIME LEFT:  2.00D  GRAD.:     0.410 HEAT:  11.67141
 CYCLE:    60 TIME:   0.008 TIME LEFT:  2.00D  GRAD.:     0.463 HEAT:  11.67089
 CYCLE:    61 TIME:   0.008 TIME LEFT:  2.00D  GRAD.:     0.438 HEAT:  11.67043
 CYCLE:    62 TIME:   0.012 TIME LEFT:  2.00D  GRAD.:     0.437 HEAT:  11.67002
 CYCLE:    63 TIME:   0.008 TIME LEFT:  2.00D  GRAD.:     0.438 HEAT:  11.66969
 CYCLE:    64 TIME:   0.008 TIME LEFT:  2.00D  GRAD.:     0.419 HEAT:  11.66931
 CYCLE:    65 TIME:   0.008 TIME LEFT:  2.00D  GRAD.:     0.343 HEAT:  11.66898
 CYCLE:    66 TIME:   0.008 TIME LEFT:  2.00D  GRAD.:     0.266 HEAT:  11.66877
 CYCLE:    67 TIME:   0.008 TIME LEFT:  2.00D  GRAD.:     0.279 HEAT:  11.66856
 CYCLE:    68 TIME:   0.008 TIME LEFT:  2.00D  GRAD.:     0.288 HEAT:  11.66837
 CYCLE:    69 TIME:   0.008 TIME LEFT:  2.00D  GRAD.:     0.263 HEAT:  11.66819
 CYCLE:    70 TIME:   0.008 TIME LEFT:  2.00D  GRAD.:     0.256 HEAT:  11.66801
 CYCLE:    71 TIME:   0.008 TIME LEFT:  2.00D  GRAD.:     0.272 HEAT:  11.66784
 CYCLE:    72 TIME:   0.008 TIME LEFT:  2.00D  GRAD.:     0.266 HEAT:  11.66768
 CYCLE:    73 TIME:   0.012 TIME LEFT:  2.00D  GRAD.:     0.230 HEAT:  11.66753
 CYCLE:    74 TIME:   0.008 TIME LEFT:  2.00D  GRAD.:     0.221 HEAT:  11.66740
 CYCLE:    75 TIME:   0.008 TIME LEFT:  2.00D  GRAD.:     0.246 HEAT:  11.66728
 CYCLE:    76 TIME:   0.008 TIME LEFT:  2.00D  GRAD.:     0.253 HEAT:  11.66714
 CYCLE:    77 TIME:   0.008 TIME LEFT:  2.00D  GRAD.:     0.220 HEAT:  11.66701
 CYCLE:    78 TIME:   0.008 TIME LEFT:  2.00D  GRAD.:     0.184 HEAT:  11.66689
 CYCLE:    79 TIME:   0.004 TIME LEFT:  2.00D  GRAD.:     0.156 HEAT:  11.66684
 CYCLE:    80 TIME:   0.012 TIME LEFT:  2.00D  GRAD.:     0.164 HEAT:  11.66676
 CYCLE:    81 TIME:   0.004 TIME LEFT:  2.00D  GRAD.:     0.151 HEAT:  11.66672
 CYCLE:    82 TIME:   0.008 TIME LEFT:  2.00D  GRAD.:     0.247 HEAT:  11.66655
 CYCLE:    83 TIME:   0.008 TIME LEFT:  2.00D  GRAD.:     0.185 HEAT:  11.66647
 CYCLE:    84 TIME:   0.008 TIME LEFT:  2.00D  GRAD.:     0.166 HEAT:  11.66637
 CYCLE:    85 TIME:   0.008 TIME LEFT:  2.00D  GRAD.:     0.186 HEAT:  11.66630
 CYCLE:    86 TIME:   0.008 TIME LEFT:  2.00D  GRAD.:     0.263 HEAT:  11.66615
 CYCLE:    87 TIME:   0.008 TIME LEFT:  2.00D  GRAD.:     0.261 HEAT:  11.66602
 CYCLE:    88 TIME:   0.008 TIME LEFT:  2.00D  GRAD.:     0.308 HEAT:  11.66578
 CYCLE:    89 TIME:   0.008 TIME LEFT:  2.00D  GRAD.:     0.271 HEAT:  11.66565
 CYCLE:    90 TIME:   0.008 TIME LEFT:  2.00D  GRAD.:     0.345 HEAT:  11.66527
 CYCLE:    91 TIME:   0.008 TIME LEFT:  2.00D  GRAD.:     0.262 HEAT:  11.66514
 CYCLE:    92 TIME:   0.008 TIME LEFT:  2.00D  GRAD.:     0.307 HEAT:  11.66480
 CYCLE:    93 TIME:   0.008 TIME LEFT:  2.00D  GRAD.:     0.225 HEAT:  11.66469
 CYCLE:    94 TIME:   0.008 TIME LEFT:  2.00D  GRAD.:     0.265 HEAT:  11.66448
 CYCLE:    95 TIME:   0.008 TIME LEFT:  2.00D  GRAD.:     0.253 HEAT:  11.66435
 CYCLE:    96 TIME:   0.008 TIME LEFT:  2.00D  GRAD.:     0.304 HEAT:  11.66381
 CYCLE:    97 TIME:   0.008 TIME LEFT:  2.00D  GRAD.:     0.281 HEAT:  11.66357
 CYCLE:    98 TIME:   0.008 TIME LEFT:  2.00D  GRAD.:     0.274 HEAT:  11.66322
 CYCLE:    99 TIME:   0.008 TIME LEFT:  2.00D  GRAD.:     0.220 HEAT:  11.66312
 CYCLE:   100 TIME:   0.008 TIME LEFT:  2.00D  GRAD.:     0.230 HEAT:  11.66292
 CYCLE:   101 TIME:   0.008 TIME LEFT:  2.00D  GRAD.:     0.265 HEAT:  11.66273
 CYCLE:   102 TIME:   0.008 TIME LEFT:  2.00D  GRAD.:     0.266 HEAT:  11.66249
 CYCLE:   103 TIME:   0.008 TIME LEFT:  2.00D  GRAD.:     0.397 HEAT:  11.66200
 CYCLE:   104 TIME:   0.008 TIME LEFT:  2.00D  GRAD.:     0.384 HEAT:  11.66168
 CYCLE:   105 TIME:   0.008 TIME LEFT:  2.00D  GRAD.:     0.606 HEAT:  11.66015
 CYCLE:   106 TIME:   0.008 TIME LEFT:  2.00D  GRAD.:     0.514 HEAT:  11.65971
 CYCLE:   107 TIME:   0.008 TIME LEFT:  2.00D  GRAD.:     0.887 HEAT:  11.65840
 CYCLE:   108 TIME:   0.008 TIME LEFT:  2.00D  GRAD.:     0.406 HEAT:  11.65789
 CYCLE:   109 TIME:   0.008 TIME LEFT:  2.00D  GRAD.:     0.320 HEAT:  11.65751
 CYCLE:   110 TIME:   0.008 TIME LEFT:  2.00D  GRAD.:     0.256 HEAT:  11.65713
 CYCLE:   111 TIME:   0.008 TIME LEFT:  2.00D  GRAD.:     0.235 HEAT:  11.65693
 CYCLE:   112 TIME:   0.012 TIME LEFT:  2.00D  GRAD.:     0.219 HEAT:  11.65683
 CYCLE:   113 TIME:   0.008 TIME LEFT:  2.00D  GRAD.:     0.244 HEAT:  11.65662
 CYCLE:   114 TIME:   0.004 TIME LEFT:  2.00D  GRAD.:     0.240 HEAT:  11.65649
 CYCLE:   115 TIME:   0.008 TIME LEFT:  2.00D  GRAD.:     0.389 HEAT:  11.65624
 CYCLE:   116 TIME:   0.008 TIME LEFT:  2.00D  GRAD.:     0.288 HEAT:  11.65603
 CYCLE:   117 TIME:   0.008 TIME LEFT:  2.00D  GRAD.:     0.294 HEAT:  11.65568
 CYCLE:   118 TIME:   0.012 TIME LEFT:  2.00D  GRAD.:     0.456 HEAT:  11.65516
 CYCLE:   119 TIME:   0.008 TIME LEFT:  2.00D  GRAD.:     0.609 HEAT:  11.65432
 CYCLE:   120 TIME:   0.008 TIME LEFT:  2.00D  GRAD.:     0.854 HEAT:  11.65245
 CYCLE:   121 TIME:   0.008 TIME LEFT:  2.00D  GRAD.:     0.807 HEAT:  11.65105
 CYCLE:   122 TIME:   0.008 TIME LEFT:  2.00D  GRAD.:     0.800 HEAT:  11.64811
 CYCLE:   123 TIME:   0.008 TIME LEFT:  2.00D  GRAD.:     0.684 HEAT:  11.64717
 CYCLE:   124 TIME:   0.008 TIME LEFT:  2.00D  GRAD.:     0.568 HEAT:  11.64576
 CYCLE:   125 TIME:   0.008 TIME LEFT:  2.00D  GRAD.:     0.642 HEAT:  11.64520
 CYCLE:   126 TIME:   0.008 TIME LEFT:  2.00D  GRAD.:     0.388 HEAT:  11.64469
 CYCLE:   127 TIME:   0.008 TIME LEFT:  2.00D  GRAD.:     0.339 HEAT:  11.64411
 CYCLE:   128 TIME:   0.008 TIME LEFT:  2.00D  GRAD.:     0.377 HEAT:  11.64355
 CYCLE:   129 TIME:   0.008 TIME LEFT:  2.00D  GRAD.:     0.293 HEAT:  11.64329
 CYCLE:   130 TIME:   0.008 TIME LEFT:  2.00D  GRAD.:     0.208 HEAT:  11.64308
 CYCLE:   131 TIME:   0.008 TIME LEFT:  2.00D  GRAD.:     0.176 HEAT:  11.64299
 CYCLE:   132 TIME:   0.004 TIME LEFT:  2.00D  GRAD.:     0.212 HEAT:  11.64291
 CYCLE:   133 TIME:   0.008 TIME LEFT:  2.00D  GRAD.:     0.114 HEAT:  11.64285
 CYCLE:   134 TIME:   0.012 TIME LEFT:  2.00D  GRAD.:     0.094 HEAT:  11.64282
 CYCLE:   135 TIME:   0.004 TIME LEFT:  2.00D  GRAD.:     0.096 HEAT:  11.64280
 CYCLE:   136 TIME:   0.008 TIME LEFT:  2.00D  GRAD.:     0.104 HEAT:  11.64277
 CYCLE:   137 TIME:   0.008 TIME LEFT:  2.00D  GRAD.:     0.084 HEAT:  11.64276
 CYCLE:   138 TIME:   0.008 TIME LEFT:  2.00D  GRAD.:     0.101 HEAT:  11.64274
 CYCLE:   139 TIME:   0.008 TIME LEFT:  2.00D  GRAD.:     0.078 HEAT:  11.64273
 CYCLE:   140 TIME:   0.008 TIME LEFT:  2.00D  GRAD.:     0.081 HEAT:  11.64271
 CYCLE:   141 TIME:   0.008 TIME LEFT:  2.00D  GRAD.:     0.096 HEAT:  11.64269
 CYCLE:   142 TIME:   0.008 TIME LEFT:  2.00D  GRAD.:     0.097 HEAT:  11.64266
 CYCLE:   143 TIME:   0.008 TIME LEFT:  2.00D  GRAD.:     0.083 HEAT:  11.64262
 CYCLE:   144 TIME:   0.008 TIME LEFT:  2.00D  GRAD.:     0.073 HEAT:  11.64260
 CYCLE:   145 TIME:   0.008 TIME LEFT:  2.00D  GRAD.:     0.047 HEAT:  11.64259

     GRADIENT =  0.04681  IS LESS THAN CUTOFF =  0.05000



 -------------------------------------------------------------------------------
 pm3  precise nosym THREADS=1
 InChI=1S/C12H18/c1-2-6-11-7-10-12(11)8-4-3-5-9-12/h4-5,8-9,11H,2-3,6-7,10H2,1H3



     GEOMETRY OPTIMISED USING EIGENVECTOR FOLLOWING (EF).     
     SCF FIELD WAS ACHIEVED                                   


                              PM3 CALCULATION
                                                       MOPAC2016 (Version: 18.184L)
                                                       Sat Jun 15 10:10:13 2019
                                                       No. of days remaining =  18




          FINAL HEAT OF FORMATION =         11.64259 KCAL/MOL =      48.71259 KJ/MOL


          TOTAL ENERGY            =      -1699.16834 EV
          ELECTRONIC ENERGY       =     -10992.10458 EV  POINT GROUP:     C1  
          CORE-CORE REPULSION     =       9292.93625 EV
          COSMO AREA              =        212.11 SQUARE ANGSTROMS
          COSMO VOLUME            =        233.34 CUBIC ANGSTROMS

          GRADIENT NORM           =          0.04681 = 0.00855 PER ATOM
          IONIZATION POTENTIAL    =          9.328959 EV
          HOMO LUMO ENERGIES (EV) =         -9.329  0.913
          NO. OF FILLED LEVELS    =         33
          MOLECULAR WEIGHT        =        162.2742

          MOLECULAR DIMENSIONS (Angstroms)

            Atom       Atom       Distance
            H    24    H    20     7.48195
            H    18    H    23     6.63565
            H    27    H    29     4.02688


          SCF CALCULATIONS        =        157
 
          WALL-CLOCK TIME         =          1.227 SECONDS
          COMPUTATION TIME        =          1.166 SECONDS




   ATOM   CHEMICAL          X               Y               Z
  NUMBER   SYMBOL      (ANGSTROMS)     (ANGSTROMS)     (ANGSTROMS)
 
     1       C         -0.98609858  *  -0.73310398  *  -0.23261153  *
     2       C          0.47187717  *  -1.25482543  *   0.05819052  *
     3       C         -1.23742374  *  -2.00362992  *  -1.09765856  *
     4       C          1.64229316  *  -0.39428735  *  -0.36434651  *
     5       C          0.20427228  *  -2.47642865  *  -0.85151530  *
     6       C          1.86730984  *   0.76723058  *   0.59132932  *
     7       C         -2.08123395  *   1.76839913  *   0.87337397  *
     8       C          3.04592223  *   1.61297625  *   0.16591511  *
     9       C         -1.80599055  *  -0.68811911  *   1.01210216  *
    10       C         -1.06864270  *   0.53035621  *  -1.01748181  *
    11       C         -1.56056501  *   1.66351088  *  -0.51418905  *
    12       C         -2.29109777  *   0.44632932  *   1.51809113  *
    13       H          0.59162668  *  -1.53751122  *   1.12762848  *
    14       H          2.02582392  *   0.38691369  *   1.62000497  *
    15       H          0.94756273  *   1.38784694  *   0.64016176  *
    16       H          2.55090532  *  -1.02839126  *  -0.41095099  *
    17       H          1.49371607  *  -0.01249002  *  -1.39509010  *
    18       H          0.83363881  *  -2.51794354  *  -1.75445060  *
    19       H          0.29444000  *  -3.45102769  *  -0.34916772  *
    20       H         -2.01734859  *  -2.67440169  *  -0.70551127  *
    21       H         -1.48490843  *  -1.79888815  *  -2.15058004  *
    22       H         -1.36786182  *   2.36165211  *   1.48306986  *
    23       H         -3.03309927  *   2.33623372  *   0.87158525  *
    24       H          3.20518295  *   2.45032322  *   0.85715482  *
    25       H          2.89884403  *   2.03806734  *  -0.83594525  *
    26       H          3.97539419  *   1.02869274  *   0.13818606  *
    27       H         -1.98218290  *  -1.64935656  *   1.50947532  *
    28       H         -0.70029090  *   0.48731936  *  -2.04986777  *
    29       H         -1.60039470  *   2.57693388  *  -1.11783807  *
    30       H         -2.87351074  *   0.44576763  *   2.44601727  *

                             CARTESIAN COORDINATES

   1    C       -0.986098578    -0.733103984    -0.232611534
   2    C        0.471877168    -1.254825425     0.058190525
   3    C       -1.237423735    -2.003629920    -1.097658557
   4    C        1.642293160    -0.394287353    -0.364346512
   5    C        0.204272284    -2.476428653    -0.851515298
   6    C        1.867309842     0.767230582     0.591329324
   7    C       -2.081233952     1.768399127     0.873373971
   8    C        3.045922226     1.612976250     0.165915114
   9    C       -1.805990545    -0.688119112     1.012102156
  10    C       -1.068642696     0.530356210    -1.017481809
  11    C       -1.560565012     1.663510876    -0.514189053
  12    C       -2.291097770     0.446329321     1.518091130
  13    H        0.591626681    -1.537511224     1.127628482
  14    H        2.025823922     0.386913692     1.620004971
  15    H        0.947562729     1.387846937     0.640161759
  16    H        2.550905317    -1.028391259    -0.410950995
  17    H        1.493716066    -0.012490025    -1.395090100
  18    H        0.833638806    -2.517943540    -1.754450599
  19    H        0.294439996    -3.451027695    -0.349167723
  20    H       -2.017348588    -2.674401691    -0.705511271
  21    H       -1.484908433    -1.798888154    -2.150580039
  22    H       -1.367861817     2.361652115     1.483069864
  23    H       -3.033099267     2.336233721     0.871585251
  24    H        3.205182948     2.450323223     0.857154821
  25    H        2.898844032     2.038067342    -0.835945248
  26    H        3.975394188     1.028692737     0.138186065
  27    H       -1.982182895    -1.649356563     1.509475325
  28    H       -0.700290901     0.487319359    -2.049867771
  29    H       -1.600394700     2.576933885    -1.117838066
  30    H       -2.873510742     0.445767628     2.446017270


           Empirical Formula: C12 H18  =    30 atoms



      MOLECULAR POINT GROUP   :   C1  


                  EIGENVALUES  
 -42.51438 -36.81663 -35.12439 -29.92327 -28.26541 -27.56979 -23.08371 -22.57491
 -21.35575 -20.40644 -18.89983 -17.47091 -16.79040 -16.40992 -16.00371 -15.04756
 -14.97433 -14.66832 -14.54415 -14.27112 -14.02380 -13.59933 -13.17796 -13.03854
 -12.46775 -12.29086 -11.86841 -11.71549 -11.45833 -11.32588 -11.11271 -10.27683
  -9.32896   0.91306   1.19625   3.23648   3.31472   3.41659   3.48990   3.61501
   3.66573   3.68166   3.84418   3.91176   4.00067   4.04199   4.12923   4.15452
   4.18828   4.26707   4.34334   4.50038   4.50783   4.56593   4.61841   4.64267
   4.71779   5.04355   5.08663   5.17736   5.27859   5.36087   5.50264   5.52933
   6.07699   6.24009


              NET ATOMIC CHARGES AND DIPOLE CONTRIBUTIONS

  ATOM NO.   TYPE          CHARGE      No. of ELECS.   s-Pop       p-Pop       
    1          C           0.009236        3.9908     1.17675     2.81402
    2          C          -0.078609        4.0786     1.19607     2.88254
    3          C          -0.102570        4.1026     1.17591     2.92666
    4          C          -0.091897        4.0919     1.16001     2.93189
    5          C          -0.113323        4.1133     1.17389     2.93944
    6          C          -0.107442        4.1074     1.15998     2.94746
    7          C          -0.024925        4.0249     1.13203     2.89289
    8          C          -0.107870        4.1079     1.13817     2.96970
    9          C          -0.132000        4.1320     1.19374     2.93826
   10          C          -0.124393        4.1244     1.19099     2.93340
   11          C          -0.144274        4.1443     1.19385     2.95042
   12          C          -0.142295        4.1423     1.19364     2.94865
   13          H           0.074183        0.9258     0.92582
   14          H           0.049066        0.9509     0.95093
   15          H           0.060490        0.9395     0.93951
   16          H           0.050767        0.9492     0.94923
   17          H           0.055948        0.9441     0.94405
   18          H           0.058618        0.9414     0.94138
   19          H           0.054862        0.9451     0.94514
   20          H           0.059757        0.9402     0.94024
   21          H           0.059899        0.9401     0.94010
   22          H           0.064681        0.9353     0.93532
   23          H           0.059463        0.9405     0.94054
   24          H           0.036031        0.9640     0.96397
   25          H           0.036791        0.9632     0.96321
   26          H           0.036269        0.9637     0.96373
   27          H           0.102546        0.8975     0.89745
   28          H           0.104078        0.8959     0.89592
   29          H           0.098620        0.9014     0.90138
   30          H           0.098294        0.9017     0.90171
 DIPOLE           X         Y         Z       TOTAL
 POINT-CHG.     0.010     0.184     0.088     0.204
 HYBRID        -0.004    -0.007    -0.003     0.009
 SUM            0.006     0.177     0.085     0.197


          ATOMIC ORBITAL ELECTRON POPULATIONS

     Atom    s        px        py        pz   
    1  C   1.17675   0.94823   0.93154   0.93424
    2  C   1.19607   0.93105   0.95511   0.99638
    3  C   1.17591   0.96410   0.96598   0.99659
    4  C   1.16001   0.97097   0.96864   0.99228
    5  C   1.17389   0.96883   0.97251   0.99810
    6  C   1.15998   0.98835   0.97415   0.98496
    7  C   1.13203   0.99757   0.95401   0.94132
    8  C   1.13817   0.97587   0.98971   1.00413
    9  C   1.19374   0.99198   0.97573   0.97056
   10  C   1.19099   1.00188   0.94496   0.98656
   11  C   1.19385   1.00229   0.97697   0.97116
   12  C   1.19364   1.00257   0.95407   0.99202
   13  H   0.92582
   14  H   0.95093
   15  H   0.93951
   16  H   0.94923
   17  H   0.94405
   18  H   0.94138
   19  H   0.94514
   20  H   0.94024
   21  H   0.94010
   22  H   0.93532
   23  H   0.94054
   24  H   0.96397
   25  H   0.96321
   26  H   0.96373
   27  H   0.89745
   28  H   0.89592
   29  H   0.90138
   30  H   0.90171
 *******************************************************************************
 ** Site#: 14399        For non-commercial use only    Version 18.184L 64BITS **
 *******************************************************************************
 ** Cite this program as: MOPAC2016, Version: 18.184L, James J. P. Stewart,   **
 ** Stewart Computational Chemistry, web: HTTP://OpenMOPAC.net. Days left:  18**
 *******************************************************************************
 **                                                                           **
 **                                MOPAC2016                                  **
 **                                                                           **
 *******************************************************************************

                              PM3 CALCULATION RESULTS

 *******************************************************************************
 *  CALCULATION DONE:                                Sat Jun 15 10:10:13 2019  *
 *  PM3        - The PM3 Hamiltonian to be used
 *  OLDGEO     - PREVIOUS GEOMETRY TO BE USED
 *  PRECISE    - CRITERIA TO BE INCREASED BY 100 TIMES
 *  NOSYM      - POINT-GROUP SYMMETRY SET TO C1
 *  THREADS=1  - MULTI-THREADING NOT USED
 *  T=         - A TIME OF 172800.0 SECONDS REQUESTED
 *  DUMP=N     - RESTART FILE WRITTEN EVERY  7200.000 SECONDS
 *  THERMO     - THERMODYNAMIC QUANTITIES TO BE CALCULATED
 *******************************************************************************
oldgeo thermo nosym precise THREADS=1  pm3
 InChI=1S/C12H18/c1-2-6-11-7-10-12(11)8-4-3-5-9-12/h4-5,8-9,11H,2-3,6-7,10H2,1H3

   ATOM   CHEMICAL          X               Y               Z
  NUMBER   SYMBOL      (ANGSTROMS)     (ANGSTROMS)     (ANGSTROMS)
 
     1       C         -0.98609858  *  -0.73310398  *  -0.23261153  *
     2       C          0.47187717  *  -1.25482543  *   0.05819052  *
     3       C         -1.23742374  *  -2.00362992  *  -1.09765856  *
     4       C          1.64229316  *  -0.39428735  *  -0.36434651  *
     5       C          0.20427228  *  -2.47642865  *  -0.85151530  *
     6       C          1.86730984  *   0.76723058  *   0.59132932  *
     7       C         -2.08123395  *   1.76839913  *   0.87337397  *
     8       C          3.04592223  *   1.61297625  *   0.16591511  *
     9       C         -1.80599055  *  -0.68811911  *   1.01210216  *
    10       C         -1.06864270  *   0.53035621  *  -1.01748181  *
    11       C         -1.56056501  *   1.66351088  *  -0.51418905  *
    12       C         -2.29109777  *   0.44632932  *   1.51809113  *
    13       H          0.59162668  *  -1.53751122  *   1.12762848  *
    14       H          2.02582392  *   0.38691369  *   1.62000497  *
    15       H          0.94756273  *   1.38784694  *   0.64016176  *
    16       H          2.55090532  *  -1.02839126  *  -0.41095099  *
    17       H          1.49371607  *  -0.01249002  *  -1.39509010  *
    18       H          0.83363881  *  -2.51794354  *  -1.75445060  *
    19       H          0.29444000  *  -3.45102769  *  -0.34916772  *
    20       H         -2.01734859  *  -2.67440169  *  -0.70551127  *
    21       H         -1.48490843  *  -1.79888815  *  -2.15058004  *
    22       H         -1.36786182  *   2.36165211  *   1.48306986  *
    23       H         -3.03309927  *   2.33623372  *   0.87158525  *
    24       H          3.20518295  *   2.45032322  *   0.85715482  *
    25       H          2.89884403  *   2.03806734  *  -0.83594525  *
    26       H          3.97539419  *   1.02869274  *   0.13818606  *
    27       H         -1.98218290  *  -1.64935656  *   1.50947532  *
    28       H         -0.70029090  *   0.48731936  *  -2.04986777  *
    29       H         -1.60039470  *   2.57693388  *  -1.11783807  *
    30       H         -2.87351074  *   0.44576763  *   2.44601727  *
 


          CARTESIAN COORDINATES 

    NO.       ATOM           X           Y           Z

     1         C         -0.9861     -0.7331     -0.2326
     2         C          0.4719     -1.2548      0.0582
     3         C         -1.2374     -2.0036     -1.0977
     4         C          1.6423     -0.3943     -0.3643
     5         C          0.2043     -2.4764     -0.8515
     6         C          1.8673      0.7672      0.5913
     7         C         -2.0812      1.7684      0.8734
     8         C          3.0459      1.6130      0.1659
     9         C         -1.8060     -0.6881      1.0121
    10         C         -1.0686      0.5304     -1.0175
    11         C         -1.5606      1.6635     -0.5142
    12         C         -2.2911      0.4463      1.5181
    13         H          0.5916     -1.5375      1.1276
    14         H          2.0258      0.3869      1.6200
    15         H          0.9476      1.3878      0.6402
    16         H          2.5509     -1.0284     -0.4110
    17         H          1.4937     -0.0125     -1.3951
    18         H          0.8336     -2.5179     -1.7545
    19         H          0.2944     -3.4510     -0.3492
    20         H         -2.0173     -2.6744     -0.7055
    21         H         -1.4849     -1.7989     -2.1506
    22         H         -1.3679      2.3617      1.4831
    23         H         -3.0331      2.3362      0.8716
    24         H          3.2052      2.4503      0.8572
    25         H          2.8988      2.0381     -0.8359
    26         H          3.9754      1.0287      0.1382
    27         H         -1.9822     -1.6494      1.5095
    28         H         -0.7003      0.4873     -2.0499
    29         H         -1.6004      2.5769     -1.1178
    30         H         -2.8735      0.4458      2.4460

  H: (PM3): J. J. P. STEWART, J. COMP. CHEM. 10, 209 (1989).
  C: (PM3): J. J. P. STEWART, J. COMP. CHEM. 10, 209 (1989).

           Empirical Formula: C12 H18  =    30 atoms



      MOLECULAR POINT GROUP   :   C1  


      RHF CALCULATION, NO. OF DOUBLY OCCUPIED LEVELS = 33



          HEAT OF FORMATION =      11.642589 KCALS/MOLE


          CARTESIAN COORDINATE DERIVATIVES

   NUMBER  ATOM         X            Y            Z

     1       C     -0.002102     0.002823    -0.001266
     2       C      0.000655     0.002796    -0.001161
     3       C     -0.000239     0.000323     0.000565
     4       C     -0.003843     0.005636    -0.002929
     5       C     -0.002049     0.001020    -0.001009
     6       C     -0.001863     0.005938     0.003190
     7       C     -0.004483    -0.002166    -0.004311
     8       C     -0.002999     0.000748     0.002060
     9       C      0.021011    -0.004673     0.001261
    10       C     -0.003021     0.000249    -0.003352
    11       C     -0.001455    -0.002269    -0.000464
    12       C      0.014943    -0.004601    -0.000091
    13       H     -0.009091     0.002682    -0.005245
    14       H     -0.007084     0.008910    -0.006501
    15       H      0.004558    -0.001888     0.009902
    16       H      0.003112    -0.008069     0.003836
    17       H      0.009390    -0.000014     0.002540
    18       H      0.012031    -0.001046     0.001700
    19       H     -0.004273     0.003047    -0.003059
    20       H     -0.003071    -0.001720     0.003588
    21       H     -0.001071    -0.000707     0.002117
    22       H     -0.006731     0.001527     0.000266
    23       H      0.008115    -0.003229     0.004024
    24       H     -0.006418    -0.003364     0.003169
    25       H     -0.003491     0.005122    -0.000388
    26       H      0.001108    -0.003738     0.000387
    27       H     -0.009895    -0.004282    -0.006008
    28       H      0.006021    -0.000715     0.002043
    29       H     -0.000743    -0.005701    -0.001187
    30       H     -0.007020     0.007362    -0.003676
 


          GRADIENT NORM =   0.04840


          TIME FOR SCF CALCULATION =    0.00

          TIME FOR DERIVATIVES     =    0.01

          MOLECULAR WEIGHT =  162.27



          ROTATIONAL CONSTANTS IN CM(-1)

          A =    0.03676242   B =    0.02854510   C =    0.01972856



           PRINCIPAL MOMENTS OF INERTIA IN UNITS OF 10**(-40)*GRAM-CM**2

          A =      761.4507   B =      980.6508   C =     1418.8963


          ORIENTATION OF MOLECULE IN FORCE CALCULATION

    NO.       ATOM         X         Y         Z

     1          C      -0.4928    0.8177   -0.3777
     2          C       1.0827    0.8177   -0.3777
     3          C      -0.4644    2.3749   -0.3777
     4          C       1.8029    0.1482    0.7722
     5          C       1.0717    2.3631   -0.3234
     6          C       1.8028   -1.3667    0.6373
     7          C      -2.1304   -1.6310   -0.4268
     8          C       2.5349   -2.0240    1.7851
     9          C      -1.0367    0.2318   -1.6365
    10          C      -1.1325    0.2478    0.8410
    11          C      -1.8700   -0.8634    0.8183
    12          C      -1.7679   -0.8832   -1.6585
    13          H       1.4845    0.4275   -1.3391
    14          H       2.2653   -1.6619   -0.3255
    15          H       0.7553   -1.7326    0.5907
    16          H       2.8450    0.5257    0.8067
    17          H       1.3487    0.4416    1.7406
    18          H       1.5012    2.7891    0.5971
    19          H       1.5706    2.8555   -1.1713
    20          H      -0.8916    2.8380   -1.2805
    21          H      -0.9555    2.8417    0.4899
    22          H      -1.5542   -2.5794   -0.3938
    23          H      -3.1996   -1.9201   -0.4688
    24          H       2.5326   -3.1169    1.6850
    25          H       2.0731   -1.7821    2.7517
    26          H       3.5834   -1.7011    1.8355
    27          H      -0.7896    0.7637   -2.5630
    28          H      -0.9679    0.7940    1.7781
    29          H      -2.3207   -1.2587    1.7354
    30          H      -2.1353   -1.2975   -2.6038


    FIRST DERIVATIVES WILL BE USED IN THE CALCULATION OF SECOND DERIVATIVES

          ESTIMATED TIME TO COMPLETE CALCULATION =        4.22 SECONDS

    FOR POINT-GROUP C1   THERE ARE   1 UNIQUE SYMMETRY FUNCTIONS.

 STEP:   1 TIME =     0.04 SECS, INTEGRAL =      0.04 TIME LEFT: 172799.95
 STEP:   2 TIME =     0.04 SECS, INTEGRAL =      0.07 TIME LEFT: 172799.92
 STEP:   3 TIME =     0.04 SECS, INTEGRAL =      0.11 TIME LEFT: 172799.88
 STEP:   4 TIME =     0.04 SECS, INTEGRAL =      0.14 TIME LEFT: 172799.85
 STEP:   5 TIME =     0.04 SECS, INTEGRAL =      0.18 TIME LEFT: 172799.81
 STEP:   6 TIME =     0.04 SECS, INTEGRAL =      0.21 TIME LEFT: 172799.78
 STEP:   7 TIME =     0.04 SECS, INTEGRAL =      0.25 TIME LEFT: 172799.74
 STEP:   8 TIME =     0.04 SECS, INTEGRAL =      0.28 TIME LEFT: 172799.71
 STEP:   9 TIME =     0.03 SECS, INTEGRAL =      0.31 TIME LEFT: 172799.68
 STEP:  10 TIME =     0.03 SECS, INTEGRAL =      0.34 TIME LEFT: 172799.64
 STEP:  11 TIME =     0.04 SECS, INTEGRAL =      0.38 TIME LEFT: 172799.61
 STEP:  12 TIME =     0.04 SECS, INTEGRAL =      0.41 TIME LEFT: 172799.57
 STEP:  13 TIME =     0.04 SECS, INTEGRAL =      0.45 TIME LEFT: 172799.54
 STEP:  14 TIME =     0.04 SECS, INTEGRAL =      0.48 TIME LEFT: 172799.50
 STEP:  15 TIME =     0.04 SECS, INTEGRAL =      0.52 TIME LEFT: 172799.47
 STEP:  16 TIME =     0.04 SECS, INTEGRAL =      0.55 TIME LEFT: 172799.43
 STEP:  17 TIME =     0.04 SECS, INTEGRAL =      0.59 TIME LEFT: 172799.40
 STEP:  18 TIME =     0.04 SECS, INTEGRAL =      0.62 TIME LEFT: 172799.36
 STEP:  19 TIME =     0.04 SECS, INTEGRAL =      0.66 TIME LEFT: 172799.33
 STEP:  20 TIME =     0.04 SECS, INTEGRAL =      0.70 TIME LEFT: 172799.29
 STEP:  21 TIME =     0.04 SECS, INTEGRAL =      0.73 TIME LEFT: 172799.26
 STEP:  22 TIME =     0.03 SECS, INTEGRAL =      0.76 TIME LEFT: 172799.23
 STEP:  23 TIME =     0.04 SECS, INTEGRAL =      0.80 TIME LEFT: 172799.19
 STEP:  24 TIME =     0.04 SECS, INTEGRAL =      0.83 TIME LEFT: 172799.16
 STEP:  25 TIME =     0.04 SECS, INTEGRAL =      0.87 TIME LEFT: 172799.12
 STEP:  26 TIME =     0.04 SECS, INTEGRAL =      0.90 TIME LEFT: 172799.09
 STEP:  27 TIME =     0.04 SECS, INTEGRAL =      0.94 TIME LEFT: 172799.05
 STEP:  28 TIME =     0.04 SECS, INTEGRAL =      0.97 TIME LEFT: 172799.02
 STEP:  29 TIME =     0.04 SECS, INTEGRAL =      1.01 TIME LEFT: 172798.98
 STEP:  30 TIME =     0.04 SECS, INTEGRAL =      1.04 TIME LEFT: 172798.95
 STEP:  31 TIME =     0.04 SECS, INTEGRAL =      1.08 TIME LEFT: 172798.91
 STEP:  32 TIME =     0.04 SECS, INTEGRAL =      1.11 TIME LEFT: 172798.88
 STEP:  33 TIME =     0.04 SECS, INTEGRAL =      1.15 TIME LEFT: 172798.84
 STEP:  34 TIME =     0.04 SECS, INTEGRAL =      1.18 TIME LEFT: 172798.80
 STEP:  35 TIME =     0.04 SECS, INTEGRAL =      1.22 TIME LEFT: 172798.77
 STEP:  36 TIME =     0.04 SECS, INTEGRAL =      1.25 TIME LEFT: 172798.73
 STEP:  37 TIME =     0.04 SECS, INTEGRAL =      1.29 TIME LEFT: 172798.70
 STEP:  38 TIME =     0.04 SECS, INTEGRAL =      1.32 TIME LEFT: 172798.66
 STEP:  39 TIME =     0.04 SECS, INTEGRAL =      1.36 TIME LEFT: 172798.63
 STEP:  40 TIME =     0.04 SECS, INTEGRAL =      1.39 TIME LEFT: 172798.59
 STEP:  41 TIME =     0.04 SECS, INTEGRAL =      1.43 TIME LEFT: 172798.55
 STEP:  42 TIME =     0.04 SECS, INTEGRAL =      1.47 TIME LEFT: 172798.52
 STEP:  43 TIME =     0.03 SECS, INTEGRAL =      1.50 TIME LEFT: 172798.49
 STEP:  44 TIME =     0.04 SECS, INTEGRAL =      1.54 TIME LEFT: 172798.45
 STEP:  45 TIME =     0.04 SECS, INTEGRAL =      1.57 TIME LEFT: 172798.42
 STEP:  46 TIME =     0.04 SECS, INTEGRAL =      1.61 TIME LEFT: 172798.38
 STEP:  47 TIME =     0.04 SECS, INTEGRAL =      1.64 TIME LEFT: 172798.35
 STEP:  48 TIME =     0.04 SECS, INTEGRAL =      1.68 TIME LEFT: 172798.31
 STEP:  49 TIME =     0.03 SECS, INTEGRAL =      1.71 TIME LEFT: 172798.28
 STEP:  50 TIME =     0.04 SECS, INTEGRAL =      1.75 TIME LEFT: 172798.24
 STEP:  51 TIME =     0.03 SECS, INTEGRAL =      1.78 TIME LEFT: 172798.21
 STEP:  52 TIME =     0.04 SECS, INTEGRAL =      1.81 TIME LEFT: 172798.18
 STEP:  53 TIME =     0.04 SECS, INTEGRAL =      1.85 TIME LEFT: 172798.14
 STEP:  54 TIME =     0.04 SECS, INTEGRAL =      1.88 TIME LEFT: 172798.11
 STEP:  55 TIME =     0.04 SECS, INTEGRAL =      1.92 TIME LEFT: 172798.07
 STEP:  56 TIME =     0.04 SECS, INTEGRAL =      1.95 TIME LEFT: 172798.04
 STEP:  57 TIME =     0.04 SECS, INTEGRAL =      1.99 TIME LEFT: 172798.00
 STEP:  58 TIME =     0.04 SECS, INTEGRAL =      2.02 TIME LEFT: 172797.96
 STEP:  59 TIME =     0.04 SECS, INTEGRAL =      2.06 TIME LEFT: 172797.93
 STEP:  60 TIME =     0.04 SECS, INTEGRAL =      2.09 TIME LEFT: 172797.89
 STEP:  61 TIME =     0.04 SECS, INTEGRAL =      2.13 TIME LEFT: 172797.86
 STEP:  62 TIME =     0.04 SECS, INTEGRAL =      2.16 TIME LEFT: 172797.82
 STEP:  63 TIME =     0.04 SECS, INTEGRAL =      2.20 TIME LEFT: 172797.79
 STEP:  64 TIME =     0.04 SECS, INTEGRAL =      2.23 TIME LEFT: 172797.75
 STEP:  65 TIME =     0.04 SECS, INTEGRAL =      2.27 TIME LEFT: 172797.72
 STEP:  66 TIME =     0.04 SECS, INTEGRAL =      2.30 TIME LEFT: 172797.68
 STEP:  67 TIME =     0.04 SECS, INTEGRAL =      2.34 TIME LEFT: 172797.65
 STEP:  68 TIME =     0.04 SECS, INTEGRAL =      2.38 TIME LEFT: 172797.61
 STEP:  69 TIME =     0.04 SECS, INTEGRAL =      2.41 TIME LEFT: 172797.58
 STEP:  70 TIME =     0.04 SECS, INTEGRAL =      2.45 TIME LEFT: 172797.54
 STEP:  71 TIME =     0.04 SECS, INTEGRAL =      2.48 TIME LEFT: 172797.51
 STEP:  72 TIME =     0.04 SECS, INTEGRAL =      2.52 TIME LEFT: 172797.47
 STEP:  73 TIME =     0.04 SECS, INTEGRAL =      2.55 TIME LEFT: 172797.44
 STEP:  74 TIME =     0.04 SECS, INTEGRAL =      2.59 TIME LEFT: 172797.40
 STEP:  75 TIME =     0.04 SECS, INTEGRAL =      2.62 TIME LEFT: 172797.37
 STEP:  76 TIME =     0.03 SECS, INTEGRAL =      2.65 TIME LEFT: 172797.34
 STEP:  77 TIME =     0.04 SECS, INTEGRAL =      2.69 TIME LEFT: 172797.30
 STEP:  78 TIME =     0.04 SECS, INTEGRAL =      2.72 TIME LEFT: 172797.27
 STEP:  79 TIME =     0.04 SECS, INTEGRAL =      2.76 TIME LEFT: 172797.23
 STEP:  80 TIME =     0.04 SECS, INTEGRAL =      2.79 TIME LEFT: 172797.20
 STEP:  81 TIME =     0.04 SECS, INTEGRAL =      2.83 TIME LEFT: 172797.16
 STEP:  82 TIME =     0.04 SECS, INTEGRAL =      2.86 TIME LEFT: 172797.12
 STEP:  83 TIME =     0.04 SECS, INTEGRAL =      2.90 TIME LEFT: 172797.09
 STEP:  84 TIME =     0.04 SECS, INTEGRAL =      2.93 TIME LEFT: 172797.05
 STEP:  85 TIME =     0.04 SECS, INTEGRAL =      2.97 TIME LEFT: 172797.02
 STEP:  86 TIME =     0.04 SECS, INTEGRAL =      3.01 TIME LEFT: 172796.98
 STEP:  87 TIME =     0.04 SECS, INTEGRAL =      3.04 TIME LEFT: 172796.95
 STEP:  88 TIME =     0.04 SECS, INTEGRAL =      3.08 TIME LEFT: 172796.91
 STEP:  89 TIME =     0.04 SECS, INTEGRAL =      3.11 TIME LEFT: 172796.88
 STEP:  90 TIME =     0.04 SECS, INTEGRAL =      3.15 TIME LEFT: 172796.84

(To convert to Hartree/Bohr^2, multiply by (10^(-21) x N x a0^2)/(4.184 x 627.51) =  0.0642)


           FORCE MATRIX IN MILLIDYNES/ANGSTROM


                  C  1       C  2       C  3       C  4       C  5       C  6
 ------------------------------------------------------------------------------
     C    1  15.182005
     C    2   2.593722  14.176258
     C    3   3.140476   1.796134  14.347278
     C    4   0.473096   4.347530   0.039777  14.435911
     C    5   1.769213   3.510041   3.814640   0.544213  14.462761
     C    6   0.022769   0.641317   0.004735   4.164704   0.048920  14.367313
     C    7   0.202083   0.015306   0.010006   0.001391   0.001381   0.004545
     C    8   0.001910   0.054485   0.000944   0.664062   0.009465   4.480418
     C    9   4.781755   0.600240   0.574655   0.030547   0.043405   0.002696
     C   10   4.825544   0.529457   0.589938   0.054091   0.041234   0.029398
     C   11   0.841809   0.034862   0.042535   0.007441   0.003645   0.017628
     C   12   0.837611   0.032321   0.043106   0.004388   0.004176   0.001089
     H   13   0.441997   4.363015   0.026048   0.427516   0.428880   0.038849
     H   14   0.001979   0.030541   0.000398   0.445654   0.001472   4.452597
     H   15   0.007953   0.025774   0.000705   0.442315   0.001771   4.388449
     H   16   0.044880   0.431895   0.003345   4.424682   0.021940   0.446060
     H   17   0.016044   0.450227   0.001351   4.411492   0.017776   0.443615
     H   18   0.027314   0.454364   0.447074   0.030410   4.659635   0.002738
     H   19   0.031670   0.441004   0.443654   0.031147   4.700770   0.005233
     H   20   0.451002   0.030068   4.676683   0.001899   0.445693   0.000441
     H   21   0.450710   0.029451   4.679273   0.003531   0.445652   0.000685
     H   22   0.015625   0.002657   0.002394   0.000569   0.000291   0.004683
     H   23   0.014943   0.002527   0.001289   0.000391   0.000455   0.000470
     H   24   0.000784   0.009435   0.000388   0.051448   0.002015   0.449484
     H   25   0.000456   0.001687   0.000153   0.023921   0.000680   0.462314
     H   26   0.000601   0.001951   0.000264   0.023713   0.000799   0.464142
     H   27   0.433650   0.017660   0.030582   0.001444   0.001663   0.000287
     H   28   0.435048   0.008634   0.033648   0.019378   0.001963   0.002061
     H   29   0.121754   0.016749   0.012805   0.001574   0.000978   0.001038
     H   30   0.120657   0.016168   0.013148   0.001839   0.001375   0.000402


                  C  7       C  8       C  9       C 10       C 11       C 12
 ------------------------------------------------------------------------------
     C    7  15.138513
     C    8   0.000712  14.378719
     C    9   0.858414   0.000774  18.391957
     C   10   0.855232   0.001737   0.718366  18.362485
     C   11   5.022924   0.002891   0.067125  10.680723  18.239872
     C   12   5.019190   0.001298  10.699496   0.066066   0.755820  18.251100
     H   13   0.001673   0.001691   0.057279   0.031262   0.003820   0.004512
     H   14   0.000468   0.436050   0.000896   0.001121   0.001398   0.000574
     H   15   0.005167   0.435478   0.001848   0.007813   0.013452   0.001897
     H   16   0.000369   0.026597   0.005685   0.005708   0.001268   0.001054
     H   17   0.000878   0.028614   0.001010   0.027606   0.003226   0.000531
     H   18   0.000276   0.000875   0.003072   0.003339   0.000610   0.000664
     H   19   0.000448   0.001177   0.004298   0.003497   0.000668   0.000754
     H   20   0.001190   0.000088   0.037779   0.031200   0.005159   0.003577
     H   21   0.001163   0.000211   0.031161   0.041252   0.003651   0.005120
     H   22   4.355623   0.000900   0.031854   0.031475   0.418252   0.418140
     H   23   4.432263   0.000208   0.042560   0.042671   0.426051   0.425395
     H   24   0.000240   4.752370   0.000485   0.000514   0.000862   0.000516
     H   25   0.000337   4.721452   0.000368   0.000426   0.000682   0.000305
     H   26   0.000419   4.721627   0.000423   0.000497   0.000522   0.000268
     H   27   0.122319   0.000160   4.798074   0.041564   0.003769   0.443213
     H   28   0.122520   0.000491   0.041592   4.782683   0.442724   0.003849
     H   29   0.425223   0.000886   0.004664   0.442810   4.829703   0.045106
     H   30   0.425505   0.000331   0.443132   0.004122   0.045260   4.830344


                  H 13       H 14       H 15       H 16       H 17       H 18
 ------------------------------------------------------------------------------
     H   13   4.863405
     H   14   0.027973   5.069387
     H   15   0.002326   0.562921   4.985371
     H   16   0.025734   0.024188   0.046191   5.038736
     H   17   0.041898   0.045620   0.024973   0.569492   5.036847
     H   18   0.032498   0.000459   0.000467   0.012549   0.013966   5.288860
     H   19   0.027898   0.000294   0.000393   0.001940   0.001151   0.556494
     H   20   0.002718   0.000078   0.000365   0.000562   0.000530   0.033317
     H   21   0.001045   0.000174   0.000216   0.000655   0.000389   0.023950
     H   22   0.000476   0.000311   0.007934   0.000375   0.000320   0.000144
     H   23   0.000566   0.000225   0.000501   0.000186   0.000340   0.000124
     H   24   0.000494   0.030216   0.029726   0.001712   0.001765   0.000171
     H   25   0.000481   0.046948   0.024739   0.001501   0.019609   0.000245
     H   26   0.000375   0.024506   0.046960   0.018298   0.001543   0.000227
     H   27   0.016644   0.000403   0.000467   0.000275   0.000568   0.000889
     H   28   0.001244   0.000713   0.001671   0.000908   0.025434   0.000803
     H   29   0.001987   0.000418   0.001099   0.000356   0.000721   0.000244
     H   30   0.001071   0.000229   0.000387   0.000385   0.000209   0.000211


                  H 19       H 20       H 21       H 22       H 23       H 24
 ------------------------------------------------------------------------------
     H   19   5.323448
     H   20   0.023393   5.305170
     H   21   0.031666   0.553717   5.307432
     H   22   0.000152   0.000537   0.000537   4.940216
     H   23   0.000141   0.000296   0.000249   0.557417   5.010157
     H   24   0.000310   0.000085   0.000080   0.000180   0.000053   5.489826
     H   25   0.000135   0.000066   0.000096   0.000118   0.000106   0.575077
     H   26   0.000126   0.000083   0.000101   0.000225   0.000109   0.574526
     H   27   0.000857   0.029452   0.001713   0.016845   0.014283   0.000136
     H   28   0.000864   0.001699   0.030503   0.017005   0.014286   0.000166
     H   29   0.000243   0.001750   0.000823   0.018133   0.034793   0.000303
     H   30   0.000293   0.000826   0.001760   0.018075   0.034624   0.000123


                  H 25       H 26       H 27       H 28       H 29       H 30
 ------------------------------------------------------------------------------
     H   25   5.466343
     H   26   0.577324   5.465600
     H   27   0.000141   0.000153   5.176710
     H   28   0.000363   0.000190   0.005930   5.160059
     H   29   0.000364   0.000217   0.000971   0.068933   5.205447
     H   30   0.000110   0.000097   0.068556   0.000960   0.006170   5.205978


          HEAT OF FORMATION =      11.642589 KCALS/MOLE

          ZERO POINT ENERGY     168.215 KCAL/MOL


           NORMAL COORDINATE ANALYSIS (Total motion = 1 Angstrom)


   Root No.       1         2         3         4         5         6         7         8

                 1 A       2 A       3 A       4 A       5 A       6 A       7 A       8 A   

                  55.9      67.7      81.4     100.9     185.9     196.5     215.2     255.4
  
           1   -0.0047   -0.0019   -0.0113   -0.0063    0.0002   -0.0035    0.0018   -0.0131
           2    0.0135    0.0022    0.0093    0.0021    0.0003   -0.0008    0.0008    0.0151
           3   -0.0021   -0.0053    0.0021    0.0018   -0.0199    0.0042   -0.0039   -0.0011
           4   -0.0046   -0.0021   -0.0111   -0.0060    0.0003   -0.0026    0.0015   -0.0145
           5    0.0085    0.0024   -0.0153   -0.0101   -0.0001   -0.0028    0.0018   -0.0037
           6   -0.0012    0.0161   -0.0008    0.0009   -0.0036   -0.0020    0.0110   -0.0098
           7    0.0004   -0.0015    0.0123    0.0057    0.0004   -0.0009    0.0007    0.0025
           8    0.0130    0.0023    0.0085    0.0019    0.0005   -0.0007    0.0005    0.0141
           9   -0.0094   -0.0230    0.0056    0.0005   -0.0220    0.0076   -0.0144    0.0124
          10   -0.0101   -0.0146   -0.0181   -0.0099   -0.0021    0.0123   -0.0244   -0.0276
          11   -0.0038   -0.0062   -0.0090   -0.0056   -0.0129   -0.0049    0.0096   -0.0180
          12   -0.0051    0.0187    0.0075    0.0063   -0.0088   -0.0136    0.0342   -0.0127
          13    0.0000   -0.0029    0.0128    0.0058   -0.0024   -0.0014    0.0012    0.0035
          14    0.0081    0.0021   -0.0145   -0.0097   -0.0006   -0.0030    0.0021   -0.0039
          15    0.0049    0.0204   -0.0158   -0.0082    0.0432    0.0101   -0.0172    0.0049
          16   -0.0180    0.0043   -0.0116    0.0506    0.0035    0.0258    0.0069   -0.0062
          17   -0.0026   -0.0042   -0.0099   -0.0030   -0.0133   -0.0045    0.0119   -0.0179
          18   -0.0203   -0.0055    0.0195   -0.0216    0.0044   -0.0143    0.0011   -0.0123
          19    0.0536   -0.0065    0.0274   -0.0001    0.0039    0.0036   -0.0053   -0.0136
          20   -0.0206    0.0049   -0.0100    0.0004   -0.0003   -0.0031    0.0024    0.0109
          21    0.0191    0.0109   -0.0078    0.0008    0.0033   -0.0007   -0.0008    0.0021
          22   -0.0471    0.0327    0.0316   -0.0020    0.0072   -0.0004   -0.0033    0.0021
          23   -0.0208   -0.0132    0.0063    0.0018    0.0108    0.0058   -0.0141    0.0207
          24   -0.0124   -0.0289    0.0015    0.0151    0.0174    0.0089   -0.0085    0.0057
          25   -0.0049    0.0136   -0.0199   -0.0117   -0.0201   -0.0010   -0.0020    0.0041
          26    0.0027   -0.0159    0.0211    0.0070    0.0035    0.0004    0.0007    0.0033
          27    0.0031   -0.0033   -0.0001    0.0016   -0.0125    0.0022   -0.0020   -0.0015
          28   -0.0043   -0.0170   -0.0182   -0.0117    0.0139   -0.0162    0.0132    0.0042
          29    0.0206    0.0206    0.0091    0.0060    0.0030    0.0055   -0.0060    0.0043
          30    0.0018   -0.0045   -0.0016    0.0007   -0.0116    0.0007   -0.0012    0.0022
          31    0.0219   -0.0199   -0.0004   -0.0092    0.0244   -0.0242    0.0277    0.0239
          32    0.0029    0.0225   -0.0028    0.0044   -0.0038    0.0108   -0.0156   -0.0083
          33    0.0115    0.0028   -0.0060    0.0003    0.0011   -0.0033    0.0032    0.0057
          34    0.0223    0.0119   -0.0027   -0.0098   -0.0319    0.0052   -0.0136    0.0345
          35   -0.0155   -0.0150    0.0098    0.0058    0.0108   -0.0037    0.0083   -0.0164
          36    0.0127    0.0043   -0.0049    0.0011   -0.0009   -0.0006    0.0004   -0.0002
          37   -0.0057    0.0089   -0.0182   -0.0088    0.0086   -0.0097    0.0144   -0.0187
          38    0.0126    0.0086   -0.0323   -0.0191    0.0240    0.0038   -0.0135   -0.0023
          39   -0.0033    0.0179    0.0032    0.0034   -0.0091   -0.0077    0.0227   -0.0120
          40   -0.0009   -0.0063   -0.0395    0.1236    0.0063    0.0504    0.0271    0.0064
          41    0.0040    0.0174   -0.0148    0.0305   -0.0222   -0.0063    0.0427   -0.0180
          42   -0.0141   -0.0174    0.0075    0.0031    0.0088   -0.0017    0.0010   -0.0058
          43   -0.0199    0.0088   -0.0102    0.0666    0.0059    0.0285    0.0127    0.0017
          44    0.0051   -0.0179   -0.0185   -0.0384   -0.0202   -0.0088   -0.0019   -0.0390
          45   -0.0451    0.0043    0.0551   -0.0959    0.0082   -0.0380   -0.0257   -0.0153
          46   -0.0084   -0.0192   -0.0190   -0.0244   -0.0016    0.0096   -0.0338   -0.0307
          47   -0.0093    0.0047   -0.0064    0.0316   -0.0130    0.0031    0.0301   -0.0101
          48    0.0019    0.0410    0.0105    0.0398   -0.0109   -0.0198    0.0807    0.0043
          49   -0.0122   -0.0333   -0.0241   -0.0448    0.0006    0.0154   -0.0662   -0.0413
          50   -0.0106   -0.0262   -0.0037   -0.0402   -0.0112   -0.0108   -0.0151   -0.0289
          51   -0.0040    0.0159    0.0030    0.0004   -0.0076   -0.0101    0.0220   -0.0152
          52   -0.0078   -0.0298    0.0329    0.0146   -0.0462   -0.0033    0.0044    0.0132
          53    0.0024   -0.0019   -0.0111   -0.0072   -0.0323   -0.0115    0.0208   -0.0180
          54    0.0112    0.0348   -0.0267   -0.0135    0.0789    0.0151   -0.0276    0.0070
          55    0.0100    0.0220    0.0078    0.0045    0.0377    0.0013   -0.0020    0.0051
          56    0.0104    0.0053   -0.0311   -0.0189    0.0294    0.0040   -0.0151   -0.0016
          57    0.0121    0.0370   -0.0284   -0.0143    0.0846    0.0159   -0.0293    0.0072
          58    0.0109    0.0251    0.0059    0.0039    0.0430    0.0014   -0.0018    0.0032
          59    0.0097   -0.0092    0.0183    0.0050   -0.0036    0.0018   -0.0054    0.0265
          60   -0.0162   -0.0415    0.0137    0.0030   -0.0446    0.0078   -0.0163    0.0187
          61   -0.0066   -0.0265    0.0322    0.0146   -0.0401   -0.0019    0.0024    0.0127
          62    0.0197    0.0138    0.0132    0.0061    0.0053   -0.0012    0.0051    0.0112
          63   -0.0169   -0.0434    0.0145    0.0033   -0.0478    0.0075   -0.0160    0.0197
          64    0.0937   -0.0101    0.0650    0.0129    0.0162    0.0232   -0.0239   -0.0865
          65    0.0039    0.0035    0.0126    0.0083    0.0064    0.0091   -0.0094   -0.0324
          66    0.0278    0.0328   -0.0117    0.0005   -0.0171    0.0140   -0.0233    0.0059
          67    0.0658   -0.0070    0.0388    0.0039    0.0064    0.0104   -0.0121   -0.0363
          68   -0.0662    0.0079   -0.0521   -0.0140   -0.0129   -0.0258    0.0244    0.0927
          69    0.0219    0.0013   -0.0074    0.0012    0.0283   -0.0127    0.0163   -0.0039
          70   -0.0573    0.0460    0.0370    0.0565    0.0125   -0.1420   -0.0843    0.0105
          71   -0.0198   -0.0116    0.0054    0.0042    0.0089   -0.0028   -0.0161    0.0176
          72   -0.0224   -0.0469    0.0119   -0.0128    0.0391    0.1071    0.0136    0.0425
          73   -0.0628    0.0461    0.0619   -0.0837    0.0064    0.0768    0.0447    0.0038
          74   -0.0245   -0.0354    0.0120   -0.0445    0.0275    0.1495    0.0380    0.0493
          75   -0.0189   -0.0170    0.0145   -0.0123    0.0129    0.0101    0.0014   -0.0004
          76   -0.0445    0.0293    0.0308   -0.0207    0.0057    0.0417    0.0209   -0.0001
          77   -0.0328    0.0002    0.0150    0.0495    0.0168   -0.1199   -0.0872    0.0307
          78    0.0104   -0.0416   -0.0365    0.0999    0.0111   -0.0712   -0.0490   -0.0083
          79   -0.0273    0.0265   -0.0401   -0.0176   -0.0350   -0.0024   -0.0005    0.0115
          80    0.0080   -0.0303    0.0377    0.0114    0.0045    0.0033   -0.0019   -0.0030
          81    0.0003   -0.0082    0.0041    0.0026   -0.0158    0.0035   -0.0031   -0.0031
          82   -0.0257   -0.0262   -0.0378   -0.0192    0.0219   -0.0250    0.0174    0.0115
          83    0.0392    0.0333    0.0165    0.0102    0.0074    0.0095   -0.0083   -0.0010
          84   -0.0054   -0.0102   -0.0026   -0.0004   -0.0155   -0.0002   -0.0004    0.0041
          85    0.0223   -0.0317   -0.0048   -0.0135    0.0450   -0.0454    0.0547    0.0563
          86    0.0054    0.0369   -0.0072    0.0061   -0.0091    0.0224   -0.0318   -0.0290
          87    0.0127    0.0032   -0.0102   -0.0011    0.0089   -0.0088    0.0095    0.0129
          88    0.0231    0.0235   -0.0089   -0.0146   -0.0625    0.0110   -0.0265    0.0796
          89   -0.0271   -0.0288    0.0155    0.0088    0.0213   -0.0061    0.0162   -0.0475
          90    0.0175    0.0058   -0.0048    0.0016    0.0064   -0.0018    0.0019   -0.0043


   Root No.       9        10        11        12        13        14        15        16

                 9 A      10 A      11 A      12 A      13 A      14 A      15 A      16 A   

                 313.8     349.1     371.0     437.6     453.1     518.9     541.3     597.2
  
           1   -0.0194   -0.0037    0.0052   -0.0013    0.0133    0.0038   -0.0232   -0.0059
           2    0.0133    0.0056   -0.0060   -0.0066    0.0180   -0.0051    0.0209    0.0047
           3    0.0117    0.0060    0.0286    0.0085    0.0048   -0.0107   -0.0050   -0.0356
           4   -0.0162    0.0026    0.0003   -0.0038    0.0173    0.0084   -0.0326   -0.0038
           5   -0.0026   -0.0028   -0.0008   -0.0107    0.0363   -0.0007   -0.0016   -0.0013
           6    0.0142    0.0034    0.0140   -0.0085    0.0017    0.0447    0.0236    0.0120
           7   -0.0102    0.0378   -0.0008   -0.0009    0.0051   -0.0053    0.0044   -0.0003
           8    0.0119    0.0106   -0.0064   -0.0089    0.0251   -0.0089    0.0326    0.0065
           9   -0.0272   -0.0063   -0.0294   -0.0227   -0.0115    0.0025    0.0027   -0.0104
          10    0.0290    0.0117   -0.0037   -0.0077   -0.0074    0.0262   -0.0009    0.0066
          11    0.0002    0.0219   -0.0144    0.0077   -0.0180   -0.0138   -0.0006   -0.0022
          12   -0.0070    0.0050   -0.0017    0.0049   -0.0071    0.0275    0.0047    0.0065
          13   -0.0109    0.0361   -0.0006   -0.0019    0.0060   -0.0055    0.0064   -0.0006
          14   -0.0008   -0.0098   -0.0010   -0.0129    0.0455   -0.0000   -0.0045   -0.0024
          15   -0.0080    0.0168   -0.0089    0.0030   -0.0142   -0.0035    0.0020   -0.0022
          16    0.0173   -0.0053   -0.0149   -0.0008    0.0014   -0.0076    0.0012   -0.0001
          17   -0.0038    0.0286   -0.0126    0.0104   -0.0272   -0.0116    0.0003   -0.0020
          18    0.0141   -0.0090   -0.0242    0.0031    0.0031   -0.0193   -0.0025   -0.0035
          19   -0.0038   -0.0194    0.0062    0.0054   -0.0160    0.0007   -0.0035   -0.0027
          20    0.0055   -0.0259    0.0042    0.0097   -0.0298    0.0007   -0.0022    0.0007
          21   -0.0081   -0.0030   -0.0084   -0.0038   -0.0021    0.0006   -0.0016    0.0345
          22    0.0063   -0.0105   -0.0062   -0.0021    0.0091   -0.0055   -0.0006   -0.0008
          23   -0.0275    0.0198    0.0303    0.0007   -0.0132    0.0189    0.0019    0.0025
          24    0.0097   -0.0160   -0.0073   -0.0036    0.0143   -0.0076   -0.0013   -0.0015
          25   -0.0053   -0.0179    0.0277   -0.0314   -0.0150   -0.0260    0.0111    0.0236
          26    0.0124   -0.0060    0.0005    0.0283    0.0012    0.0065   -0.0225    0.0495
          27    0.0059    0.0148    0.0193    0.0076    0.0243   -0.0093   -0.0070   -0.0545
          28   -0.0184   -0.0236   -0.0066    0.0391    0.0086    0.0041    0.0280   -0.0189
          29    0.0089   -0.0083   -0.0088   -0.0255   -0.0186    0.0109   -0.0135   -0.0532
          30    0.0083   -0.0075    0.0241    0.0215   -0.0113   -0.0106    0.0007   -0.0538
          31    0.0147   -0.0049   -0.0032   -0.0208   -0.0159    0.0075   -0.0067   -0.0411
          32   -0.0136   -0.0236   -0.0122    0.0147   -0.0060    0.0107    0.0099   -0.0419
          33    0.0007   -0.0075    0.0051    0.0003   -0.0174   -0.0067   -0.0084    0.0543
          34    0.0113   -0.0047   -0.0038    0.0271   -0.0014    0.0018   -0.0153    0.0325
          35    0.0029   -0.0165    0.0241   -0.0076   -0.0101   -0.0135   -0.0075    0.0422
          36   -0.0045    0.0078    0.0020   -0.0067    0.0160   -0.0081   -0.0073    0.0553
          37   -0.0343   -0.0086   -0.0073   -0.0072    0.0209    0.0216   -0.0400    0.0135
          38   -0.0111   -0.0100   -0.0050   -0.0159    0.0509   -0.0076   -0.0185   -0.0043
          39    0.0091    0.0016    0.0113   -0.0070   -0.0022    0.0521    0.0257    0.0195
          40    0.0098   -0.0106   -0.0123    0.0016    0.0041   -0.0105    0.0074    0.0008
          41   -0.0150    0.0317   -0.0153    0.0177   -0.0337   -0.0094    0.0063   -0.0005
          42    0.0139   -0.0128   -0.0217    0.0017    0.0071   -0.0210   -0.0016   -0.0036
          43    0.0116   -0.0102   -0.0126   -0.0001    0.0057   -0.0108    0.0031   -0.0006
          44    0.0115    0.0419   -0.0182    0.0084   -0.0386   -0.0009   -0.0038    0.0003
          45    0.0190   -0.0103   -0.0230   -0.0013    0.0078   -0.0218   -0.0095   -0.0060
          46    0.0330    0.0129   -0.0006   -0.0112   -0.0048    0.0358    0.0023    0.0104
          47   -0.0057    0.0202   -0.0232    0.0166   -0.0286   -0.0360   -0.0016   -0.0086
          48   -0.0631   -0.0056    0.0032    0.0128    0.0218   -0.0005   -0.0529   -0.0198
          49    0.0754    0.0184   -0.0009   -0.0163   -0.0237    0.0662    0.0540    0.0334
          50    0.0159    0.0281   -0.0263    0.0092   -0.0312   -0.0269    0.0020   -0.0009
          51    0.0092    0.0063    0.0035    0.0007   -0.0105    0.0494    0.0288    0.0179
          52   -0.0220    0.0270   -0.0164   -0.0244    0.0067    0.0057    0.0251   -0.0014
          53    0.0092   -0.0296    0.0132   -0.0278    0.0675    0.0500    0.0033    0.0110
          54   -0.0076    0.0313   -0.0084    0.0211   -0.0257   -0.0333   -0.0106   -0.0085
          55    0.0050    0.0646    0.0123    0.0209   -0.0055   -0.0233    0.0189    0.0059
          56   -0.0164   -0.0068   -0.0140   -0.0016    0.0370   -0.0404   -0.0404   -0.0205
          57   -0.0078    0.0354   -0.0089    0.0237   -0.0267   -0.0387   -0.0120   -0.0094
          58    0.0071    0.0668    0.0147    0.0240   -0.0005   -0.0188    0.0148    0.0065
          59   -0.0093    0.0091   -0.0476   -0.0336    0.0086    0.0038    0.0489    0.0289
          60   -0.0470   -0.0208   -0.0589   -0.0485   -0.0177    0.0157    0.0074   -0.0023
          61   -0.0199    0.0329   -0.0185   -0.0229    0.0015   -0.0006    0.0206   -0.0015
          62    0.0400    0.0298    0.0297    0.0170    0.0303   -0.0252    0.0331   -0.0107
          63   -0.0483   -0.0202   -0.0600   -0.0505   -0.0170    0.0149    0.0111   -0.0021
          64   -0.0382   -0.0448    0.0273    0.0049   -0.0163   -0.0240    0.0615    0.0119
          65   -0.0152   -0.0409    0.0159    0.0106   -0.0296   -0.0131    0.0355    0.0086
          66   -0.0189   -0.0076   -0.0280    0.0322    0.0085    0.0147    0.0095    0.0198
          67   -0.0149   -0.0272    0.0127    0.0069   -0.0149   -0.0073    0.0174    0.0044
          68    0.0447    0.0011   -0.0183    0.0093   -0.0330    0.0278   -0.0758   -0.0153
          69   -0.0084   -0.0045   -0.0097   -0.0361   -0.0133    0.0042    0.0064   -0.0262
          70   -0.0057   -0.0131    0.0179   -0.0081    0.0179    0.0158   -0.0010    0.0026
          71   -0.0260    0.0208    0.0274    0.0015   -0.0146    0.0165    0.0017    0.0021
          72   -0.0102   -0.0242    0.0313   -0.0134    0.0282    0.0291    0.0020    0.0054
          73    0.0034   -0.0117   -0.0124    0.0010    0.0082   -0.0134   -0.0013   -0.0027
          74   -0.0404    0.0145    0.0549   -0.0052   -0.0057    0.0435    0.0049    0.0075
          75    0.0114   -0.0151   -0.0159   -0.0007    0.0120   -0.0168   -0.0023   -0.0035
          76    0.0095   -0.0100   -0.0131   -0.0004    0.0069   -0.0117   -0.0006   -0.0018
          77   -0.0407    0.0177    0.0557   -0.0051   -0.0055    0.0421    0.0019    0.0063
          78    0.0214   -0.0126   -0.0168   -0.0035    0.0109   -0.0140   -0.0014   -0.0021
          79   -0.0017   -0.0340    0.0610   -0.0810   -0.0478   -0.0780    0.0739    0.0089
          80    0.0161   -0.0039   -0.0047    0.0689    0.0067    0.0356   -0.0673    0.0225
          81    0.0087    0.0115    0.0246    0.0175    0.0184   -0.0061   -0.0159   -0.0732
          82   -0.0257   -0.0459   -0.0181    0.0970    0.0086    0.0091    0.1166    0.0344
          83    0.0084   -0.0074   -0.0115   -0.0612   -0.0388    0.0157   -0.0711   -0.0495
          84    0.0093   -0.0042    0.0271    0.0318    0.0005   -0.0142    0.0187   -0.0648
          85    0.0430    0.0077   -0.0102   -0.0599   -0.0341    0.0107    0.0089   -0.0160
          86   -0.0432   -0.0288   -0.0271    0.0296    0.0179    0.0174    0.0038   -0.0233
          87    0.0020   -0.0031   -0.0047   -0.0125   -0.0157   -0.0024   -0.0035    0.0738
          88    0.0325    0.0075   -0.0192    0.0648    0.0065    0.0015   -0.0041    0.0265
          89   -0.0042   -0.0130    0.0512   -0.0291    0.0043   -0.0232   -0.0196    0.0086
          90   -0.0097    0.0012   -0.0036   -0.0117    0.0063   -0.0039   -0.0064    0.0716


   Root No.      17        18        19        20        21        22        23        24

                17 A      18 A      19 A      20 A      21 A      22 A      23 A      24 A   

                 683.5     738.3     784.1     786.9     824.7     851.3     881.5     918.5
  
           1    0.0168   -0.0027    0.0062    0.0056    0.0043    0.0041   -0.0221    0.0036
           2    0.0172    0.0109   -0.0036   -0.0037   -0.0075   -0.0081    0.0041    0.0022
           3    0.0004    0.0004    0.0008    0.0000    0.0007   -0.0007   -0.0009    0.0004
           4   -0.0103    0.0232   -0.0000   -0.0014   -0.0158   -0.0185    0.0071    0.0095
           5   -0.0280   -0.0076    0.0008    0.0009    0.0022    0.0054    0.0059   -0.0033
           6   -0.0040   -0.0101   -0.0021    0.0003    0.0096    0.0131   -0.0018   -0.0118
           7   -0.0241   -0.0089    0.0025    0.0027    0.0058    0.0081    0.0047   -0.0009
           8    0.0124   -0.0019   -0.0132   -0.0119   -0.0223   -0.0221   -0.0185    0.0056
           9    0.0005   -0.0003   -0.0016    0.0022    0.0116   -0.0168   -0.0000    0.0077
          10    0.0003    0.0173   -0.0127   -0.0119   -0.0129   -0.0144    0.0087   -0.0145
          11    0.0002   -0.0021    0.0008    0.0003    0.0010    0.0010    0.0008    0.0019
          12    0.0059    0.0075   -0.0007    0.0022   -0.0147   -0.0027   -0.0002    0.0192
          13   -0.0224   -0.0090    0.0031    0.0031    0.0076    0.0108    0.0066   -0.0032
          14   -0.0313   -0.0105    0.0037    0.0042    0.0042    0.0129    0.0042    0.0015
          15    0.0001   -0.0035   -0.0005    0.0018    0.0177   -0.0108   -0.0007   -0.0061
          16   -0.0003    0.0019   -0.0098   -0.0112    0.0107    0.0098   -0.0038    0.0041
          17    0.0048   -0.0015    0.0005   -0.0000    0.0055    0.0009   -0.0017   -0.0033
          18    0.0002   -0.0036    0.0070    0.0074   -0.0031   -0.0056    0.0012   -0.0045
          19   -0.0062   -0.0180   -0.0067   -0.0056   -0.0059   -0.0037    0.0262    0.0120
          20   -0.0368    0.0007   -0.0004   -0.0004   -0.0045   -0.0037   -0.0250    0.0010
          21    0.0004   -0.0014   -0.0012    0.0001    0.0007   -0.0004    0.0013    0.0002
          22   -0.0025   -0.0015   -0.0003   -0.0004    0.0024    0.0039   -0.0017    0.0098
          23    0.0040    0.0019   -0.0005   -0.0004    0.0012   -0.0001   -0.0016   -0.0030
          24   -0.0043   -0.0017    0.0009    0.0005   -0.0001   -0.0010    0.0020   -0.0073
          25    0.0216   -0.0109    0.0099   -0.0133    0.0003   -0.0015   -0.0124   -0.0060
          26    0.0095    0.0102   -0.0032    0.0114    0.0066    0.0061    0.0144   -0.0005
          27    0.0262    0.0124    0.0071    0.0039   -0.0005    0.0026   -0.0205    0.0063
          28    0.0221   -0.0081   -0.0153    0.0073    0.0006    0.0013   -0.0136   -0.0062
          29    0.0090    0.0097    0.0135   -0.0019    0.0066    0.0043    0.0145   -0.0001
          30   -0.0267   -0.0087   -0.0048   -0.0036   -0.0071    0.0014    0.0197   -0.0060
          31    0.0153   -0.0014   -0.0094    0.0099    0.0032    0.0043   -0.0039   -0.0059
          32    0.0153    0.0044    0.0100   -0.0030    0.0074    0.0033    0.0083   -0.0005
          33   -0.0409   -0.0091   -0.0075   -0.0030   -0.0117   -0.0077   -0.0145    0.0049
          34    0.0118   -0.0037    0.0111   -0.0088    0.0029    0.0002   -0.0047   -0.0035
          35    0.0171    0.0053   -0.0030    0.0087    0.0054    0.0066    0.0080   -0.0018
          36    0.0428    0.0085    0.0049    0.0054    0.0105    0.0091    0.0140   -0.0055
          37   -0.0134    0.0252    0.0010    0.0066   -0.0181   -0.0254    0.0009    0.0291
          38   -0.0538   -0.0117    0.0020    0.0035    0.0196   -0.0024    0.0118   -0.0161
          39    0.0042   -0.0063   -0.0024    0.0023    0.0002    0.0126   -0.0057    0.0024
          40    0.0041   -0.0285    0.0628    0.0717   -0.0469   -0.0472    0.0162   -0.0390
          41    0.0112   -0.0196    0.0411    0.0469   -0.0220   -0.0138   -0.0037    0.0467
          42   -0.0001   -0.0117    0.0270    0.0300   -0.0206   -0.0267    0.0110   -0.0398
          43   -0.0003   -0.0091    0.0102    0.0108    0.0017    0.0046   -0.0049    0.0176
          44    0.0053    0.0241   -0.0407   -0.0448    0.0168    0.0025    0.0063   -0.0489
          45   -0.0067    0.0229   -0.0659   -0.0763    0.0630    0.0592   -0.0233    0.0438
          46   -0.0010    0.0114    0.0018    0.0058   -0.0250   -0.0197    0.0081    0.0090
          47    0.0066    0.0054   -0.0302   -0.0371    0.0342    0.0196   -0.0016   -0.0513
          48   -0.0177    0.0737   -0.0553   -0.0679   -0.0263   -0.0464    0.0360   -0.0512
          49    0.0155   -0.0368    0.0382    0.0508   -0.0143    0.0190   -0.0156    0.0573
          50    0.0092   -0.0222    0.0412    0.0466   -0.0151   -0.0113   -0.0071    0.0594
          51    0.0100   -0.0104    0.0093    0.0152   -0.0098    0.0164   -0.0085    0.0332
          52   -0.0278   -0.0227   -0.0053    0.0093    0.0812   -0.0772    0.0016    0.0130
          53   -0.0571   -0.0258    0.0031    0.0126    0.0643    0.0036    0.0101   -0.0409
          54    0.0147    0.0106    0.0038   -0.0056   -0.0488    0.0378   -0.0007    0.0066
          55   -0.0097   -0.0109    0.0036   -0.0086   -0.0591    0.0921   -0.0027   -0.0301
          56   -0.0290    0.0144    0.0111    0.0022   -0.0516    0.0232    0.0188    0.0520
          57    0.0109    0.0108    0.0045   -0.0066   -0.0581    0.0467    0.0019    0.0080
          58   -0.0281   -0.0159   -0.0085    0.0065    0.0706   -0.0876    0.0049    0.0172
          59    0.0145   -0.0010   -0.0116   -0.0269   -0.0595    0.0077   -0.0210   -0.0187
          60    0.0033    0.0030    0.0047   -0.0079   -0.0412    0.0484   -0.0015   -0.0150
          61   -0.0249   -0.0058    0.0012   -0.0110   -0.0687    0.0799    0.0056   -0.0183
          62    0.0117   -0.0003   -0.0273   -0.0085   -0.0047   -0.0771   -0.0200    0.0316
          63    0.0010    0.0014    0.0056   -0.0079   -0.0437    0.0576    0.0013   -0.0175
          64   -0.0560    0.0552    0.0143    0.0139    0.0060    0.0026   -0.0750   -0.0151
          65   -0.0660    0.0427    0.0127    0.0098    0.0023   -0.0003   -0.0846   -0.0144
          66   -0.0029   -0.0008    0.0320   -0.0286    0.0055   -0.0069   -0.0021    0.0020
          67   -0.0204    0.0057    0.0013   -0.0003   -0.0016   -0.0015   -0.0046    0.0027
          68    0.0108   -0.0814   -0.0257   -0.0209   -0.0198   -0.0121    0.0789    0.0346
          69   -0.0004    0.0017   -0.0192    0.0167    0.0013    0.0019   -0.0014   -0.0026
          70   -0.0040    0.0016    0.0097    0.0125   -0.0260   -0.0210    0.0138   -0.0143
          71    0.0043    0.0013    0.0005    0.0006    0.0017   -0.0009   -0.0016   -0.0067
          72   -0.0070    0.0087   -0.0117   -0.0113   -0.0102    0.0049    0.0033    0.0392
          73   -0.0015   -0.0110    0.0301    0.0336   -0.0283   -0.0367    0.0187   -0.0707
          74    0.0031    0.0102   -0.0144   -0.0145    0.0020    0.0129   -0.0063    0.0469
          75   -0.0036   -0.0078    0.0176    0.0189   -0.0140   -0.0222    0.0123   -0.0553
          76   -0.0023   -0.0030   -0.0006   -0.0013    0.0076    0.0077   -0.0044    0.0112
          77    0.0035    0.0057    0.0086    0.0119   -0.0273   -0.0250    0.0136   -0.0267
          78   -0.0056    0.0051   -0.0310   -0.0366    0.0417    0.0477   -0.0232    0.0749
          79   -0.0076    0.0598   -0.0625    0.0710    0.0044    0.0126    0.1031    0.0285
          80    0.0110   -0.0400    0.0432   -0.0440   -0.0007   -0.0007   -0.0768   -0.0215
          81    0.0191    0.0024    0.0144   -0.0055   -0.0038    0.0024   -0.0422    0.0036
          82   -0.0132    0.0423    0.0809   -0.0530    0.0169    0.0001    0.1015    0.0244
          83    0.0149   -0.0309   -0.0502    0.0375   -0.0019    0.0009   -0.0771   -0.0142
          84   -0.0237    0.0063    0.0154   -0.0161   -0.0049    0.0037    0.0531   -0.0035
          85   -0.0348    0.0948    0.1199   -0.0363    0.0404    0.0063   -0.0279    0.0022
          86    0.0902   -0.0504   -0.0753    0.0377   -0.0029    0.0064   -0.0004   -0.0095
          87   -0.0338    0.0144    0.0191   -0.0085    0.0016   -0.0057   -0.0297    0.0051
          88   -0.0362    0.1092   -0.0423    0.1047    0.0238    0.0394   -0.0325   -0.0102
          89    0.0890   -0.0550    0.0460   -0.0632   -0.0026   -0.0108    0.0019    0.0015
          90    0.0304   -0.0087    0.0046   -0.0071    0.0062    0.0019    0.0271   -0.0044


   Root No.      25        26        27        28        29        30        31        32

                25 A      26 A      27 A      28 A      29 A      30 A      31 A      32 A   

                 938.0     950.2     968.8     976.1     994.6    1009.9    1012.5    1038.3
  
           1    0.0110   -0.0054   -0.0007   -0.0008   -0.0269   -0.0041   -0.0138    0.0082
           2   -0.0004    0.0013   -0.0014    0.0019    0.0137    0.0004    0.0215   -0.0057
           3   -0.0028   -0.0058   -0.0069    0.0026   -0.0020    0.0102   -0.0012   -0.0035
           4    0.0039    0.0184    0.0008   -0.0011    0.0061    0.0060    0.0026    0.0069
           5   -0.0015    0.0026    0.0015   -0.0017    0.0064    0.0116    0.0040   -0.0013
           6    0.0060   -0.0018   -0.0054    0.0001   -0.0009    0.0057   -0.0002   -0.0017
           7   -0.0036   -0.0031    0.0001    0.0005   -0.0002   -0.0073   -0.0086    0.0060
           8    0.0053    0.0084    0.0006   -0.0021   -0.0227   -0.0011   -0.0163    0.0063
           9   -0.0104   -0.0116   -0.0124    0.0063   -0.0020    0.0106   -0.0032    0.0040
          10   -0.0049   -0.0069   -0.0010    0.0010    0.0032    0.0006    0.0055   -0.0142
          11   -0.0099   -0.0126    0.0184   -0.0069   -0.0010    0.0061   -0.0012    0.0014
          12   -0.0130   -0.0037    0.0003    0.0017    0.0008   -0.0100    0.0009    0.0015
          13   -0.0036   -0.0060   -0.0017    0.0018    0.0086    0.0022    0.0141   -0.0108
          14   -0.0096   -0.0143   -0.0073    0.0062   -0.0011   -0.0164    0.0001   -0.0074
          15    0.0088    0.0080    0.0108   -0.0063    0.0007    0.0046    0.0012    0.0007
          16    0.0016    0.0002   -0.0020    0.0008   -0.0023   -0.0057   -0.0030    0.0087
          17    0.0078    0.0073   -0.0063    0.0017    0.0002    0.0007    0.0001    0.0006
          18    0.0039    0.0041   -0.0029    0.0007    0.0007    0.0021    0.0016   -0.0050
          19    0.0284   -0.0116    0.0008   -0.0008   -0.0290    0.0013    0.0077   -0.0054
          20    0.0099   -0.0078   -0.0001    0.0006   -0.0054    0.0014    0.0445    0.0115
          21   -0.0002   -0.0027   -0.0032   -0.0008   -0.0014    0.0044    0.0002   -0.0059
[...]

 VIBRATION   65   65A         ATOM PAIR      ENERGY CONTRIBUTION    RADIAL
 FREQ.      1872.01         C 10 -- C 11         +23.3% ( 71.6%)    100.0%
 T-DIPOLE    0.0557         C  9 -- C 12         +20.9% ( 67.9%)    100.0%
 TRAVEL      0.0550         C  1 -- C 10          +7.7% ( 41.2%)     64.4%
 RED. MASS   2.7353         C  7 -- C 11          +7.4% ( 40.5%)     63.5%
 EFF. MASS  11.9073

 VIBRATION   66   66A         ATOM PAIR      ENERGY CONTRIBUTION    RADIAL
 FREQ.      1891.05         C  9 -- C 12         +23.2% ( 70.9%)    100.0%
 T-DIPOLE    0.2852         C 10 -- C 11         +20.8% ( 67.1%)    100.0%
 TRAVEL      0.0548         C  1 -- C  9          +7.7% ( 40.9%)     40.9%
 RED. MASS   2.6989         C  7 -- C 12          +7.4% ( 40.1%)     41.2%
 EFF. MASS  11.8573

 VIBRATION   67   67A         ATOM PAIR      ENERGY CONTRIBUTION    RADIAL
 FREQ.      2927.95         C  2 -- H 13         +74.7% ( 88.8%)    100.0%
 T-DIPOLE    0.0791         C  4 -- H 17          +7.1% ( 27.3%)     96.5%
 TRAVEL      0.1251         C  4 -- H 16          +6.2% ( 25.5%)     95.7%
 RED. MASS   0.5881         C  6 -- H 15          +4.5% ( 21.8%)     97.4%
 EFF. MASS   1.4710

 VIBRATION   68   68A         ATOM PAIR      ENERGY CONTRIBUTION    RADIAL
 FREQ.      2932.20         C  7 -- H 22         +57.3% ( 78.4%)     97.7%
 T-DIPOLE    0.0456         C  7 -- H 23         +34.7% ( 61.0%)     94.9%
 TRAVEL      0.1226         C  6 -- H 15          +2.3% ( 15.8%)     98.1%
 RED. MASS   0.4834         C  2 -- H 13          +2.2% ( 15.5%)    100.0%
 EFF. MASS   1.5297

 VIBRATION   69   69A         ATOM PAIR      ENERGY CONTRIBUTION    RADIAL
 FREQ.      2936.56         C  6 -- H 15         +36.3% ( 62.5%)     97.8%
 T-DIPOLE    0.0719         C  6 -- H 14         +20.8% ( 47.2%)     94.3%
 TRAVEL      0.1226         C  2 -- H 13         +14.7% ( 39.7%)    100.0%
 RED. MASS   0.2340         C  4 -- H 16         +10.1% ( 33.0%)     96.3%
 EFF. MASS   1.5285         C  4 -- H 17         +10.0% ( 32.8%)     96.4%

 VIBRATION   70   70A         ATOM PAIR      ENERGY CONTRIBUTION    RADIAL
 FREQ.      2949.03         C  4 -- H 17         +33.5% ( 59.9%)     96.8%
 T-DIPOLE    0.0608         C  4 -- H 16         +31.5% ( 58.0%)     96.4%
 TRAVEL      0.1224         C  6 -- H 15         +19.7% ( 45.9%)     98.1%
 RED. MASS   0.2817         C  6 -- H 14         +10.3% ( 33.2%)     94.2%
 EFF. MASS   1.5260

 VIBRATION   71   71A         ATOM PAIR      ENERGY CONTRIBUTION    RADIAL
 FREQ.      3010.00         C  7 -- H 23         +61.1% ( 77.2%)     98.8%
 T-DIPOLE    0.0987         C  7 -- H 22         +35.8% ( 59.1%)     95.5%
 TRAVEL      0.1318         C 11 -- H 29          +0.7% (  8.3%)     99.9%
 RED. MASS   0.4954         C  7 -- C 11          +0.7% (  8.2%)     21.1%
 EFF. MASS   1.2890

 VIBRATION   72   72A         ATOM PAIR      ENERGY CONTRIBUTION    RADIAL
 FREQ.      3021.26         C  6 -- H 14         +52.2% ( 71.3%)     99.0%
 T-DIPOLE    0.0582         C  6 -- H 15         +27.3% ( 51.5%)     95.1%
 TRAVEL      0.1319         C  4 -- H 16         +10.0% ( 31.2%)     98.3%
 RED. MASS   0.3576         C  4 -- H 17          +8.4% ( 28.5%)     97.3%
 EFF. MASS   1.2825

 VIBRATION   73   73A         ATOM PAIR      ENERGY CONTRIBUTION    RADIAL
 FREQ.      3024.78         C  4 -- H 16         +40.6% ( 62.7%)     97.9%
 T-DIPOLE    0.0570         C  4 -- H 17         +38.9% ( 61.4%)     97.6%
 TRAVEL      0.1324         C  6 -- H 14         +11.8% ( 33.9%)     98.8%
 RED. MASS   0.3314         C  6 -- H 15          +6.5% ( 25.2%)     95.3%
 EFF. MASS   1.2716

 VIBRATION   74   74A         ATOM PAIR      ENERGY CONTRIBUTION    RADIAL
 FREQ.      3025.97         C  5 -- H 18         +27.4% ( 54.8%)     97.4%
 T-DIPOLE    0.0136         C  3 -- H 20         +24.4% ( 51.7%)     96.7%
 TRAVEL      0.1197         C  3 -- H 21         +24.0% ( 51.2%)     96.7%
 RED. MASS   0.2613         C  5 -- H 19         +20.5% ( 47.3%)     95.7%
 EFF. MASS   1.5557

 VIBRATION   75   75A         ATOM PAIR      ENERGY CONTRIBUTION    RADIAL
 FREQ.      3038.21         C 10 -- H 28         +74.0% ( 87.3%)    100.0%
 T-DIPOLE    0.2287         C 11 -- H 29         +19.5% ( 44.8%)     99.9%
 TRAVEL      0.1230         C  9 -- H 27          +2.0% ( 14.2%)    100.0%
 RED. MASS   0.5748         C 10 -- C 11          +1.1% ( 10.8%)      6.1%
 EFF. MASS   1.4665

 VIBRATION   76   76A         ATOM PAIR      ENERGY CONTRIBUTION    RADIAL
 FREQ.      3040.56         C  5 -- H 18         +28.1% ( 55.0%)     97.8%
 T-DIPOLE    0.1041         C  3 -- H 20         +24.2% ( 51.1%)     97.1%
 TRAVEL      0.1203         C  3 -- H 21         +23.5% ( 50.4%)     96.9%
 RED. MASS   0.2563         C  5 -- H 19         +19.8% ( 46.2%)     95.8%
 EFF. MASS   1.5317

 VIBRATION   77   77A         ATOM PAIR      ENERGY CONTRIBUTION    RADIAL
 FREQ.      3042.09         C  9 -- H 27         +67.6% ( 83.5%)    100.0%
 T-DIPOLE    0.3053         C 12 -- H 30         +26.5% ( 52.3%)     99.9%
 TRAVEL      0.1229         C 10 -- H 28          +2.0% ( 14.2%)    100.0%
 RED. MASS   0.5174         C  9 -- C 12          +1.1% ( 10.7%)      3.3%
 EFF. MASS   1.4681

 VIBRATION   78   78A         ATOM PAIR      ENERGY CONTRIBUTION    RADIAL
 FREQ.      3062.08         C 11 -- H 29         +55.1% ( 75.3%)    100.0%
 T-DIPOLE    0.3729         C 12 -- H 30         +19.6% ( 45.0%)     99.9%
 TRAVEL      0.1186         C 10 -- H 28         +14.0% ( 38.0%)     99.7%
 RED. MASS   0.3662         C  9 -- H 27          +7.7% ( 28.2%)     99.8%
 EFF. MASS   1.5652

 VIBRATION   79   79A         ATOM PAIR      ENERGY CONTRIBUTION    RADIAL
 FREQ.      3065.17         C 12 -- H 30         +49.4% ( 71.3%)     99.9%
 T-DIPOLE    0.1760         C 11 -- H 29         +21.1% ( 46.6%)    100.0%
 TRAVEL      0.1174         C  9 -- H 27         +19.2% ( 44.5%)     99.8%
 RED. MASS   0.3287         C 10 -- H 28          +5.7% ( 24.2%)     99.8%
 EFF. MASS   1.5953

 VIBRATION   80   80A         ATOM PAIR      ENERGY CONTRIBUTION    RADIAL
 FREQ.      3078.00         C  8 -- H 26         +49.0% ( 72.2%)     97.0%
 T-DIPOLE    0.0148         C  8 -- H 25         +48.9% ( 72.1%)     97.0%
 TRAVEL      0.1208         C  6 -- C  8          +1.0% ( 10.2%)      0.0%
 RED. MASS   0.5064         C  8 -- H 24          +0.9% ( 10.0%)      0.0%
 EFF. MASS   1.5008

 VIBRATION   81   81A         ATOM PAIR      ENERGY CONTRIBUTION    RADIAL
 FREQ.      3084.21         C  8 -- H 24         +61.7% ( 81.0%)     98.8%
 T-DIPOLE    0.0099         C  8 -- H 26         +18.5% ( 44.4%)     85.9%
 TRAVEL      0.1206         C  8 -- H 25         +18.4% ( 44.2%)     85.7%
 RED. MASS   0.4778         C  6 -- C  8          +1.0% ( 10.3%)      0.0%
 EFF. MASS   1.5034

 VIBRATION   82   82A         ATOM PAIR      ENERGY CONTRIBUTION    RADIAL
 FREQ.      3100.01         C  3 -- H 21         +42.9% ( 65.0%)     97.3%
 T-DIPOLE    0.0773         C  3 -- H 20         +41.6% ( 63.9%)     97.1%
 TRAVEL      0.1304         C  5 -- H 19          +7.9% ( 27.8%)     98.1%
 RED. MASS   0.3696         C  5 -- H 18          +5.6% ( 23.4%)     95.8%
 EFF. MASS   1.2797

 VIBRATION   83   83A         ATOM PAIR      ENERGY CONTRIBUTION    RADIAL
 FREQ.      3102.47         C  5 -- H 19         +49.5% ( 69.8%)     98.1%
 T-DIPOLE    0.0838         C  5 -- H 18         +35.0% ( 58.6%)     95.9%
 TRAVEL      0.1299         C  3 -- H 20          +6.9% ( 26.0%)     97.4%
 RED. MASS   0.3787         C  3 -- H 21          +6.5% ( 25.3%)     97.1%
 EFF. MASS   1.2879

 VIBRATION   84   84A         ATOM PAIR      ENERGY CONTRIBUTION    RADIAL
 FREQ.      3181.17         C  8 -- H 24         +36.7% ( 58.3%)     97.6%
 T-DIPOLE    0.0146         C  8 -- H 25         +31.6% ( 54.1%)     96.8%
 TRAVEL      0.1365         C  8 -- H 26         +31.4% ( 53.9%)     96.8%
 RED. MASS   0.3285         C  6 -- C  8          +0.3% (  5.1%)     99.5%
 EFF. MASS   1.1370

      SYMMETRY NUMBER FOR POINT-GROUP C1  =  1


          SYSTEM IS A GROUND STATE



 InChI=1S/C12H18/c1-2-6-11-7-10-12(11)8-4-3-5-9-12/h4-5,8-9,11H,2-3,6-7,10H2,1H3


          MOLECULE IS NOT LINEAR

          THERE ARE 84 GENUINE VIBRATIONS IN THIS SYSTEM
          THIS THERMODYNAMICS CALCULATION IS LIMITED TO
          MOLECULES WHICH HAVE NO INTERNAL ROTATIONS




                    CALCULATED THERMODYNAMIC PROPERTIES
                                          *
   TEMP. (K)   PARTITION FUNCTION   H.O.F.    ENTHALPY  HEAT CAPACITY ENTROPY
                                   KCAL/MOL   CAL/MOLE    CAL/K/MOL  CAL/K/MOL


 298.00  VIB.     0.3064D+04                  5600.7413    40.3251    34.7467
         ROT.     0.1161D+07                   888.2813     2.9808    30.7320
         INT.     0.3558D+10                  6489.0226    43.3059    65.4788
         TRA.     0.1998D+28                  1480.4688     4.9680    41.1588
         TOT.                       11.643    7969.4914    48.2739   106.6376

 200.00  VIB.     0.1451D+03                  2439.3596    24.7736    22.0884
         ROT.     0.6384D+06                   596.1620     2.9808    29.5433
         INT.     0.9266D+08                  3035.5216    27.7544    51.6317
         TRA.     0.1099D+28                   993.6033     4.9680    39.1777
         TOT.                        7.702    4029.1248    32.7224    90.8095

 210.00  VIB.     0.1973D+03                  2694.0842    26.1795    23.3309
         ROT.     0.6869D+06                   625.9700     2.9808    29.6888
         INT.     0.1355D+09                  3320.0542    29.1603    53.0197
         TRA.     0.1182D+28                  1043.2834     4.9680    39.4201
         TOT.                        8.036    4363.3377    34.1283    92.4398

 220.00  VIB.     0.2684D+03                  2963.1116    27.6341    24.5822
         ROT.     0.7366D+06                   655.7781     2.9808    29.8274
         INT.     0.1977D+09                  3618.8898    30.6149    54.4096
         TRA.     0.1268D+28                  1092.9636     4.9680    39.6512
         TOT.                        8.385    4711.8534    35.5829    94.0608

 230.00  VIB.     0.3654D+03                  3246.9243    29.1362    25.8435
         ROT.     0.7873D+06                   685.5862     2.9808    29.9599
         INT.     0.2877D+09                  3932.5106    32.1170    55.8035
         TRA.     0.1355D+28                  1142.6437     4.9680    39.8720
         TOT.                        8.748    5075.1543    37.0850    95.6755

 240.00  VIB.     0.4979D+03                  3545.9855    30.6832    27.1161
         ROT.     0.8392D+06                   715.3943     2.9808    30.0868
         INT.     0.4178D+09                  4261.3798    33.6641    57.2029
         TRA.     0.1444D+28                  1192.3239     4.9680    40.0835
         TOT.                        9.127    5453.7037    38.6321    97.2864

 250.00  VIB.     0.6790D+03                  3860.7274    32.2717    28.4007
         ROT.     0.8922D+06                   745.2024     2.9808    30.2085
         INT.     0.6058D+09                  4605.9299    35.2525    58.6092
         TRA.     0.1536D+28                  1242.0041     4.9680    40.2863
         TOT.                        9.521    5847.9339    40.2205    98.8955

 260.00  VIB.     0.9271D+03                  4191.5434    33.8973    29.6980
         ROT.     0.9463D+06                   775.0105     2.9808    30.3254
         INT.     0.8773D+09                  4966.5540    36.8781    60.0234
         TRA.     0.1629D+28                  1291.6842     4.9680    40.4811
         TOT.                        9.931    6258.2382    41.8461   100.5045

 270.00  VIB.     0.1267D+04                  4538.7809    35.5552    31.0083
         ROT.     0.1001D+07                   804.8186     2.9808    30.4379
         INT.     0.1269D+10                  5343.5995    38.5360    61.4462
         TRA.     0.1724D+28                  1341.3644     4.9680    40.6686
         TOT.                       10.358    6684.9639    43.5040   102.1148

 280.00  VIB.     0.1735D+04                  4902.7373    37.2402    32.3317
         ROT.     0.1058D+07                   834.6267     2.9808    30.5463
         INT.     0.1835D+10                  5737.3640    40.2210    62.8780
         TRA.     0.1820D+28                  1391.0445     4.9680    40.8493
         TOT.                       10.802    7128.4086    45.1890   103.7273

 290.00  VIB.     0.2378D+04                  5283.6584    38.9472    33.6682
         ROT.     0.1115D+07                   864.4348     2.9808    30.6509
         INT.     0.2651D+10                  6148.0932    41.9280    64.3191
         TRA.     0.1919D+28                  1440.7247     4.9680    41.0236
         TOT.                       11.262    7588.8179    46.8960   105.3428

 300.00  VIB.     0.3265D+04                  5681.7372    40.6709    35.0176
         ROT.     0.1173D+07                   894.2429     2.9808    30.7520
         INT.     0.3829D+10                  6575.9801    43.6517    65.7696
         TRA.     0.2019D+28                  1490.4049     4.9680    41.1921
         TOT.                       11.739    8066.3850    48.6197   106.9617

 310.00  VIB.     0.4489D+04                  6097.1148    42.4062    36.3795
         ROT.     0.1232D+07                   924.0510     2.9808    30.8497
         INT.     0.5531D+10                  7021.1659    45.3870    67.2292
         TRA.     0.2120D+28                  1540.0850     4.9680    41.3550
         TOT.                       12.234    8561.2509    50.3550   108.5842

 320.00  VIB.     0.6183D+04                  6529.8826    44.1481    37.7533
         ROT.     0.1292D+07                   953.8591     2.9808    30.9443
         INT.     0.7989D+10                  7483.7417    47.1289    68.6977
         TRA.     0.2224D+28                  1589.7652     4.9680    41.5127
         TOT.                       12.747    9073.5069    52.0969   110.2104

 330.00  VIB.     0.8529D+04                  6980.0842    45.8922    39.1385
         ROT.     0.1353D+07                   983.6672     2.9808    31.0361
         INT.     0.1154D+11                  7963.7514    48.8730    70.1746
         TRA.     0.2329D+28                  1639.4454     4.9680    41.6656
         TOT.                       13.276    9603.1968    53.8410   111.8402

 340.00  VIB.     0.1179D+05                  7447.7191    47.6341    40.5344
         ROT.     0.1415D+07                  1013.4753     2.9808    31.1250
         INT.     0.1668D+11                  8461.1944    50.6149    71.6595
         TRA.     0.2436D+28                  1689.1255     4.9680    41.8139
         TOT.                       13.823   10150.3199    55.5829   113.4734

 350.00  VIB.     0.1631D+05                  7932.7460    49.3700    41.9403
         ROT.     0.1478D+07                  1043.2834     2.9808    31.2114
         INT.     0.2411D+11                  8976.0294    52.3508    73.1517
         TRA.     0.2544D+28                  1738.8057     4.9680    41.9579
         TOT.                       14.388   10714.8351    57.3188   115.1096

 360.00  VIB.     0.2262D+05                  8435.0866    51.0963    43.3553
         ROT.     0.1542D+07                  1073.0915     2.9808    31.2954
         INT.     0.3487D+11                  9508.1781    54.0771    74.6507
         TRA.     0.2654D+28                  1788.4859     4.9680    42.0979
         TOT.                       14.970   11296.6640    59.0451   116.7486

 370.00  VIB.     0.3141D+05                  8954.6293    52.8099    44.7787
         ROT.     0.1606D+07                  1102.8996     2.9808    31.3771
         INT.     0.5045D+11                 10057.5289    55.7907    76.1558
         TRA.     0.2765D+28                  1838.1660     4.9680    42.2340
         TOT.                       15.569   11895.6949    60.7587   118.3898

 380.00  VIB.     0.4368D+05                  9491.2330    54.5081    46.2096
         ROT.     0.1672D+07                  1132.7077     2.9808    31.4566
         INT.     0.7304D+11                 10623.9407    57.4889    77.6662
         TRA.     0.2878D+28                  1887.8462     4.9680    42.3665
         TOT.                       16.185   12511.7868    62.4569   120.0327

 390.00  VIB.     0.6085D+05                 10044.7309    56.1884    47.6473
         ROT.     0.1738D+07                  1162.5158     2.9808    31.5340
         INT.     0.1058D+12                 11207.2468    59.1692    79.1813
         TRA.     0.2992D+28                  1937.5263     4.9680    42.4955
         TOT.                       16.818   13144.7731    64.1372   121.6768

 400.00  VIB.     0.8491D+05                 10614.9342    57.8488    49.0908
         ROT.     0.1806D+07                  1192.3239     2.9808    31.6095
         INT.     0.1533D+12                 11807.2581    60.8296    80.7003
         TRA.     0.3108D+28                  1987.2065     4.9680    42.6213
         TOT.                       17.468   13794.4646    65.7976   123.3216

   *: NOTE: HEATS OF FORMATION ARE RELATIVE TO THE
            ELEMENTS IN THEIR STANDARD STATE AT 298K
              (=  Standard Enthalpy of Formation).

            Hvib:  Zero-point energy is not included.
                   frequencies of less than zero cm-1 are not included.
            Hrot = (3/2)RT
            Htra = (3/2)RT + pV = (5/2)RT

            Heat capacity is Cp, not Cv

          For more information, see: HTTP://OpenMOPAC.net/Manual/thermochemistry.html


           FORCE CONSTANT IN CARTESIAN COORDINATES (Millidynes/A)

    ATOM   CHEMICAL       X               Y               Z
   NUMBER   SYMBOL  FORCE CONSTANT  FORCE CONSTANT  FORCE CONSTANT

      1       C        7.375733        8.299405        9.877356
      2       C        7.286212        8.174504        8.655754
      3       C        8.105460        7.630707        8.660200
      4       C        8.266843        8.332144        8.402038
      5       C        8.176566        7.868156        8.571252
      6       C        8.277406        8.145028        8.455263
      7       C        8.115238        8.674347        9.336426
      8       C        8.211521        8.458225        8.232255
      9       C        6.538529       11.608862        9.428458
     10       C        6.655329       11.582392        9.324983
     11       C        6.523339       11.362841        9.443461
     12       C        6.321948       11.434952        9.593872
     13       H        1.297289        1.227708        3.714368
     14       H        1.518576        1.021411        3.871169
     15       H        4.441923        1.160966        0.708559
     16       H        4.471245        1.193823        0.691843
     17       H        1.499296        1.004843        3.881957
     18       H        1.348758        1.365303        3.894686
     19       H        1.593330        1.573220        3.462538
     20       H        1.345444        1.497893        3.791556
     21       H        1.560546        1.513020        3.565954
     22       H        1.855233        3.625290        0.636830
     23       H        4.675020        0.864481        0.707686
     24       H        0.683424        5.343856        0.766496
     25       H        1.588486        0.942532        4.248933
     26       H        4.936011        1.130631        0.709924
     27       H        0.691776        1.657399        3.894126
     28       H        0.581347        1.709462        3.938309
     29       H        1.224582        1.193130        3.840159
     30       H        0.968835        1.250141        4.039753

 **********************
 *                    *
 * JOB ENDED NORMALLY *
 *                    *
 **********************



 TOTAL JOB TIME:             5.64 SECONDS

 == MOPAC DONE ==
