 *******************************************************************************
 ** Site#: 14399        For non-commercial use only    Version 18.184L 64BITS **
 *******************************************************************************
 ** Cite this program as: MOPAC2016, Version: 18.184L, James J. P. Stewart,   **
 ** Stewart Computational Chemistry, web: HTTP://OpenMOPAC.net. Days left:  18**
 *******************************************************************************
 **                                                                           **
 **                                MOPAC2016                                  **
 **                                                                           **
 *******************************************************************************

                              PM3 CALCULATION RESULTS

 *******************************************************************************
 *  CALCULATION DONE:                                Sat Jun 15 10:13:57 2019  *
 *  PM3        - The PM3 Hamiltonian to be used
 *  PRECISE    - CRITERIA TO BE INCREASED BY 100 TIMES
 *  BFGS       - USE THE BFGS GEOMETRY OPTIMIZER
 *  NOSYM      - POINT-GROUP SYMMETRY SET TO C1
 *  THREADS=1  - MULTI-THREADING NOT USED
 *  T=         - A TIME OF 172800.0 SECONDS REQUESTED
 *  DUMP=N     - RESTART FILE WRITTEN EVERY  7200.000 SECONDS
 *  GNORM=     - EXIT WHEN GRADIENT NORM DROPS BELOW   0.00    
 *******************************************************************************
pm3  precise nosym gnorm=0.0 bfgs THREADS=1
 InChI=1S/C10H10/c1-8-6-7-9-4-2-3-5-10(8)9/h2-5,7H,6H2,1H3

   ATOM   CHEMICAL          X               Y               Z
  NUMBER   SYMBOL      (ANGSTROMS)     (ANGSTROMS)     (ANGSTROMS)
 
     1       C         -1.86290000  *   1.00890000  *   0.18110000  *
     2       C         -2.03820000  *  -1.64310000  *   0.16600000  *
     3       C         -1.26280000  *  -0.36420000  *   0.11050000  *
     4       C          0.05540000  *  -0.25580000  *  -0.00800000  *
     5       C          0.42490000  *   1.06970000  *  -0.02610000  *
     6       C         -0.63260000  *   1.85890000  *   0.07930000  *
     7       C          1.76340000  *   1.45150000  *  -0.14330000  *
     8       C          1.01030000  *  -1.27480000  *  -0.10670000  *
     9       C          2.73770000  *   0.44480000  *  -0.24360000  *
    10       C          2.36260000  *  -0.91300000  *  -0.22540000  *
    11       H         -2.37720000  *   1.17070000  *   1.15190000  *
    12       H         -2.54340000  *   1.19210000  *  -0.67710000  *
    13       H         -1.87310000  *  -2.22340000  *  -0.76590000  *
    14       H         -3.12260000  *  -1.42800000  *   0.26710000  *
    15       H         -1.70910000  *  -2.24450000  *   1.03920000  *
    16       H         -0.60720000  *   2.94110000  *   0.08960000  *
    17       H          2.04840000  *   2.49620000  *  -0.15700000  *
    18       H          3.78200000  *   0.71370000  *  -0.33540000  *
    19       H          3.12020000  *  -1.68190000  *  -0.30330000  *
    20       H          0.72410000  *  -2.31880000  *  -0.09300000  *
 


          CARTESIAN COORDINATES 

    NO.       ATOM           X           Y           Z

     1         C         -1.8629      1.0089      0.1811
     2         C         -2.0382     -1.6431      0.1660
     3         C         -1.2628     -0.3642      0.1105
     4         C          0.0554     -0.2558     -0.0080
     5         C          0.4249      1.0697     -0.0261
     6         C         -0.6326      1.8589      0.0793
     7         C          1.7634      1.4515     -0.1433
     8         C          1.0103     -1.2748     -0.1067
     9         C          2.7377      0.4448     -0.2436
    10         C          2.3626     -0.9130     -0.2254
    11         H         -2.3772      1.1707      1.1519
    12         H         -2.5434      1.1921     -0.6771
    13         H         -1.8731     -2.2234     -0.7659
    14         H         -3.1226     -1.4280      0.2671
    15         H         -1.7091     -2.2445      1.0392
    16         H         -0.6072      2.9411      0.0896
    17         H          2.0484      2.4962     -0.1570
    18         H          3.7820      0.7137     -0.3354
    19         H          3.1202     -1.6819     -0.3033
    20         H          0.7241     -2.3188     -0.0930

  H: (PM3): J. J. P. STEWART, J. COMP. CHEM. 10, 209 (1989).
  C: (PM3): J. J. P. STEWART, J. COMP. CHEM. 10, 209 (1989).

           Empirical Formula: C10 H10  =    20 atoms



      MOLECULAR POINT GROUP   :   C1  


      RHF CALCULATION, NO. OF DOUBLY OCCUPIED LEVELS = 25


          Geometry optimization using BFGS

  GNORM HAS BEEN SET TOO LOW, RESET TO 0.01
 CYCLE:     1 TIME:   0.004 TIME LEFT:  2.00D  GRAD.:   137.435 HEAT:  54.65743
 CYCLE:     2 TIME:   0.008 TIME LEFT:  2.00D  GRAD.:   110.755 HEAT:  52.14070
 CYCLE:     3 TIME:   0.004 TIME LEFT:  2.00D  GRAD.:    77.172 HEAT:  50.61636
 CYCLE:     4 TIME:   0.004 TIME LEFT:  2.00D  GRAD.:    41.401 HEAT:  49.64817
 CYCLE:     5 TIME:   0.008 TIME LEFT:  2.00D  GRAD.:    23.994 HEAT:  49.32774
 CYCLE:     6 TIME:   0.004 TIME LEFT:  2.00D  GRAD.:    26.120 HEAT:  49.11512
 CYCLE:     7 TIME:   0.004 TIME LEFT:  2.00D  GRAD.:    19.761 HEAT:  48.85216
 CYCLE:     8 TIME:   0.000 TIME LEFT:  2.00D  GRAD.:     9.229 HEAT:  48.71253
 CYCLE:     9 TIME:   0.004 TIME LEFT:  2.00D  GRAD.:     7.516 HEAT:  48.64694
 CYCLE:    10 TIME:   0.004 TIME LEFT:  2.00D  GRAD.:     6.288 HEAT:  48.58369
 CYCLE:    11 TIME:   0.004 TIME LEFT:  2.00D  GRAD.:     5.524 HEAT:  48.54248
 CYCLE:    12 TIME:   0.004 TIME LEFT:  2.00D  GRAD.:     5.541 HEAT:  48.50370
 CYCLE:    13 TIME:   0.004 TIME LEFT:  2.00D  GRAD.:     6.083 HEAT:  48.46079
 CYCLE:    14 TIME:   0.004 TIME LEFT:  2.00D  GRAD.:     6.000 HEAT:  48.41930
 CYCLE:    15 TIME:   0.004 TIME LEFT:  2.00D  GRAD.:     6.050 HEAT:  48.38889
 CYCLE:    16 TIME:   0.004 TIME LEFT:  2.00D  GRAD.:     5.614 HEAT:  48.36370
 CYCLE:    17 TIME:   0.004 TIME LEFT:  2.00D  GRAD.:     4.966 HEAT:  48.33993
 CYCLE:    18 TIME:   0.004 TIME LEFT:  2.00D  GRAD.:     3.299 HEAT:  48.32035
 CYCLE:    19 TIME:   0.004 TIME LEFT:  2.00D  GRAD.:     1.880 HEAT:  48.31169
 CYCLE:    20 TIME:   0.004 TIME LEFT:  2.00D  GRAD.:     1.311 HEAT:  48.30847
 CYCLE:    21 TIME:   0.004 TIME LEFT:  2.00D  GRAD.:     0.898 HEAT:  48.30702
 CYCLE:    22 TIME:   0.004 TIME LEFT:  2.00D  GRAD.:     0.528 HEAT:  48.30636
 CYCLE:    23 TIME:   0.004 TIME LEFT:  2.00D  GRAD.:     0.316 HEAT:  48.30613
 CYCLE:    24 TIME:   0.004 TIME LEFT:  2.00D  GRAD.:     0.238 HEAT:  48.30604
 CYCLE:    25 TIME:   0.000 TIME LEFT:  2.00D  GRAD.:     0.164 HEAT:  48.30598
 CYCLE:    26 TIME:   0.004 TIME LEFT:  2.00D  GRAD.:     0.109 HEAT:  48.30594
 CYCLE:    27 TIME:   0.008 TIME LEFT:  2.00D  GRAD.:     0.085 HEAT:  48.30593
 CYCLE:    28 TIME:   0.000 TIME LEFT:  2.00D  GRAD.:     0.089 HEAT:  48.30592
 CYCLE:    29 TIME:   0.008 TIME LEFT:  2.00D  GRAD.:     0.128 HEAT:  48.30589
 CYCLE:    30 TIME:   0.004 TIME LEFT:  2.00D  GRAD.:     0.148 HEAT:  48.30586
 CYCLE:    31 TIME:   0.004 TIME LEFT:  2.00D  GRAD.:     0.183 HEAT:  48.30582
 CYCLE:    32 TIME:   0.004 TIME LEFT:  2.00D  GRAD.:     0.112 HEAT:  48.30580
 CYCLE:    33 TIME:   0.004 TIME LEFT:  2.00D  GRAD.:     0.180 HEAT:  48.30578
 CYCLE:    34 TIME:   0.004 TIME LEFT:  2.00D  GRAD.:     0.127 HEAT:  48.30575
 CYCLE:    35 TIME:   0.004 TIME LEFT:  2.00D  GRAD.:     0.118 HEAT:  48.30574
 CYCLE:    36 TIME:   0.004 TIME LEFT:  2.00D  GRAD.:     0.110 HEAT:  48.30570
 CYCLE:    37 TIME:   0.008 TIME LEFT:  2.00D  GRAD.:     0.071 HEAT:  48.30569
 CYCLE:    38 TIME:   0.004 TIME LEFT:  2.00D  GRAD.:     0.048 HEAT:  48.30569
 CYCLE:    39 TIME:   0.000 TIME LEFT:  2.00D  GRAD.:     0.040 HEAT:  48.30568
 CYCLE:    40 TIME:   0.008 TIME LEFT:  2.00D  GRAD.:     0.067 HEAT:  48.30566
 CYCLE:    41 TIME:   0.004 TIME LEFT:  2.00D  GRAD.:     0.057 HEAT:  48.30566
 CYCLE:    42 TIME:   0.004 TIME LEFT:  2.00D  GRAD.:     0.057 HEAT:  48.30565
 CYCLE:    43 TIME:   0.004 TIME LEFT:  2.00D  GRAD.:     0.057 HEAT:  48.30565
 CYCLE:    44 TIME:   0.004 TIME LEFT:  2.00D  GRAD.:     0.057 HEAT:  48.30564
 CYCLE:    45 TIME:   0.004 TIME LEFT:  2.00D  GRAD.:     0.056 HEAT:  48.30563
 CYCLE:    46 TIME:   0.000 TIME LEFT:  2.00D  GRAD.:     0.056 HEAT:  48.30561
 CYCLE:    47 TIME:   0.008 TIME LEFT:  2.00D  GRAD.:     0.058 HEAT:  48.30559
 CYCLE:    48 TIME:   0.008 TIME LEFT:  2.00D  GRAD.:     0.369 HEAT:  48.30510
 CYCLE:    49 TIME:   0.004 TIME LEFT:  2.00D  GRAD.:     0.398 HEAT:  48.30506
 CYCLE:    50 TIME:   0.000 TIME LEFT:  2.00D  GRAD.:     0.403 HEAT:  48.30496
 CYCLE:    51 TIME:   0.008 TIME LEFT:  2.00D  GRAD.:     0.610 HEAT:  48.30468
 CYCLE:    52 TIME:   0.004 TIME LEFT:  2.00D  GRAD.:     0.726 HEAT:  48.30451
 CYCLE:    53 TIME:   0.008 TIME LEFT:  2.00D  GRAD.:     1.183 HEAT:  48.30409
 CYCLE:    54 TIME:   0.004 TIME LEFT:  2.00D  GRAD.:     3.543 HEAT:  48.30375
 CYCLE:    55 TIME:   0.004 TIME LEFT:  2.00D  GRAD.:     0.879 HEAT:  48.30358
 CYCLE:    56 TIME:   0.004 TIME LEFT:  2.00D  GRAD.:     0.799 HEAT:  48.30245
 CYCLE:    57 TIME:   0.008 TIME LEFT:  2.00D  GRAD.:     0.333 HEAT:  48.30189
 CYCLE:    58 TIME:   0.004 TIME LEFT:  2.00D  GRAD.:     0.220 HEAT:  48.30161
 CYCLE:    59 TIME:   0.004 TIME LEFT:  2.00D  GRAD.:     0.195 HEAT:  48.30154
 CYCLE:    60 TIME:   0.004 TIME LEFT:  2.00D  GRAD.:     0.150 HEAT:  48.30152
 CYCLE:    61 TIME:   0.004 TIME LEFT:  2.00D  GRAD.:     0.149 HEAT:  48.30152
 CYCLE:    62 TIME:   0.004 TIME LEFT:  2.00D  GRAD.:     0.157 HEAT:  48.30152
 CYCLE:    63 TIME:   0.004 TIME LEFT:  2.00D  GRAD.:     0.159 HEAT:  48.30152
 CYCLE:    64 TIME:   0.004 TIME LEFT:  2.00D  GRAD.:     0.161 HEAT:  48.30150
 CYCLE:    65 TIME:   0.004 TIME LEFT:  2.00D  GRAD.:     0.161 HEAT:  48.30147
 CYCLE:    66 TIME:   0.004 TIME LEFT:  2.00D  GRAD.:     0.161 HEAT:  48.30143
 CYCLE:    67 TIME:   0.004 TIME LEFT:  2.00D  GRAD.:     0.164 HEAT:  48.30136
 CYCLE:    68 TIME:   0.004 TIME LEFT:  2.00D  GRAD.:     0.172 HEAT:  48.30125
 CYCLE:    69 TIME:   0.004 TIME LEFT:  2.00D  GRAD.:     0.187 HEAT:  48.30110
 CYCLE:    70 TIME:   0.004 TIME LEFT:  2.00D  GRAD.:     0.217 HEAT:  48.30089
 CYCLE:    71 TIME:   0.004 TIME LEFT:  2.00D  GRAD.:     0.759 HEAT:  48.30011
 CYCLE:    72 TIME:   0.004 TIME LEFT:  2.00D  GRAD.:     0.513 HEAT:  48.29986
 CYCLE:    73 TIME:   0.004 TIME LEFT:  2.00D  GRAD.:     1.332 HEAT:  48.29857
 CYCLE:    74 TIME:   0.004 TIME LEFT:  2.00D  GRAD.:     1.373 HEAT:  48.29819
 CYCLE:    75 TIME:   0.008 TIME LEFT:  2.00D  GRAD.:     1.409 HEAT:  48.29791
 CYCLE:    76 TIME:   0.012 TIME LEFT:  2.00D  GRAD.:     2.726 HEAT:  48.29296
 CYCLE:    77 TIME:   0.004 TIME LEFT:  2.00D  GRAD.:     1.217 HEAT:  48.28974
 CYCLE:    78 TIME:   0.008 TIME LEFT:  2.00D  GRAD.:     1.353 HEAT:  48.27333
 CYCLE:    79 TIME:   0.000 TIME LEFT:  2.00D  GRAD.:     3.022 HEAT:  48.26558
 CYCLE:    80 TIME:   0.004 TIME LEFT:  2.00D  GRAD.:     2.848 HEAT:  48.25391
 CYCLE:    81 TIME:   0.008 TIME LEFT:  2.00D  GRAD.:     1.969 HEAT:  48.24449
 CYCLE:    82 TIME:   0.004 TIME LEFT:  2.00D  GRAD.:    12.225 HEAT:  48.23690
 CYCLE:    83 TIME:   0.004 TIME LEFT:  2.00D  GRAD.:     1.737 HEAT:  48.23430
 CYCLE:    84 TIME:   0.004 TIME LEFT:  2.00D  GRAD.:     1.288 HEAT:  48.22763
 CYCLE:    85 TIME:   0.008 TIME LEFT:  2.00D  GRAD.:     1.079 HEAT:  48.22543
 CYCLE:    86 TIME:   0.004 TIME LEFT:  2.00D  GRAD.:     0.817 HEAT:  48.22440
 CYCLE:    87 TIME:   0.004 TIME LEFT:  2.00D  GRAD.:     0.551 HEAT:  48.22392
 CYCLE:    88 TIME:   0.004 TIME LEFT:  2.00D  GRAD.:     0.447 HEAT:  48.22381
 CYCLE:    89 TIME:   0.004 TIME LEFT:  2.00D  GRAD.:     0.438 HEAT:  48.22381
 CYCLE:    90 TIME:   0.004 TIME LEFT:  2.00D  GRAD.:     0.435 HEAT:  48.22381
 CYCLE:    91 TIME:   0.004 TIME LEFT:  2.00D  GRAD.:     0.432 HEAT:  48.22380
 CYCLE:    92 TIME:   0.004 TIME LEFT:  2.00D  GRAD.:     0.430 HEAT:  48.22380
 CYCLE:    93 TIME:   0.008 TIME LEFT:  2.00D  GRAD.:     0.435 HEAT:  48.22371
 CYCLE:    94 TIME:   0.004 TIME LEFT:  2.00D  GRAD.:     0.466 HEAT:  48.22361
 CYCLE:    95 TIME:   0.008 TIME LEFT:  2.00D  GRAD.:     0.600 HEAT:  48.22347
 CYCLE:    96 TIME:   0.004 TIME LEFT:  2.00D  GRAD.:     0.602 HEAT:  48.22346
 CYCLE:    97 TIME:   0.004 TIME LEFT:  2.00D  GRAD.:     0.458 HEAT:  48.22339
 CYCLE:    98 TIME:   0.008 TIME LEFT:  2.00D  GRAD.:     0.764 HEAT:  48.22309
 CYCLE:    99 TIME:   0.004 TIME LEFT:  2.00D  GRAD.:     0.745 HEAT:  48.22244
 CYCLE:   100 TIME:   0.004 TIME LEFT:  2.00D  GRAD.:     0.724 HEAT:  48.22238
 CYCLE:   101 TIME:   0.004 TIME LEFT:  2.00D  GRAD.:     0.704 HEAT:  48.22229
 CYCLE:   102 TIME:   0.004 TIME LEFT:  2.00D  GRAD.:     1.170 HEAT:  48.22029
 CYCLE:   103 TIME:   0.008 TIME LEFT:  2.00D  GRAD.:     0.975 HEAT:  48.21858
 CYCLE:   104 TIME:   0.004 TIME LEFT:  2.00D  GRAD.:     2.748 HEAT:  48.21337
 CYCLE:   105 TIME:   0.008 TIME LEFT:  2.00D  GRAD.:     2.351 HEAT:  48.20420
 CYCLE:   106 TIME:   0.004 TIME LEFT:  2.00D  GRAD.:     2.323 HEAT:  48.20343
 CYCLE:   107 TIME:   0.004 TIME LEFT:  2.00D  GRAD.:     2.683 HEAT:  48.19274
 CYCLE:   108 TIME:   0.008 TIME LEFT:  2.00D  GRAD.:     3.130 HEAT:  48.18739
 CYCLE:   109 TIME:   0.004 TIME LEFT:  2.00D  GRAD.:     2.228 HEAT:  48.18527
 CYCLE:   110 TIME:   0.004 TIME LEFT:  2.00D  GRAD.:     2.072 HEAT:  48.18064
 CYCLE:   111 TIME:   0.004 TIME LEFT:  2.00D  GRAD.:     2.518 HEAT:  48.17123
 CYCLE:   112 TIME:   0.008 TIME LEFT:  2.00D  GRAD.:     3.503 HEAT:  48.16324
 CYCLE:   113 TIME:   0.004 TIME LEFT:  2.00D  GRAD.:     2.392 HEAT:  48.15605
 CYCLE:   114 TIME:   0.004 TIME LEFT:  2.00D  GRAD.:     2.885 HEAT:  48.14750
 CYCLE:   115 TIME:   0.004 TIME LEFT:  2.00D  GRAD.:     2.301 HEAT:  48.14097
 CYCLE:   116 TIME:   0.004 TIME LEFT:  2.00D  GRAD.:     3.656 HEAT:  48.13570
 CYCLE:   117 TIME:   0.004 TIME LEFT:  2.00D  GRAD.:     2.628 HEAT:  48.13031
 CYCLE:   118 TIME:   0.008 TIME LEFT:  2.00D  GRAD.:     3.683 HEAT:  48.12049
 CYCLE:   119 TIME:   0.004 TIME LEFT:  2.00D  GRAD.:     2.276 HEAT:  48.11431
 CYCLE:   120 TIME:   0.004 TIME LEFT:  2.00D  GRAD.:     3.523 HEAT:  48.10520
 CYCLE:   121 TIME:   0.004 TIME LEFT:  2.00D  GRAD.:     2.135 HEAT:  48.10105
 CYCLE:   122 TIME:   0.008 TIME LEFT:  2.00D  GRAD.:     2.146 HEAT:  48.09663
 CYCLE:   123 TIME:   0.004 TIME LEFT:  2.00D  GRAD.:     1.664 HEAT:  48.09512
 CYCLE:   124 TIME:   0.004 TIME LEFT:  2.00D  GRAD.:     1.727 HEAT:  48.09408
 CYCLE:   125 TIME:   0.004 TIME LEFT:  2.00D  GRAD.:     1.813 HEAT:  48.09288
 CYCLE:   126 TIME:   0.004 TIME LEFT:  2.00D  GRAD.:     1.663 HEAT:  48.09238
 CYCLE:   127 TIME:   0.004 TIME LEFT:  2.00D  GRAD.:     1.768 HEAT:  48.09221
 CYCLE:   128 TIME:   0.004 TIME LEFT:  2.00D  GRAD.:     1.846 HEAT:  48.09214
 CYCLE:   129 TIME:   0.008 TIME LEFT:  2.00D  GRAD.:     1.834 HEAT:  48.09214
 CYCLE:   130 TIME:   0.004 TIME LEFT:  2.00D  GRAD.:     1.824 HEAT:  48.09214
 CYCLE:   131 TIME:   0.004 TIME LEFT:  2.00D  GRAD.:     1.824 HEAT:  48.09214
 CYCLE:   132 TIME:   0.008 TIME LEFT:  2.00D  GRAD.:     1.848 HEAT:  48.09213
 CYCLE:   133 TIME:   0.004 TIME LEFT:  2.00D  GRAD.:     1.664 HEAT:  48.09204
 CYCLE:   134 TIME:   0.008 TIME LEFT:  2.00D  GRAD.:     1.822 HEAT:  48.09117
 CYCLE:   135 TIME:   0.004 TIME LEFT:  2.00D  GRAD.:     1.808 HEAT:  48.09106
 CYCLE:   136 TIME:   0.004 TIME LEFT:  2.00D  GRAD.:     1.800 HEAT:  48.09101
 CYCLE:   137 TIME:   0.004 TIME LEFT:  2.00D  GRAD.:     1.790 HEAT:  48.09092
 CYCLE:   138 TIME:   0.004 TIME LEFT:  2.00D  GRAD.:     1.772 HEAT:  48.09079
 CYCLE:   139 TIME:   0.004 TIME LEFT:  2.00D  GRAD.:     1.743 HEAT:  48.09058
 CYCLE:   140 TIME:   0.004 TIME LEFT:  2.00D  GRAD.:     1.703 HEAT:  48.09025
 CYCLE:   141 TIME:   0.004 TIME LEFT:  2.00D  GRAD.:     2.035 HEAT:  48.08735
 CYCLE:   142 TIME:   0.004 TIME LEFT:  2.00D  GRAD.:     1.873 HEAT:  48.08640
 CYCLE:   143 TIME:   0.004 TIME LEFT:  2.00D  GRAD.:     1.672 HEAT:  48.08595
 CYCLE:   144 TIME:   0.008 TIME LEFT:  2.00D  GRAD.:     1.636 HEAT:  48.08500
 CYCLE:   145 TIME:   0.004 TIME LEFT:  2.00D  GRAD.:     1.256 HEAT:  48.08271
 CYCLE:   146 TIME:   0.004 TIME LEFT:  2.00D  GRAD.:     1.032 HEAT:  48.08232
 CYCLE:   147 TIME:   0.004 TIME LEFT:  2.00D  GRAD.:     0.978 HEAT:  48.08203
 CYCLE:   148 TIME:   0.008 TIME LEFT:  2.00D  GRAD.:     1.078 HEAT:  48.08160
 CYCLE:   149 TIME:   0.004 TIME LEFT:  2.00D  GRAD.:     1.579 HEAT:  48.08007
 CYCLE:   150 TIME:   0.008 TIME LEFT:  2.00D  GRAD.:     3.016 HEAT:  48.07552
 CYCLE:   151 TIME:   0.004 TIME LEFT:  2.00D  GRAD.:     1.564 HEAT:  48.06447
 CYCLE:   152 TIME:   0.008 TIME LEFT:  2.00D  GRAD.:     1.347 HEAT:  48.06081
 CYCLE:   153 TIME:   0.008 TIME LEFT:  2.00D  GRAD.:     1.545 HEAT:  48.05635
 CYCLE:   154 TIME:   0.004 TIME LEFT:  2.00D  GRAD.:     2.926 HEAT:  48.05293
 CYCLE:   155 TIME:   0.004 TIME LEFT:  2.00D  GRAD.:     2.088 HEAT:  48.04993
 CYCLE:   156 TIME:   0.004 TIME LEFT:  2.00D  GRAD.:     1.931 HEAT:  48.04292
 CYCLE:   157 TIME:   0.008 TIME LEFT:  2.00D  GRAD.:     2.635 HEAT:  48.03706
 CYCLE:   158 TIME:   0.004 TIME LEFT:  2.00D  GRAD.:     1.389 HEAT:  48.03369
 CYCLE:   159 TIME:   0.004 TIME LEFT:  2.00D  GRAD.:     1.172 HEAT:  48.03145
 CYCLE:   160 TIME:   0.004 TIME LEFT:  2.00D  GRAD.:     1.356 HEAT:  48.02998
 CYCLE:   161 TIME:   0.004 TIME LEFT:  2.00D  GRAD.:     1.714 HEAT:  48.02808
 CYCLE:   162 TIME:   0.008 TIME LEFT:  2.00D  GRAD.:     1.741 HEAT:  48.02511
 CYCLE:   163 TIME:   0.000 TIME LEFT:  2.00D  GRAD.:     1.795 HEAT:  48.02493
 CYCLE:   164 TIME:   0.004 TIME LEFT:  2.00D  GRAD.:     1.053 HEAT:  48.02172
 CYCLE:   165 TIME:   0.004 TIME LEFT:  2.00D  GRAD.:     1.476 HEAT:  48.02064
 CYCLE:   166 TIME:   0.004 TIME LEFT:  2.00D  GRAD.:     0.680 HEAT:  48.01970
 CYCLE:   167 TIME:   0.008 TIME LEFT:  2.00D  GRAD.:     0.728 HEAT:  48.01873
 CYCLE:   168 TIME:   0.004 TIME LEFT:  2.00D  GRAD.:     0.435 HEAT:  48.01808
 CYCLE:   169 TIME:   0.008 TIME LEFT:  2.00D  GRAD.:     0.552 HEAT:  48.01754
 CYCLE:   170 TIME:   0.004 TIME LEFT:  2.00D  GRAD.:     0.307 HEAT:  48.01739
 CYCLE:   171 TIME:   0.004 TIME LEFT:  2.00D  GRAD.:     0.283 HEAT:  48.01725
 CYCLE:   172 TIME:   0.004 TIME LEFT:  2.00D  GRAD.:     0.164 HEAT:  48.01717
 CYCLE:   173 TIME:   0.004 TIME LEFT:  2.00D  GRAD.:     0.071 HEAT:  48.01713
 CYCLE:   174 TIME:   0.008 TIME LEFT:  2.00D  GRAD.:     0.067 HEAT:  48.01713
 CYCLE:   175 TIME:   0.004 TIME LEFT:  2.00D  GRAD.:     0.048 HEAT:  48.01713
 CYCLE:   176 TIME:   0.004 TIME LEFT:  2.00D  GRAD.:     0.049 HEAT:  48.01713
 CYCLE:   177 TIME:   0.008 TIME LEFT:  2.00D  GRAD.:     0.051 HEAT:  48.01713
 CYCLE:   178 TIME:   0.004 TIME LEFT:  2.00D  GRAD.:     0.034 HEAT:  48.01713
 CYCLE:   179 TIME:   0.004 TIME LEFT:  2.00D  GRAD.:     0.034 HEAT:  48.01713
 CYCLE:   180 TIME:   0.004 TIME LEFT:  2.00D  GRAD.:     0.048 HEAT:  48.01713
 CYCLE:   181 TIME:   0.004 TIME LEFT:  2.00D  GRAD.:     0.039 HEAT:  48.01713
 CYCLE:   182 TIME:   0.004 TIME LEFT:  2.00D  GRAD.:     0.038 HEAT:  48.01713
 CYCLE:   183 TIME:   0.008 TIME LEFT:  2.00D  GRAD.:     0.039 HEAT:  48.01713
 CYCLE:   184 TIME:   0.004 TIME LEFT:  2.00D  GRAD.:     0.039 HEAT:  48.01713
 CYCLE:   185 TIME:   0.004 TIME LEFT:  2.00D  GRAD.:     0.039 HEAT:  48.01713
 CYCLE:   186 TIME:   0.008 TIME LEFT:  2.00D  GRAD.:     0.039 HEAT:  48.01713
 CYCLE:   187 TIME:   0.004 TIME LEFT:  2.00D  GRAD.:     0.039 HEAT:  48.01713
 CYCLE:   188 TIME:   0.008 TIME LEFT:  2.00D  GRAD.:     0.039 HEAT:  48.01713
 CYCLE:   189 TIME:   0.004 TIME LEFT:  2.00D  GRAD.:     0.039 HEAT:  48.01713
 CYCLE:   190 TIME:   0.004 TIME LEFT:  2.00D  GRAD.:     0.039 HEAT:  48.01713
 CYCLE:   191 TIME:   0.004 TIME LEFT:  2.00D  GRAD.:     0.039 HEAT:  48.01713
 CYCLE:   192 TIME:   0.008 TIME LEFT:  2.00D  GRAD.:     0.039 HEAT:  48.01713
 CYCLE:   193 TIME:   0.004 TIME LEFT:  2.00D  GRAD.:     0.039 HEAT:  48.01713


 HEAT OF FORMATION IS ESSENTIALLY STATIONARY

 -------------------------------------------------------------------------------
 pm3  precise nosym gnorm=0.0 bfgs THREADS=1
 InChI=1S/C10H10/c1-8-6-7-9-4-2-3-5-10(8)9/h2-5,7H,6H2,1H3



     PETERS TEST WAS SATISFIED IN BFGS OPTIMIZATION           
     SCF FIELD WAS ACHIEVED                                   


                              PM3 CALCULATION
                                                       MOPAC2016 (Version: 18.184L)
                                                       Sat Jun 15 10:13:58 2019
                                                       No. of days remaining =  18




          FINAL HEAT OF FORMATION =         48.01713 KCAL/MOL =     200.90366 KJ/MOL


          TOTAL ENERGY            =      -1337.64872 EV
          ELECTRONIC ENERGY       =      -7047.90716 EV  POINT GROUP:     C1  
          CORE-CORE REPULSION     =       5710.25844 EV
          COSMO AREA              =        172.92 SQUARE ANGSTROMS
          COSMO VOLUME            =        172.86 CUBIC ANGSTROMS

          GRADIENT NORM           =          0.03854 = 0.00862 PER ATOM
          IONIZATION POTENTIAL    =          8.058567 EV
          HOMO LUMO ENERGIES (EV) =         -8.059 -0.704
          NO. OF FILLED LEVELS    =         25
          MOLECULAR WEIGHT        =        130.1890

          MOLECULAR DIMENSIONS (Angstroms)

            Atom       Atom       Distance
            H    18    H    14     7.08372
            H    19    H    16     5.67842
            H    11    H    13     2.03256


          SCF CALCULATIONS        =        378
 
          WALL-CLOCK TIME         =          0.918 SECONDS
          COMPUTATION TIME        =          0.867 SECONDS




   ATOM   CHEMICAL          X               Y               Z
  NUMBER   SYMBOL      (ANGSTROMS)     (ANGSTROMS)     (ANGSTROMS)
 
     1       C         -1.87992239  *   1.00431031  *   0.19500610  *
     2       C         -2.14295799  *  -1.58602498  *   0.31910818  *
     3       C         -1.30248654  *  -0.38671694  *   0.20568155  *
     4       C          0.05511310  *  -0.29940969  *   0.09616627  *
     5       C          0.43875909  *   1.11652708  *   0.00934030  *
     6       C         -0.67741530  *   1.89104132  *   0.06543920  *
     7       C          1.83056598  *   1.45960071  *  -0.11327805  *
     8       C          1.08412326  *  -1.30312057  *   0.05611052  *
     9       C          2.75164212  *   0.47137407  *  -0.14559720  *
    10       C          2.37530507  *  -0.92063210  *  -0.06016048  *
    11       H         -2.44158775  *   1.21702714  *   1.12340402  *
    12       H         -2.58008244  *   1.14593016  *  -0.64899934  *
    13       H         -2.85482012  *  -1.64268264  *  -0.51577966  *
    14       H         -2.72516886  *  -1.56682048  *   1.25057471  *
    15       H         -1.54640011  *  -2.50783500  *   0.31482291  *
    16       H         -0.74042015  *   2.97583951  *   0.02672840  *
    17       H          2.10548835  *   2.51690610  *  -0.17726961  *
    18       H          3.81797592  *   0.70241830  *  -0.23834535  *
    19       H          3.17823515  *  -1.66445753  *  -0.09295413  *
    20       H          0.79337577  *  -2.35695827  *   0.12120351  *

                             CARTESIAN COORDINATES

   1    C       -1.879922388     1.004310313     0.195006096
   2    C       -2.142957992    -1.586024981     0.319108179
   3    C       -1.302486537    -0.386716943     0.205681555
   4    C        0.055113099    -0.299409694     0.096166266
   5    C        0.438759094     1.116527080     0.009340305
   6    C       -0.677415304     1.891041317     0.065439201
   7    C        1.830565978     1.459600709    -0.113278048
   8    C        1.084123263    -1.303120566     0.056110522
   9    C        2.751642118     0.471374066    -0.145597199
  10    C        2.375305066    -0.920632097    -0.060160483
  11    H       -2.441587747     1.217027143     1.123404024
  12    H       -2.580082435     1.145930161    -0.648999339
  13    H       -2.854820117    -1.642682636    -0.515779656
  14    H       -2.725168864    -1.566820480     1.250574708
  15    H       -1.546400115    -2.507835003     0.314822913
  16    H       -0.740420148     2.975839512     0.026728396
  17    H        2.105488353     2.516906100    -0.177269606
  18    H        3.817975922     0.702418297    -0.238345347
  19    H        3.178235150    -1.664457526    -0.092954132
  20    H        0.793375769    -2.356958269     0.121203508


           Empirical Formula: C10 H10  =    20 atoms



      MOLECULAR POINT GROUP   :   C1  


                  EIGENVALUES  
 -41.27121 -35.56757 -31.90375 -28.77147 -26.88841 -23.94207 -21.68332 -19.84327
 -18.99274 -17.16512 -16.27169 -15.81756 -15.56456 -14.86995 -14.19860 -13.94778
 -13.69815 -13.45094 -13.00770 -12.76797 -12.39532 -11.87280 -10.44614 -10.10303
  -8.05857  -0.70398   1.16900   1.33100   3.03169   3.13474   3.20785   3.42688
   3.48902   3.61879   3.81679   3.92662   3.99486   4.09362   4.25181   4.34144
   4.38616   4.48475   4.77694   4.91839   5.41634   5.43263   5.64262   5.96792
   6.40118   6.52770


              NET ATOMIC CHARGES AND DIPOLE CONTRIBUTIONS

  ATOM NO.   TYPE          CHARGE      No. of ELECS.   s-Pop       p-Pop       
    1          C          -0.040859        4.0409     1.14376     2.89710
    2          C          -0.047880        4.0479     1.11512     2.93276
    3          C          -0.120099        4.1201     1.20458     2.91551
    4          C          -0.067254        4.0673     1.17104     2.89621
    5          C          -0.058451        4.0585     1.17349     2.88496
    6          C          -0.154356        4.1544     1.20309     2.95127
    7          C          -0.072158        4.0722     1.17197     2.90019
    8          C          -0.065998        4.0660     1.17074     2.89525
    9          C          -0.100467        4.1005     1.18016     2.92030
   10          C          -0.106429        4.1064     1.18027     2.92615
   11          H           0.086558        0.9134     0.91344
   12          H           0.086547        0.9135     0.91345
   13          H           0.045788        0.9542     0.95421
   14          H           0.045734        0.9543     0.95427
   15          H           0.046256        0.9537     0.95374
   16          H           0.118858        0.8811     0.88114
   17          H           0.102835        0.8972     0.89716
   18          H           0.098978        0.9010     0.90102
   19          H           0.099233        0.9008     0.90077
   20          H           0.103163        0.8968     0.89684
 DIPOLE           X         Y         Z       TOTAL
 POINT-CHG.    -0.863    -0.043     0.069     0.867
 HYBRID        -0.055     0.038     0.003     0.067
 SUM           -0.918    -0.005     0.071     0.921


          ATOMIC ORBITAL ELECTRON POPULATIONS

     Atom    s        px        py        pz   
    1  C   1.14376   0.96748   0.92221   1.00741
    2  C   1.11512   0.98011   0.94976   1.00288
    3  C   1.20458   0.94777   0.95570   1.01205
    4  C   1.17104   0.93121   0.93822   1.02678
    5  C   1.17349   0.93826   0.93699   1.00972
    6  C   1.20309   0.94511   0.97710   1.02906
    7  C   1.17197   0.92424   0.97639   0.99956
    8  C   1.17074   0.93245   0.96712   0.99568
    9  C   1.18016   0.97877   0.93784   1.00369
   10  C   1.18027   0.96220   0.95493   1.00903
   11  H   0.91344
   12  H   0.91345
   13  H   0.95421
   14  H   0.95427
   15  H   0.95374
   16  H   0.88114
   17  H   0.89716
   18  H   0.90102
   19  H   0.90077
   20  H   0.89684
 *******************************************************************************
 ** Site#: 14399        For non-commercial use only    Version 18.184L 64BITS **
 *******************************************************************************
 ** Cite this program as: MOPAC2016, Version: 18.184L, James J. P. Stewart,   **
 ** Stewart Computational Chemistry, web: HTTP://OpenMOPAC.net. Days left:  18**
 *******************************************************************************
 **                                                                           **
 **                                MOPAC2016                                  **
 **                                                                           **
 *******************************************************************************

                              PM3 CALCULATION RESULTS

 *******************************************************************************
 *  CALCULATION DONE:                                Sat Jun 15 10:13:58 2019  *
 *  PM3        - The PM3 Hamiltonian to be used
 *  OLDGEO     - PREVIOUS GEOMETRY TO BE USED
 *  PRECISE    - CRITERIA TO BE INCREASED BY 100 TIMES
 *  NOSYM      - POINT-GROUP SYMMETRY SET TO C1
 *  THREADS=1  - MULTI-THREADING NOT USED
 *  T=         - A TIME OF 172800.0 SECONDS REQUESTED
 *  DUMP=N     - RESTART FILE WRITTEN EVERY  7200.000 SECONDS
 *  THERMO     - THERMODYNAMIC QUANTITIES TO BE CALCULATED
 *******************************************************************************
oldgeo thermo nosym precise THREADS=1  pm3
 InChI=1S/C10H10/c1-8-6-7-9-4-2-3-5-10(8)9/h2-5,7H,6H2,1H3

   ATOM   CHEMICAL          X               Y               Z
  NUMBER   SYMBOL      (ANGSTROMS)     (ANGSTROMS)     (ANGSTROMS)
 
     1       C         -1.87992239  *   1.00431031  *   0.19500610  *
     2       C         -2.14295799  *  -1.58602498  *   0.31910818  *
     3       C         -1.30248654  *  -0.38671694  *   0.20568155  *
     4       C          0.05511310  *  -0.29940969  *   0.09616627  *
     5       C          0.43875909  *   1.11652708  *   0.00934030  *
     6       C         -0.67741530  *   1.89104132  *   0.06543920  *
     7       C          1.83056598  *   1.45960071  *  -0.11327805  *
     8       C          1.08412326  *  -1.30312057  *   0.05611052  *
     9       C          2.75164212  *   0.47137407  *  -0.14559720  *
    10       C          2.37530507  *  -0.92063210  *  -0.06016048  *
    11       H         -2.44158775  *   1.21702714  *   1.12340402  *
    12       H         -2.58008244  *   1.14593016  *  -0.64899934  *
    13       H         -2.85482012  *  -1.64268264  *  -0.51577966  *
    14       H         -2.72516886  *  -1.56682048  *   1.25057471  *
    15       H         -1.54640011  *  -2.50783500  *   0.31482291  *
    16       H         -0.74042015  *   2.97583951  *   0.02672840  *
    17       H          2.10548835  *   2.51690610  *  -0.17726961  *
    18       H          3.81797592  *   0.70241830  *  -0.23834535  *
    19       H          3.17823515  *  -1.66445753  *  -0.09295413  *
    20       H          0.79337577  *  -2.35695827  *   0.12120351  *
 


          CARTESIAN COORDINATES 

    NO.       ATOM           X           Y           Z

     1         C         -1.8799      1.0043      0.1950
     2         C         -2.1430     -1.5860      0.3191
     3         C         -1.3025     -0.3867      0.2057
     4         C          0.0551     -0.2994      0.0962
     5         C          0.4388      1.1165      0.0093
     6         C         -0.6774      1.8910      0.0654
     7         C          1.8306      1.4596     -0.1133
     8         C          1.0841     -1.3031      0.0561
     9         C          2.7516      0.4714     -0.1456
    10         C          2.3753     -0.9206     -0.0602
    11         H         -2.4416      1.2170      1.1234
    12         H         -2.5801      1.1459     -0.6490
    13         H         -2.8548     -1.6427     -0.5158
    14         H         -2.7252     -1.5668      1.2506
    15         H         -1.5464     -2.5078      0.3148
    16         H         -0.7404      2.9758      0.0267
    17         H          2.1055      2.5169     -0.1773
    18         H          3.8180      0.7024     -0.2383
    19         H          3.1782     -1.6645     -0.0930
    20         H          0.7934     -2.3570      0.1212

  H: (PM3): J. J. P. STEWART, J. COMP. CHEM. 10, 209 (1989).
  C: (PM3): J. J. P. STEWART, J. COMP. CHEM. 10, 209 (1989).

           Empirical Formula: C10 H10  =    20 atoms



      MOLECULAR POINT GROUP   :   C1  


      RHF CALCULATION, NO. OF DOUBLY OCCUPIED LEVELS = 25



          HEAT OF FORMATION =      48.017127 KCALS/MOLE


          CARTESIAN COORDINATE DERIVATIVES

   NUMBER  ATOM         X            Y            Z

     1       C     -0.000823     0.005263     0.009538
     2       C     -0.010675     0.001830    -0.001337
     3       C      0.002483    -0.003586    -0.000143
     4       C     -0.004621    -0.006789    -0.003407
     5       C      0.003164     0.006945     0.008511
     6       C      0.006110    -0.001904    -0.009662
     7       C      0.002639    -0.001241    -0.002123
     8       C     -0.003714     0.002809    -0.000641
     9       C      0.003126     0.003659    -0.000075
    10       C     -0.005678    -0.001485     0.003406
    11       H      0.001246    -0.005489     0.000093
    12       H     -0.001510     0.001408     0.001149
    13       H     -0.000607    -0.002350    -0.013474
    14       H     -0.000232    -0.012336     0.015481
    15       H      0.010557     0.014737    -0.001491
    16       H     -0.003487     0.001302    -0.002167
    17       H      0.000006     0.002370     0.000724
    18       H     -0.004032    -0.006076    -0.002760
    19       H      0.004375     0.002035     0.000823
    20       H      0.001677    -0.001101    -0.002446
 


          GRADIENT NORM =   0.04210


          TIME FOR SCF CALCULATION =    0.00

          TIME FOR DERIVATIVES     =    0.00

          MOLECULAR WEIGHT =  130.19



          ROTATIONAL CONSTANTS IN CM(-1)

          A =    0.08444858   B =    0.04187494   C =    0.02829255



           PRINCIPAL MOMENTS OF INERTIA IN UNITS OF 10**(-40)*GRAM-CM**2

          A =      331.4772   B =      668.4852   C =      989.4045


          ORIENTATION OF MOLECULE IN FORCE CALCULATION

    NO.       ATOM         X         Y         Z

     1          C      -0.6574   -2.1745    0.0005
     2          C       1.9492   -2.1745    0.0005
     3          C       0.6672   -1.4575    0.0005
     4          C       0.4382   -0.1121    0.0002
     5          C      -1.0118    0.1272   -0.0001
     6          C      -1.6661   -1.0647   -0.0000
     7          C      -1.4990    1.4809   -0.0006
     8          C       1.3299    1.0161    0.0001
     9          C      -0.6114    2.4998   -0.0007
    10          C       0.8140    2.2654   -0.0003
    11          H      -0.7679   -2.8216    0.8903
    12          H      -0.7677   -2.8220   -0.8890
    13          H       2.0376   -2.8136   -0.8887
    14          H       2.0332   -2.8220    0.8840
    15          H       2.8048   -1.4864    0.0058
    16          H      -2.7396   -1.2374   -0.0002
    17          H      -2.5805    1.6481   -0.0009
    18          H      -0.9530    3.5402   -0.0012
    19          H       1.4706    3.1417   -0.0003
    20          H       2.4096    0.8328    0.0004


    FIRST DERIVATIVES WILL BE USED IN THE CALCULATION OF SECOND DERIVATIVES

          ESTIMATED TIME TO COMPLETE CALCULATION =        0.94 SECONDS

    FOR POINT-GROUP C1   THERE ARE   1 UNIQUE SYMMETRY FUNCTIONS.

 STEP:   1 TIME =     0.02 SECS, INTEGRAL =      0.02 TIME LEFT: 172799.98
 STEP:   2 TIME =     0.02 SECS, INTEGRAL =      0.04 TIME LEFT: 172799.96
 STEP:   3 TIME =     0.02 SECS, INTEGRAL =      0.05 TIME LEFT: 172799.94
 STEP:   4 TIME =     0.02 SECS, INTEGRAL =      0.07 TIME LEFT: 172799.92
 STEP:   5 TIME =     0.02 SECS, INTEGRAL =      0.09 TIME LEFT: 172799.91
 STEP:   6 TIME =     0.02 SECS, INTEGRAL =      0.11 TIME LEFT: 172799.89
 STEP:   7 TIME =     0.02 SECS, INTEGRAL =      0.13 TIME LEFT: 172799.87
 STEP:   8 TIME =     0.02 SECS, INTEGRAL =      0.15 TIME LEFT: 172799.85
 STEP:   9 TIME =     0.02 SECS, INTEGRAL =      0.17 TIME LEFT: 172799.83
 STEP:  10 TIME =     0.02 SECS, INTEGRAL =      0.18 TIME LEFT: 172799.81
 STEP:  11 TIME =     0.02 SECS, INTEGRAL =      0.20 TIME LEFT: 172799.79
 STEP:  12 TIME =     0.02 SECS, INTEGRAL =      0.22 TIME LEFT: 172799.77
 STEP:  13 TIME =     0.02 SECS, INTEGRAL =      0.24 TIME LEFT: 172799.75
 STEP:  14 TIME =     0.02 SECS, INTEGRAL =      0.26 TIME LEFT: 172799.74
 STEP:  15 TIME =     0.02 SECS, INTEGRAL =      0.28 TIME LEFT: 172799.72
 STEP:  16 TIME =     0.02 SECS, INTEGRAL =      0.29 TIME LEFT: 172799.70
 STEP:  17 TIME =     0.02 SECS, INTEGRAL =      0.31 TIME LEFT: 172799.68
 STEP:  18 TIME =     0.02 SECS, INTEGRAL =      0.33 TIME LEFT: 172799.66
 STEP:  19 TIME =     0.02 SECS, INTEGRAL =      0.35 TIME LEFT: 172799.64
 STEP:  20 TIME =     0.02 SECS, INTEGRAL =      0.37 TIME LEFT: 172799.63
 STEP:  21 TIME =     0.02 SECS, INTEGRAL =      0.38 TIME LEFT: 172799.61
 STEP:  22 TIME =     0.02 SECS, INTEGRAL =      0.40 TIME LEFT: 172799.59
 STEP:  23 TIME =     0.02 SECS, INTEGRAL =      0.42 TIME LEFT: 172799.57
 STEP:  24 TIME =     0.02 SECS, INTEGRAL =      0.44 TIME LEFT: 172799.55
 STEP:  25 TIME =     0.02 SECS, INTEGRAL =      0.46 TIME LEFT: 172799.54
 STEP:  26 TIME =     0.02 SECS, INTEGRAL =      0.47 TIME LEFT: 172799.52
 STEP:  27 TIME =     0.02 SECS, INTEGRAL =      0.49 TIME LEFT: 172799.50
 STEP:  28 TIME =     0.02 SECS, INTEGRAL =      0.51 TIME LEFT: 172799.48
 STEP:  29 TIME =     0.02 SECS, INTEGRAL =      0.53 TIME LEFT: 172799.46
 STEP:  30 TIME =     0.02 SECS, INTEGRAL =      0.55 TIME LEFT: 172799.45
 STEP:  31 TIME =     0.02 SECS, INTEGRAL =      0.57 TIME LEFT: 172799.43
 STEP:  32 TIME =     0.02 SECS, INTEGRAL =      0.59 TIME LEFT: 172799.41
 STEP:  33 TIME =     0.02 SECS, INTEGRAL =      0.61 TIME LEFT: 172799.39
 STEP:  34 TIME =     0.02 SECS, INTEGRAL =      0.62 TIME LEFT: 172799.37
 STEP:  35 TIME =     0.02 SECS, INTEGRAL =      0.64 TIME LEFT: 172799.35
 STEP:  36 TIME =     0.02 SECS, INTEGRAL =      0.66 TIME LEFT: 172799.34
 STEP:  37 TIME =     0.02 SECS, INTEGRAL =      0.68 TIME LEFT: 172799.32
 STEP:  38 TIME =     0.02 SECS, INTEGRAL =      0.69 TIME LEFT: 172799.30
 STEP:  39 TIME =     0.02 SECS, INTEGRAL =      0.71 TIME LEFT: 172799.29
 STEP:  40 TIME =     0.02 SECS, INTEGRAL =      0.73 TIME LEFT: 172799.27
 STEP:  41 TIME =     0.02 SECS, INTEGRAL =      0.75 TIME LEFT: 172799.25
 STEP:  42 TIME =     0.02 SECS, INTEGRAL =      0.77 TIME LEFT: 172799.23
 STEP:  43 TIME =     0.02 SECS, INTEGRAL =      0.79 TIME LEFT: 172799.21
 STEP:  44 TIME =     0.02 SECS, INTEGRAL =      0.80 TIME LEFT: 172799.20
 STEP:  45 TIME =     0.02 SECS, INTEGRAL =      0.82 TIME LEFT: 172799.18
 STEP:  46 TIME =     0.02 SECS, INTEGRAL =      0.84 TIME LEFT: 172799.16
 STEP:  47 TIME =     0.02 SECS, INTEGRAL =      0.86 TIME LEFT: 172799.14
 STEP:  48 TIME =     0.02 SECS, INTEGRAL =      0.88 TIME LEFT: 172799.12
 STEP:  49 TIME =     0.02 SECS, INTEGRAL =      0.89 TIME LEFT: 172799.11
 STEP:  50 TIME =     0.02 SECS, INTEGRAL =      0.91 TIME LEFT: 172799.09
 STEP:  51 TIME =     0.02 SECS, INTEGRAL =      0.93 TIME LEFT: 172799.07
 STEP:  52 TIME =     0.02 SECS, INTEGRAL =      0.95 TIME LEFT: 172799.05
 STEP:  53 TIME =     0.02 SECS, INTEGRAL =      0.96 TIME LEFT: 172799.03
 STEP:  54 TIME =     0.02 SECS, INTEGRAL =      0.98 TIME LEFT: 172799.01
 STEP:  55 TIME =     0.02 SECS, INTEGRAL =      1.00 TIME LEFT: 172798.99
 STEP:  56 TIME =     0.02 SECS, INTEGRAL =      1.02 TIME LEFT: 172798.98
 STEP:  57 TIME =     0.02 SECS, INTEGRAL =      1.04 TIME LEFT: 172798.96
 STEP:  58 TIME =     0.02 SECS, INTEGRAL =      1.06 TIME LEFT: 172798.94
 STEP:  59 TIME =     0.02 SECS, INTEGRAL =      1.08 TIME LEFT: 172798.92
 STEP:  60 TIME =     0.02 SECS, INTEGRAL =      1.10 TIME LEFT: 172798.90

(To convert to Hartree/Bohr^2, multiply by (10^(-21) x N x a0^2)/(4.184 x 627.51) =  0.0642)


           FORCE MATRIX IN MILLIDYNES/ANGSTROM


                  C  1       C  2       C  3       C  4       C  5       C  6
 ------------------------------------------------------------------------------
     C    1  14.740482
     C    2   0.494522  14.832347
     C    3   4.159144   5.531671  18.058428
     C    4   1.293252   0.672439   8.506066  19.319203
     C    5   1.356988   0.097987   1.489971   4.980869  19.437022
     C    6   4.421481   0.050164   1.069201   1.485543   8.885093  17.537883
     C    7   0.147012   0.010026   0.177502   0.731183   5.873742   1.008131
     C    8   0.136796   0.054852   1.017036   5.854486   0.744192   0.166674
     C    9   0.085065   0.011286   0.221411   0.425762   1.376535   0.305674
     C   10   0.085281   0.020090   0.325312   1.398083   0.419957   0.213237
     H   11   4.491678   0.012704   0.419667   0.041648   0.042513   0.408161
     H   12   4.491886   0.012762   0.419773   0.041661   0.042540   0.407951
     H   13   0.013294   4.688501   0.448605   0.029552   0.013185   0.006936
     H   14   0.013379   4.689229   0.448988   0.029797   0.013147   0.006942
     H   15   0.043824   4.727991   0.472847   0.018524   0.002679   0.008740
     H   16   0.399930   0.013670   0.044716   0.088969   0.451971   5.088493
     H   17   0.006543   0.003900   0.007385   0.047657   0.443255   0.013267
     H   18   0.010738   0.000542   0.002027   0.004099   0.122107   0.007415
     H   19   0.010577   0.002708   0.007588   0.120822   0.003665   0.001785
     H   20   0.007547   0.014421   0.010947   0.443306   0.048897   0.007078


                  C  7       C  8       C  9       C 10       H 11       H 12
 ------------------------------------------------------------------------------
     C    7  18.139238
     C    8   0.448218  18.104771
     C    9   9.420371   1.337506  17.884760
     C   10   1.339425   9.381846   5.555164  17.851033
     H   11   0.019999   0.018462   0.004315   0.004223   5.099520
     H   12   0.019983   0.018465   0.004277   0.004235   0.546459   5.099649
     H   13   0.001324   0.006402   0.001477   0.002202   0.001907   0.003996
     H   14   0.001361   0.006393   0.001461   0.002169   0.004082   0.001877
     H   15   0.001115   0.016005   0.000756   0.001773   0.001280   0.001291
     H   16   0.047450   0.006569   0.004483   0.005591   0.011310   0.011352
     H   17   4.867483   0.010997   0.442721   0.120317   0.001056   0.001060
     H   18   0.437907   0.051677   4.851378   0.434521   0.001780   0.001772
     H   19   0.051678   0.438369   0.434907   4.851028   0.001685   0.001679
     H   20   0.011068   4.835965   0.120677   0.442688   0.001130   0.001125


                  H 13       H 14       H 15       H 16       H 17       H 18
 ------------------------------------------------------------------------------
     H   13   5.400000
     H   14   0.572611   5.400489
     H   15   0.559415   0.559209   5.430366
     H   16   0.001237   0.001222   0.001532   5.491910
     H   17   0.000564   0.000564   0.000091   0.006094   5.238020
     H   18   0.000135   0.000125   0.000136   0.003015   0.061095   5.213953
     H   19   0.000378   0.000371   0.000337   0.000687   0.007162   0.033028
     H   20   0.001436   0.001429   0.019417   0.003379   0.010586   0.007304


                  H 19       H 20
 ------------------------------
     H   19   5.214252
     H   20   0.061042   5.209085


          HEAT OF FORMATION =      48.017127 KCALS/MOLE

          ZERO POINT ENERGY     105.167 KCAL/MOL


           NORMAL COORDINATE ANALYSIS (Total motion = 1 Angstrom)


   Root No.       1         2         3         4         5         6         7         8

                 1 A       2 A       3 A       4 A       5 A       6 A       7 A       8 A   

                  67.6     130.8     172.7     246.1     254.1     364.1     454.8     468.8
  
           1   -0.0000    0.0000   -0.0000   -0.0001   -0.0153    0.0000   -0.0000   -0.0437
           2   -0.0000   -0.0000    0.0000   -0.0000   -0.0107   -0.0000    0.0000    0.0081
           3    0.0100   -0.0235    0.0590   -0.0315    0.0001   -0.0152   -0.0007   -0.0000
           4    0.0000   -0.0000    0.0000    0.0001    0.0306   -0.0000    0.0000    0.0268
           5    0.0001   -0.0000    0.0000    0.0003    0.0851   -0.0000   -0.0000    0.0071
           6   -0.0083    0.0621   -0.0034    0.0227   -0.0001   -0.0091    0.0029   -0.0000
           7   -0.0000    0.0000   -0.0000   -0.0001   -0.0195   -0.0000   -0.0000   -0.0054
           8   -0.0000   -0.0000   -0.0000   -0.0000   -0.0051    0.0000   -0.0000   -0.0405
           9    0.0048   -0.0046   -0.0098   -0.0386    0.0002    0.0544   -0.0072   -0.0000
          10   -0.0000    0.0000   -0.0000   -0.0001   -0.0291   -0.0000    0.0000    0.0374
          11   -0.0000   -0.0000   -0.0000   -0.0000   -0.0093    0.0000   -0.0000   -0.0288
          12    0.0036   -0.0272   -0.0555   -0.0312    0.0002    0.0326    0.0107    0.0001
          13   -0.0000    0.0000   -0.0000   -0.0001   -0.0253   -0.0000    0.0000    0.0481
          14   -0.0000   -0.0000   -0.0000   -0.0000   -0.0050   -0.0000    0.0000    0.0127
          15    0.0034   -0.0112   -0.0519    0.0124   -0.0000    0.0025    0.0637   -0.0000
          16   -0.0000    0.0000   -0.0000   -0.0001   -0.0210    0.0000   -0.0000    0.0009
          17    0.0000    0.0000   -0.0000   -0.0000   -0.0088   -0.0000    0.0000    0.0454
          18    0.0077   -0.0178    0.0077    0.0656   -0.0003    0.0165   -0.0264    0.0000
          19    0.0000   -0.0000    0.0000    0.0000    0.0065    0.0000    0.0000   -0.0030
          20    0.0000    0.0000    0.0000    0.0000    0.0074   -0.0000   -0.0000   -0.0109
          21   -0.0041    0.0395   -0.0425   -0.0173    0.0001   -0.0443    0.0120   -0.0001
          22    0.0000    0.0000    0.0000   -0.0000    0.0004    0.0000    0.0000    0.0061
          23   -0.0000   -0.0000   -0.0000   -0.0001   -0.0356   -0.0000   -0.0000   -0.0020
          24    0.0019   -0.0549   -0.0272    0.0036   -0.0000   -0.0349   -0.0518    0.0000
          25    0.0000   -0.0000    0.0000    0.0001    0.0296    0.0000   -0.0000   -0.0279
          26   -0.0000    0.0000    0.0000   -0.0000   -0.0109   -0.0000    0.0000    0.0045
          27   -0.0101    0.0438    0.0412   -0.0201    0.0001    0.0279   -0.0302    0.0001
          28    0.0000    0.0000    0.0000    0.0001    0.0268    0.0000   -0.0000   -0.0304
          29   -0.0000   -0.0000    0.0000   -0.0001   -0.0270    0.0000    0.0000   -0.0133
          30   -0.0056   -0.0222    0.0551    0.0259   -0.0001    0.0063    0.0483   -0.0000
          31    0.0022   -0.0102    0.0194    0.0353   -0.0153   -0.0317   -0.0109   -0.0800
          32    0.0038   -0.0129    0.0692   -0.0701   -0.0101   -0.0908    0.0385    0.0153
          33    0.0131   -0.0343    0.1125   -0.0792    0.0003   -0.0876    0.0271    0.0002
          34   -0.0023    0.0101   -0.0194   -0.0354   -0.0149    0.0318    0.0108   -0.0802
          35   -0.0038    0.0129   -0.0692    0.0700   -0.0107    0.0907   -0.0385    0.0152
          36    0.0131   -0.0343    0.1126   -0.0793    0.0003   -0.0876    0.0271   -0.0002
          37    0.1112    0.0526    0.0027    0.0423    0.0846   -0.0452    0.0119    0.0734
          38    0.2255    0.0031    0.0016   -0.0177    0.0942    0.0238   -0.0050    0.0147
          39   -0.1599    0.0653   -0.0044    0.0403   -0.0006   -0.0313    0.0080   -0.0001
          40   -0.1100   -0.0523   -0.0026   -0.0414    0.0861    0.0448   -0.0118    0.0740
          41   -0.2238   -0.0031   -0.0015    0.0183    0.0943   -0.0237    0.0050    0.0146
          42   -0.1625    0.0650   -0.0044    0.0402    0.0007   -0.0313    0.0080    0.0003
          43   -0.0008   -0.0003   -0.0000   -0.0003   -0.0239    0.0003   -0.0001   -0.0172
          44   -0.0010   -0.0000    0.0000    0.0007    0.1550   -0.0002    0.0001    0.0644
          45    0.2697    0.1153   -0.0003    0.0499   -0.0007   -0.0354    0.0112   -0.0001
          46   -0.0000    0.0000   -0.0000   -0.0001   -0.0199    0.0000    0.0000   -0.0092
          47   -0.0000    0.0000   -0.0000   -0.0000   -0.0152   -0.0000    0.0001    0.1080
          48    0.0093   -0.0127    0.0330    0.1399   -0.0007    0.0278   -0.1183    0.0000
          49    0.0000   -0.0000    0.0000    0.0000    0.0110    0.0000    0.0000   -0.0105
          50    0.0000    0.0000    0.0000    0.0001    0.0360   -0.0000   -0.0001   -0.0600
          51   -0.0056    0.0803   -0.0817   -0.0460    0.0002   -0.1192   -0.0510   -0.0002
          52    0.0001   -0.0000    0.0000    0.0002    0.0476    0.0000   -0.0000   -0.0325
          53   -0.0000    0.0000    0.0000   -0.0000   -0.0049    0.0000   -0.0000    0.0024
          54   -0.0174    0.0934    0.0865   -0.0565    0.0003    0.0612   -0.1566    0.0003
          55    0.0000    0.0000   -0.0000    0.0001    0.0413    0.0000   -0.0001   -0.0380
          56   -0.0000   -0.0000    0.0000   -0.0001   -0.0382    0.0000    0.0000   -0.0070
          57   -0.0075   -0.0447    0.1190    0.0729   -0.0004   -0.0144    0.1368   -0.0002
          58   -0.0000    0.0000    0.0000   -0.0000   -0.0037    0.0000    0.0000    0.0137
          59   -0.0001   -0.0000   -0.0001   -0.0002   -0.0618   -0.0000    0.0000    0.0429
          60    0.0077   -0.1035   -0.0486    0.0214   -0.0001   -0.1186   -0.1452    0.0000


   Root No.       9        10        11        12        13        14        15        16

                 9 A      10 A      11 A      12 A      13 A      14 A      15 A      16 A   

                 495.9     541.5     556.9     693.6     713.0     760.6     791.4     820.4
  
           1   -0.0000    0.0134   -0.0315    0.0198    0.0000   -0.0000    0.0000    0.0203
           2   -0.0000   -0.0222   -0.0476   -0.0584   -0.0000   -0.0000    0.0000    0.0424
           3    0.0038    0.0000    0.0000    0.0000   -0.0208    0.0132   -0.0366    0.0000
           4    0.0000    0.0473   -0.0278   -0.0565   -0.0000   -0.0000   -0.0000   -0.0242
           5    0.0000   -0.0333    0.0180    0.0278    0.0000   -0.0000    0.0000    0.0256
           6   -0.0020   -0.0000    0.0000    0.0000   -0.0015   -0.0055    0.0056    0.0000
           7   -0.0000    0.0230   -0.0357   -0.0374   -0.0000   -0.0000    0.0000    0.0074
           8   -0.0001   -0.0399   -0.0177   -0.0054   -0.0000   -0.0000    0.0000    0.0226
           9    0.0569    0.0000   -0.0000   -0.0000   -0.0095   -0.0174    0.0152   -0.0000
          10    0.0000   -0.0275    0.0136    0.0105   -0.0000   -0.0000   -0.0000   -0.0054
          11   -0.0001   -0.0396   -0.0027    0.0002    0.0000    0.0000   -0.0000   -0.0043
          12   -0.0388    0.0000    0.0000   -0.0000    0.0586    0.0403    0.0032   -0.0000
          13    0.0001   -0.0182    0.0205    0.0243    0.0000   -0.0000    0.0000    0.0258
          14    0.0000    0.0142   -0.0415    0.0270    0.0000    0.0000    0.0000   -0.0188
          15   -0.0350    0.0000    0.0000    0.0001   -0.0537   -0.0114    0.0256    0.0000
          16    0.0000    0.0092   -0.0096    0.0741    0.0000    0.0000   -0.0000   -0.0126
          17    0.0000   -0.0059   -0.0329   -0.0090   -0.0000   -0.0000    0.0000    0.0058
          18   -0.0039    0.0000    0.0000    0.0000   -0.0035    0.0125   -0.0102    0.0000
          19    0.0000    0.0234    0.0692   -0.0144   -0.0000   -0.0000    0.0000    0.0651
          20    0.0000    0.0540   -0.0296    0.0311    0.0000   -0.0000   -0.0000   -0.0298
          21    0.0362   -0.0000   -0.0000   -0.0000    0.0116   -0.0220   -0.0087    0.0000
          22   -0.0000   -0.0724   -0.0208    0.0195    0.0000    0.0000   -0.0000   -0.0300
          23   -0.0000   -0.0133    0.0518   -0.0160   -0.0000    0.0000   -0.0000   -0.0324
          24   -0.0102   -0.0000   -0.0000    0.0000    0.0022   -0.0165   -0.0185    0.0000
          25   -0.0000    0.0010    0.0153   -0.0156   -0.0000    0.0000   -0.0000   -0.0104
          26    0.0000    0.0790    0.0204    0.0337    0.0000   -0.0000    0.0000    0.0307
          27   -0.0325   -0.0000    0.0000    0.0000   -0.0126   -0.0251   -0.0036   -0.0000
          28   -0.0000   -0.0157    0.0175   -0.0214   -0.0000    0.0000   -0.0000   -0.0318
          29    0.0000    0.0122    0.0736   -0.0314   -0.0000    0.0000   -0.0000   -0.0365
          30    0.0189   -0.0000   -0.0000   -0.0000    0.0232   -0.0038   -0.0194    0.0000
          31   -0.0481    0.0013   -0.0308    0.0262    0.0252    0.0339   -0.0224    0.0531
          32   -0.0576   -0.0219   -0.0516   -0.0677    0.0701   -0.0452    0.1104    0.0486
          33   -0.0463   -0.0011   -0.0022   -0.0041    0.0364   -0.0171    0.0453    0.0070
          34    0.0479    0.0013   -0.0309    0.0261   -0.0252   -0.0339    0.0224    0.0529
          35    0.0576   -0.0219   -0.0517   -0.0677   -0.0702    0.0451   -0.1103    0.0486
          36   -0.0463    0.0011    0.0023    0.0042    0.0365   -0.0171    0.0454   -0.0070
          37   -0.0546    0.0658   -0.0008   -0.0543    0.0144    0.0351   -0.0279   -0.0781
          38    0.0283   -0.0336    0.0241    0.0338   -0.0079   -0.0193    0.0150    0.0233
          39   -0.0289    0.0016   -0.0011   -0.0032    0.0061    0.0127   -0.0084   -0.0031
          40    0.0544    0.0659   -0.0003   -0.0540   -0.0144   -0.0348    0.0276   -0.0785
          41   -0.0281   -0.0336    0.0239    0.0336    0.0079    0.0192   -0.0149    0.0234
          42   -0.0289   -0.0016    0.0011    0.0032    0.0061    0.0127   -0.0084    0.0031
          43    0.0003    0.0367   -0.0596   -0.0767   -0.0001   -0.0002    0.0002    0.0097
          44   -0.0001   -0.0194    0.0583    0.0518    0.0001    0.0001   -0.0001   -0.0192
          45   -0.0354    0.0000   -0.0001   -0.0000    0.0081    0.0151   -0.0104    0.0000
          46   -0.0000    0.0136   -0.0146    0.0747   -0.0000    0.0000   -0.0000   -0.0131
          47    0.0001   -0.0348   -0.0031   -0.0072    0.0000   -0.0000    0.0000    0.0154
          48    0.0452    0.0000    0.0000   -0.0002    0.2123   -0.0975    0.1592   -0.0002
          49   -0.0000    0.0250    0.0668   -0.0173   -0.0000   -0.0001    0.0000    0.0548
          50   -0.0000    0.0674   -0.0417    0.0110    0.0000    0.0000   -0.0000   -0.1038
          51    0.1350   -0.0001   -0.0001   -0.0001    0.0734    0.1879   -0.0171    0.0001
          52   -0.0000    0.0169   -0.0530    0.0265    0.0000   -0.0000   -0.0000   -0.0388
          53    0.0000    0.0845   -0.0021    0.0478   -0.0000    0.0001    0.0000    0.0201
          54   -0.0760    0.0001    0.0001    0.0000   -0.0845    0.1662    0.1045    0.0001
          55   -0.0000    0.0424    0.0157   -0.0108   -0.0000   -0.0000   -0.0000    0.0192
          56    0.0000   -0.0312    0.0753   -0.0389   -0.0000    0.0000   -0.0000   -0.0769
          57    0.1165   -0.0001   -0.0001   -0.0000   -0.0396    0.1561    0.1359   -0.0001
          58   -0.0000   -0.0727   -0.0180    0.0237    0.0001    0.0000   -0.0000   -0.0325
          59    0.0001   -0.0187    0.0654    0.0086   -0.0000    0.0000    0.0000   -0.0439
          60    0.0419   -0.0000   -0.0000    0.0001   -0.1839    0.0079    0.1183   -0.0002


   Root No.      17        18        19        20        21        22        23        24

                17 A      18 A      19 A      20 A      21 A      22 A      23 A      24 A   

                 863.9     891.5     899.4     943.5     964.5     985.1    1003.1    1037.4
  
           1    0.0000   -0.0147    0.0000   -0.0269    0.0000    0.0000    0.0000    0.0031
           2   -0.0000   -0.0062   -0.0000   -0.0388    0.0000    0.0000    0.0000   -0.0187
           3   -0.0219    0.0002    0.0303   -0.0001   -0.0126   -0.0230   -0.0075    0.0074
           4    0.0000    0.0141   -0.0000    0.0345   -0.0000   -0.0000   -0.0000    0.0022
           5   -0.0000   -0.0083    0.0001    0.0345   -0.0000   -0.0000   -0.0000   -0.0056
           6    0.0118   -0.0001   -0.0193   -0.0000   -0.0131   -0.0226   -0.0094    0.0213
           7    0.0000    0.0019   -0.0000    0.0114   -0.0000   -0.0000   -0.0000   -0.0022
           8   -0.0000    0.0064   -0.0000    0.0143   -0.0000    0.0000    0.0000    0.0040
           9    0.0111   -0.0000   -0.0041    0.0001    0.0110    0.0220    0.0123   -0.0387
          10   -0.0000    0.0275   -0.0001   -0.0052    0.0000   -0.0000   -0.0000   -0.0032
          11   -0.0000    0.0106   -0.0000    0.0059   -0.0000    0.0000    0.0000    0.0024
          12   -0.0308   -0.0001   -0.0103   -0.0000    0.0062   -0.0075    0.0090    0.0159
          13   -0.0000   -0.0304    0.0001    0.0036    0.0000    0.0000    0.0000    0.0029
          14    0.0000   -0.0286    0.0001   -0.0009    0.0000    0.0000    0.0000   -0.0002
          15    0.0241    0.0002    0.0250   -0.0000    0.0026   -0.0162   -0.0156   -0.0112
          16    0.0000   -0.0604    0.0002    0.0025   -0.0000    0.0000    0.0000   -0.0209
          17    0.0000   -0.0347    0.0001    0.0011    0.0000    0.0000   -0.0000    0.0108
          18    0.0105   -0.0002   -0.0353    0.0001    0.0136    0.0381    0.0079    0.0157
          19   -0.0000    0.0204   -0.0000   -0.0007    0.0000    0.0000   -0.0000   -0.0041
          20    0.0000    0.0218   -0.0001    0.0014   -0.0000   -0.0000    0.0000    0.0018
          21   -0.0247   -0.0001   -0.0083   -0.0000   -0.0314    0.0121    0.0373    0.0062
          22   -0.0000    0.0859   -0.0002    0.0034   -0.0000   -0.0000    0.0000    0.0020
          23    0.0000    0.0085   -0.0000   -0.0007   -0.0000   -0.0000   -0.0000    0.0000
          24    0.0241    0.0001    0.0099   -0.0000   -0.0318    0.0198   -0.0310   -0.0086
          25    0.0000   -0.0224    0.0001   -0.0034    0.0000   -0.0000    0.0000   -0.0027
          26   -0.0000    0.0603   -0.0002    0.0042    0.0000    0.0000   -0.0000    0.0016
          27   -0.0219   -0.0001   -0.0134    0.0000    0.0236   -0.0019   -0.0462   -0.0055
          28    0.0000   -0.0330    0.0001    0.0002   -0.0000    0.0000   -0.0000    0.0035
          29    0.0000   -0.0352    0.0001   -0.0026   -0.0000   -0.0000    0.0000    0.0012
          30    0.0231    0.0001    0.0081    0.0000    0.0228   -0.0166    0.0428    0.0063
          31    0.0034    0.0162   -0.1201   -0.0772   -0.0487   -0.1041    0.0376   -0.0309
          32    0.0539   -0.0166   -0.0510   -0.0428    0.0375    0.0684    0.0103   -0.0398
          33    0.0199   -0.0031   -0.0247   -0.0086    0.0099    0.0161    0.0055   -0.0129
          34   -0.0034    0.0180    0.1200   -0.0771    0.0489    0.1044   -0.0377    0.2786
          35   -0.0539   -0.0160    0.0510   -0.0431   -0.0374   -0.0684   -0.0103   -0.0572
          36    0.0200    0.0028   -0.0247    0.0087    0.0099    0.0161    0.0055   -0.0000
          37   -0.0572    0.0269    0.0868   -0.1358    0.0543    0.0898    0.0376   -0.0630
          38    0.0320   -0.0098   -0.0485    0.0035   -0.0308   -0.0509   -0.0216    0.0417
          39   -0.0182    0.0020    0.0260    0.0032    0.0157    0.0248    0.0108   -0.0215
          40    0.0568    0.0258   -0.0865   -0.1383   -0.0537   -0.0888   -0.0372    0.0998
          41   -0.0318   -0.0092    0.0483    0.0048    0.0306    0.0506    0.0214   -0.0526
          42   -0.0183   -0.0016    0.0261   -0.0032    0.0157    0.0248    0.0108   -0.0240
          43    0.0003    0.0139   -0.0005    0.2075   -0.0005   -0.0007   -0.0003   -0.0044
          44   -0.0001   -0.0068    0.0002   -0.1870    0.0003    0.0004    0.0001    0.0039
          45   -0.0214    0.0002    0.0310    0.0001    0.0188    0.0303    0.0130   -0.0284
          46    0.0000   -0.0519    0.0001   -0.0106    0.0000    0.0000    0.0000   -0.0463
          47    0.0000   -0.1065    0.0004    0.0797   -0.0001   -0.0000   -0.0000    0.1706
          48   -0.0405    0.0011    0.1505   -0.0003   -0.0259   -0.1053   -0.0299   -0.0253
          49   -0.0001    0.0236   -0.0001   -0.0025   -0.0000    0.0000    0.0000   -0.0072
          50    0.0001    0.0454   -0.0002   -0.0095    0.0000   -0.0001   -0.0000   -0.0159
          51    0.1303    0.0002    0.0248    0.0001    0.1482   -0.0535   -0.1376   -0.0187
          52   -0.0000    0.0199   -0.0001    0.0006    0.0000   -0.0000   -0.0001   -0.0005
          53    0.0000    0.0765   -0.0002    0.0056   -0.0000   -0.0000    0.0000    0.0024
          54    0.1086    0.0006    0.0784   -0.0002   -0.1194    0.0122    0.1680    0.0153
          55    0.0000   -0.0667    0.0002    0.0020   -0.0000    0.0000    0.0000    0.0056
          56    0.0000   -0.0088   -0.0000   -0.0041   -0.0000   -0.0000    0.0000   -0.0004
          57   -0.1174   -0.0004   -0.0401   -0.0001   -0.1152    0.0711   -0.1533   -0.0183
          58    0.0000    0.1057   -0.0003   -0.0012   -0.0000    0.0000   -0.0000   -0.0012
          59   -0.0000    0.1152   -0.0004   -0.0268    0.0001   -0.0000   -0.0000   -0.0200
          60   -0.1272   -0.0003   -0.0406    0.0001    0.1509   -0.0849    0.1115    0.0274


   Root No.      25        26        27        28        29        30        31        32

                25 A      26 A      27 A      28 A      29 A      30 A      31 A      32 A   

                1037.4    1055.9    1101.3    1124.5    1150.1    1179.3    1209.2    1273.0
  
           1    0.0036    0.0067    0.0021   -0.0047    0.0017   -0.0027    0.0368   -0.0311
           2   -0.0216    0.0054    0.0119   -0.0053   -0.0023   -0.0086    0.0031    0.0228
           3   -0.0066   -0.0000   -0.0000    0.0000   -0.0000    0.0000    0.0000   -0.0000
           4    0.0025   -0.0054   -0.0030   -0.0006   -0.0026    0.0099   -0.0094    0.0083
           5   -0.0065    0.0152    0.0192   -0.0103   -0.0024   -0.0041    0.0042    0.0071
           6   -0.0191   -0.0000   -0.0000    0.0000    0.0000    0.0000   -0.0000    0.0000
           7   -0.0026    0.0022   -0.0037    0.0077    0.0066   -0.0138    0.0188   -0.0387
           8    0.0047   -0.0131   -0.0272    0.0214    0.0083    0.0017   -0.0142   -0.0162
           9    0.0347    0.0001    0.0000   -0.0000    0.0000   -0.0000    0.0000   -0.0000
          10   -0.0038    0.0171    0.0272   -0.0038    0.0083   -0.0297   -0.0060   -0.0142
          11    0.0029   -0.0216   -0.0309    0.0196    0.0049    0.0047   -0.0220    0.0001
          12   -0.0143   -0.0000   -0.0000    0.0000   -0.0000   -0.0000    0.0000   -0.0000
          13    0.0033    0.0017    0.0063    0.0018   -0.0070   -0.0149   -0.0195   -0.0065
          14   -0.0002   -0.0022   -0.0019   -0.0094   -0.0042    0.0277   -0.0102   -0.0093
          15    0.0101    0.0000    0.0000   -0.0000    0.0000   -0.0000   -0.0000    0.0000
          16   -0.0240   -0.0078   -0.0225    0.0040    0.0042    0.0066   -0.0038    0.0425
          17    0.0124    0.0060    0.0042   -0.0127   -0.0052    0.0205   -0.0146   -0.0401
          18   -0.0142   -0.0000   -0.0000    0.0000    0.0000   -0.0000    0.0000    0.0000
          19   -0.0046    0.0046   -0.0338   -0.0074   -0.0043    0.0181   -0.0080   -0.0029
          20    0.0020    0.0045    0.0094   -0.0063   -0.0047    0.0036    0.0112   -0.0039
          21   -0.0056    0.0000   -0.0000    0.0000   -0.0000    0.0000   -0.0000    0.0000
          22    0.0024   -0.0250   -0.0020   -0.0144    0.0007   -0.0002    0.0091    0.0094
          23    0.0000    0.0062    0.0029    0.0093   -0.0013   -0.0098   -0.0090   -0.0021
          24    0.0077    0.0000    0.0000   -0.0000   -0.0000    0.0000    0.0000    0.0000
          25   -0.0031    0.0259   -0.0098    0.0053   -0.0095    0.0199   -0.0005   -0.0054
          26    0.0019   -0.0292    0.0097   -0.0013    0.0009   -0.0087    0.0125    0.0096
          27    0.0049    0.0000   -0.0000    0.0000   -0.0000    0.0000   -0.0000   -0.0000
          28    0.0040   -0.0254    0.0272   -0.0077    0.0038    0.0039    0.0196    0.0064
          29    0.0013   -0.0084    0.0187   -0.0075   -0.0035   -0.0118    0.0042    0.0042
          30   -0.0057   -0.0000    0.0000    0.0000    0.0000   -0.0000    0.0000    0.0000
          31    0.2817    0.0480    0.0764   -0.0543   -0.0303    0.0315   -0.0811    0.0844
          32   -0.0638    0.0030    0.0075   -0.0013    0.0019   -0.0304    0.0489    0.1467
          33   -0.0015    0.0029    0.0054   -0.0031   -0.0010   -0.0099    0.0159    0.0931
          34    0.0034    0.0474    0.0761   -0.0543   -0.0303    0.0315   -0.0811    0.0845
          35   -0.0480    0.0031    0.0075   -0.0014    0.0019   -0.0303    0.0489    0.1466
          36    0.0132   -0.0028   -0.0054    0.0031    0.0010    0.0099   -0.0159   -0.0931
          37    0.0950   -0.0575   -0.0694    0.0351    0.0044    0.0201   -0.0541    0.0408
          38   -0.0489    0.0148    0.0194   -0.0090    0.0003   -0.0165    0.0221   -0.0274
          39    0.0218   -0.0040   -0.0055    0.0023   -0.0009    0.0079   -0.0136    0.0223
          40   -0.0507   -0.0583   -0.0702    0.0355    0.0045    0.0202   -0.0543    0.0407
          41    0.0357    0.0152    0.0198   -0.0092    0.0003   -0.0164    0.0220   -0.0271
          42    0.0191    0.0040    0.0055   -0.0023    0.0009   -0.0080    0.0135   -0.0224
          43   -0.0062    0.0158    0.0277   -0.0230   -0.0155    0.0302   -0.0466    0.0825
          44    0.0050   -0.0146   -0.0227    0.0194    0.0137   -0.0288    0.0454   -0.0806
          45    0.0255    0.0001    0.0001   -0.0001   -0.0000   -0.0001    0.0001   -0.0002
          46   -0.0534   -0.0094   -0.0039   -0.0085   -0.0072    0.0213   -0.0318    0.0230
          47    0.1967    0.0171   -0.1186    0.0638    0.0662   -0.0674    0.1585    0.0940
          48    0.0227    0.0000    0.0000   -0.0000   -0.0000    0.0000   -0.0000   -0.0000
          49   -0.0083    0.0348   -0.0547   -0.0234    0.0196   -0.0090   -0.0220   -0.0007
          50   -0.0187    0.1883   -0.1097   -0.1118    0.1571   -0.1756   -0.0683    0.0134
          51    0.0167   -0.0000   -0.0000    0.0000   -0.0000    0.0000    0.0000    0.0000
          52   -0.0008    0.1074    0.0284    0.2126   -0.2148   -0.1123   -0.0370    0.0119
          53    0.0028   -0.0031    0.0227    0.0660   -0.0675   -0.0544    0.0019    0.0166
          54   -0.0137    0.0001    0.0000    0.0000   -0.0000   -0.0000   -0.0000   -0.0000
          55    0.0065   -0.0691    0.1260    0.1136    0.2257   -0.0344   -0.0587    0.0013
          56   -0.0005    0.0241   -0.0529   -0.0983   -0.1714    0.0166    0.0652    0.0094
          57    0.0164    0.0000    0.0000    0.0000    0.0000    0.0000   -0.0000    0.0000
          58   -0.0014    0.0045    0.0050    0.0016    0.0206    0.0376    0.0235    0.0167
          59   -0.0235    0.1950    0.0355    0.1107    0.1100    0.2226    0.0708    0.0385
          60   -0.0245   -0.0001   -0.0000   -0.0000   -0.0000   -0.0000   -0.0000   -0.0000


   Root No.      33        34        35        36        37        38        39        40

                33 A      34 A      35 A      36 A      37 A      38 A      39 A      40 A   

                1339.8    1361.9    1374.9    1388.5    1389.6    1407.0    1491.9    1580.2
  
           1    0.0711   -0.0020   -0.0067   -0.0002    0.0099   -0.0039   -0.0419    0.0169
           2   -0.0153    0.0544   -0.0280   -0.0001    0.0011   -0.0210   -0.0135   -0.0133
           3    0.0000   -0.0000    0.0000    0.0004    0.0000    0.0000   -0.0000    0.0000
           4   -0.0171   -0.0167   -0.0281    0.0006   -0.0275   -0.0067   -0.0626    0.0441
           5    0.0220    0.0175    0.0179    0.0010   -0.0241   -0.0057    0.0293   -0.0206
           6    0.0001    0.0001    0.0002   -0.0440   -0.0010   -0.0000   -0.0000    0.0000
           7   -0.0420   -0.0084    0.0193    0.0002   -0.0092    0.0143    0.0852   -0.0747
           8   -0.0241   -0.0011    0.0311    0.0001    0.0032    0.0231    0.0033    0.0394
           9   -0.0000   -0.0000   -0.0000   -0.0010   -0.0000   -0.0000    0.0000    0.0000
          10   -0.0096    0.0075    0.0373    0.0000    0.0126   -0.0354    0.0113    0.1341
          11   -0.0043   -0.0067    0.0035    0.0000   -0.0008    0.0020   -0.0513    0.0236
          12    0.0000    0.0000    0.0000   -0.0002   -0.0000   -0.0000    0.0000    0.0000
          13   -0.0045    0.0037    0.0235    0.0001    0.0021    0.0375   -0.0827   -0.1028
          14    0.0089   -0.0126   -0.0119   -0.0001   -0.0026   -0.0091    0.0183    0.0188
          15   -0.0000    0.0000    0.0000   -0.0001   -0.0000    0.0000   -0.0000   -0.0000
          16   -0.0245    0.0134   -0.0215   -0.0000   -0.0053   -0.0076    0.0328    0.0168
          17    0.0309   -0.0256   -0.0106   -0.0000   -0.0052    0.0269    0.0319    0.0236
          18   -0.0000    0.0000    0.0000    0.0000    0.0000   -0.0000    0.0000   -0.0000
          19    0.0107   -0.0107   -0.0191   -0.0001   -0.0039   -0.0091    0.0283    0.0180
          20   -0.0167    0.0010    0.0324    0.0000    0.0090   -0.0373   -0.0248   -0.0421
          21    0.0000   -0.0000   -0.0000    0.0000   -0.0000    0.0000    0.0000    0.0000
          22    0.0160   -0.0075   -0.0298   -0.0001   -0.0067   -0.0048    0.0187   -0.0541
          23    0.0134   -0.0152   -0.0129   -0.0001   -0.0008   -0.0390    0.0102   -0.0406
          24   -0.0000    0.0000   -0.0000   -0.0000   -0.0000    0.0000    0.0000    0.0000
          25   -0.0108   -0.0051    0.0231   -0.0000    0.0085   -0.0551   -0.0223   -0.0314
          26   -0.0066    0.0114    0.0016    0.0000   -0.0007    0.0230   -0.0075    0.0134
          27    0.0000   -0.0000    0.0000   -0.0000    0.0000   -0.0000    0.0000   -0.0000
          28   -0.0106    0.0180    0.0061    0.0001   -0.0020    0.0601   -0.0033    0.0445
          29    0.0095    0.0007   -0.0138   -0.0000   -0.0026    0.0039    0.0134   -0.0155
          30   -0.0000    0.0000    0.0000    0.0000    0.0000    0.0000   -0.0000    0.0000
          31   -0.0609   -0.0201   -0.0125   -0.0017   -0.0150    0.0025    0.0408   -0.0142
          32    0.0292   -0.1371    0.0601   -0.0005   -0.0001    0.0197   -0.0029    0.0040
          33    0.0144   -0.1250    0.0556   -0.0003   -0.0035    0.0260    0.0142    0.0092
          34   -0.0609   -0.0201   -0.0125    0.0020   -0.0149    0.0025    0.0407   -0.0143
          35    0.0292   -0.1370    0.0601    0.0007   -0.0001    0.0197   -0.0029    0.0040
          36   -0.0144    0.1251   -0.0556   -0.0005    0.0035   -0.0260   -0.0142   -0.0092
          37    0.0865    0.0614    0.0817   -0.2247    0.1083    0.0262    0.0811   -0.0336
          38   -0.0701   -0.0482   -0.0673   -0.1281    0.2259    0.0151   -0.0064   -0.0047
          39    0.0629    0.0457    0.0610    0.0562   -0.1564   -0.0116    0.0302   -0.0126
          40    0.0864    0.0609    0.0805    0.2203    0.1159    0.0265    0.0817   -0.0338
          41   -0.0696   -0.0482   -0.0678    0.1141    0.2288    0.0151   -0.0060   -0.0049
          42   -0.0631   -0.0461   -0.0618    0.0486    0.1611    0.0119   -0.0298    0.0123
          43    0.0948    0.0529    0.0230   -0.0036    0.1142   -0.0014    0.0206   -0.0100
          44   -0.1099   -0.0634   -0.0396    0.0015   -0.1598   -0.0077   -0.0592    0.0394
          45   -0.0006   -0.0009   -0.0019    0.4308    0.0075    0.0002    0.0001    0.0000
          46   -0.0192    0.0027   -0.0223    0.0000   -0.0081    0.0087    0.0389    0.0170
          47    0.0004    0.0467   -0.0245   -0.0002    0.0089   -0.0685    0.0106    0.0330
          48   -0.0000   -0.0000   -0.0000   -0.0001   -0.0000    0.0000    0.0000    0.0000
          49    0.0183   -0.0097   -0.0314   -0.0001   -0.0081    0.0157    0.0310    0.0229
          50    0.0239    0.0164   -0.0334    0.0001   -0.0152    0.1275   -0.0226   -0.0100
          51    0.0000    0.0000   -0.0000   -0.0001   -0.0000   -0.0000    0.0000    0.0000
          52    0.0507   -0.0079   -0.0755   -0.0001   -0.0187    0.0579    0.0544    0.0297
          53    0.0130    0.0124   -0.0309    0.0000   -0.0099    0.0651    0.0168    0.0363
          54    0.0000   -0.0000    0.0000    0.0000   -0.0000   -0.0000    0.0000   -0.0000
          55    0.0467   -0.0290   -0.0523   -0.0002   -0.0085   -0.0355    0.0292   -0.0492
          56   -0.0329    0.0375    0.0280    0.0002    0.0016    0.0815   -0.0087    0.0554
          57    0.0000   -0.0000   -0.0000    0.0001   -0.0000   -0.0000   -0.0000   -0.0000
          58    0.0108    0.0013   -0.0292   -0.0000   -0.0074    0.0241    0.0158   -0.0500
          59   -0.0238    0.0380    0.0054    0.0001   -0.0001    0.1290   -0.0290    0.0051
          60    0.0000   -0.0000   -0.0000    0.0005   -0.0000   -0.0000    0.0000   -0.0000


   Root No.      41        42        43        44        45        46        47        48

                41 A      42 A      43 A      44 A      45 A      46 A      47 A      48 A   

                1754.5    1790.0    1822.8    1886.6    2978.7    3046.8    3050.7    3056.3
  
           1    0.0031   -0.0011   -0.0046   -0.0049    0.0000   -0.0069   -0.0000    0.0000
           2    0.0093    0.0006   -0.0017   -0.0002   -0.0000   -0.0411   -0.0002    0.0004
           3   -0.0000    0.0000    0.0000    0.0000   -0.0609   -0.0000   -0.0000   -0.0000
           4    0.0069    0.0021   -0.0261   -0.0192    0.0000    0.0003   -0.0015    0.0017
           5   -0.0036   -0.0020    0.0184    0.0149    0.0000    0.0005   -0.0023    0.0027
           6   -0.0000    0.0000   -0.0000   -0.0000    0.0001    0.0000    0.0000    0.0000
           7   -0.0205    0.0016    0.0537    0.0377    0.0000   -0.0005   -0.0001    0.0001
           8    0.0116    0.0200   -0.1073   -0.1134    0.0000   -0.0009   -0.0000    0.0001
           9    0.0000   -0.0000    0.0000    0.0000   -0.0003    0.0000    0.0000   -0.0000
          10   -0.0177    0.0165    0.0115    0.0148    0.0000    0.0004    0.0002   -0.0001
          11   -0.0331   -0.0117    0.0971    0.1510    0.0000    0.0010    0.0001   -0.0005
          12    0.0000    0.0000   -0.0000   -0.0000   -0.0002   -0.0000    0.0000    0.0000
          13    0.0013    0.0287    0.0050   -0.0268   -0.0000   -0.0000    0.0003   -0.0000
          14   -0.0575    0.1074    0.1121   -0.1047   -0.0000    0.0011    0.0002   -0.0002
          15    0.0000   -0.0000   -0.0000    0.0000   -0.0002   -0.0000   -0.0000   -0.0000
          16    0.0172   -0.0360   -0.0353    0.0197    0.0000    0.0012   -0.0000   -0.0001
          17    0.0188   -0.0894   -0.0631    0.0595    0.0000   -0.0007   -0.0001    0.0000
          18    0.0000    0.0000    0.0000   -0.0000   -0.0003    0.0000   -0.0000   -0.0000
          19    0.0610    0.0687   -0.0015    0.0255   -0.0000   -0.0001   -0.0066   -0.0178
          20    0.1099    0.0672   -0.0629    0.0750    0.0000   -0.0002    0.0016    0.0038
          21   -0.0000   -0.0000    0.0000   -0.0000   -0.0001   -0.0000   -0.0000   -0.0000
          22   -0.0311    0.0086   -0.0357   -0.0090    0.0000    0.0003   -0.0227    0.0197
          23    0.1403   -0.0711    0.0540   -0.0791   -0.0000   -0.0002    0.0033   -0.0036
          24   -0.0000    0.0000   -0.0000    0.0000   -0.0001    0.0000   -0.0000    0.0000
          25   -0.1108   -0.0900   -0.0024   -0.0383   -0.0000    0.0002    0.0050    0.0088
          26   -0.0658   -0.0837    0.0244   -0.0378    0.0000   -0.0003   -0.0169   -0.0275
          27   -0.0000    0.0000   -0.0000    0.0000   -0.0000    0.0000    0.0000    0.0000
          28    0.0928   -0.0117    0.0500   -0.0131   -0.0000   -0.0003    0.0161   -0.0043
          29   -0.1188    0.0634   -0.0754    0.0375   -0.0000   -0.0003    0.0215   -0.0038
          30    0.0000   -0.0000    0.0000   -0.0000   -0.0000   -0.0000   -0.0000   -0.0000
          31    0.0005   -0.0155    0.0089    0.0224   -0.0482    0.0421    0.0002   -0.0004
          32   -0.0005    0.0056    0.0035   -0.0030   -0.2814    0.2449    0.0010   -0.0023
          33   -0.0094    0.0044    0.0106    0.0022    0.3702   -0.3808   -0.0016    0.0035
          34    0.0005   -0.0154    0.0089    0.0224    0.0480    0.0420    0.0002   -0.0004
          35   -0.0005    0.0056    0.0035   -0.0030    0.2814    0.2453    0.0011   -0.0023
          36    0.0094   -0.0044   -0.0106   -0.0022    0.3698    0.3810    0.0017   -0.0035
          37   -0.0007    0.0015   -0.0061   -0.0089   -0.0001    0.0002   -0.0013    0.0016
          38   -0.0022   -0.0010    0.0091    0.0084   -0.0007   -0.0019    0.0048   -0.0062
          39   -0.0006   -0.0002    0.0042    0.0014   -0.0009   -0.0031    0.0086   -0.0108
          40   -0.0007    0.0015   -0.0062   -0.0090    0.0001    0.0002   -0.0013    0.0015
          41   -0.0023   -0.0011    0.0093    0.0086    0.0006   -0.0017    0.0051   -0.0062
          42    0.0005    0.0002   -0.0041   -0.0013   -0.0008    0.0028   -0.0089    0.0107
          43    0.0016   -0.0034    0.0093    0.0101   -0.0000   -0.0043    0.0209   -0.0238
          44    0.0019    0.0050   -0.0240   -0.0207   -0.0000   -0.0034    0.0168   -0.0192
          45   -0.0000    0.0000   -0.0000   -0.0000   -0.0000   -0.0000    0.0001   -0.0001
          46    0.0266   -0.0708   -0.0647    0.0425   -0.0000   -0.0127   -0.0003    0.0005
          47   -0.0002    0.0187    0.0129   -0.0093   -0.0000   -0.0034    0.0000    0.0003
          48    0.0000   -0.0000   -0.0000    0.0000   -0.0008   -0.0000    0.0000    0.0000
          49    0.0522    0.0729    0.0123    0.0153    0.0000    0.0026    0.0802    0.2155
          50   -0.0312   -0.0278    0.0246   -0.0346   -0.0000   -0.0004   -0.0137   -0.0355
          51    0.0000    0.0000    0.0000    0.0000    0.0001    0.0000    0.0000    0.0001
          52    0.0059    0.0798   -0.0196    0.0265    0.0000   -0.0014   -0.0624   -0.1069
          53   -0.0428   -0.0456    0.0221   -0.0237   -0.0001    0.0043    0.1938    0.3185
          54   -0.0000    0.0000   -0.0000    0.0000    0.0001   -0.0000   -0.0001   -0.0001
          55   -0.0395    0.0674   -0.0567    0.0272    0.0000    0.0026   -0.1901    0.0453
          56   -0.0416    0.0163   -0.0103    0.0131    0.0000    0.0035   -0.2524    0.0546
          57   -0.0000    0.0000   -0.0000   -0.0000    0.0001    0.0000    0.0000    0.0000
          58   -0.0738    0.0322   -0.0596    0.0137   -0.0000   -0.0047    0.2665   -0.2297
          59   -0.0142    0.0175    0.0011    0.0331    0.0000    0.0007   -0.0425    0.0379
          60   -0.0000    0.0000   -0.0000   -0.0000    0.0000   -0.0000    0.0001   -0.0001


   Root No.      49        50        51        52        53        54

                49 A      50 A      51 A      52 A      53 A      54 A   

                3064.0    3068.5    3072.6    3077.7    3148.4    3162.3
  
           1   -0.0000    0.0001    0.0001    0.0000   -0.0002   -0.0001
           2   -0.0000   -0.0001   -0.0003   -0.0001   -0.0020   -0.0001
           3   -0.0002    0.0000   -0.0000    0.0000   -0.0000    0.0000
           4   -0.0001   -0.0069   -0.0169   -0.0021   -0.0004    0.0218
           5   -0.0001   -0.0117   -0.0299   -0.0039    0.0002   -0.0112
           6   -0.0575    0.0001    0.0000   -0.0000   -0.0000    0.0000
           7    0.0000    0.0000    0.0002    0.0000    0.0013    0.0002
           8   -0.0000   -0.0003   -0.0003    0.0001   -0.0002   -0.0002
           9   -0.0001    0.0000    0.0000   -0.0000    0.0000   -0.0000
          10   -0.0000    0.0002   -0.0004    0.0000    0.0014   -0.0000
[...]
 FREQ.      1339.78         C  1 -- C  3         +17.1% ( 61.9%)     83.5%
 T-DIPOLE    0.0680         C  1 -- C  6         +15.2% ( 58.4%)     86.1%
 TRAVEL      0.0796         C  1 -- H 11         +10.0% ( 47.2%)      0.0%
 RED. MASS   1.4991         C  1 -- H 12         +10.0% ( 47.2%)      0.0%
 EFF. MASS   7.9376

 VIBRATION   34   34A         ATOM PAIR      ENERGY CONTRIBUTION    RADIAL
 FREQ.      1361.88         C  1 -- H 11         +18.0% ( 54.8%)      6.8%
 T-DIPOLE    0.2753         C  1 -- H 12         +18.0% ( 54.8%)      6.8%
 TRAVEL      0.0968         C  1 -- C  6         +15.4% ( 50.7%)     72.9%
 RED. MASS   0.7178         C  1 -- C  3         +10.2% ( 41.3%)     32.8%
 EFF. MASS   5.2894

 VIBRATION   35   35A         ATOM PAIR      ENERGY CONTRIBUTION    RADIAL
 FREQ.      1374.91         C  4 -- C  8          +8.7% ( 44.3%)     62.2%
 T-DIPOLE    0.2594         C  5 -- C  7          +7.6% ( 41.3%)     83.4%
 TRAVEL      0.0777         C  3 -- C  4          +6.6% ( 38.5%)     84.2%
 RED. MASS   0.6128         C  1 -- C  3          +6.4% ( 38.0%)     62.4%
 EFF. MASS   8.1155

 VIBRATION   36   36A         ATOM PAIR      ENERGY CONTRIBUTION    RADIAL
 FREQ.      1388.52         C  2 -- H 15         +54.6% ( 63.9%)      0.0%
 T-DIPOLE    0.0755         C  2 -- H 13         +21.0% ( 39.6%)     10.8%
 TRAVEL      0.1756         C  2 -- H 14         +19.2% ( 37.9%)     12.7%
 RED. MASS   0.4273         C  2 -- C  3          +5.2% ( 19.7%)      0.0%
 EFF. MASS   1.5756

 VIBRATION   37   37A         ATOM PAIR      ENERGY CONTRIBUTION    RADIAL
 FREQ.      1389.59         C  2 -- H 14         +34.8% ( 53.9%)      0.7%
 T-DIPOLE    0.0379         C  2 -- H 13         +33.2% ( 52.7%)      1.0%
 TRAVEL      0.1593         C  2 -- H 15         +14.9% ( 35.3%)     26.6%
 RED. MASS   0.3535         C  2 -- C  3          +4.8% ( 20.1%)      0.7%
 EFF. MASS   1.9126

 VIBRATION   38   38A         ATOM PAIR      ENERGY CONTRIBUTION    RADIAL
 FREQ.      1407.04         C  9 -- C 10         +17.9% ( 63.8%)    100.0%
 T-DIPOLE    0.3229         C  8 -- C 10          +8.4% ( 43.6%)      3.7%
 TRAVEL      0.0723         C  7 -- C  9          +8.1% ( 42.9%)      4.1%
 RED. MASS   1.0920         C  4 -- C  5          +6.6% ( 38.8%)    100.0%
 EFF. MASS   9.1560

 VIBRATION   39   39A         ATOM PAIR      ENERGY CONTRIBUTION    RADIAL
 FREQ.      1491.93         C  2 -- C  3         +12.7% ( 60.3%)     89.1%
 T-DIPOLE    0.5676         C  3 -- C  5         +11.8% ( 58.1%)     61.7%
 TRAVEL      0.0636         C  4 -- C  5          +9.2% ( 51.4%)     79.2%
 RED. MASS   1.7916         C  5 -- C  6          +9.0% ( 50.8%)     33.6%
 EFF. MASS  11.1793

 VIBRATION   40   40A         ATOM PAIR      ENERGY CONTRIBUTION    RADIAL
 FREQ.      1580.22         C  4 -- C  5         +18.1% ( 70.6%)     96.7%
 T-DIPOLE    0.4296         C  4 -- C  8         +13.8% ( 61.7%)     70.6%
 TRAVEL      0.0602         C  3 -- C  4         +13.2% ( 60.4%)      5.8%
 RED. MASS   2.4755         C  4 -- C  6          +8.6% ( 48.6%)     83.0%
 EFF. MASS  11.7834

 VIBRATION   41   41A         ATOM PAIR      ENERGY CONTRIBUTION    RADIAL
 FREQ.      1754.46         C  8 -- C 10         +22.4% ( 73.3%)     99.7%
 T-DIPOLE    0.6760         C  7 -- C  9         +16.5% ( 63.0%)     99.7%
 TRAVEL      0.0566         C  9 -- C 10         +14.1% ( 58.2%)     99.2%
 RED. MASS   2.5747         C  4 -- C  8          +8.0% ( 44.0%)     54.0%
 EFF. MASS  11.9924

 VIBRATION   42   42A         ATOM PAIR      ENERGY CONTRIBUTION    RADIAL
 FREQ.      1789.98         C  7 -- C  9         +17.6% ( 65.2%)     99.1%
 T-DIPOLE    0.2585         C  5 -- C  6         +15.7% ( 61.6%)     96.6%
 TRAVEL      0.0564         C  5 -- C  7          +9.0% ( 46.6%)     82.0%
 RED. MASS   2.1051         C  9 -- C 10          +8.7% ( 45.9%)     10.3%
 EFF. MASS  11.8298

 VIBRATION   43   43A         ATOM PAIR      ENERGY CONTRIBUTION    RADIAL
 FREQ.      1822.83         C  3 -- C  4         +14.4% ( 61.8%)     99.9%
 T-DIPOLE    0.7901         C  3 -- C  5         +11.4% ( 55.0%)     68.5%
 TRAVEL      0.0557         C  5 -- C  6         +10.6% ( 53.1%)     92.6%
 RED. MASS   1.8950         C  4 -- C  5          +8.5% ( 47.5%)     29.5%
 EFF. MASS  11.9175

 VIBRATION   44   44A         ATOM PAIR      ENERGY CONTRIBUTION    RADIAL
 FREQ.      1886.61         C  3 -- C  4         +18.2% ( 69.3%)     99.3%
 T-DIPOLE    0.8442         C  4 -- C  5         +12.7% ( 57.8%)      0.0%
 TRAVEL      0.0548         C  4 -- C  8         +11.5% ( 55.0%)     71.3%
 RED. MASS   2.3044         C  4 -- C  6          +8.8% ( 48.2%)     13.2%
 EFF. MASS  11.9183

 VIBRATION   45   45A         ATOM PAIR      ENERGY CONTRIBUTION    RADIAL
 FREQ.      2978.69         C  1 -- H 11         +49.0% ( 72.5%)     96.8%
 T-DIPOLE    0.1858         C  1 -- H 12         +48.9% ( 72.4%)     96.8%
 TRAVEL      0.1217         C  1 -- C  6          +1.0% ( 10.6%)      0.0%
 RED. MASS   0.5169         C  1 -- C  3          +1.0% ( 10.6%)      0.0%
 EFF. MASS   1.5297

 VIBRATION   46   46A         ATOM PAIR      ENERGY CONTRIBUTION    RADIAL
 FREQ.      3046.76         C  1 -- H 12         +49.3% ( 69.4%)     97.3%
 T-DIPOLE    0.3459         C  1 -- H 11         +49.2% ( 69.3%)     97.3%
 TRAVEL      0.1311         C  1 -- C  3          +0.7% (  8.4%)     37.0%
 RED. MASS   0.4835         C  1 -- C  6          +0.7% (  8.4%)     35.2%
 EFF. MASS   1.2873

 VIBRATION   47   47A         ATOM PAIR      ENERGY CONTRIBUTION    RADIAL
 FREQ.      3050.69         C 10 -- H 19         +43.8% ( 67.3%)    100.0%
 T-DIPOLE    0.1835         C  8 -- H 20         +32.0% ( 57.5%)    100.0%
 TRAVEL      0.1221         C  9 -- H 18         +18.3% ( 43.4%)    100.0%
 RED. MASS   0.3222         C  7 -- H 17          +2.9% ( 17.4%)     99.9%
 EFF. MASS   1.4819

 VIBRATION   48   48A         ATOM PAIR      ENERGY CONTRIBUTION    RADIAL
 FREQ.      3056.32         C  9 -- H 18         +49.7% ( 71.6%)    100.0%
 T-DIPOLE    0.3026         C  8 -- H 20         +23.9% ( 49.6%)    100.0%
 TRAVEL      0.1222         C  7 -- H 17         +21.0% ( 46.5%)    100.0%
 RED. MASS   0.3424         C 10 -- H 19          +2.2% ( 15.0%)     99.3%
 EFF. MASS   1.4768

 VIBRATION   49   49A         ATOM PAIR      ENERGY CONTRIBUTION    RADIAL
 FREQ.      3064.01         C  2 -- H 13         +49.5% ( 72.6%)     97.1%
 T-DIPOLE    0.0291         C  2 -- H 14         +48.6% ( 71.9%)     97.0%
 TRAVEL      0.1210         C  2 -- C  3          +1.0% ( 10.2%)      0.0%
 RED. MASS   0.5096         C  2 -- H 15          +0.9% (  9.9%)      0.1%
 EFF. MASS   1.5024

 VIBRATION   50   50A         ATOM PAIR      ENERGY CONTRIBUTION    RADIAL
 FREQ.      3068.52         C 10 -- H 19         +34.3% ( 59.6%)     99.9%
 T-DIPOLE    0.4338         C  8 -- H 20         +27.4% ( 53.3%)     99.9%
 TRAVEL      0.1188         C  7 -- H 17         +21.8% ( 47.5%)    100.0%
 RED. MASS   0.2514         C  2 -- H 15          +8.8% ( 30.1%)     98.9%
 EFF. MASS   1.5578

 VIBRATION   51   51A         ATOM PAIR      ENERGY CONTRIBUTION    RADIAL
 FREQ.      3072.64         C  2 -- H 15         +53.1% ( 75.0%)     98.8%
 T-DIPOLE    0.1639         C  2 -- H 14         +15.9% ( 41.1%)     85.7%
 TRAVEL      0.1201         C  2 -- H 13         +15.3% ( 40.2%)     85.0%
 RED. MASS   0.3575         C  8 -- H 20          +6.2% ( 25.6%)    100.0%
 EFF. MASS   1.5203

 VIBRATION   52   52A         ATOM PAIR      ENERGY CONTRIBUTION    RADIAL
 FREQ.      3077.68         C  7 -- H 17         +45.5% ( 68.4%)    100.0%
 T-DIPOLE    0.3394         C  9 -- H 18         +27.9% ( 53.6%)     99.9%
 TRAVEL      0.1171         C 10 -- H 19         +14.7% ( 38.9%)    100.0%
 RED. MASS   0.3124         C  8 -- H 20          +7.0% ( 26.9%)     99.9%
 EFF. MASS   1.5979

 VIBRATION   53   53A         ATOM PAIR      ENERGY CONTRIBUTION    RADIAL
 FREQ.      3148.40         C  6 -- H 16         +95.0% ( 99.9%)    100.0%
 T-DIPOLE    0.4989         C  5 -- C  6          +1.7% ( 13.4%)     49.0%
 TRAVEL      0.1175         C  4 -- C  6          +1.6% ( 13.0%)     95.5%
 RED. MASS   0.9291         C  1 -- C  6          +1.6% ( 13.0%)     27.5%
 EFF. MASS   1.5505

 VIBRATION   54   54A         ATOM PAIR      ENERGY CONTRIBUTION    RADIAL
 FREQ.      3162.28         C  2 -- H 15         +35.8% ( 57.6%)     97.5%
 T-DIPOLE    0.0664         C  2 -- H 14         +31.9% ( 54.4%)     96.9%
 TRAVEL      0.1368         C  2 -- H 13         +31.9% ( 54.4%)     96.9%
 RED. MASS   0.3276         C  2 -- C  3          +0.3% (  5.5%)     99.8%
 EFF. MASS   1.1393

      SYMMETRY NUMBER FOR POINT-GROUP C1  =  1


          SYSTEM IS A GROUND STATE



 InChI=1S/C10H10/c1-8-6-7-9-4-2-3-5-10(8)9/h2-5,7H,6H2,1H3


          MOLECULE IS NOT LINEAR

          THERE ARE 54 GENUINE VIBRATIONS IN THIS SYSTEM
          THIS THERMODYNAMICS CALCULATION IS LIMITED TO
          MOLECULES WHICH HAVE NO INTERNAL ROTATIONS




                    CALCULATED THERMODYNAMIC PROPERTIES
                                          *
   TEMP. (K)   PARTITION FUNCTION   H.O.F.    ENTHALPY  HEAT CAPACITY ENTROPY
                                   KCAL/MOL   CAL/MOLE    CAL/K/MOL  CAL/K/MOL


 298.00  VIB.     0.6955D+02                  3502.7804    27.1479    20.1841
         ROT.     0.5282D+06                   888.2813     2.9808    29.1667
         INT.     0.3674D+08                  4391.0617    30.1287    49.3508
         TRA.     0.1436D+28                  1480.4688     4.9680    40.5022
         TOT.                       48.017    5871.5306    35.0968    89.8529

 200.00  VIB.     0.1106D+02                  1398.7010    15.9941    11.7701
         ROT.     0.2904D+06                   596.1620     2.9808    27.9780
         INT.     0.3213D+07                  1994.8630    18.9749    39.7481
         TRA.     0.7896D+27                   993.6033     4.9680    38.5210
         TOT.                       45.134    2988.4662    23.9429    78.2691

 210.00  VIB.     0.1321D+02                  1563.9530    17.0604    12.5761
         ROT.     0.3125D+06                   625.9700     2.9808    28.1235
         INT.     0.4127D+07                  2189.9231    20.0412    40.6996
         TRA.     0.8496D+27                  1043.2834     4.9680    38.7634
         TOT.                       45.379    3233.2065    25.0093    79.4630

 220.00  VIB.     0.1581D+02                  1739.9879    18.1503    13.3948
         ROT.     0.3350D+06                   655.7781     2.9808    28.2621
         INT.     0.5297D+07                  2395.7661    21.1311    41.6570
         TRA.     0.9110D+27                  1092.9636     4.9680    38.9945
         TOT.                       45.634    3488.7296    26.0991    80.6515

 230.00  VIB.     0.1897D+02                  1927.0283    19.2611    14.2261
         ROT.     0.3582D+06                   685.5862     2.9808    28.3946
         INT.     0.6793D+07                  2612.6145    22.2419    42.6207
         TRA.     0.9738D+27                  1142.6437     4.9680    39.2154
         TOT.                       45.901    3755.2583    27.2099    81.8361

 240.00  VIB.     0.2281D+02                  2125.2708    20.3902    15.0696
         ROT.     0.3818D+06                   715.3943     2.9808    28.5215
         INT.     0.8708D+07                  2840.6651    23.3710    43.5911
         TRA.     0.1038D+28                  1192.3239     4.9680    39.4268
         TOT.                       46.179    4032.9890    28.3390    83.0179

 250.00  VIB.     0.2750D+02                  2334.8837    21.5347    15.9251
         ROT.     0.4059D+06                   745.2024     2.9808    28.6432
         INT.     0.1116D+08                  3080.0861    24.5155    44.5683
         TRA.     0.1103D+28                  1242.0041     4.9680    39.6296
         TOT.                       46.468    4322.0902    29.4835    84.1979

 260.00  VIB.     0.3322D+02                  2556.0058    22.6915    16.7923
         ROT.     0.4305D+06                   775.0105     2.9808    28.7601
         INT.     0.1430D+08                  3331.0163    25.6723    45.5523
         TRA.     0.1170D+28                  1291.6842     4.9680    39.8245
         TOT.                       46.768    4622.7005    30.6404    85.3768

 270.00  VIB.     0.4023D+02                  2788.7455    23.8577    17.6705
         ROT.     0.4555D+06                   804.8186     2.9808    28.8726
         INT.     0.1832D+08                  3593.5642    26.8385    46.5431
         TRA.     0.1239D+28                  1341.3644     4.9680    40.0120
         TOT.                       47.081    4934.9285    31.8066    86.5550

 280.00  VIB.     0.4882D+02                  3033.1815    25.0303    18.5593
         ROT.     0.4811D+06                   834.6267     2.9808    28.9810
         INT.     0.2349D+08                  3867.8082    28.0111    47.5403
         TRA.     0.1308D+28                  1391.0445     4.9680    40.1926
         TOT.                       47.404    5258.8528    32.9791    87.7329

 290.00  VIB.     0.5938D+02                  3289.3631    26.2064    19.4582
         ROT.     0.5071D+06                   864.4348     2.9808    29.0856
         INT.     0.3011D+08                  4153.7979    29.1872    48.5437
         TRA.     0.1379D+28                  1440.7247     4.9680    40.3670
         TOT.                       47.740    5594.5226    34.1552    88.9107

 300.00  VIB.     0.7237D+02                  3557.3116    27.3832    20.3664
         ROT.     0.5335D+06                   894.2429     2.9808    29.1866
         INT.     0.3861D+08                  4451.5545    30.3641    49.5531
         TRA.     0.1451D+28                  1490.4049     4.9680    40.5354
         TOT.                       48.088    5941.9594    35.3321    90.0885

 310.00  VIB.     0.8838D+02                  3837.0221    28.5584    21.2835
         ROT.     0.5604D+06                   924.0510     2.9808    29.2844
         INT.     0.4953D+08                  4761.0731    31.5392    50.5679
         TRA.     0.1524D+28                  1540.0850     4.9680    40.6983
         TOT.                       48.447    6301.1582    36.5072    91.2662

 320.00  VIB.     0.1082D+03                  4128.4650    29.7293    22.2087
         ROT.     0.5878D+06                   953.8591     2.9808    29.3790
         INT.     0.6357D+08                  5082.3241    32.7101    51.5877
         TRA.     0.1598D+28                  1589.7652     4.9680    40.8560
         TOT.                       48.818    6672.0893    37.6782    92.4437

 330.00  VIB.     0.1326D+03                  4431.5879    30.8940    23.1414
         ROT.     0.6155D+06                   983.6672     2.9808    29.4707
         INT.     0.8163D+08                  5415.2552    33.8749    52.6121
         TRA.     0.1674D+28                  1639.4454     4.9680    41.0089
         TOT.                       49.200    7054.7005    38.8429    93.6210

 340.00  VIB.     0.1629D+03                  4746.3183    32.0505    24.0808
         ROT.     0.6437D+06                  1013.4753     2.9808    29.5597
         INT.     0.1049D+09                  5759.7936    35.0313    53.6406
         TRA.     0.1750D+28                  1689.1255     4.9680    41.1572
         TOT.                       49.595    7448.9191    39.9993    94.7978

 350.00  VIB.     0.2005D+03                  5072.5648    33.1970    25.0265
         ROT.     0.6723D+06                  1043.2834     2.9808    29.6461
         INT.     0.1348D+09                  6115.8482    36.1778    54.6726
         TRA.     0.1828D+28                  1738.8057     4.9680    41.3012
         TOT.                       50.000    7854.6539    41.1458    95.9738

 360.00  VIB.     0.2471D+03                  5410.2197    34.3320    25.9776
         ROT.     0.7013D+06                  1073.0915     2.9808    29.7301
         INT.     0.1733D+09                  6483.3112    37.3128    55.7077
         TRA.     0.1907D+28                  1788.4859     4.9680    41.4412
         TOT.                       50.417    8271.7970    42.2808    97.1489

 370.00  VIB.     0.3051D+03                  5759.1610    35.4541    26.9336
         ROT.     0.7308D+06                  1102.8996     2.9808    29.8118
         INT.     0.2230D+09                  6862.0606    38.4349    56.7454
         TRA.     0.1987D+28                  1838.1660     4.9680    41.5773
         TOT.                       50.846    8700.2266    43.4029    98.3227

 380.00  VIB.     0.3774D+03                  6119.2541    36.5621    27.8938
         ROT.     0.7606D+06                  1132.7077     2.9808    29.8913
         INT.     0.2870D+09                  7251.9618    39.5430    57.7851
         TRA.     0.2068D+28                  1887.8462     4.9680    41.7098
         TOT.                       51.285    9139.8080    44.5110    99.4949

 390.00  VIB.     0.4674D+03                  6490.3538    37.6552    28.8577
         ROT.     0.7908D+06                  1162.5158     2.9808    29.9687
         INT.     0.3696D+09                  7652.8696    40.6360    58.8264
         TRA.     0.2150D+28                  1937.5263     4.9680    41.8388
         TOT.                       51.736    9590.3959    45.6041   100.6652

 400.00  VIB.     0.5798D+03                  6872.3060    38.7325    29.8247
         ROT.     0.8214D+06                  1192.3239     2.9808    30.0442
         INT.     0.4762D+09                  8064.6299    41.7133    59.8688
         TRA.     0.2233D+28                  1987.2065     4.9680    41.9646
         TOT.                       52.197   10051.8364    46.6813   101.8334

   *: NOTE: HEATS OF FORMATION ARE RELATIVE TO THE
            ELEMENTS IN THEIR STANDARD STATE AT 298K
              (=  Standard Enthalpy of Formation).

            Hvib:  Zero-point energy is not included.
                   frequencies of less than zero cm-1 are not included.
            Hrot = (3/2)RT
            Htra = (3/2)RT + pV = (5/2)RT

            Heat capacity is Cp, not Cv

          For more information, see: HTTP://OpenMOPAC.net/Manual/thermochemistry.html


           FORCE CONSTANT IN CARTESIAN COORDINATES (Millidynes/A)

    ATOM   CHEMICAL       X               Y               Z
   NUMBER   SYMBOL  FORCE CONSTANT  FORCE CONSTANT  FORCE CONSTANT

      1       C        7.732039        9.904633        7.700663
      2       C        9.181580        8.539146        7.908329
      3       C       11.257444       13.368025        2.652494
      4       C       10.946193       15.619818        2.405114
      5       C       10.542796       16.138863        2.410251
      6       C       12.586244       11.417806        2.245993
      7       C       12.520430       12.674955        2.248033
      8       C       11.415571       13.732622        2.246996
      9       C       11.848562       12.955717        2.241093
     10       C       10.853796       13.907544        2.238670
     11       H        0.642986        2.045988        3.538691
     12       H        0.642685        2.048126        3.536847
     13       H        0.672184        2.177255        3.766174
     14       H        0.670742        2.219028        3.726952
     15       H        3.424500        2.629899        0.651555
     16       H        5.321857        0.806144        0.317301
     17       H        5.069054        0.839540        0.342270
     18       H        1.194204        4.714921        0.343512
     19       H        2.347344        3.562219        0.342759
     20       H        5.025534        0.863900        0.342865

 **********************
 *                    *
 * JOB ENDED NORMALLY *
 *                    *
 **********************



 TOTAL JOB TIME:             2.97 SECONDS

 == MOPAC DONE ==
