 *******************************************************************************
 ** Site#: 14399        For non-commercial use only    Version 18.184L 64BITS **
 *******************************************************************************
 ** Cite this program as: MOPAC2016, Version: 18.184L, James J. P. Stewart,   **
 ** Stewart Computational Chemistry, web: HTTP://OpenMOPAC.net. Days left:  18**
 *******************************************************************************
 **                                                                           **
 **                                MOPAC2016                                  **
 **                                                                           **
 *******************************************************************************

                              PM3 CALCULATION RESULTS

 *******************************************************************************
 *  CALCULATION DONE:                                Sat Jun 15 10:14:05 2019  *
 *  PM3        - The PM3 Hamiltonian to be used
 *  PRECISE    - CRITERIA TO BE INCREASED BY 100 TIMES
 *  NOSYM      - POINT-GROUP SYMMETRY SET TO C1
 *  THREADS=1  - MULTI-THREADING NOT USED
 *  T=         - A TIME OF 172800.0 SECONDS REQUESTED
 *  DUMP=N     - RESTART FILE WRITTEN EVERY  7200.000 SECONDS
 *******************************************************************************
pm3  precise nosym THREADS=1
 InChI=1S/C10H10/c1-8-6-7-9-4-2-3-5-10(8)9/h2-5,7,10H,1,6H2

   ATOM   CHEMICAL          X               Y               Z
  NUMBER   SYMBOL      (ANGSTROMS)     (ANGSTROMS)     (ANGSTROMS)
 
     1       C         -0.15860000  *  -0.48850000  *   0.54860000  *
     2       C         -1.78960000  *   1.09840000  *  -0.40980000  *
     3       C         -1.47960000  *  -0.34110000  *  -0.13790000  *
     4       C          0.34730000  *   0.91410000  *   0.51200000  *
     5       C         -0.53760000  *   1.77720000  *   0.03110000  *
     6       C          0.81910000  *  -1.41270000  *  -0.14090000  *
     7       C          1.78690000  *   1.18470000  *   0.60940000  *
     8       C          2.13020000  *  -1.11700000  *  -0.17550000  *
     9       C          2.63590000  *   0.19870000  *   0.29430000  *
    10       C         -2.32910000  *  -1.34540000  *  -0.37900000  *
    11       H         -0.30770000  *  -0.81710000  *   1.59960000  *
    12       H         -1.95730000  *   1.26440000  *  -1.49510000  *
    13       H         -2.65770000  *   1.44520000  *   0.18980000  *
    14       H         -0.31310000  *   2.81590000  *  -0.17660000  *
    15       H          0.48500000  *  -2.38200000  *  -0.48910000  *
    16       H          2.83030000  *  -1.83670000  *  -0.57980000  *
    17       H          2.15420000  *   2.17590000  *   0.84440000  *
    18       H          3.70220000  *   0.38340000  *   0.30870000  *
    19       H         -2.06970000  *  -2.36490000  *  -0.11200000  *
    20       H         -3.29150000  *  -1.15230000  *  -0.84230000  *
 


          CARTESIAN COORDINATES 

    NO.       ATOM           X           Y           Z

     1         C         -0.1586     -0.4885      0.5486
     2         C         -1.7896      1.0984     -0.4098
     3         C         -1.4796     -0.3411     -0.1379
     4         C          0.3473      0.9141      0.5120
     5         C         -0.5376      1.7772      0.0311
     6         C          0.8191     -1.4127     -0.1409
     7         C          1.7869      1.1847      0.6094
     8         C          2.1302     -1.1170     -0.1755
     9         C          2.6359      0.1987      0.2943
    10         C         -2.3291     -1.3454     -0.3790
    11         H         -0.3077     -0.8171      1.5996
    12         H         -1.9573      1.2644     -1.4951
    13         H         -2.6577      1.4452      0.1898
    14         H         -0.3131      2.8159     -0.1766
    15         H          0.4850     -2.3820     -0.4891
    16         H          2.8303     -1.8367     -0.5798
    17         H          2.1542      2.1759      0.8444
    18         H          3.7022      0.3834      0.3087
    19         H         -2.0697     -2.3649     -0.1120
    20         H         -3.2915     -1.1523     -0.8423

  H: (PM3): J. J. P. STEWART, J. COMP. CHEM. 10, 209 (1989).
  C: (PM3): J. J. P. STEWART, J. COMP. CHEM. 10, 209 (1989).

           Empirical Formula: C10 H10  =    20 atoms



      MOLECULAR POINT GROUP   :   C1  


      RHF CALCULATION, NO. OF DOUBLY OCCUPIED LEVELS = 25


          Geometry optimization using EF

          DIAGONAL MATRIX USED AS START HESSIAN

 CYCLE:     1 TIME:   0.008 TIME LEFT:  2.00D  GRAD.:   105.150 HEAT:  65.46008
 CYCLE:     2 TIME:   0.012 TIME LEFT:  2.00D  GRAD.:    63.923 HEAT:  63.47514
 CYCLE:     3 TIME:   0.004 TIME LEFT:  2.00D  GRAD.:    62.862 HEAT:  62.83509
 CYCLE:     4 TIME:   0.004 TIME LEFT:  2.00D  GRAD.:    36.457 HEAT:  61.88900
 CYCLE:     5 TIME:   0.008 TIME LEFT:  2.00D  GRAD.:    40.404 HEAT:  61.58409
 CYCLE:     6 TIME:   0.004 TIME LEFT:  2.00D  GRAD.:    39.969 HEAT:  61.28696
 CYCLE:     7 TIME:   0.008 TIME LEFT:  2.00D  GRAD.:    27.361 HEAT:  60.87338
 CYCLE:     8 TIME:   0.004 TIME LEFT:  2.00D  GRAD.:    32.556 HEAT:  60.84731
 CYCLE:     9 TIME:   0.008 TIME LEFT:  2.00D  GRAD.:    28.411 HEAT:  60.63432
 CYCLE:    10 TIME:   0.008 TIME LEFT:  2.00D  GRAD.:    28.984 HEAT:  60.56051
 CYCLE:    11 TIME:   0.004 TIME LEFT:  2.00D  GRAD.:    21.195 HEAT:  60.44563
 CYCLE:    12 TIME:   0.008 TIME LEFT:  2.00D  GRAD.:    24.755 HEAT:  60.41794
 CYCLE:    13 TIME:   0.004 TIME LEFT:  2.00D  GRAD.:    14.762 HEAT:  60.33467
 CYCLE:    14 TIME:   0.004 TIME LEFT:  2.00D  GRAD.:    16.311 HEAT:  60.29976
 CYCLE:    15 TIME:   0.004 TIME LEFT:  2.00D  GRAD.:    18.967 HEAT:  60.28034
 CYCLE:    16 TIME:   0.004 TIME LEFT:  2.00D  GRAD.:    13.940 HEAT:  60.20931
 CYCLE:    17 TIME:   0.004 TIME LEFT:  2.00D  GRAD.:    15.877 HEAT:  60.16821
 CYCLE:    18 TIME:   0.008 TIME LEFT:  2.00D  GRAD.:    13.901 HEAT:  60.12481
 CYCLE:    19 TIME:   0.004 TIME LEFT:  2.00D  GRAD.:    11.535 HEAT:  60.07462
 CYCLE:    20 TIME:   0.004 TIME LEFT:  2.00D  GRAD.:    10.037 HEAT:  60.03553
 CYCLE:    21 TIME:   0.004 TIME LEFT:  2.00D  GRAD.:     9.530 HEAT:  59.99808
 CYCLE:    22 TIME:   0.004 TIME LEFT:  2.00D  GRAD.:     6.380 HEAT:  59.96462
 CYCLE:    23 TIME:   0.004 TIME LEFT:  2.00D  GRAD.:     6.772 HEAT:  59.94231
 CYCLE:    24 TIME:   0.008 TIME LEFT:  2.00D  GRAD.:     5.092 HEAT:  59.92138
 CYCLE:    25 TIME:   0.004 TIME LEFT:  2.00D  GRAD.:     6.558 HEAT:  59.90654
 CYCLE:    26 TIME:   0.004 TIME LEFT:  2.00D  GRAD.:     4.721 HEAT:  59.88913
 CYCLE:    27 TIME:   0.004 TIME LEFT:  2.00D  GRAD.:     5.246 HEAT:  59.87304
 CYCLE:    28 TIME:   0.004 TIME LEFT:  2.00D  GRAD.:     4.360 HEAT:  59.85709
 CYCLE:    29 TIME:   0.004 TIME LEFT:  2.00D  GRAD.:     3.691 HEAT:  59.84165
 CYCLE:    30 TIME:   0.004 TIME LEFT:  2.00D  GRAD.:     3.012 HEAT:  59.83025
 CYCLE:    31 TIME:   0.004 TIME LEFT:  2.00D  GRAD.:     2.983 HEAT:  59.82167
 CYCLE:    32 TIME:   0.004 TIME LEFT:  2.00D  GRAD.:     2.235 HEAT:  59.81269
 CYCLE:    33 TIME:   0.008 TIME LEFT:  2.00D  GRAD.:     2.087 HEAT:  59.80450
 CYCLE:    34 TIME:   0.004 TIME LEFT:  2.00D  GRAD.:     2.075 HEAT:  59.79532
 CYCLE:    35 TIME:   0.004 TIME LEFT:  2.00D  GRAD.:     1.973 HEAT:  59.78766
 CYCLE:    36 TIME:   0.004 TIME LEFT:  2.00D  GRAD.:     1.711 HEAT:  59.77879
 CYCLE:    37 TIME:   0.004 TIME LEFT:  2.00D  GRAD.:     1.748 HEAT:  59.77145
 CYCLE:    38 TIME:   0.004 TIME LEFT:  2.00D  GRAD.:     1.925 HEAT:  59.76469
 CYCLE:    39 TIME:   0.004 TIME LEFT:  2.00D  GRAD.:     1.687 HEAT:  59.75647
 CYCLE:    40 TIME:   0.004 TIME LEFT:  2.00D  GRAD.:     1.883 HEAT:  59.74956
 CYCLE:    41 TIME:   0.004 TIME LEFT:  2.00D  GRAD.:     1.372 HEAT:  59.74563
 CYCLE:    42 TIME:   0.004 TIME LEFT:  2.00D  GRAD.:     1.141 HEAT:  59.74248
 CYCLE:    43 TIME:   0.004 TIME LEFT:  2.00D  GRAD.:     1.004 HEAT:  59.73847
 CYCLE:    44 TIME:   0.004 TIME LEFT:  2.00D  GRAD.:     0.962 HEAT:  59.73598
 CYCLE:    45 TIME:   0.008 TIME LEFT:  2.00D  GRAD.:     0.907 HEAT:  59.73320
 CYCLE:    46 TIME:   0.004 TIME LEFT:  2.00D  GRAD.:     0.817 HEAT:  59.73104
 CYCLE:    47 TIME:   0.004 TIME LEFT:  2.00D  GRAD.:     0.713 HEAT:  59.72916
 CYCLE:    48 TIME:   0.004 TIME LEFT:  2.00D  GRAD.:     0.677 HEAT:  59.72781
 CYCLE:    49 TIME:   0.004 TIME LEFT:  2.00D  GRAD.:     0.584 HEAT:  59.72683
 CYCLE:    50 TIME:   0.004 TIME LEFT:  2.00D  GRAD.:     0.488 HEAT:  59.72608
 CYCLE:    51 TIME:   0.004 TIME LEFT:  2.00D  GRAD.:     0.416 HEAT:  59.72555
 CYCLE:    52 TIME:   0.004 TIME LEFT:  2.00D  GRAD.:     0.348 HEAT:  59.72514
 CYCLE:    53 TIME:   0.004 TIME LEFT:  2.00D  GRAD.:     0.305 HEAT:  59.72490
 CYCLE:    54 TIME:   0.004 TIME LEFT:  2.00D  GRAD.:     0.258 HEAT:  59.72469
 CYCLE:    55 TIME:   0.004 TIME LEFT:  2.00D  GRAD.:     0.242 HEAT:  59.72452
 CYCLE:    56 TIME:   0.004 TIME LEFT:  2.00D  GRAD.:     0.230 HEAT:  59.72438
 CYCLE:    57 TIME:   0.004 TIME LEFT:  2.00D  GRAD.:     0.194 HEAT:  59.72426
 CYCLE:    58 TIME:   0.008 TIME LEFT:  2.00D  GRAD.:     0.140 HEAT:  59.72420
 CYCLE:    59 TIME:   0.004 TIME LEFT:  2.00D  GRAD.:     0.098 HEAT:  59.72416
 CYCLE:    60 TIME:   0.004 TIME LEFT:  2.00D  GRAD.:     0.092 HEAT:  59.72414
 CYCLE:    61 TIME:   0.004 TIME LEFT:  2.00D  GRAD.:     0.084 HEAT:  59.72413
 CYCLE:    62 TIME:   0.004 TIME LEFT:  2.00D  GRAD.:     0.067 HEAT:  59.72412
 CYCLE:    63 TIME:   0.004 TIME LEFT:  2.00D  GRAD.:     0.061 HEAT:  59.72410
 CYCLE:    64 TIME:   0.004 TIME LEFT:  2.00D  GRAD.:     0.049 HEAT:  59.72410

     GRADIENT =  0.04887  IS LESS THAN CUTOFF =  0.05000



 -------------------------------------------------------------------------------
 pm3  precise nosym THREADS=1
 InChI=1S/C10H10/c1-8-6-7-9-4-2-3-5-10(8)9/h2-5,7,10H,1,6H2



     GEOMETRY OPTIMISED USING EIGENVECTOR FOLLOWING (EF).     
     SCF FIELD WAS ACHIEVED                                   


                              PM3 CALCULATION
                                                       MOPAC2016 (Version: 18.184L)
                                                       Sat Jun 15 10:14:05 2019
                                                       No. of days remaining =  18




          FINAL HEAT OF FORMATION =         59.72410 KCAL/MOL =     249.88563 KJ/MOL


          TOTAL ENERGY            =      -1337.14106 EV
          ELECTRONIC ENERGY       =      -7100.36281 EV  POINT GROUP:     C1  
          CORE-CORE REPULSION     =       5763.22176 EV
          COSMO AREA              =        172.31 SQUARE ANGSTROMS
          COSMO VOLUME            =        174.23 CUBIC ANGSTROMS

          GRADIENT NORM           =          0.04887 = 0.01093 PER ATOM
          IONIZATION POTENTIAL    =          8.602813 EV
          HOMO LUMO ENERGIES (EV) =         -8.603 -0.203
          NO. OF FILLED LEVELS    =         25
          MOLECULAR WEIGHT        =        130.1890

          MOLECULAR DIMENSIONS (Angstroms)

            Atom       Atom       Distance
            H    20    H    18     7.27906
            H    16    H    14     5.40328
            H    12    H    11     2.91310


          SCF CALCULATIONS        =         71
 
          WALL-CLOCK TIME         =          0.309 SECONDS
          COMPUTATION TIME        =          0.284 SECONDS




   ATOM   CHEMICAL          X               Y               Z
  NUMBER   SYMBOL      (ANGSTROMS)     (ANGSTROMS)     (ANGSTROMS)
 
     1       C         -0.13685041  *  -0.44598428  *   0.50109306  *
     2       C         -1.83931643  *   1.10725511  *  -0.30894432  *
     3       C         -1.50390343  *  -0.35140177  *  -0.12943496  *
     4       C          0.39456141  *   0.96452902  *   0.38792870  *
     5       C         -0.55711773  *   1.82563357  *  -0.01153743  *
     6       C          0.82451655  *  -1.42953704  *  -0.07024568  *
     7       C          1.81646146  *   1.17493472  *   0.56001219  *
     8       C          2.13448969  *  -1.14194389  *  -0.12480197  *
     9       C          2.64917629  *   0.14807910  *   0.30675211  *
    10       C         -2.29144119  *  -1.36701988  *  -0.45963760  *
    11       H         -0.26828019  *  -0.70648480  *   1.58262588  *
    12       H         -2.19174946  *   1.32730450  *  -1.33376300  *
    13       H         -2.64849065  *   1.41907937  *   0.37821674  *
    14       H         -0.45173856  *   2.90005882  *  -0.15476558  *
    15       H          0.42191562  *  -2.39133950  *  -0.40490803  *
    16       H          2.85938894  *  -1.87020394  *  -0.50280658  *
    17       H          2.17022168  *   2.16925440  *   0.84801739  *
    18       H          3.73448069  *   0.25673036  *   0.39730264  *
    19       H         -2.00455558  *  -2.40416651  *  -0.31289743  *
    20       H         -3.27321210  *  -1.22416537  *  -0.90036188  *

                             CARTESIAN COORDINATES

   1    C       -0.136850408    -0.445984285     0.501093056
   2    C       -1.839316433     1.107255114    -0.308944319
   3    C       -1.503903430    -0.351401766    -0.129434956
   4    C        0.394561413     0.964529017     0.387928696
   5    C       -0.557117730     1.825633567    -0.011537426
   6    C        0.824516554    -1.429537041    -0.070245680
   7    C        1.816461465     1.174934725     0.560012193
   8    C        2.134489695    -1.141943893    -0.124801965
   9    C        2.649176295     0.148079103     0.306752110
  10    C       -2.291441185    -1.367019875    -0.459637599
  11    H       -0.268280188    -0.706484795     1.582625877
  12    H       -2.191749462     1.327304500    -1.333762999
  13    H       -2.648490655     1.419079372     0.378216739
  14    H       -0.451738558     2.900058818    -0.154765584
  15    H        0.421915616    -2.391339503    -0.404908025
  16    H        2.859388940    -1.870203945    -0.502806578
  17    H        2.170221680     2.169254404     0.848017387
  18    H        3.734480690     0.256730357     0.397302640
  19    H       -2.004555580    -2.404166512    -0.312897431
  20    H       -3.273212103    -1.224165374    -0.900361878


           Empirical Formula: C10 H10  =    20 atoms



      MOLECULAR POINT GROUP   :   C1  


                  EIGENVALUES  
 -41.52221 -35.35362 -31.66540 -28.57266 -27.21749 -23.50889 -21.45205 -19.75775
 -18.82564 -17.22197 -17.03366 -16.06450 -15.59113 -14.92850 -14.47160 -14.31234
 -13.72015 -13.48498 -13.19544 -12.20299 -12.09620 -11.60454 -10.41471  -9.92226
  -8.60281  -0.20314   1.05188   1.22563   2.19583   3.12897   3.17630   3.33989
   3.43548   3.55004   3.68035   3.86415   3.95161   4.03340   4.23357   4.38577
   4.47727   4.53116   4.86223   5.05540   5.39770   5.48699   5.62311   5.95100
   6.18552   6.23839


              NET ATOMIC CHARGES AND DIPOLE CONTRIBUTIONS

  ATOM NO.   TYPE          CHARGE      No. of ELECS.   s-Pop       p-Pop       
    1          C           0.027997        3.9720     1.14258     2.82942
    2          C          -0.024752        4.0248     1.14117     2.88358
    3          C          -0.106653        4.1067     1.20579     2.90086
    4          C          -0.101142        4.1011     1.18955     2.91159
    5          C          -0.137361        4.1374     1.19971     2.93765
    6          C          -0.116492        4.1165     1.19536     2.92113
    7          C          -0.077833        4.0778     1.17385     2.90399
    8          C          -0.117728        4.1177     1.18008     2.93765
    9          C          -0.098661        4.0987     1.18146     2.91720
   10          C          -0.168493        4.1685     1.17536     2.99313
   11          H           0.086592        0.9134     0.91341
   12          H           0.065325        0.9347     0.93468
   13          H           0.065767        0.9342     0.93423
   14          H           0.116006        0.8840     0.88399
   15          H           0.106128        0.8939     0.89387
   16          H           0.101918        0.8981     0.89808
   17          H           0.105933        0.8941     0.89407
   18          H           0.101231        0.8988     0.89877
   19          H           0.086269        0.9137     0.91373
   20          H           0.085951        0.9140     0.91405
 DIPOLE           X         Y         Z       TOTAL
 POINT-CHG.    -0.136     0.137     0.060     0.203
 HYBRID        -0.037    -0.021    -0.018     0.046
 SUM           -0.173     0.116     0.042     0.213


          ATOMIC ORBITAL ELECTRON POPULATIONS

     Atom    s        px        py        pz   
    1  C   1.14258   0.91358   0.92815   0.98769
    2  C   1.14117   0.95906   0.91738   1.00714
    3  C   1.20579   0.95666   0.95821   0.98599
    4  C   1.18955   0.94448   0.95530   1.01180
    5  C   1.19971   0.95493   0.98136   1.00137
    6  C   1.19536   0.94958   0.98295   0.98859
    7  C   1.17385   0.92445   0.97894   1.00060
    8  C   1.18008   0.95848   0.96565   1.01351
    9  C   1.18146   0.97971   0.94177   0.99573
   10  C   1.17536   0.99194   0.97505   1.02614
   11  H   0.91341
   12  H   0.93468
   13  H   0.93423
   14  H   0.88399
   15  H   0.89387
   16  H   0.89808
   17  H   0.89407
   18  H   0.89877
   19  H   0.91373
   20  H   0.91405
 *******************************************************************************
 ** Site#: 14399        For non-commercial use only    Version 18.184L 64BITS **
 *******************************************************************************
 ** Cite this program as: MOPAC2016, Version: 18.184L, James J. P. Stewart,   **
 ** Stewart Computational Chemistry, web: HTTP://OpenMOPAC.net. Days left:  18**
 *******************************************************************************
 **                                                                           **
 **                                MOPAC2016                                  **
 **                                                                           **
 *******************************************************************************

                              PM3 CALCULATION RESULTS

 *******************************************************************************
 *  CALCULATION DONE:                                Sat Jun 15 10:14:05 2019  *
 *  PM3        - The PM3 Hamiltonian to be used
 *  OLDGEO     - PREVIOUS GEOMETRY TO BE USED
 *  PRECISE    - CRITERIA TO BE INCREASED BY 100 TIMES
 *  NOSYM      - POINT-GROUP SYMMETRY SET TO C1
 *  THREADS=1  - MULTI-THREADING NOT USED
 *  T=         - A TIME OF 172800.0 SECONDS REQUESTED
 *  DUMP=N     - RESTART FILE WRITTEN EVERY  7200.000 SECONDS
 *  THERMO     - THERMODYNAMIC QUANTITIES TO BE CALCULATED
 *******************************************************************************
oldgeo thermo nosym precise THREADS=1  pm3
 InChI=1S/C10H10/c1-8-6-7-9-4-2-3-5-10(8)9/h2-5,7,10H,1,6H2

   ATOM   CHEMICAL          X               Y               Z
  NUMBER   SYMBOL      (ANGSTROMS)     (ANGSTROMS)     (ANGSTROMS)
 
     1       C         -0.13685041  *  -0.44598428  *   0.50109306  *
     2       C         -1.83931643  *   1.10725511  *  -0.30894432  *
     3       C         -1.50390343  *  -0.35140177  *  -0.12943496  *
     4       C          0.39456141  *   0.96452902  *   0.38792870  *
     5       C         -0.55711773  *   1.82563357  *  -0.01153743  *
     6       C          0.82451655  *  -1.42953704  *  -0.07024568  *
     7       C          1.81646146  *   1.17493472  *   0.56001219  *
     8       C          2.13448969  *  -1.14194389  *  -0.12480197  *
     9       C          2.64917629  *   0.14807910  *   0.30675211  *
    10       C         -2.29144119  *  -1.36701988  *  -0.45963760  *
    11       H         -0.26828019  *  -0.70648480  *   1.58262588  *
    12       H         -2.19174946  *   1.32730450  *  -1.33376300  *
    13       H         -2.64849065  *   1.41907937  *   0.37821674  *
    14       H         -0.45173856  *   2.90005882  *  -0.15476558  *
    15       H          0.42191562  *  -2.39133950  *  -0.40490803  *
    16       H          2.85938894  *  -1.87020394  *  -0.50280658  *
    17       H          2.17022168  *   2.16925440  *   0.84801739  *
    18       H          3.73448069  *   0.25673036  *   0.39730264  *
    19       H         -2.00455558  *  -2.40416651  *  -0.31289743  *
    20       H         -3.27321210  *  -1.22416537  *  -0.90036188  *
 


          CARTESIAN COORDINATES 

    NO.       ATOM           X           Y           Z

     1         C         -0.1369     -0.4460      0.5011
     2         C         -1.8393      1.1073     -0.3089
     3         C         -1.5039     -0.3514     -0.1294
     4         C          0.3946      0.9645      0.3879
     5         C         -0.5571      1.8256     -0.0115
     6         C          0.8245     -1.4295     -0.0702
     7         C          1.8165      1.1749      0.5600
     8         C          2.1345     -1.1419     -0.1248
     9         C          2.6492      0.1481      0.3068
    10         C         -2.2914     -1.3670     -0.4596
    11         H         -0.2683     -0.7065      1.5826
    12         H         -2.1917      1.3273     -1.3338
    13         H         -2.6485      1.4191      0.3782
    14         H         -0.4517      2.9001     -0.1548
    15         H          0.4219     -2.3913     -0.4049
    16         H          2.8594     -1.8702     -0.5028
    17         H          2.1702      2.1693      0.8480
    18         H          3.7345      0.2567      0.3973
    19         H         -2.0046     -2.4042     -0.3129
    20         H         -3.2732     -1.2242     -0.9004

  H: (PM3): J. J. P. STEWART, J. COMP. CHEM. 10, 209 (1989).
  C: (PM3): J. J. P. STEWART, J. COMP. CHEM. 10, 209 (1989).

           Empirical Formula: C10 H10  =    20 atoms



      MOLECULAR POINT GROUP   :   C1  


      RHF CALCULATION, NO. OF DOUBLY OCCUPIED LEVELS = 25



          HEAT OF FORMATION =      59.724099 KCALS/MOLE


          CARTESIAN COORDINATE DERIVATIVES

   NUMBER  ATOM         X            Y            Z

     1       C     -0.008731    -0.006088    -0.013379
     2       C      0.001042    -0.000568     0.007366
     3       C      0.004096    -0.001289    -0.000532
     4       C     -0.001042    -0.008188    -0.000571
     5       C      0.009006     0.002831     0.004094
     6       C     -0.006990    -0.002551    -0.004151
     7       C      0.011127     0.004325     0.006372
     8       C     -0.013536    -0.017778    -0.003038
     9       C     -0.000284     0.011814    -0.000653
    10       C      0.016642     0.006173     0.005908
    11       H      0.004212     0.001403     0.000030
    12       H     -0.008610     0.005440    -0.003721
    13       H     -0.001676     0.004259     0.003949
    14       H     -0.001618    -0.009279     0.000944
    15       H     -0.013250    -0.001300    -0.005110
    16       H     -0.016592    -0.002563    -0.005744
    17       H      0.003899    -0.005763    -0.001262
    18       H      0.002807     0.010769     0.001946
    19       H      0.009705    -0.001063     0.003269
    20       H      0.009793     0.009415     0.004283
 


          GRADIENT NORM =   0.05535


          TIME FOR SCF CALCULATION =    0.00

          TIME FOR DERIVATIVES     =    0.00

          MOLECULAR WEIGHT =  130.19



          ROTATIONAL CONSTANTS IN CM(-1)

          A =    0.08542993   B =    0.04282073   C =    0.02971254



           PRINCIPAL MOMENTS OF INERTIA IN UNITS OF 10**(-40)*GRAM-CM**2

          A =      327.6694   B =      653.7202   C =      942.1200


          ORIENTATION OF MOLECULE IN FORCE CALCULATION

    NO.       ATOM         X         Y         Z

     1          C      -0.2744    0.4148    0.5051
     2          C       2.1684    0.4148    0.5051
     3          C       0.9476    1.2992    0.5051
     4          C       0.2896   -0.9545    0.2024
     5          C       1.6329   -0.9626    0.2507
     6          C      -1.3804    0.7590   -0.4311
     7          C      -0.6246   -1.9894   -0.2322
     8          C      -2.0924   -0.2124   -1.0235
     9          C      -1.7739   -1.6178   -0.8263
    10          C       0.9602    2.6260    0.5183
    11          H      -0.7071    0.4169    1.5384
    12          H       2.8937    0.7115   -0.2751
    13          H       2.7027    0.4707    1.4723
    14          H       2.2901   -1.8166    0.0935
    15          H      -1.6004    1.8211   -0.5819
    16          H      -2.9353    0.0234   -1.6812
    17          H      -0.3344   -3.0362   -0.1028
    18          H      -2.4913   -2.3572   -1.1959
    19          H       0.0521    3.2217    0.5154
    20          H       1.8814    3.2002    0.5305


    FIRST DERIVATIVES WILL BE USED IN THE CALCULATION OF SECOND DERIVATIVES

          ESTIMATED TIME TO COMPLETE CALCULATION =        1.88 SECONDS

    FOR POINT-GROUP C1   THERE ARE   1 UNIQUE SYMMETRY FUNCTIONS.

 STEP:   1 TIME =     0.02 SECS, INTEGRAL =      0.02 TIME LEFT: 172799.97
 STEP:   2 TIME =     0.02 SECS, INTEGRAL =      0.04 TIME LEFT: 172799.96
 STEP:   3 TIME =     0.02 SECS, INTEGRAL =      0.05 TIME LEFT: 172799.94
 STEP:   4 TIME =     0.02 SECS, INTEGRAL =      0.07 TIME LEFT: 172799.92
 STEP:   5 TIME =     0.02 SECS, INTEGRAL =      0.09 TIME LEFT: 172799.90
 STEP:   6 TIME =     0.02 SECS, INTEGRAL =      0.11 TIME LEFT: 172799.88
 STEP:   7 TIME =     0.02 SECS, INTEGRAL =      0.13 TIME LEFT: 172799.86
 STEP:   8 TIME =     0.02 SECS, INTEGRAL =      0.15 TIME LEFT: 172799.84
 STEP:   9 TIME =     0.02 SECS, INTEGRAL =      0.17 TIME LEFT: 172799.82
 STEP:  10 TIME =     0.02 SECS, INTEGRAL =      0.19 TIME LEFT: 172799.80
 STEP:  11 TIME =     0.02 SECS, INTEGRAL =      0.21 TIME LEFT: 172799.79
 STEP:  12 TIME =     0.02 SECS, INTEGRAL =      0.23 TIME LEFT: 172799.77
 STEP:  13 TIME =     0.02 SECS, INTEGRAL =      0.25 TIME LEFT: 172799.75
 STEP:  14 TIME =     0.02 SECS, INTEGRAL =      0.27 TIME LEFT: 172799.73
 STEP:  15 TIME =     0.02 SECS, INTEGRAL =      0.29 TIME LEFT: 172799.71
 STEP:  16 TIME =     0.02 SECS, INTEGRAL =      0.30 TIME LEFT: 172799.69
 STEP:  17 TIME =     0.02 SECS, INTEGRAL =      0.32 TIME LEFT: 172799.67
 STEP:  18 TIME =     0.02 SECS, INTEGRAL =      0.34 TIME LEFT: 172799.65
 STEP:  19 TIME =     0.02 SECS, INTEGRAL =      0.36 TIME LEFT: 172799.63
 STEP:  20 TIME =     0.02 SECS, INTEGRAL =      0.38 TIME LEFT: 172799.61
 STEP:  21 TIME =     0.02 SECS, INTEGRAL =      0.40 TIME LEFT: 172799.59
 STEP:  22 TIME =     0.02 SECS, INTEGRAL =      0.41 TIME LEFT: 172799.58
 STEP:  23 TIME =     0.02 SECS, INTEGRAL =      0.43 TIME LEFT: 172799.56
 STEP:  24 TIME =     0.02 SECS, INTEGRAL =      0.45 TIME LEFT: 172799.54
 STEP:  25 TIME =     0.02 SECS, INTEGRAL =      0.47 TIME LEFT: 172799.52
 STEP:  26 TIME =     0.02 SECS, INTEGRAL =      0.49 TIME LEFT: 172799.50
 STEP:  27 TIME =     0.02 SECS, INTEGRAL =      0.51 TIME LEFT: 172799.48
 STEP:  28 TIME =     0.02 SECS, INTEGRAL =      0.53 TIME LEFT: 172799.46
 STEP:  29 TIME =     0.02 SECS, INTEGRAL =      0.54 TIME LEFT: 172799.45
 STEP:  30 TIME =     0.02 SECS, INTEGRAL =      0.56 TIME LEFT: 172799.43
 STEP:  31 TIME =     0.02 SECS, INTEGRAL =      0.58 TIME LEFT: 172799.41
 STEP:  32 TIME =     0.02 SECS, INTEGRAL =      0.60 TIME LEFT: 172799.39
 STEP:  33 TIME =     0.02 SECS, INTEGRAL =      0.62 TIME LEFT: 172799.37
 STEP:  34 TIME =     0.02 SECS, INTEGRAL =      0.64 TIME LEFT: 172799.35
 STEP:  35 TIME =     0.02 SECS, INTEGRAL =      0.66 TIME LEFT: 172799.33
 STEP:  36 TIME =     0.02 SECS, INTEGRAL =      0.68 TIME LEFT: 172799.31
 STEP:  37 TIME =     0.02 SECS, INTEGRAL =      0.70 TIME LEFT: 172799.30
 STEP:  38 TIME =     0.02 SECS, INTEGRAL =      0.71 TIME LEFT: 172799.28
 STEP:  39 TIME =     0.02 SECS, INTEGRAL =      0.73 TIME LEFT: 172799.26
 STEP:  40 TIME =     0.02 SECS, INTEGRAL =      0.75 TIME LEFT: 172799.24
 STEP:  41 TIME =     0.02 SECS, INTEGRAL =      0.77 TIME LEFT: 172799.22
 STEP:  42 TIME =     0.02 SECS, INTEGRAL =      0.79 TIME LEFT: 172799.20
 STEP:  43 TIME =     0.02 SECS, INTEGRAL =      0.81 TIME LEFT: 172799.18
 STEP:  44 TIME =     0.02 SECS, INTEGRAL =      0.83 TIME LEFT: 172799.16
 STEP:  45 TIME =     0.02 SECS, INTEGRAL =      0.85 TIME LEFT: 172799.14
 STEP:  46 TIME =     0.02 SECS, INTEGRAL =      0.86 TIME LEFT: 172799.13
 STEP:  47 TIME =     0.02 SECS, INTEGRAL =      0.88 TIME LEFT: 172799.11
 STEP:  48 TIME =     0.02 SECS, INTEGRAL =      0.90 TIME LEFT: 172799.09
 STEP:  49 TIME =     0.02 SECS, INTEGRAL =      0.92 TIME LEFT: 172799.07
 STEP:  50 TIME =     0.02 SECS, INTEGRAL =      0.94 TIME LEFT: 172799.05
 STEP:  51 TIME =     0.02 SECS, INTEGRAL =      0.96 TIME LEFT: 172799.03
 STEP:  52 TIME =     0.02 SECS, INTEGRAL =      0.98 TIME LEFT: 172799.01
 STEP:  53 TIME =     0.02 SECS, INTEGRAL =      1.00 TIME LEFT: 172799.00
 STEP:  54 TIME =     0.02 SECS, INTEGRAL =      1.02 TIME LEFT: 172798.98
 STEP:  55 TIME =     0.02 SECS, INTEGRAL =      1.04 TIME LEFT: 172798.96
 STEP:  56 TIME =     0.02 SECS, INTEGRAL =      1.05 TIME LEFT: 172798.94
 STEP:  57 TIME =     0.02 SECS, INTEGRAL =      1.07 TIME LEFT: 172798.92
 STEP:  58 TIME =     0.02 SECS, INTEGRAL =      1.09 TIME LEFT: 172798.90
 STEP:  59 TIME =     0.02 SECS, INTEGRAL =      1.11 TIME LEFT: 172798.88
 STEP:  60 TIME =     0.02 SECS, INTEGRAL =      1.13 TIME LEFT: 172798.86

(To convert to Hartree/Bohr^2, multiply by (10^(-21) x N x a0^2)/(4.184 x 627.51) =  0.0642)


           FORCE MATRIX IN MILLIDYNES/ANGSTROM


                  C  1       C  2       C  3       C  4       C  5       C  6
 ------------------------------------------------------------------------------
     C    1  15.397881
     C    2   0.759154  14.866866
     C    3   4.203061   4.300140  18.966698
     C    4   4.161095   1.226982   0.988315  19.413799
     C    5   1.100959   4.566469   0.980309   9.986642  18.123659
     C    6   4.825438   0.041787   0.579743   0.723700   0.048652  17.906696
     C    7   0.594841   0.132041   0.048962   5.800588   0.871697   0.177429
     C    8   0.896936   0.018198   0.052948   0.162923   0.050906  10.110885
     C    9   0.137376   0.027924   0.015071   1.194898   0.135023   1.112071
     C   10   0.687151   0.709908  10.973281   0.050985   0.054040   0.042257
     H   11   4.093501   0.023260   0.404356   0.412224   0.033973   0.394112
     H   12   0.035563   4.502403   0.438683   0.037272   0.427890   0.003600
     H   13   0.024696   4.474002   0.427895   0.036629   0.426295   0.003964
     H   14   0.107653   0.406553   0.043131   0.459287   5.039742   0.016659
     H   15   0.433547   0.003624   0.015274   0.042305   0.006673   4.844206
     H   16   0.115812   0.001844   0.012932   0.004384   0.000786   0.442447
     H   17   0.036146   0.005596   0.006770   0.444973   0.018221   0.016596
     H   18   0.003868   0.008073   0.001243   0.120294   0.011426   0.047211
     H   19   0.087157   0.122672   0.479233   0.004301   0.007181   0.018907
     H   20   0.123849   0.086114   0.478335   0.007994   0.002271   0.012406


                  C  7       C  8       C  9       C 10       H 11       H 12
 ------------------------------------------------------------------------------
     C    7  18.279878
     C    8   1.120101  18.193326
     C    9   9.869033   5.487410  18.121830
     C   10   0.009992   0.006651   0.003725  18.110958
     H   11   0.013961   0.034915   0.017576   0.022089   4.544437
     H   12   0.018732   0.002690   0.003869   0.020294   0.001947   5.101037
     H   13   0.018221   0.003170   0.002800   0.022204   0.001785   0.555952
     H   14   0.058777   0.008383   0.010840   0.007456   0.015951   0.015273
     H   15   0.014158   0.441520   0.121594   0.009992   0.013566   0.000704
     H   16   0.047400   4.856042   0.432993   0.001053   0.014795   0.000243
     H   17   4.878148   0.120475   0.445904   0.001880   0.004159   0.000963
     H   18   0.439042   0.431797   4.869541   0.000801   0.001013   0.001116
     H   19   0.001268   0.004119   0.001126   5.088620   0.011661   0.010829
     H   20   0.001704   0.001953   0.000806   5.107396   0.014561   0.010472


                  H 13       H 14       H 15       H 16       H 17       H 18
 ------------------------------------------------------------------------------
     H   13   5.076473
     H   14   0.010288   5.435260
     H   15   0.000654   0.003688   5.223759
     H   16   0.000249   0.000676   0.064093   5.220151
     H   17   0.000907   0.006342   0.008992   0.007193   5.252363
     H   18   0.001295   0.003538   0.007251   0.031766   0.061058   5.233699
     H   19   0.013958   0.001250   0.021711   0.000671   0.000265   0.000241
     H   20   0.010929   0.000816   0.001976   0.000673   0.000314   0.000196


                  H 19       H 20
 ------------------------------
     H   19   5.471111
     H   20   0.408677   5.485726


          HEAT OF FORMATION =      59.724099 KCALS/MOLE

          ZERO POINT ENERGY     104.866 KCAL/MOL


           NORMAL COORDINATE ANALYSIS (Total motion = 1 Angstrom)


   Root No.       1         2         3         4         5         6         7         8

                 1 A       2 A       3 A       4 A       5 A       6 A       7 A       8 A   

                  93.8     174.8     231.4     275.6     380.4     421.6     489.0     501.1
  
           1   -0.0018    0.0080   -0.0002   -0.0161   -0.0176    0.0037    0.0023   -0.0166
           2    0.0057    0.0039    0.0145    0.0185   -0.0072    0.0215    0.0229    0.0200
           3   -0.0115   -0.0436   -0.0249    0.0099    0.0307    0.0068    0.0135   -0.0046
           4    0.0010    0.0044    0.0030   -0.0109   -0.0152    0.0072   -0.0010    0.0318
           5    0.0056    0.0001   -0.0001   -0.0008    0.0124   -0.0189   -0.0195   -0.0201
           6   -0.0459    0.0462   -0.0225    0.0123   -0.0119    0.0013   -0.0022    0.0012
           7   -0.0002    0.0066    0.0070   -0.0040   -0.0223    0.0204    0.0176    0.0194
           8    0.0030    0.0040    0.0066    0.0107   -0.0004    0.0013    0.0113   -0.0247
           9    0.0035    0.0015   -0.0230    0.0070    0.0411    0.0015   -0.0254    0.0576
          10   -0.0045    0.0142   -0.0054   -0.0170   -0.0070   -0.0205   -0.0219    0.0029
          11    0.0010    0.0068    0.0058    0.0174   -0.0017    0.0091    0.0164    0.0396
          12    0.0070   -0.0448    0.0082    0.0046    0.0075    0.0358   -0.0103   -0.0197
          13   -0.0041    0.0128   -0.0067   -0.0165   -0.0074   -0.0195   -0.0257    0.0013
          14    0.0023    0.0061   -0.0089    0.0160    0.0086   -0.0041   -0.0096   -0.0018
          15   -0.0170   -0.0076    0.0542   -0.0415    0.0089   -0.0201    0.0057   -0.0006
          16    0.0200    0.0032   -0.0242   -0.0267    0.0266    0.0246   -0.0075   -0.0355
          17   -0.0011   -0.0012   -0.0030   -0.0133   -0.0025    0.0035    0.0044    0.0080
          18   -0.0411   -0.0392   -0.0015    0.0068   -0.0206   -0.0260    0.0230   -0.0073
          19   -0.0149    0.0061    0.0135    0.0021    0.0169    0.0083    0.0182    0.0158
          20   -0.0042    0.0024    0.0026   -0.0039   -0.0041    0.0016   -0.0076    0.0281
          21    0.0397   -0.0174   -0.0201    0.0162   -0.0394   -0.0025   -0.0321    0.0079
          22    0.0166   -0.0330   -0.0286    0.0020    0.0025   -0.0116    0.0396   -0.0103
          23   -0.0082   -0.0128   -0.0129   -0.0265   -0.0026   -0.0068   -0.0093   -0.0082
          24   -0.0259    0.0219    0.0181   -0.0099    0.0090    0.0329   -0.0121   -0.0180
          25   -0.0073   -0.0300    0.0090    0.0127   -0.0137    0.0129   -0.0127    0.0091
          26   -0.0073   -0.0092   -0.0088   -0.0251   -0.0051   -0.0072   -0.0166   -0.0009
          27    0.0231    0.0447   -0.0186   -0.0143    0.0194   -0.0142    0.0286    0.0071
          28   -0.0040    0.0100    0.0284    0.0634    0.0237   -0.0212   -0.0096   -0.0092
          29    0.0025    0.0037    0.0061    0.0102   -0.0001    0.0018    0.0124   -0.0271
          30    0.0678    0.0195    0.0264    0.0069   -0.0150   -0.0005    0.0059   -0.0111
          31   -0.0240   -0.0045    0.0082   -0.0115   -0.0515   -0.0203    0.0414   -0.0425
          32    0.0165   -0.0110    0.0297    0.0301   -0.0213    0.0698    0.0385   -0.0027
          33   -0.0210   -0.0478   -0.0202    0.0113    0.0150   -0.0039    0.0292   -0.0150
          34   -0.0360    0.0512   -0.0287    0.0212   -0.0737    0.0289    0.0284   -0.0367
          35    0.0042    0.0161   -0.0436    0.0229    0.0190   -0.0209   -0.0537   -0.0120
          36   -0.0811    0.0964   -0.0694    0.0518   -0.0656    0.0217    0.0131   -0.0619
          37    0.0458   -0.0521    0.0442   -0.0467    0.0515   -0.0105   -0.0260    0.1204
          38    0.0118   -0.0250    0.0498   -0.0428    0.0275   -0.0520   -0.0235   -0.0332
          39   -0.0712    0.0794   -0.0487    0.0353   -0.0508    0.0134    0.0122   -0.0489
          40   -0.0066    0.0181   -0.0134   -0.0241   -0.0018   -0.0410   -0.0492   -0.0322
          41    0.0002    0.0082   -0.0256    0.0201    0.0141   -0.0098   -0.0288   -0.0299
          42   -0.0162    0.0034    0.1169   -0.0961    0.0014   -0.0796    0.0120    0.0112
          43    0.0400    0.0227   -0.0470   -0.0579    0.0824    0.0462   -0.0282   -0.0774
          44   -0.0018   -0.0026   -0.0062   -0.0186   -0.0003    0.0008   -0.0010    0.0012
          45   -0.0742   -0.0751    0.0101    0.0156   -0.0854   -0.0776    0.0153    0.0089
          46    0.0319   -0.0546   -0.0593    0.0053    0.0175   -0.0492    0.0990   -0.0104
          47   -0.0160   -0.0264   -0.0217   -0.0360   -0.0000   -0.0082   -0.0115   -0.0347
          48   -0.0482    0.0448    0.0540   -0.0179   -0.0093    0.0802   -0.0893   -0.0277
          49   -0.0291    0.0198    0.0366    0.0157    0.0539    0.0454    0.0650    0.0297
          50   -0.0034    0.0045    0.0049    0.0031   -0.0027    0.0059    0.0007    0.0366
          51    0.0769   -0.0301   -0.0506    0.0422   -0.1103   -0.0499   -0.0708    0.0455
          52   -0.0176   -0.0504    0.0332    0.0300   -0.0263    0.0514   -0.0555    0.0136
          53   -0.0083   -0.0166   -0.0184   -0.0339   -0.0021   -0.0118   -0.0067   -0.0223
          54    0.0453    0.0990   -0.0467   -0.0297    0.0382   -0.0794    0.0932    0.0420
          55   -0.0067    0.0115    0.0384    0.0996    0.0542   -0.0513   -0.0332   -0.0354
          56   -0.0014    0.0058    0.0209    0.0638    0.0450   -0.0423   -0.0219   -0.0664
          57    0.1076   -0.0092    0.0422    0.0002   -0.0174    0.0043    0.0371   -0.0766
          58   -0.0061    0.0112    0.0386    0.0995    0.0540   -0.0509   -0.0332   -0.0338
          59    0.0054    0.0009   -0.0107   -0.0464   -0.0459    0.0479    0.0489    0.0107
          60    0.0849    0.0640    0.0555    0.0106   -0.0711   -0.0063    0.0115   -0.0282


   Root No.       9        10        11        12        13        14        15        16

                 9 A      10 A      11 A      12 A      13 A      14 A      15 A      16 A   

                 522.6     560.1     616.7     687.0     699.7     760.5     815.7     824.8
  
           1   -0.0375   -0.0061    0.0036   -0.0159   -0.0060   -0.0007    0.0069   -0.0087
           2   -0.0049   -0.0075   -0.0034    0.0002    0.0002    0.0028    0.0010   -0.0089
           3   -0.0129    0.0258   -0.0077    0.0089    0.0317    0.0116   -0.0075    0.0210
           4   -0.0198    0.0315    0.0017    0.0431   -0.0189   -0.0082   -0.0045    0.0124
           5   -0.0112    0.0111    0.0045    0.0396   -0.0132   -0.0008    0.0051    0.0038
           6   -0.0069    0.0010    0.0015    0.0047   -0.0094    0.0032   -0.0170   -0.0262
           7   -0.0351    0.0103    0.0014    0.0093   -0.0193   -0.0081   -0.0068    0.0120
           8   -0.0338   -0.0161    0.0013   -0.0414   -0.0046   -0.0066   -0.0065    0.0059
           9   -0.0388   -0.0301   -0.0024   -0.0254   -0.0217   -0.0121    0.0092    0.0097
          10    0.0081    0.0148   -0.0024   -0.0270    0.0099   -0.0037   -0.0010   -0.0107
          11    0.0008    0.0050   -0.0160    0.0112    0.0356    0.0103    0.0076   -0.0067
          12    0.0249    0.0506    0.0311   -0.0228   -0.0330    0.0034    0.0073    0.0037
          13    0.0080    0.0229    0.0005   -0.0216    0.0048   -0.0064    0.0010   -0.0128
          14   -0.0093    0.0143    0.0040    0.0662   -0.0186    0.0008    0.0020    0.0143
          15   -0.0101    0.0052   -0.0057    0.0105   -0.0025    0.0089   -0.0124   -0.0134
          16   -0.0240   -0.0116   -0.0038    0.0065    0.0168    0.0258    0.0217   -0.0037
          17    0.0481   -0.0436   -0.0026    0.0224   -0.0169   -0.0079   -0.0050   -0.0147
          18   -0.0131   -0.0017    0.0052    0.0049    0.0100   -0.0101   -0.0091   -0.0023
          19    0.0481   -0.0050    0.0008   -0.0179    0.0044    0.0112   -0.0114    0.0136
          20   -0.0034    0.0485   -0.0060   -0.0259    0.0422    0.0122    0.0199   -0.0241
          21    0.0081   -0.0160   -0.0075   -0.0010    0.0106   -0.0221    0.0143   -0.0062
          22    0.0039   -0.0366    0.0005    0.0231   -0.0029    0.0160    0.0240   -0.0250
          23    0.0230   -0.0055    0.0039   -0.0026   -0.0056   -0.0016   -0.0053    0.0096
          24    0.0030   -0.0372   -0.0074    0.0265    0.0154   -0.0061   -0.0101   -0.0180
          25    0.0468   -0.0309   -0.0050   -0.0120    0.0025    0.0057   -0.0187    0.0235
          26    0.0335    0.0081    0.0059   -0.0214   -0.0045   -0.0038   -0.0068    0.0204
          27    0.0378    0.0022    0.0089   -0.0122   -0.0090   -0.0171    0.0113   -0.0009
          28   -0.0019    0.0033   -0.0002    0.0030   -0.0068   -0.0037   -0.0047    0.0078
          29   -0.0396   -0.0195    0.0018   -0.0540   -0.0072   -0.0097   -0.0098    0.0090
          30    0.0042    0.0052   -0.0009   -0.0003    0.0002   -0.0003    0.0010    0.0015
          31   -0.0506    0.0006    0.0171    0.0006    0.0271   -0.0199   -0.0242   -0.0085
          32    0.0082    0.0456    0.0347    0.0142   -0.0331    0.0379   -0.0020   -0.0186
          33   -0.0185    0.0273   -0.0015    0.0154    0.0454    0.0036   -0.0193    0.0204
          34    0.0170    0.0675   -0.0357    0.0598   -0.0047   -0.0188    0.0306    0.0854
          35    0.0060    0.0105    0.0104    0.0398   -0.0154   -0.0180    0.0509    0.0267
          36    0.0355    0.0350   -0.0328    0.0185    0.0046   -0.0134    0.0355    0.0533
          37   -0.0785   -0.0128    0.0474    0.0303   -0.0482   -0.0017   -0.0558   -0.0583
          38   -0.0006    0.0286    0.0042    0.0676   -0.0024    0.0306   -0.0382   -0.0782
          39    0.0260    0.0260   -0.0252    0.0117    0.0058   -0.0031    0.0156    0.0210
          40    0.0028    0.0213    0.0084   -0.0240   -0.0152   -0.0146   -0.0041   -0.0257
          41   -0.0080    0.0262    0.0220    0.0570   -0.0480    0.0090   -0.0268   -0.0312
          42   -0.0381   -0.0678   -0.0720    0.0541    0.0768   -0.0674    0.1264    0.1827
          43   -0.0143    0.0208   -0.0119    0.0319    0.1035   -0.0552   -0.0989    0.0390
          44    0.0502   -0.0393   -0.0019    0.0202   -0.0136   -0.0098   -0.0096   -0.0089
          45   -0.0087   -0.0206    0.0202   -0.0468   -0.0921    0.0931    0.1344   -0.0222
          46    0.0024    0.0028    0.0156    0.0374    0.0289   -0.1026   -0.0362   -0.0550
          47   -0.0286    0.0105    0.0047    0.0086    0.0157    0.0132    0.0109   -0.0041
          48   -0.0132   -0.0817   -0.0264    0.0120   -0.0169    0.1520    0.0737    0.0148
          49    0.0650    0.0071    0.0062   -0.0109    0.0247   -0.0448    0.0732   -0.0313
          50   -0.0051    0.0449   -0.0110   -0.0207    0.0549    0.0164    0.0257   -0.0318
          51   -0.0450   -0.0682   -0.0590    0.0231    0.0646    0.1336   -0.1295    0.0335
          52    0.0476   -0.0163   -0.0122   -0.0174    0.0439   -0.0887    0.0185   -0.0220
          53    0.0287   -0.0216    0.0100    0.0072   -0.0278   -0.0019   -0.0101    0.0190
          54    0.0457    0.0330    0.0140   -0.0595   -0.0400    0.1637   -0.0539    0.0904
          55    0.0233   -0.0038    0.0031   -0.0015    0.0119    0.0060    0.0084   -0.0105
          56   -0.0028   -0.0305    0.0059   -0.0636    0.0203    0.0039    0.0087   -0.0175
          57    0.0487    0.0832   -0.2726   -0.0076   -0.0673    0.0012   -0.0251   -0.0450
          58    0.0263   -0.0008   -0.0026    0.0065    0.0113    0.0082    0.0117   -0.0146
          59   -0.0849   -0.0126   -0.0002   -0.0626   -0.0384   -0.0295   -0.0361    0.0445
          60    0.0129   -0.0275    0.2755    0.0528    0.1097    0.0224   -0.0025    0.0211


   Root No.      17        18        19        20        21        22        23        24

                17 A      18 A      19 A      20 A      21 A      22 A      23 A      24 A   

                 866.5     916.8     928.6     948.9     968.0     978.5    1005.6    1020.8
  
           1   -0.0050    0.0171   -0.0315   -0.0053    0.0062   -0.0098    0.0075    0.0076
           2    0.0188   -0.0050   -0.0076    0.0192   -0.0098   -0.0187   -0.0070    0.0147
           3   -0.0066   -0.0257    0.0372    0.0212   -0.0182   -0.0055   -0.0119    0.0009
           4   -0.0015    0.0326    0.0404    0.0048   -0.0020    0.0066   -0.0040   -0.0036
           5    0.0022   -0.0050   -0.0089   -0.0073    0.0032   -0.0053    0.0017    0.0063
           6   -0.0220   -0.0007   -0.0140    0.0305   -0.0008    0.0200   -0.0013   -0.0263
           7   -0.0041   -0.0085   -0.0018   -0.0025    0.0002   -0.0020    0.0005    0.0023
           8   -0.0021    0.0038    0.0144    0.0005   -0.0004    0.0057   -0.0005   -0.0033
           9    0.0151    0.0067   -0.0057   -0.0122    0.0023   -0.0111    0.0031    0.0256
          10    0.0176   -0.0106    0.0123    0.0086   -0.0035   -0.0018   -0.0050    0.0013
          11   -0.0120    0.0039   -0.0012   -0.0058    0.0017   -0.0006   -0.0034    0.0044
          12    0.0305    0.0120   -0.0118   -0.0046    0.0095    0.0178    0.0182   -0.0203
          13    0.0293   -0.0137    0.0171    0.0161   -0.0040   -0.0027   -0.0072    0.0005
          14   -0.0177    0.0057   -0.0141   -0.0060    0.0013    0.0086    0.0054   -0.0103
          15   -0.0076   -0.0006    0.0177   -0.0266    0.0035   -0.0190    0.0033    0.0347
          16   -0.0179    0.0022   -0.0123   -0.0105   -0.0213    0.0072   -0.0152    0.0016
          17    0.0311   -0.0073    0.0248    0.0022    0.0119    0.0059    0.0087   -0.0092
          18    0.0032    0.0086   -0.0159    0.0005    0.0196   -0.0053    0.0088    0.0031
          19   -0.0067    0.0050   -0.0099   -0.0081   -0.0152    0.0016    0.0132   -0.0042
          20    0.0116    0.0013   -0.0099   -0.0143    0.0137    0.0122    0.0106   -0.0110
          21   -0.0239   -0.0034    0.0020    0.0064    0.0299   -0.0018   -0.0285    0.0099
          22    0.0164   -0.0072    0.0134    0.0059    0.0182   -0.0023    0.0200   -0.0070
          23   -0.0111    0.0016   -0.0021   -0.0008   -0.0020   -0.0006   -0.0008    0.0008
          24    0.0288    0.0071   -0.0100   -0.0148   -0.0112    0.0168   -0.0238   -0.0013
          25   -0.0178    0.0059   -0.0133    0.0002    0.0091   -0.0009   -0.0191    0.0069
          26   -0.0256    0.0012   -0.0107    0.0027   -0.0104   -0.0081   -0.0036    0.0057
          27   -0.0264   -0.0050    0.0047   -0.0021   -0.0319   -0.0095    0.0299   -0.0038
          28   -0.0019   -0.0457   -0.0091   -0.0129    0.0053    0.0085    0.0012   -0.0036
          29   -0.0020    0.0066    0.0264    0.0015   -0.0010    0.0111   -0.0014   -0.0061
          30    0.0031    0.0026   -0.0022   -0.0090    0.0013   -0.0281   -0.0095   -0.0395
          31   -0.0384    0.0299   -0.0892    0.0425    0.0687   -0.0947    0.1077    0.0000
          32    0.0616   -0.0047   -0.1039    0.1288   -0.1292   -0.1113   -0.0698    0.0704
          33   -0.0209   -0.0190    0.0118    0.0398    0.0093   -0.0405    0.0309   -0.0024
          34    0.0357    0.0494    0.1091   -0.0693   -0.0038   -0.0373   -0.0228    0.0192
          35    0.0712   -0.0124   -0.0785    0.0124    0.0151    0.0002    0.0680    0.1131
          36    0.0413    0.0123    0.0239   -0.0340    0.0024   -0.0206    0.0068    0.0377
          37   -0.0610    0.0437   -0.0030    0.0956   -0.0038    0.0781    0.0176   -0.0502
          38   -0.0412   -0.0596    0.0109   -0.0051   -0.0031   -0.0498   -0.0872   -0.0811
          39    0.0156   -0.0032    0.0107   -0.0219    0.0006   -0.0181   -0.0079    0.0063
          40    0.0600   -0.0728   -0.0038    0.0416   -0.0124   -0.0234   -0.0130    0.0119
          41   -0.0106   -0.0388   -0.0148   -0.0117    0.0018   -0.0229    0.0018    0.0221
          42    0.0748   -0.0033   -0.0778    0.1042   -0.0313    0.0672    0.0031   -0.0937
          43   -0.0231    0.0385   -0.0381   -0.0025    0.0927   -0.0035    0.0430   -0.0053
          44    0.0197    0.0005    0.0199   -0.0045    0.0163    0.0132    0.0115   -0.0122
          45   -0.0736    0.0114   -0.0134   -0.0603   -0.1152    0.0604   -0.0549   -0.0076
          46    0.0658    0.0379   -0.0612   -0.0582   -0.0605    0.0487   -0.0732    0.0040
          47   -0.0106    0.0151   -0.0366   -0.0153   -0.0061    0.0110   -0.0269    0.0105
          48   -0.0347   -0.0453    0.0723    0.0611    0.0885   -0.0433    0.0864   -0.0123
          49   -0.0670    0.0075   -0.0129   -0.0187    0.0936    0.0162   -0.0348    0.0061
          50    0.0066    0.0055   -0.0146   -0.0265    0.0242    0.0193    0.0152   -0.0148
          51    0.0707    0.0251   -0.0265   -0.0649   -0.1290    0.0210    0.1126   -0.0413
          52   -0.0728   -0.0120    0.0033   -0.0217   -0.0759   -0.0135    0.0712   -0.0154
          53   -0.0095   -0.0021    0.0034    0.0193   -0.0163   -0.0170   -0.0217    0.0176
          54    0.0452    0.0372   -0.0582    0.0055    0.1448    0.0328   -0.1093    0.0158
          55   -0.0000    0.0783    0.0243    0.0172   -0.0072   -0.0070   -0.0019    0.0004
          56    0.0005    0.1905    0.0789    0.0465   -0.0197   -0.0098   -0.0063   -0.0009
          57   -0.0338   -0.0019   -0.0131    0.0647   -0.0043    0.1296    0.0449    0.1462
          58    0.0010    0.0727    0.0071    0.0168   -0.0064   -0.0152    0.0000    0.0074
          59   -0.0065   -0.1763    0.0033   -0.0458    0.0177    0.0468   -0.0004   -0.0283
          60   -0.0151   -0.0313    0.0464    0.0343   -0.0131    0.1173    0.0283    0.1540


   Root No.      25        26        27        28        29        30        31        32

                25 A      26 A      27 A      28 A      29 A      30 A      31 A      32 A   

                1036.3    1053.7    1057.1    1065.6    1120.1    1143.0    1155.0    1188.9
  
           1    0.0072    0.0069   -0.0144   -0.0013   -0.0001    0.0033   -0.0231   -0.0086
           2    0.0031    0.0012   -0.0052   -0.0041    0.0168    0.0247   -0.0201    0.0392
           3    0.0286   -0.0032    0.0086    0.0058   -0.0010    0.0043   -0.0159   -0.0070
           4   -0.0037    0.0171    0.0131    0.0006   -0.0006   -0.0014    0.0071   -0.0063
           5    0.0023    0.0233    0.0040    0.0011   -0.0040   -0.0005   -0.0000   -0.0106
           6    0.0007    0.0074    0.0078   -0.0023    0.0012    0.0019   -0.0037   -0.0012
           7    0.0029   -0.0032   -0.0092    0.0040   -0.0005    0.0082   -0.0361    0.0010
           8   -0.0011   -0.0010    0.0024   -0.0004    0.0001   -0.0005    0.0012   -0.0013
           9   -0.0010    0.0127   -0.0336    0.0101   -0.0013   -0.0060    0.0131   -0.0001
          10   -0.0025   -0.0031    0.0028   -0.0003    0.0013   -0.0019    0.0142    0.0077
          11   -0.0040    0.0040    0.0052   -0.0047    0.0073   -0.0022   -0.0012    0.0331
          12    0.0048    0.0082   -0.0096    0.0011    0.0122    0.0009   -0.0012    0.0135
          13   -0.0021    0.0014    0.0052    0.0066    0.0070   -0.0028    0.0112    0.0136
          14   -0.0012   -0.0364   -0.0144   -0.0085   -0.0030   -0.0034    0.0184    0.0022
          15    0.0025   -0.0194    0.0191   -0.0045   -0.0037   -0.0010    0.0036   -0.0009
          16    0.0119   -0.0024    0.0053   -0.0040   -0.0009    0.0030   -0.0007   -0.0047
          17    0.0275   -0.0010    0.0005    0.0262   -0.0154    0.0006   -0.0014   -0.0060
          18   -0.0528   -0.0003   -0.0043   -0.0072   -0.0043    0.0034   -0.0077   -0.0071
          19   -0.0057    0.0010   -0.0011    0.0048    0.0093    0.0040    0.0046    0.0128
          20    0.0022   -0.0074   -0.0090   -0.0187   -0.0207   -0.0071    0.0064   -0.0142
          21    0.0023   -0.0059    0.0052    0.0035    0.0014   -0.0008    0.0055    0.0032
          22   -0.0235    0.0000   -0.0051   -0.0255   -0.0071   -0.0044    0.0078   -0.0092
          23   -0.0029   -0.0012    0.0052    0.0271    0.0039    0.0081   -0.0056   -0.0099
          24    0.0173   -0.0018    0.0019   -0.0196   -0.0023   -0.0055    0.0080   -0.0062
          25    0.0060    0.0005   -0.0007   -0.0155   -0.0043    0.0018    0.0007    0.0018
          26   -0.0012    0.0034   -0.0064   -0.0399    0.0009   -0.0068   -0.0048   -0.0223
          27   -0.0139    0.0038   -0.0037   -0.0053    0.0022    0.0041   -0.0003    0.0029
          28   -0.0037    0.0055    0.0070   -0.0014   -0.0018   -0.0050    0.0138   -0.0028
          29   -0.0037    0.0010    0.0070    0.0017   -0.0026   -0.0040    0.0050   -0.0080
          30   -0.0003   -0.0086    0.0227   -0.0045   -0.0002    0.0015   -0.0039    0.0003
          31    0.2805    0.0230   -0.0260    0.0466    0.0204   -0.0319    0.1249    0.0311
          32   -0.1266   -0.0121    0.0195    0.0764   -0.0995   -0.0948    0.1082   -0.1080
          33    0.1437    0.0041    0.0035    0.0252    0.0085   -0.0100    0.0462    0.0115
          34   -0.0145   -0.0064   -0.0603    0.0125   -0.0045   -0.0156    0.0507   -0.0207
          35    0.0322    0.1268    0.2258   -0.0151   -0.0047    0.0322   -0.1111   -0.0054
          36    0.0022    0.0250    0.0226    0.0026   -0.0027    0.0009   -0.0046   -0.0112
          37    0.0029   -0.0379    0.0865   -0.0213   -0.0014   -0.0018    0.0168   -0.0221
          38   -0.0190    0.2633   -0.1517    0.0561    0.0092    0.0178   -0.0643    0.0035
          39   -0.0016    0.0238   -0.0238    0.0069    0.0007    0.0010   -0.0052    0.0056
          40    0.0171   -0.2068   -0.0614    0.0355    0.0317    0.0124   -0.1053    0.0167
          41    0.0143   -0.1974   -0.0535    0.0093    0.0134    0.0084   -0.0677    0.0043
          42   -0.0007   -0.0094   -0.0481    0.0136    0.0067   -0.0014   -0.0157   -0.0012
          43   -0.1534   -0.0082    0.0164    0.1100   -0.1175   -0.0855   -0.0187    0.1826
          44    0.0076   -0.0043    0.0095    0.0697   -0.0528   -0.0273   -0.0045    0.0582
          45    0.0505   -0.0128    0.0391    0.1077   -0.0903   -0.0687   -0.0047    0.1551
          46    0.0302   -0.0058    0.0091   -0.0162    0.0224    0.0280    0.0344   -0.0008
          47   -0.1082   -0.0181    0.0373    0.0975    0.1747    0.2149    0.1408    0.0403
          48   -0.0922   -0.0009   -0.0048   -0.0081    0.0189    0.0283    0.0284    0.0007
          49   -0.0156   -0.0241    0.0344    0.1773    0.1445   -0.1175   -0.0558   -0.1599
          50   -0.0032   -0.0131   -0.0005    0.0355    0.0254   -0.0486   -0.0150   -0.0716
          51   -0.0189    0.0063   -0.0002    0.0800    0.0800   -0.0541   -0.0339   -0.0725
          52   -0.0023   -0.0079   -0.0149    0.0382   -0.1271    0.1410   -0.0072   -0.0852
          53   -0.0250    0.0205    0.0046   -0.1056    0.1589   -0.1763    0.0042    0.0848
          54    0.0478   -0.0144    0.0013    0.0189   -0.0751    0.0755   -0.0022   -0.0491
          55    0.0023   -0.0047   -0.0039    0.0042   -0.0034   -0.0011   -0.0106   -0.0066
          56    0.0039   -0.0142   -0.0076    0.0110   -0.0063   -0.0000   -0.0288   -0.0144
          57    0.0042    0.0296   -0.0717    0.0107    0.0029   -0.0046    0.0159   -0.0052
          58    0.0090   -0.0052   -0.0141   -0.0032    0.0076    0.0123   -0.0235    0.0024
          59   -0.0246    0.0176    0.0439    0.0047   -0.0186   -0.0323    0.0641   -0.0185
          60    0.0058    0.0325   -0.0847    0.0165    0.0014   -0.0021    0.0058   -0.0021


   Root No.      33        34        35        36        37        38        39        40

                33 A      34 A      35 A      36 A      37 A      38 A      39 A      40 A   

                1231.4    1284.9    1316.1    1347.6    1370.7    1387.4    1431.8    1495.1
  
           1   -0.0279   -0.0011    0.0019    0.0151   -0.0373    0.0096    0.0873    0.0683
           2   -0.0146   -0.0449    0.0244    0.0112    0.0292   -0.0229    0.0289   -0.0632
           3   -0.0155    0.0134   -0.0083    0.0086   -0.0055   -0.0050    0.0404    0.0180
           4    0.0259   -0.0170    0.0091   -0.0267    0.0156    0.0494    0.0364   -0.0193
           5   -0.0168   -0.0123   -0.0369    0.0735    0.0254    0.0351   -0.0170   -0.0101
           6   -0.0023   -0.0017   -0.0047    0.0077    0.0051    0.0095    0.0005   -0.0019
           7   -0.0073    0.0607   -0.0213    0.0136    0.0205   -0.0230   -0.0663   -0.0127
           8   -0.0042   -0.0060   -0.0194   -0.0215   -0.0002    0.0011   -0.0005    0.0017
           9    0.0056   -0.0014    0.0009   -0.0025    0.0013   -0.0003   -0.0045   -0.0023
          10   -0.0243    0.0049    0.0081   -0.0048    0.0037   -0.0161   -0.0037   -0.0111
          11    0.0047   -0.0051    0.0054   -0.0023   -0.0239    0.0329   -0.0552    0.1167
          12   -0.0023   -0.0066    0.0058   -0.0024   -0.0022    0.0056   -0.0172    0.0291
          13   -0.0214   -0.0052    0.0160   -0.0094    0.0104   -0.0123   -0.0297    0.0377
          14   -0.0262    0.0222    0.0312   -0.0382   -0.0074   -0.0361    0.0127   -0.0005
          15   -0.0055    0.0049    0.0051   -0.0065   -0.0012   -0.0068    0.0018    0.0017
          16   -0.0010   -0.0203    0.0159   -0.0075   -0.0099    0.0106   -0.0392   -0.0423
          17   -0.0109    0.0153   -0.0073    0.0033   -0.0173    0.0046    0.0202    0.0115
          18   -0.0053   -0.0163    0.0134   -0.0048   -0.0110    0.0093   -0.0281   -0.0316
          19    0.0024    0.0126   -0.0077    0.0054   -0.0262    0.0113    0.0031   -0.0430
          20    0.0154    0.0202   -0.0174    0.0067   -0.0064   -0.0038    0.0291   -0.0663
          21   -0.0011    0.0084   -0.0032    0.0012   -0.0121    0.0034    0.0011   -0.0230
          22    0.0125    0.0002   -0.0024   -0.0035    0.0194   -0.0079   -0.0050    0.0168
          23   -0.0155   -0.0130    0.0151   -0.0065   -0.0320    0.0213   -0.0415   -0.0467
          24    0.0104    0.0007   -0.0021   -0.0031    0.0148   -0.0059   -0.0057    0.0103
          25    0.0103    0.0058   -0.0092    0.0055   -0.0005    0.0010    0.0159   -0.0158
          26    0.0132   -0.0122    0.0027   -0.0040    0.0455   -0.0211    0.0054    0.0601
          27    0.0053    0.0030   -0.0049    0.0035   -0.0018    0.0017    0.0084   -0.0082
          28    0.0025   -0.0126    0.0016   -0.0009   -0.0038    0.0062    0.0095    0.0031
          29    0.0090    0.0022   -0.0158   -0.0327   -0.0013    0.0018   -0.0061   -0.0042
          30   -0.0012    0.0004   -0.0005    0.0003   -0.0001    0.0001    0.0010    0.0004
          31    0.0626   -0.0160    0.0093   -0.0185    0.0277   -0.0003   -0.0656   -0.0276
          32    0.0218    0.0501   -0.0263   -0.0183   -0.0361    0.0223   -0.0058    0.0322
          33    0.0233    0.0042   -0.0038   -0.0059    0.0220   -0.0079   -0.0254   -0.0218
          34    0.0402   -0.1111   -0.0566    0.0839   -0.0839   -0.1209   -0.0255    0.0127
          35    0.0948    0.0528    0.0259   -0.0986   -0.0392   -0.0510    0.0180   -0.0135
          36    0.0478   -0.0571   -0.0361    0.0389   -0.0994   -0.1587   -0.0365    0.0248
          37    0.0363   -0.1082   -0.0675    0.0906   -0.1023   -0.1539   -0.0371    0.0226
          38    0.1044    0.0191    0.0210   -0.0787   -0.0589   -0.0837    0.0040   -0.0067
          39   -0.0111    0.0409    0.0299   -0.0429    0.0648    0.1099    0.0341   -0.0231
          40    0.1541   -0.0456   -0.0287    0.0070   -0.0172    0.0769   -0.0144    0.0378
          41    0.1028   -0.0055   -0.0018   -0.0257   -0.0299    0.0284    0.0261   -0.0023
          42    0.0210    0.0007   -0.0009   -0.0072   -0.0077    0.0068    0.0089    0.0041
          43    0.0285   -0.0148   -0.0253    0.0085    0.0758   -0.0463    0.0592    0.0191
          44   -0.0008    0.0178   -0.0213    0.0087    0.0105   -0.0144    0.0541    0.0294
          45    0.0289   -0.0094   -0.0217    0.0065    0.0664   -0.0394    0.0428    0.0126
          46    0.0274    0.0167   -0.0160    0.0019    0.0327   -0.0170    0.0175    0.0378
          47    0.0602    0.0885   -0.0650    0.0267    0.0309   -0.0260    0.0919    0.0595
          48    0.0221    0.0156   -0.0143    0.0010    0.0267   -0.0139    0.0114    0.0256
          49   -0.0202   -0.0474    0.0256   -0.0156    0.0918   -0.0524    0.0106    0.0394
          50    0.0108    0.0007   -0.0079    0.0003    0.0338   -0.0250    0.0341   -0.0409
          51   -0.0036   -0.0261    0.0115   -0.0065    0.0444   -0.0231    0.0043    0.0189
          52    0.0100   -0.0456    0.0212   -0.0140    0.0638   -0.0213   -0.0154    0.0803
          53    0.0155    0.0522   -0.0365    0.0213   -0.0310    0.0048    0.0488   -0.0591
          54    0.0076   -0.0258    0.0115   -0.0081    0.0367   -0.0112   -0.0105    0.0490
          55    0.0324    0.0558    0.1043    0.1147    0.0000   -0.0088   -0.0061    0.0056
          56    0.0602    0.1084    0.1531    0.1510    0.0034   -0.0210   -0.0272   -0.0004
          57    0.0066   -0.0004    0.0046    0.0022    0.0005    0.0018   -0.0073   -0.0029
          58   -0.0359   -0.0175   -0.1095   -0.1017    0.0079    0.0003   -0.0215   -0.0089
          59    0.0762    0.0178    0.1730    0.1389   -0.0202    0.0108    0.0408    0.0150
          60   -0.0000    0.0009    0.0011    0.0002   -0.0015   -0.0011    0.0046    0.0019


   Root No.      41        42        43        44        45        46        47        48

                41 A      42 A      43 A      44 A      45 A      46 A      47 A      48 A   

                1809.0    1831.7    1883.2    1921.3    2840.2    2969.6    3043.0    3053.5
  
           1   -0.0061    0.0176   -0.0199   -0.0117    0.0290   -0.0001    0.0005    0.0002
           2    0.0005    0.0016   -0.0090   -0.0186   -0.0007   -0.0000   -0.0001   -0.0000
           3   -0.0012    0.0151   -0.0063    0.0004   -0.0673   -0.0002   -0.0000    0.0002
           4    0.0059    0.0038    0.0091    0.0121   -0.0002    0.0048   -0.0408    0.0000
           5    0.0034   -0.0007   -0.0058   -0.0199   -0.0000    0.0077   -0.0118    0.0000
           6    0.0014   -0.0001   -0.0002   -0.0000    0.0000   -0.0602   -0.0031   -0.0000
           7   -0.0015    0.0006    0.0016    0.0022    0.0009   -0.0000   -0.0006    0.0001
           8    0.0041    0.0189    0.0692    0.2142    0.0009    0.0002    0.0005   -0.0000
           9   -0.0008    0.0015    0.0003    0.0034   -0.0002   -0.0001   -0.0000    0.0001
          10    0.0529    0.0651    0.1513   -0.0869    0.0011    0.0001    0.0009   -0.0003
          11   -0.0061    0.0041    0.0276   -0.0236   -0.0009    0.0000    0.0005    0.0001
          12   -0.0022    0.0041    0.0212   -0.0124   -0.0003   -0.0003    0.0002   -0.0001
          13   -0.0648   -0.0593   -0.1134    0.0660   -0.0007   -0.0003    0.0002    0.0001
          14   -0.0115   -0.0058   -0.0122    0.0007    0.0001    0.0001   -0.0015   -0.0000
          15   -0.0048   -0.0031   -0.0069    0.0032   -0.0003   -0.0001   -0.0003    0.0000
          16    0.0229   -0.1068    0.0274   -0.0019   -0.0012   -0.0000   -0.0000    0.0058
          17    0.0320   -0.1048    0.0294   -0.0026   -0.0001   -0.0000   -0.0000   -0.0269
          18    0.0200   -0.0879    0.0232   -0.0027   -0.0012    0.0000   -0.0000    0.0040
          19    0.1586    0.0220   -0.0666    0.0284   -0.0001   -0.0000   -0.0001    0.0008
          20   -0.0320   -0.0089   -0.0171    0.0121    0.0000   -0.0000    0.0000   -0.0041
          21    0.0797    0.0127   -0.0314    0.0132   -0.0002   -0.0001   -0.0001    0.0003
          22   -0.0056    0.0788   -0.0218    0.0037    0.0005    0.0000   -0.0000   -0.0250
          23   -0.0673    0.1414   -0.0328    0.0036    0.0009    0.0000    0.0000    0.0071
          24   -0.0081    0.0660   -0.0176    0.0031    0.0001   -0.0000   -0.0000   -0.0194
          25   -0.1581   -0.0303    0.0341   -0.0102    0.0001    0.0000   -0.0001    0.0088
          26    0.0929   -0.0124   -0.0112    0.0044   -0.0003   -0.0000   -0.0001    0.0084
          27   -0.0833   -0.0168    0.0181   -0.0055    0.0002    0.0000   -0.0000    0.0046
          28    0.0002   -0.0001   -0.0007   -0.0016   -0.0000    0.0000   -0.0000    0.0005
          29   -0.0041   -0.0180   -0.0567   -0.1620   -0.0004   -0.0001   -0.0001   -0.0004
          30    0.0000   -0.0001   -0.0005   -0.0017   -0.0002   -0.0001   -0.0000    0.0000
          31   -0.0004    0.0017    0.0065   -0.0072   -0.3512   -0.0005   -0.0002    0.0004
          32    0.0097   -0.0028    0.0190    0.0036    0.0054    0.0003    0.0001   -0.0006
          33    0.0024   -0.0003    0.0011    0.0000    0.8320    0.0010    0.0006    0.0000
          34    0.0006    0.0008    0.0003   -0.0051    0.0000   -0.2969    0.2988   -0.0002
          35    0.0101    0.0117    0.0243    0.0135   -0.0000   -0.1198    0.1262   -0.0001
          36    0.0007    0.0039    0.0075   -0.0044   -0.0000    0.3053   -0.3633    0.0002
          37    0.0014   -0.0005    0.0008    0.0025   -0.0010    0.2415    0.1894   -0.0001
          38    0.0097    0.0099    0.0191    0.0062    0.0003    0.0272    0.0140   -0.0000
          39    0.0021   -0.0004   -0.0018    0.0027   -0.0019    0.4240    0.4007   -0.0002
          40   -0.0086   -0.0140   -0.0260    0.0232   -0.0024    0.0020   -0.0103   -0.0000
          41    0.0434    0.0407    0.0801   -0.0538    0.0029   -0.0015    0.0108    0.0000
          42    0.0049    0.0116    0.0199   -0.0121   -0.0003   -0.0015    0.0018    0.0000
          43   -0.0018    0.0491   -0.0178    0.0006    0.0017    0.0001   -0.0002   -0.0693
          44    0.0310   -0.0815    0.0241   -0.0031   -0.0020   -0.0002    0.0010    0.3195
          45   -0.0013    0.0393   -0.0140    0.0005   -0.0017    0.0000   -0.0002   -0.0481
          46   -0.0053    0.0632   -0.0175    0.0030    0.0027    0.0000    0.0005    0.2941
          47   -0.0308   -0.0695    0.0260   -0.0048   -0.0004   -0.0000   -0.0002   -0.0840
          48   -0.0071    0.0519   -0.0132    0.0032    0.0007    0.0000    0.0004    0.2293
          49   -0.0011   -0.0026    0.0287   -0.0132    0.0000   -0.0001    0.0004   -0.0123
          50   -0.1146   -0.0255    0.0175   -0.0012    0.0006    0.0003   -0.0015    0.0480
          51    0.0061   -0.0061    0.0021    0.0004   -0.0002   -0.0000    0.0002   -0.0056
          52   -0.0393    0.0047    0.0114   -0.0053   -0.0002    0.0000    0.0012   -0.0990
          53   -0.0975   -0.0641    0.0259   -0.0043   -0.0003    0.0000    0.0012   -0.0998
          54   -0.0168    0.0019    0.0027   -0.0010   -0.0001    0.0000    0.0006   -0.0511
          55    0.0025    0.0141    0.0421    0.1200    0.0013    0.0006    0.0005   -0.0060
          56   -0.0015   -0.0012   -0.0076   -0.0274   -0.0004   -0.0004   -0.0001    0.0040
          57   -0.0003    0.0003    0.0005    0.0019    0.0008   -0.0009   -0.0001    0.0001
          58   -0.0031   -0.0134   -0.0418   -0.1194   -0.0010   -0.0005   -0.0014    0.0006
          59    0.0001   -0.0012   -0.0075   -0.0251   -0.0006   -0.0006   -0.0001    0.0001
          60   -0.0000    0.0001   -0.0008   -0.0023   -0.0010    0.0005    0.0001   -0.0000


   Root No.      49        50        51        52        53        54

                49 A      50 A      51 A      52 A      53 A      54 A   

                3061.3    3072.4    3082.4    3131.0    3138.7    3144.1
  
           1   -0.0000   -0.0001    0.0002   -0.0011    0.0000    0.0001
           2   -0.0002   -0.0002    0.0003    0.0005    0.0002    0.0005
           3   -0.0001   -0.0003    0.0003    0.0003    0.0001   -0.0001
           4    0.0001   -0.0000   -0.0000    0.0019    0.0001    0.0001
           5    0.0000    0.0000   -0.0000    0.0006   -0.0003   -0.0004
           6   -0.0000    0.0000    0.0000   -0.0001    0.0001   -0.0001
           7    0.0001    0.0001   -0.0001   -0.0001   -0.0004   -0.0005
           8    0.0000    0.0000   -0.0000    0.0012   -0.0066    0.0044
           9    0.0000    0.0001   -0.0000    0.0001   -0.0001    0.0001
          10   -0.0000    0.0000    0.0010   -0.0068    0.0001   -0.0001
          11   -0.0000    0.0003    0.0002   -0.0008    0.0001   -0.0001
          12   -0.0000   -0.0000    0.0003   -0.0006    0.0000   -0.0000
          13   -0.0000    0.0000   -0.0002    0.0501   -0.0006    0.0004
          14    0.0001   -0.0001   -0.0001   -0.0574    0.0007   -0.0004
          15   -0.0000   -0.0000   -0.0000   -0.0102    0.0001   -0.0001
          16    0.0029    0.0035   -0.0009    0.0000    0.0003    0.0001
          17   -0.0173   -0.0308    0.0100    0.0000   -0.0016   -0.0003
          18    0.0020    0.0021   -0.0005    0.0000    0.0002    0.0000
          19   -0.0052    0.0063    0.0112    0.0002   -0.0000   -0.0000
          20    0.0225   -0.0195   -0.0305    0.0003   -0.0000    0.0000
          21   -0.0023    0.0029    0.0052    0.0000   -0.0000   -0.0000
          22   -0.0006    0.0232   -0.0115   -0.0000    0.0001    0.0001
          23    0.0014   -0.0029    0.0024    0.0001    0.0001    0.0000
          24   -0.0004    0.0182   -0.0089   -0.0000    0.0001    0.0000
          25   -0.0231   -0.0016   -0.0195    0.0002   -0.0000    0.0000
          26   -0.0233    0.0007   -0.0160   -0.0000    0.0000    0.0000
          27   -0.0119   -0.0008   -0.0101    0.0001    0.0000    0.0000
          28    0.0003    0.0006   -0.0002   -0.0000   -0.0386   -0.0639
          29   -0.0003   -0.0005    0.0001    0.0007    0.0458   -0.0293
          30    0.0000    0.0000   -0.0000    0.0000    0.0001   -0.0008
          31   -0.0001   -0.0005    0.0003    0.0007    0.0004   -0.0000
          32   -0.0004   -0.0006    0.0002    0.0002    0.0000    0.0003
          33    0.0006    0.0012   -0.0005   -0.0022   -0.0008    0.0004
          34   -0.0010    0.0002    0.0000   -0.0102    0.0002    0.0003
          35   -0.0004    0.0000    0.0000   -0.0072   -0.0002   -0.0006
          36    0.0012   -0.0002   -0.0001    0.0117   -0.0002   -0.0002
          37   -0.0006    0.0001   -0.0001   -0.0040   -0.0005    0.0007
          38   -0.0000    0.0000    0.0001   -0.0019   -0.0004   -0.0002
          39   -0.0012    0.0002   -0.0001   -0.0099   -0.0008    0.0010
          40    0.0003   -0.0007   -0.0005   -0.5162    0.0055   -0.0037
          41   -0.0001    0.0007    0.0003    0.6747   -0.0072    0.0048
          42    0.0001    0.0001   -0.0000    0.1231   -0.0013    0.0009
          43   -0.0422   -0.0681    0.0208    0.0002   -0.0031   -0.0004
          44    0.1993    0.3282   -0.1009   -0.0007    0.0175    0.0036
          45   -0.0291   -0.0469    0.0144    0.0001   -0.0023   -0.0003
          46    0.0139   -0.2476    0.1207    0.0005   -0.0011   -0.0006
          47   -0.0075    0.0681   -0.0353   -0.0002    0.0002    0.0002
          48    0.0109   -0.1931    0.0942    0.0004   -0.0009   -0.0005
          49    0.0716   -0.0626   -0.0952    0.0007   -0.0001    0.0001
          50   -0.2681    0.2273    0.3421   -0.0012    0.0001   -0.0004
          51    0.0322   -0.0281   -0.0430    0.0004   -0.0000    0.0001
          52    0.2660    0.0047    0.1899   -0.0000    0.0001   -0.0002
          53    0.2773    0.0006    0.1953    0.0001    0.0001   -0.0002
          54    0.1368    0.0026    0.0977    0.0001    0.0000   -0.0001
          55   -0.0042   -0.0075    0.0024    0.0080    0.6140    0.1231
          56    0.0028    0.0051   -0.0016   -0.0049   -0.3929   -0.0985
          57    0.0000    0.0001   -0.0000   -0.0000    0.0014    0.0000
          58    0.0003    0.0004    0.0002   -0.0081   -0.1524    0.6391
          59    0.0000   -0.0001    0.0002   -0.0048   -0.0755    0.3962
          60   -0.0000   -0.0000    0.0000   -0.0001   -0.0019    0.0085


           MASS-WEIGHTED COORDINATE ANALYSIS (NORMAL COORDINATES)


   Root No.       1         2         3         4         5         6         7         8

                 1 A       2 A       3 A       4 A       5 A       6 A       7 A       8 A   

                  93.8     174.8     231.4     275.6     380.4     421.6     489.0     501.1
  
           1   -0.0139    0.0590   -0.0016   -0.1270   -0.1467    0.0335    0.0193   -0.1267
           2    0.0433    0.0285    0.1207    0.1465   -0.0597    0.1934    0.1929    0.1525
           3   -0.0865   -0.3211   -0.2079    0.0781    0.2557    0.0611    0.1139   -0.0350
           4    0.0076    0.0325    0.0249   -0.0863   -0.1269    0.0650   -0.0085    0.2430
           5    0.0424    0.0005   -0.0010   -0.0063    0.1034   -0.1702   -0.1641   -0.1538
           6   -0.3466    0.3407   -0.1877    0.0976   -0.0993    0.0114   -0.0186    0.0090
           7   -0.0019    0.0487    0.0582   -0.0316   -0.1862    0.1834    0.1481    0.1485
           8    0.0224    0.0294    0.0552    0.0846   -0.0032    0.0113    0.0952   -0.1887
           9    0.0262    0.0112   -0.1924    0.0557    0.3430    0.0131   -0.2136    0.4403
          10   -0.0341    0.1045   -0.0451   -0.1347   -0.0580   -0.1848   -0.1842    0.0219
          11    0.0077    0.0501    0.0481    0.1380   -0.0144    0.0818    0.1377    0.3028
          12    0.0532   -0.3304    0.0689    0.0360    0.0628    0.3224   -0.0866   -0.1508
          13   -0.0306    0.0941   -0.0561   -0.1303   -0.0614   -0.1752   -0.2158    0.0101
          14    0.0174    0.0452   -0.0742    0.1265    0.0714   -0.0367   -0.0804   -0.0141
          15   -0.1279   -0.0562    0.4526   -0.3278    0.0743   -0.1810    0.0483   -0.0047
          16    0.1506    0.0234   -0.2020   -0.2112    0.2218    0.2217   -0.0628   -0.2709
          17   -0.0084   -0.0088   -0.0254   -0.1055   -0.0209    0.0314    0.0373    0.0607
          18   -0.3105   -0.2889   -0.0122    0.0537   -0.1716   -0.2344    0.1937   -0.0554
          19   -0.1124    0.0451    0.1128    0.0165    0.1411    0.0750    0.1526    0.1209
          20   -0.0317    0.0179    0.0215   -0.0310   -0.0345    0.0144   -0.0639    0.2147
          21    0.2997   -0.1283   -0.1675    0.1280   -0.3281   -0.0222   -0.2698    0.0606
          22    0.1252   -0.2431   -0.2385    0.0157    0.0207   -0.1043    0.3329   -0.0789
          23   -0.0616   -0.0940   -0.1076   -0.2097   -0.0220   -0.0614   -0.0780   -0.0629
          24   -0.1954    0.1612    0.1511   -0.0779    0.0751    0.2959   -0.1016   -0.1373
          25   -0.0554   -0.2210    0.0751    0.1004   -0.1143    0.1158   -0.1071    0.0699
          26   -0.0551   -0.0677   -0.0732   -0.1986   -0.0426   -0.0645   -0.1392   -0.0065
          27    0.1747    0.3293   -0.1554   -0.1130    0.1615   -0.1281    0.2400    0.0544
          28   -0.0299    0.0736    0.2367    0.5015    0.1976   -0.1912   -0.0805   -0.0706
          29    0.0190    0.0273    0.0506    0.0805   -0.0008    0.0160    0.1042   -0.2069
          30    0.5115    0.1435    0.2202    0.0542   -0.1248   -0.0046    0.0495   -0.0846
          31   -0.0524   -0.0096    0.0198   -0.0262   -0.1243   -0.0531    0.1008   -0.0941
          32    0.0361   -0.0235    0.0718    0.0690   -0.0514    0.1821    0.0937   -0.0061
          33   -0.0459   -0.1020   -0.0489    0.0259    0.0362   -0.0103    0.0711   -0.0332
          34   -0.0787    0.1092   -0.0694    0.0486   -0.1779    0.0754    0.0690   -0.0811
          35    0.0092    0.0344   -0.1054    0.0525    0.0459   -0.0544   -0.1308   -0.0266
          36   -0.1774    0.2057   -0.1678    0.1187   -0.1584    0.0566    0.0320   -0.1369
          37    0.1002   -0.1112    0.1068   -0.1070    0.1243   -0.0274   -0.0632    0.2664
          38    0.0258   -0.0534    0.1205   -0.0981    0.0664   -0.1357   -0.0573   -0.0734
          39   -0.1557    0.1694   -0.1177    0.0809   -0.1226    0.0350    0.0296   -0.1083
          40   -0.0144    0.0386   -0.0324   -0.0552   -0.0043   -0.1069   -0.1197   -0.0712
          41    0.0004    0.0176   -0.0620    0.0462    0.0341   -0.0255   -0.0702   -0.0662
          42   -0.0355    0.0073    0.2827   -0.2202    0.0034   -0.2077    0.0293    0.0247
          43    0.0874    0.0485   -0.1138   -0.1328    0.1989    0.1205   -0.0687   -0.1712
          44   -0.0039   -0.0055   -0.0149   -0.0427   -0.0008    0.0020   -0.0024    0.0027
          45   -0.1622   -0.1604    0.0244    0.0358   -0.2063   -0.2025    0.0371    0.0197
          46    0.0697   -0.1165   -0.1433    0.0122    0.0423   -0.1283    0.2411   -0.0230
          47   -0.0350   -0.0564   -0.0524   -0.0824   -0.0001   -0.0214   -0.0280   -0.0768
          48   -0.1055    0.0955    0.1307   -0.0410   -0.0225    0.2092   -0.2174   -0.0612
          49   -0.0637    0.0422    0.0886    0.0361    0.1303    0.1185    0.1583    0.0656
          50   -0.0075    0.0097    0.0120    0.0071   -0.0066    0.0153    0.0018    0.0811
          51    0.1682   -0.0642   -0.1223    0.0967   -0.2663   -0.1301   -0.1724    0.1007
          52   -0.0385   -0.1076    0.0803    0.0687   -0.0634    0.1340   -0.1351    0.0302
          53   -0.0182   -0.0353   -0.0445   -0.0777   -0.0051   -0.0307   -0.0163   -0.0493
          54    0.0991    0.2113   -0.1129   -0.0681    0.0922   -0.2071    0.2270    0.0930
          55   -0.0145    0.0245    0.0928    0.2282    0.1310   -0.1338   -0.0809   -0.0784
          56   -0.0031    0.0124    0.0506    0.1463    0.1087   -0.1104   -0.0533   -0.1468
          57    0.2352   -0.0196    0.1022    0.0004   -0.0421    0.0112    0.0902   -0.1695
          58   -0.0133    0.0238    0.0933    0.2280    0.1303   -0.1328   -0.0808   -0.0749
          59    0.0119    0.0020   -0.0258   -0.1063   -0.1109    0.1250    0.1192    0.0237
          60    0.1856    0.1366    0.1343    0.0244   -0.1716   -0.0164    0.0279   -0.0623


   Root No.       9        10        11        12        13        14        15        16

                 9 A      10 A      11 A      12 A      13 A      14 A      15 A      16 A   

                 522.6     560.1     616.7     687.0     699.7     760.5     815.7     824.8
  
           1   -0.2495   -0.0439    0.0285   -0.1064   -0.0508   -0.0061    0.0654   -0.0783
           2   -0.0324   -0.0544   -0.0266    0.0012    0.0020    0.0249    0.0099   -0.0804
           3   -0.0857    0.1867   -0.0612    0.0597    0.2681    0.1046   -0.0708    0.1895
           4   -0.1315    0.2274    0.0133    0.2885   -0.1598   -0.0743   -0.0430    0.1122
           5   -0.0744    0.0800    0.0354    0.2648   -0.1116   -0.0076    0.0485    0.0343
           6   -0.0459    0.0076    0.0121    0.0314   -0.0795    0.0289   -0.1610   -0.2361
[...]
 FREQ.      1231.36         C  5 -- H 14         +18.0% ( 57.5%)      0.4%
 T-DIPOLE    0.0705         C  1 -- C  4          +8.3% ( 39.1%)     63.3%
 TRAVEL      0.0994         C  2 -- C  5          +7.9% ( 38.0%)     28.9%
 RED. MASS   0.4357         C  1 -- H 11          +7.2% ( 36.3%)      0.3%
 EFF. MASS   5.5404

 VIBRATION   34   34A         ATOM PAIR      ENERGY CONTRIBUTION    RADIAL
 FREQ.      1284.92         C  1 -- C  3         +16.8% ( 56.2%)     95.7%
 T-DIPOLE    0.0920         C  2 -- C  3         +11.9% ( 47.3%)     57.8%
 TRAVEL      0.0831         C  3 -- C 10         +10.5% ( 44.3%)      1.0%
 RED. MASS   1.1314         C  1 -- C  6         +10.0% ( 43.4%)     44.9%
 EFF. MASS   7.5958

 VIBRATION   35   35A         ATOM PAIR      ENERGY CONTRIBUTION    RADIAL
 FREQ.      1316.14         C 10 -- H 20         +12.8% ( 45.3%)      0.8%
 T-DIPOLE    0.0778         C  2 -- C  5         +12.1% ( 44.1%)     93.0%
 TRAVEL      0.0976         C 10 -- H 19         +10.8% ( 41.5%)      1.9%
 RED. MASS   0.4380         C  2 -- C  3          +7.9% ( 35.7%)     96.5%
 EFF. MASS   5.3785

 VIBRATION   36   36A         ATOM PAIR      ENERGY CONTRIBUTION    RADIAL
 FREQ.      1347.57         C  2 -- C  5         +18.4% ( 59.3%)     75.3%
 T-DIPOLE    0.1408         C  2 -- H 12         +15.7% ( 54.9%)      0.1%
 TRAVEL      0.0867         C  2 -- C  3         +15.4% ( 54.3%)     72.6%
 RED. MASS   1.4761         C  2 -- H 13         +15.1% ( 53.7%)      0.1%
 EFF. MASS   6.6578

 VIBRATION   37   37A         ATOM PAIR      ENERGY CONTRIBUTION    RADIAL
 FREQ.      1370.69         C  8 -- C  9         +13.9% ( 52.2%)     99.5%
 T-DIPOLE    0.0700         C  1 -- C  4          +8.7% ( 41.3%)     87.3%
 TRAVEL      0.0805         C  7 -- C  9          +7.3% ( 37.8%)      4.3%
 RED. MASS   0.7551         C  1 -- C  3          +7.2% ( 37.5%)     20.6%
 EFF. MASS   7.6004

 VIBRATION   38   38A         ATOM PAIR      ENERGY CONTRIBUTION    RADIAL
 FREQ.      1387.37         C  2 -- H 13         +16.7% ( 54.1%)      6.5%
 T-DIPOLE    0.1244         C  2 -- H 12         +16.5% ( 53.8%)      6.9%
 TRAVEL      0.0861         C  2 -- C  5         +15.8% ( 52.8%)     89.0%
 RED. MASS   0.8197         C  2 -- C  3         +10.6% ( 43.2%)     23.1%
 EFF. MASS   6.5604

 VIBRATION   39   39A         ATOM PAIR      ENERGY CONTRIBUTION    RADIAL
 FREQ.      1431.84         C  1 -- C  3         +16.6% ( 64.4%)     75.8%
 T-DIPOLE    0.2273         C  1 -- C  6         +15.7% ( 62.6%)     87.7%
 TRAVEL      0.0657         C  1 -- C  4         +13.4% ( 57.9%)     15.5%
 RED. MASS   2.0691         C  1 -- H 11         +10.5% ( 51.2%)      0.1%
 EFF. MASS  10.9165

 VIBRATION   40   40A         ATOM PAIR      ENERGY CONTRIBUTION    RADIAL
 FREQ.      1495.10         C  4 -- C  7         +18.4% ( 66.0%)     74.6%
 T-DIPOLE    0.1513         C  1 -- C  4         +18.3% ( 65.8%)     97.8%
 TRAVEL      0.0626         C  4 -- C  5         +10.7% ( 50.2%)     13.9%
 RED. MASS   2.2784         C  1 -- C  6          +9.5% ( 47.4%)     84.1%
 EFF. MASS  11.4929

 VIBRATION   41   41A         ATOM PAIR      ENERGY CONTRIBUTION    RADIAL
 FREQ.      1809.05         C  7 -- C  9         +38.1% ( 91.6%)     99.7%
 T-DIPOLE    0.1342         C  8 -- C  9         +15.6% ( 58.7%)     72.1%
 TRAVEL      0.0559         C  9 -- H 18         +12.7% ( 52.8%)      3.9%
 RED. MASS   4.1418         C  4 -- C  7         +10.5% ( 48.2%)     28.6%
 EFF. MASS  11.9278         C  7 -- H 17         +10.1% ( 47.1%)      8.1%

 VIBRATION   42   42A         ATOM PAIR      ENERGY CONTRIBUTION    RADIAL
 FREQ.      1831.75         C  6 -- C  8         +38.1% ( 91.3%)    100.0%
 T-DIPOLE    0.4055         C  8 -- C  9         +12.5% ( 52.4%)     30.4%
 TRAVEL      0.0557         C  1 -- C  6         +12.1% ( 51.5%)     47.0%
 RED. MASS   4.0775         C  8 -- H 16         +11.4% ( 50.0%)      5.5%
 EFF. MASS  11.8536         C  6 -- H 15         +11.2% ( 49.5%)      5.3%

 VIBRATION   43   43A         ATOM PAIR      ENERGY CONTRIBUTION    RADIAL
 FREQ.      1883.19         C  4 -- C  5         +28.3% ( 79.3%)     97.2%
 T-DIPOLE    0.2867         C  4 -- C  7         +17.2% ( 61.9%)     65.7%
 TRAVEL      0.0549         C  1 -- C  4         +12.5% ( 52.8%)      2.0%
 RED. MASS   2.9023         C  3 -- C 10          +6.6% ( 38.3%)    100.0%
 EFF. MASS  11.8859

 VIBRATION   44   44A         ATOM PAIR      ENERGY CONTRIBUTION    RADIAL
 FREQ.      1921.25         C  3 -- C 10         +37.6% ( 90.7%)    100.0%
 T-DIPOLE    0.3497         C  2 -- C  3         +15.7% ( 58.5%)     38.5%
 TRAVEL      0.0543         C  1 -- C  3         +15.6% ( 58.5%)     40.2%
 RED. MASS   4.2758         C 10 -- H 19          +7.5% ( 40.6%)     11.7%
 EFF. MASS  11.9144

 VIBRATION   45   45A         ATOM PAIR      ENERGY CONTRIBUTION    RADIAL
 FREQ.      2840.20         C  1 -- H 11         +97.2% (100.0%)    100.0%
 T-DIPOLE    0.1414         C  1 -- C  3          +0.9% (  9.9%)      9.0%
 TRAVEL      0.1290         C  1 -- C  4          +0.9% (  9.9%)     10.6%
 RED. MASS   0.9298         C  1 -- C  6          +0.9% (  9.9%)      6.8%
 EFF. MASS   1.4269

 VIBRATION   46   46A         ATOM PAIR      ENERGY CONTRIBUTION    RADIAL
 FREQ.      2969.56         C  2 -- H 13         +53.4% ( 75.7%)     97.1%
 T-DIPOLE    0.0672         C  2 -- H 12         +44.5% ( 69.1%)     96.2%
 TRAVEL      0.1216         C  2 -- C  5          +1.1% ( 10.8%)      0.1%
 RED. MASS   0.5216         C  2 -- C  3          +1.1% ( 10.8%)      0.0%
 EFF. MASS   1.5347

 VIBRATION   47   47A         ATOM PAIR      ENERGY CONTRIBUTION    RADIAL
 FREQ.      3043.00         C  2 -- H 12         +54.1% ( 72.7%)     98.0%
 T-DIPOLE    0.1420         C  2 -- H 13         +44.4% ( 65.8%)     96.8%
 TRAVEL      0.1313         C  2 -- C  3          +0.7% (  8.4%)     36.1%
 RED. MASS   0.4877         C  2 -- C  5          +0.7% (  8.3%)     33.6%
 EFF. MASS   1.2854

 VIBRATION   48   48A         ATOM PAIR      ENERGY CONTRIBUTION    RADIAL
 FREQ.      3053.52         C  8 -- H 16         +50.8% ( 72.4%)    100.0%
 T-DIPOLE    0.2237         C  6 -- H 15         +37.9% ( 62.6%)    100.0%
 TRAVEL      0.1225         C  9 -- H 18          +7.8% ( 28.4%)    100.0%
 RED. MASS   0.3999         C  6 -- C  8          +1.0% ( 10.3%)      0.2%
 EFF. MASS   1.4714

 VIBRATION   49   49A         ATOM PAIR      ENERGY CONTRIBUTION    RADIAL
 FREQ.      3061.31         C  9 -- H 18         +56.5% ( 76.3%)    100.0%
 T-DIPOLE    0.3027         C  7 -- H 17         +26.5% ( 52.2%)    100.0%
 TRAVEL      0.1223         C  6 -- H 15         +14.3% ( 38.5%)    100.0%
 RED. MASS   0.4014         C  7 -- C  9          +1.0% ( 10.2%)      1.9%
 EFF. MASS   1.4730

 VIBRATION   50   50A         ATOM PAIR      ENERGY CONTRIBUTION    RADIAL
 FREQ.      3072.43         C  6 -- H 15         +40.3% ( 64.5%)     99.9%
 T-DIPOLE    0.4546         C  8 -- H 16         +36.3% ( 61.2%)     99.9%
 TRAVEL      0.1181         C  7 -- H 17         +19.8% ( 45.2%)    100.0%
 RED. MASS   0.3345         C  6 -- C  8          +1.6% ( 12.9%)    100.0%
 EFF. MASS   1.5723

 VIBRATION   51   51A         ATOM PAIR      ENERGY CONTRIBUTION    RADIAL
 FREQ.      3082.38         C  7 -- H 17         +49.8% ( 71.6%)     99.9%
 T-DIPOLE    0.3389         C  9 -- H 18         +32.6% ( 58.0%)     99.9%
 TRAVEL      0.1168         C  8 -- H 16          +9.6% ( 31.4%)    100.0%
 RED. MASS   0.3675         C  6 -- H 15          +4.2% ( 20.8%)     99.9%
 EFF. MASS   1.6046

 VIBRATION   52   52A         ATOM PAIR      ENERGY CONTRIBUTION    RADIAL
 FREQ.      3131.02         C  5 -- H 14         +96.5% ( 99.9%)    100.0%
 T-DIPOLE    0.4298         C  4 -- C  5          +1.8% ( 13.6%)     49.5%
 TRAVEL      0.1177         C  2 -- C  5          +1.6% ( 13.0%)     24.6%
 RED. MASS   0.9282
 EFF. MASS   1.5550

 VIBRATION   53   53A         ATOM PAIR      ENERGY CONTRIBUTION    RADIAL
 FREQ.      3138.72         C 10 -- H 19         +93.2% ( 97.3%)     99.7%
 T-DIPOLE    0.2717         C 10 -- H 20          +5.2% ( 22.9%)     35.6%
 TRAVEL      0.1216         C  3 -- C 10          +1.5% ( 12.3%)     64.4%
 RED. MASS   0.8425
 EFF. MASS   1.4536

 VIBRATION   54   54A         ATOM PAIR      ENERGY CONTRIBUTION    RADIAL
 FREQ.      3144.07         C 10 -- H 20         +92.5% ( 97.9%)     99.9%
 T-DIPOLE    0.2473         C 10 -- H 19          +6.1% ( 25.2%)     69.2%
 TRAVEL      0.1179         C  3 -- C 10          +1.4% ( 11.9%)     22.8%
 RED. MASS   0.8641
 EFF. MASS   1.5432

      SYMMETRY NUMBER FOR POINT-GROUP C1  =  1


          SYSTEM IS A GROUND STATE



 InChI=1S/C10H10/c1-8-6-7-9-4-2-3-5-10(8)9/h2-5,7,10H,1,6H2


          MOLECULE IS NOT LINEAR

          THERE ARE 54 GENUINE VIBRATIONS IN THIS SYSTEM
          THIS THERMODYNAMICS CALCULATION IS LIMITED TO
          MOLECULES WHICH HAVE NO INTERNAL ROTATIONS




                    CALCULATED THERMODYNAMIC PROPERTIES
                                          *
   TEMP. (K)   PARTITION FUNCTION   H.O.F.    ENTHALPY  HEAT CAPACITY ENTROPY
                                   KCAL/MOL   CAL/MOLE    CAL/K/MOL  CAL/K/MOL


 298.00  VIB.     0.2599D+02                  3153.8267    26.5311    17.0568
         ROT.     0.5068D+06                   888.2813     2.9808    29.0844
         INT.     0.1317D+08                  4042.1080    29.5119    46.1412
         TRA.     0.1436D+28                  1480.4688     4.9680    40.5022
         TOT.                       59.724    5522.5768    34.4799    86.6434

 200.00  VIB.     0.5299D+01                  1146.7763    14.6299     9.0477
         ROT.     0.2786D+06                   596.1620     2.9808    27.8957
         INT.     0.1477D+07                  1742.9383    17.6107    36.9434
         TRA.     0.7896D+27                   993.6033     4.9680    38.5210
         TOT.                       56.938    2736.5415    22.5788    75.4644

 210.00  VIB.     0.6134D+01                  1298.7453    15.7686     9.7889
         ROT.     0.2998D+06                   625.9700     2.9808    28.0411
         INT.     0.1839D+07                  1924.7154    18.7494    37.8300
         TRA.     0.8496D+27                  1043.2834     4.9680    38.7634
         TOT.                       57.170    2967.9988    23.7174    76.5935

 220.00  VIB.     0.7127D+01                  1462.2357    16.9337    10.5493
         ROT.     0.3215D+06                   655.7781     2.9808    28.1798
         INT.     0.2291D+07                  2118.0138    19.9145    38.7291
         TRA.     0.9110D+27                  1092.9636     4.9680    38.9945
         TOT.                       57.412    3210.9774    24.8825    77.7236

 230.00  VIB.     0.8313D+01                  1637.4955    18.1219    11.3281
         ROT.     0.3436D+06                   685.5862     2.9808    28.3123
         INT.     0.2857D+07                  2323.0817    21.1027    39.6404
         TRA.     0.9738D+27                  1142.6437     4.9680    39.2154
         TOT.                       57.667    3465.7255    26.0707    78.8558

 240.00  VIB.     0.9732D+01                  1824.7380    19.3296    12.1248
         ROT.     0.3663D+06                   715.3943     2.9808    28.4392
         INT.     0.3565D+07                  2540.1323    22.3104    40.5640
         TRA.     0.1038D+28                  1192.3239     4.9680    39.4268
         TOT.                       57.934    3732.4562    27.2784    79.9908

 250.00  VIB.     0.1143D+02                  2024.1395    20.5531    12.9387
         ROT.     0.3894D+06                   745.2024     2.9808    28.5608
         INT.     0.4453D+07                  2769.3420    23.5339    41.4995
         TRA.     0.1103D+28                  1242.0041     4.9680    39.6296
         TOT.                       58.213    4011.3460    28.5019    81.1291

 260.00  VIB.     0.1348D+02                  2235.8395    21.7886    13.7688
         ROT.     0.4130D+06                   775.0105     2.9808    28.6777
         INT.     0.5568D+07                  3010.8501    24.7694    42.4466
         TRA.     0.1170D+28                  1291.6842     4.9680    39.8245
         TOT.                       58.504    4302.5343    29.7375    82.2710

 270.00  VIB.     0.1595D+02                  2459.9401    23.0326    14.6144
         ROT.     0.4370D+06                   804.8186     2.9808    28.7902
         INT.     0.6971D+07                  3264.7588    26.0134    43.4047
         TRA.     0.1239D+28                  1341.3644     4.9680    40.0120
         TOT.                       58.808    4606.1232    30.9814    83.4166

 280.00  VIB.     0.1893D+02                  2696.5076    24.2814    15.4746
         ROT.     0.4616D+06                   834.6267     2.9808    28.8986
         INT.     0.8739D+07                  3531.1344    27.2622    44.3733
         TRA.     0.1308D+28                  1391.0445     4.9680    40.1926
         TOT.                       59.124    4922.1789    32.2303    84.5659

 290.00  VIB.     0.2255D+02                  2945.5739    25.5318    16.3485
         ROT.     0.4865D+06                   864.4348     2.9808    29.0033
         INT.     0.1097D+08                  3810.0087    28.5126    45.3518
         TRA.     0.1379D+28                  1440.7247     4.9680    40.3670
         TOT.                       59.452    5250.7334    33.4806    85.7187

 300.00  VIB.     0.2693D+02                  3207.1384    26.7806    17.2351
         ROT.     0.5119D+06                   894.2429     2.9808    29.1043
         INT.     0.1379D+08                  4101.3813    29.7614    46.3394
         TRA.     0.1451D+28                  1490.4049     4.9680    40.5354
         TOT.                       59.793    5591.7862    34.7294    86.8748

 310.00  VIB.     0.3227D+02                  3481.1708    28.0249    18.1336
         ROT.     0.5377D+06                   924.0510     2.9808    29.2020
         INT.     0.1735D+08                  4405.2218    31.0057    47.3356
         TRA.     0.1524D+28                  1540.0850     4.9680    40.6983
         TOT.                       60.147    5945.3069    35.9737    88.0339

 320.00  VIB.     0.3878D+02                  3767.6133    29.2622    19.0429
         ROT.     0.5639D+06                   953.8591     2.9808    29.2967
         INT.     0.2187D+08                  4721.4724    32.2430    48.3396
         TRA.     0.1598D+28                  1589.7652     4.9680    40.8560
         TOT.                       60.513    6311.2376    37.2110    89.1956

 330.00  VIB.     0.4673D+02                  4066.3833    30.4901    19.9622
         ROT.     0.5905D+06                   983.6672     2.9808    29.3884
         INT.     0.2760D+08                  5050.0505    33.4709    49.3506
         TRA.     0.1674D+28                  1639.4454     4.9680    41.0089
         TOT.                       60.891    6689.4959    38.4389    90.3595

 340.00  VIB.     0.5647D+02                  4377.3764    31.7065    20.8905
         ROT.     0.6176D+06                  1013.4753     2.9808    29.4774
         INT.     0.3488D+08                  5390.8517    34.6873    50.3679
         TRA.     0.1750D+28                  1689.1255     4.9680    41.1572
         TOT.                       61.281    7079.9772    39.6553    91.5251

 350.00  VIB.     0.6841D+02                  4700.4686    32.9096    21.8270
         ROT.     0.6450D+06                  1043.2834     2.9808    29.5638
         INT.     0.4413D+08                  5743.7520    35.8904    51.3908
         TRA.     0.1828D+28                  1738.8057     4.9680    41.3012
         TOT.                       61.684    7482.5577    40.8584    92.6920

 360.00  VIB.     0.8309D+02                  5035.5192    34.0979    22.7707
         ROT.     0.6729D+06                  1073.0915     2.9808    29.6478
         INT.     0.5591D+08                  6108.6107    37.0787    52.4185
         TRA.     0.1907D+28                  1788.4859     4.9680    41.4412
         TOT.                       62.099    7897.0965    42.0467    93.8597

 370.00  VIB.     0.1011D+03                  5382.3730    35.2701    23.7210
         ROT.     0.7011D+06                  1102.8996     2.9808    29.7294
         INT.     0.7091D+08                  6485.2726    38.2509    53.4505
         TRA.     0.1987D+28                  1838.1660     4.9680    41.5773
         TOT.                       62.525    8323.4386    43.2189    95.0277

 380.00  VIB.     0.1234D+03                  5740.8629    36.4250    24.6770
         ROT.     0.7297D+06                  1132.7077     2.9808    29.8089
         INT.     0.9006D+08                  6873.5706    39.4058    54.4859
         TRA.     0.2068D+28                  1887.8462     4.9680    41.7098
         TOT.                       62.963    8761.4168    44.3738    96.1957

 390.00  VIB.     0.1509D+03                  6110.8117    37.5617    25.6379
         ROT.     0.7587D+06                  1162.5158     2.9808    29.8864
         INT.     0.1145D+09                  7273.3275    40.5425    55.5242
         TRA.     0.2150D+28                  1937.5263     4.9680    41.8388
         TOT.                       63.412    9210.8538    45.5105    97.3631

 400.00  VIB.     0.1849D+03                  6492.0339    38.6796    26.6030
         ROT.     0.7881D+06                  1192.3239     2.9808    29.9618
         INT.     0.1457D+09                  7684.3578    41.6604    56.5648
         TRA.     0.2233D+28                  1987.2065     4.9680    41.9646
         TOT.                       63.873    9671.5643    46.6284    98.5294

   *: NOTE: HEATS OF FORMATION ARE RELATIVE TO THE
            ELEMENTS IN THEIR STANDARD STATE AT 298K
              (=  Standard Enthalpy of Formation).

            Hvib:  Zero-point energy is not included.
                   frequencies of less than zero cm-1 are not included.
            Hrot = (3/2)RT
            Htra = (3/2)RT + pV = (5/2)RT

            Heat capacity is Cp, not Cv

          For more information, see: HTTP://OpenMOPAC.net/Manual/thermochemistry.html


           FORCE CONSTANT IN CARTESIAN COORDINATES (Millidynes/A)

    ATOM   CHEMICAL       X               Y               Z
   NUMBER   SYMBOL  FORCE CONSTANT  FORCE CONSTANT  FORCE CONSTANT

      1       C       10.155576        8.450902        7.823863
      2       C        9.471122        8.275147        7.872292
      3       C        8.103105       16.910103        2.823840
      4       C       15.842859        9.819859        3.392941
      5       C       14.801215        9.712953        2.605352
      6       C        8.018868       12.843706        6.101589
      7       C       11.986152       11.022018        4.596590
      8       C        8.731477       12.431612        6.253637
      9       C       11.856123       10.544155        4.918246
     10       C        9.147840       15.504864        1.968885
     11       H        1.197105        0.594405        3.880155
     12       H        2.447896        0.963481        2.909625
     13       H        1.587363        0.642564        4.042377
     14       H        2.390878        3.578291        0.451017
     15       H        0.775770        4.884186        0.595707
     16       H        3.205759        0.966832        2.088726
     17       H        0.963089        4.819671        0.475832
     18       H        2.553121        2.779818        0.939231
     19       H        4.012066        2.091622        0.337767
     20       H        4.120103        1.985300        0.335344

 **********************
 *                    *
 * JOB ENDED NORMALLY *
 *                    *
 **********************



 TOTAL JOB TIME:             1.78 SECONDS

 == MOPAC DONE ==
