 *******************************************************************************
 ** Site#: 14399        For non-commercial use only    Version 18.184L 64BITS **
 *******************************************************************************
 ** Cite this program as: MOPAC2016, Version: 18.184L, James J. P. Stewart,   **
 ** Stewart Computational Chemistry, web: HTTP://OpenMOPAC.net. Days left:  18**
 *******************************************************************************
 **                                                                           **
 **                                MOPAC2016                                  **
 **                                                                           **
 *******************************************************************************

                              PM3 CALCULATION RESULTS

 *******************************************************************************
 *  CALCULATION DONE:                                Sat Jun 15 10:23:07 2019  *
 *  PM3        - The PM3 Hamiltonian to be used
 *  PRECISE    - CRITERIA TO BE INCREASED BY 100 TIMES
 *  NOSYM      - POINT-GROUP SYMMETRY SET TO C1
 *  THREADS=1  - MULTI-THREADING NOT USED
 *  T=         - A TIME OF 172800.0 SECONDS REQUESTED
 *  DUMP=N     - RESTART FILE WRITTEN EVERY  7200.000 SECONDS
 *******************************************************************************
pm3  precise nosym THREADS=1
 InChI=1S/C7H12O2/c8-9-7-3-1-2-5-4-6(5)7/h5-8H,1-4H2

   ATOM   CHEMICAL          X               Y               Z
  NUMBER   SYMBOL      (ANGSTROMS)     (ANGSTROMS)     (ANGSTROMS)
 
     1       O          1.94920000  *   1.02150000  *  -0.93110000  *
     2       O          3.14440000  *   0.72650000  *  -0.45090000  *
     3       C          0.72360000  *   0.07370000  *   0.93580000  *
     4       C         -0.72730000  *  -0.15440000  *   1.36970000  *
     5       C          1.09000000  *  -0.03490000  *  -0.56670000  *
     6       C         -0.14090000  *   1.25920000  *   1.33890000  *
     7       C         -1.80190000  *  -0.40770000  *   0.29770000  *
     8       C         -0.11650000  *  -0.03910000  *  -1.51890000  *
     9       C         -1.21940000  *  -0.95740000  *  -1.00270000  *
    10       H         -0.88200000  *  -0.54390000  *   2.39850000  *
    11       H          1.49250000  *  -0.19830000  *   1.69020000  *
    12       H          1.60360000  *  -1.01580000  *  -0.70820000  *
    13       H         -2.02730000  *  -1.02510000  *  -1.76300000  *
    14       H         -0.81670000  *  -1.98090000  *  -0.83610000  *
    15       H          0.21340000  *  -0.39600000  *  -2.51880000  *
    16       H         -0.51520000  *   0.99040000  *  -1.65270000  *
    17       H         -2.37570000  *   0.52290000  *   0.09270000  *
    18       H         -2.52530000  *  -1.14970000  *   0.69740000  *
    19       H          0.10590000  *   1.67130000  *   2.34010000  *
    20       H         -0.46670000  *   1.91870000  *   0.50730000  *
    21       H          3.29220000  *   1.37920000  *   0.28080000  *
 


          CARTESIAN COORDINATES 

    NO.       ATOM           X           Y           Z

     1         O          1.9492      1.0215     -0.9311
     2         O          3.1444      0.7265     -0.4509
     3         C          0.7236      0.0737      0.9358
     4         C         -0.7273     -0.1544      1.3697
     5         C          1.0900     -0.0349     -0.5667
     6         C         -0.1409      1.2592      1.3389
     7         C         -1.8019     -0.4077      0.2977
     8         C         -0.1165     -0.0391     -1.5189
     9         C         -1.2194     -0.9574     -1.0027
    10         H         -0.8820     -0.5439      2.3985
    11         H          1.4925     -0.1983      1.6902
    12         H          1.6036     -1.0158     -0.7082
    13         H         -2.0273     -1.0251     -1.7630
    14         H         -0.8167     -1.9809     -0.8361
    15         H          0.2134     -0.3960     -2.5188
    16         H         -0.5152      0.9904     -1.6527
    17         H         -2.3757      0.5229      0.0927
    18         H         -2.5253     -1.1497      0.6974
    19         H          0.1059      1.6713      2.3401
    20         H         -0.4667      1.9187      0.5073
    21         H          3.2922      1.3792      0.2808

  H: (PM3): J. J. P. STEWART, J. COMP. CHEM. 10, 209 (1989).
  C: (PM3): J. J. P. STEWART, J. COMP. CHEM. 10, 209 (1989).
  O: (PM3): J. J. P. STEWART, J. COMP. CHEM. 10, 209 (1989).

           Empirical Formula: C7 H12 O2  =    21 atoms



      MOLECULAR POINT GROUP   :   C1  


      RHF CALCULATION, NO. OF DOUBLY OCCUPIED LEVELS = 26


          Geometry optimization using EF

          DIAGONAL MATRIX USED AS START HESSIAN

 CYCLE:     1 TIME:   0.004 TIME LEFT:  2.00D  GRAD.:   187.661 HEAT: -3.502288
 CYCLE:     2 TIME:   0.008 TIME LEFT:  2.00D  GRAD.:   233.842 HEAT: -6.020371
 CYCLE:     3 TIME:   0.004 TIME LEFT:  2.00D  GRAD.:   165.321 HEAT: -8.570425
 CYCLE:     4 TIME:   0.004 TIME LEFT:  2.00D  GRAD.:   211.815 HEAT: -8.619824
 CYCLE:     5 TIME:   0.008 TIME LEFT:  2.00D  GRAD.:    43.911 HEAT: -17.93520
 CYCLE:     6 TIME:   0.008 TIME LEFT:  2.00D  GRAD.:    59.621 HEAT: -18.06535
 CYCLE:     7 TIME:   0.008 TIME LEFT:  2.00D  GRAD.:    24.699 HEAT: -18.94518
 CYCLE:     8 TIME:   0.008 TIME LEFT:  2.00D  GRAD.:    19.596 HEAT: -19.15431
 CYCLE:     9 TIME:   0.008 TIME LEFT:  2.00D  GRAD.:    20.909 HEAT: -19.25806
 CYCLE:    10 TIME:   0.004 TIME LEFT:  2.00D  GRAD.:    17.473 HEAT: -19.40670
 CYCLE:    11 TIME:   0.008 TIME LEFT:  2.00D  GRAD.:    13.164 HEAT: -19.48997
 CYCLE:    12 TIME:   0.004 TIME LEFT:  2.00D  GRAD.:    10.856 HEAT: -19.56245
 CYCLE:    13 TIME:   0.004 TIME LEFT:  2.00D  GRAD.:    17.587 HEAT: -19.56785
 CYCLE:    14 TIME:   0.004 TIME LEFT:  2.00D  GRAD.:    18.615 HEAT: -19.59862
 CYCLE:    15 TIME:   0.004 TIME LEFT:  2.00D  GRAD.:    18.382 HEAT: -19.61356
 CYCLE:    16 TIME:   0.008 TIME LEFT:  2.00D  GRAD.:     7.603 HEAT: -19.71031
 CYCLE:    17 TIME:   0.008 TIME LEFT:  2.00D  GRAD.:     5.958 HEAT: -19.72646
 CYCLE:    18 TIME:   0.004 TIME LEFT:  2.00D  GRAD.:     4.459 HEAT: -19.74568
 CYCLE:    19 TIME:   0.004 TIME LEFT:  2.00D  GRAD.:     8.335 HEAT: -19.75678
 CYCLE:    20 TIME:   0.008 TIME LEFT:  2.00D  GRAD.:     8.948 HEAT: -19.77234
 CYCLE:    21 TIME:   0.004 TIME LEFT:  2.00D  GRAD.:     5.221 HEAT: -19.80367
 CYCLE:    22 TIME:   0.004 TIME LEFT:  2.00D  GRAD.:     3.646 HEAT: -19.82470
 CYCLE:    23 TIME:   0.004 TIME LEFT:  2.00D  GRAD.:     6.416 HEAT: -19.83193
 CYCLE:    24 TIME:   0.004 TIME LEFT:  2.00D  GRAD.:     3.829 HEAT: -19.85486
 CYCLE:    25 TIME:   0.004 TIME LEFT:  2.00D  GRAD.:     4.516 HEAT: -19.87824
 CYCLE:    26 TIME:   0.004 TIME LEFT:  2.00D  GRAD.:     5.926 HEAT: -19.90940
 CYCLE:    27 TIME:   0.004 TIME LEFT:  2.00D  GRAD.:     6.400 HEAT: -19.94968
 CYCLE:    28 TIME:   0.008 TIME LEFT:  2.00D  GRAD.:    12.357 HEAT: -19.97778
 CYCLE:    29 TIME:   0.004 TIME LEFT:  2.00D  GRAD.:     8.842 HEAT: -20.00396
 CYCLE:    30 TIME:   0.004 TIME LEFT:  2.00D  GRAD.:     8.072 HEAT: -20.06296
 CYCLE:    31 TIME:   0.004 TIME LEFT:  2.00D  GRAD.:    12.231 HEAT: -20.10560
 CYCLE:    32 TIME:   0.004 TIME LEFT:  2.00D  GRAD.:     4.437 HEAT: -20.12818
 CYCLE:    33 TIME:   0.004 TIME LEFT:  2.00D  GRAD.:     6.388 HEAT: -20.17657
 CYCLE:    34 TIME:   0.004 TIME LEFT:  2.00D  GRAD.:    11.465 HEAT: -20.19908
 CYCLE:    35 TIME:   0.008 TIME LEFT:  2.00D  GRAD.:     3.775 HEAT: -20.22634
 CYCLE:    36 TIME:   0.004 TIME LEFT:  2.00D  GRAD.:     4.648 HEAT: -20.25716
 CYCLE:    37 TIME:   0.004 TIME LEFT:  2.00D  GRAD.:     6.500 HEAT: -20.28934
 CYCLE:    38 TIME:   0.004 TIME LEFT:  2.00D  GRAD.:     4.270 HEAT: -20.31649
 CYCLE:    39 TIME:   0.004 TIME LEFT:  2.00D  GRAD.:     3.286 HEAT: -20.34446
 CYCLE:    40 TIME:   0.008 TIME LEFT:  2.00D  GRAD.:     7.543 HEAT: -20.36142
 CYCLE:    41 TIME:   0.004 TIME LEFT:  2.00D  GRAD.:     4.455 HEAT: -20.38193
 CYCLE:    42 TIME:   0.004 TIME LEFT:  2.00D  GRAD.:     3.349 HEAT: -20.40712
 CYCLE:    43 TIME:   0.008 TIME LEFT:  2.00D  GRAD.:     5.274 HEAT: -20.42826
 CYCLE:    44 TIME:   0.004 TIME LEFT:  2.00D  GRAD.:     4.164 HEAT: -20.45059
 CYCLE:    45 TIME:   0.004 TIME LEFT:  2.00D  GRAD.:     9.696 HEAT: -20.46288
 CYCLE:    46 TIME:   0.004 TIME LEFT:  2.00D  GRAD.:     3.312 HEAT: -20.49316
 CYCLE:    47 TIME:   0.004 TIME LEFT:  2.00D  GRAD.:     2.670 HEAT: -20.51495
 CYCLE:    48 TIME:   0.004 TIME LEFT:  2.00D  GRAD.:     6.225 HEAT: -20.53566
 CYCLE:    49 TIME:   0.004 TIME LEFT:  2.00D  GRAD.:     3.227 HEAT: -20.54800
 CYCLE:    50 TIME:   0.004 TIME LEFT:  2.00D  GRAD.:     2.419 HEAT: -20.56147
 CYCLE:    51 TIME:   0.008 TIME LEFT:  2.00D  GRAD.:     5.560 HEAT: -20.57815
 CYCLE:    52 TIME:   0.004 TIME LEFT:  2.00D  GRAD.:     1.640 HEAT: -20.58631
 CYCLE:    53 TIME:   0.004 TIME LEFT:  2.00D  GRAD.:     1.247 HEAT: -20.59123
 CYCLE:    54 TIME:   0.004 TIME LEFT:  2.00D  GRAD.:     1.760 HEAT: -20.59774
 CYCLE:    55 TIME:   0.004 TIME LEFT:  2.00D  GRAD.:     1.198 HEAT: -20.60088
 CYCLE:    56 TIME:   0.004 TIME LEFT:  2.00D  GRAD.:     1.307 HEAT: -20.60789
 CYCLE:    57 TIME:   0.004 TIME LEFT:  2.00D  GRAD.:     1.240 HEAT: -20.61079
 CYCLE:    58 TIME:   0.008 TIME LEFT:  2.00D  GRAD.:     2.469 HEAT: -20.61594
 CYCLE:    59 TIME:   0.004 TIME LEFT:  2.00D  GRAD.:     1.860 HEAT: -20.61794
 CYCLE:    60 TIME:   0.004 TIME LEFT:  2.00D  GRAD.:     0.812 HEAT: -20.62011
 CYCLE:    61 TIME:   0.004 TIME LEFT:  2.00D  GRAD.:     0.762 HEAT: -20.62195
 CYCLE:    62 TIME:   0.004 TIME LEFT:  2.00D  GRAD.:     1.020 HEAT: -20.62426
 CYCLE:    63 TIME:   0.008 TIME LEFT:  2.00D  GRAD.:     0.735 HEAT: -20.62589
 CYCLE:    64 TIME:   0.004 TIME LEFT:  2.00D  GRAD.:     0.885 HEAT: -20.62738
 CYCLE:    65 TIME:   0.004 TIME LEFT:  2.00D  GRAD.:     1.144 HEAT: -20.62854
 CYCLE:    66 TIME:   0.004 TIME LEFT:  2.00D  GRAD.:     1.228 HEAT: -20.62990
 CYCLE:    67 TIME:   0.004 TIME LEFT:  2.00D  GRAD.:     0.770 HEAT: -20.63159
 CYCLE:    68 TIME:   0.004 TIME LEFT:  2.00D  GRAD.:     0.554 HEAT: -20.63282
 CYCLE:    69 TIME:   0.004 TIME LEFT:  2.00D  GRAD.:     0.590 HEAT: -20.63360
 CYCLE:    70 TIME:   0.004 TIME LEFT:  2.00D  GRAD.:     0.511 HEAT: -20.63421
 CYCLE:    71 TIME:   0.004 TIME LEFT:  2.00D  GRAD.:     0.396 HEAT: -20.63464
 CYCLE:    72 TIME:   0.008 TIME LEFT:  2.00D  GRAD.:     0.451 HEAT: -20.63516
 CYCLE:    73 TIME:   0.004 TIME LEFT:  2.00D  GRAD.:     0.515 HEAT: -20.63558
 CYCLE:    74 TIME:   0.004 TIME LEFT:  2.00D  GRAD.:     0.620 HEAT: -20.63642
 CYCLE:    75 TIME:   0.004 TIME LEFT:  2.00D  GRAD.:     0.571 HEAT: -20.63701
 CYCLE:    76 TIME:   0.004 TIME LEFT:  2.00D  GRAD.:     0.735 HEAT: -20.63852
 CYCLE:    77 TIME:   0.004 TIME LEFT:  2.00D  GRAD.:     0.585 HEAT: -20.63905
 CYCLE:    78 TIME:   0.004 TIME LEFT:  2.00D  GRAD.:     0.911 HEAT: -20.64102
 CYCLE:    79 TIME:   0.004 TIME LEFT:  2.00D  GRAD.:     0.660 HEAT: -20.64176
 CYCLE:    80 TIME:   0.004 TIME LEFT:  2.00D  GRAD.:     0.523 HEAT: -20.64308
 CYCLE:    81 TIME:   0.004 TIME LEFT:  2.00D  GRAD.:     0.378 HEAT: -20.64350
 CYCLE:    82 TIME:   0.008 TIME LEFT:  2.00D  GRAD.:     0.361 HEAT: -20.64394
 CYCLE:    83 TIME:   0.004 TIME LEFT:  2.00D  GRAD.:     0.293 HEAT: -20.64411
 CYCLE:    84 TIME:   0.004 TIME LEFT:  2.00D  GRAD.:     0.195 HEAT: -20.64432
 CYCLE:    85 TIME:   0.004 TIME LEFT:  2.00D  GRAD.:     0.166 HEAT: -20.64438
 CYCLE:    86 TIME:   0.004 TIME LEFT:  2.00D  GRAD.:     0.149 HEAT: -20.64440
 CYCLE:    87 TIME:   0.004 TIME LEFT:  2.00D  GRAD.:     0.147 HEAT: -20.64442
 CYCLE:    88 TIME:   0.004 TIME LEFT:  2.00D  GRAD.:     0.167 HEAT: -20.64442
 CYCLE:    89 TIME:   0.004 TIME LEFT:  2.00D  GRAD.:     0.138 HEAT: -20.64445
 CYCLE:    90 TIME:   0.004 TIME LEFT:  2.00D  GRAD.:     0.104 HEAT: -20.64447
 CYCLE:    91 TIME:   0.004 TIME LEFT:  2.00D  GRAD.:     0.104 HEAT: -20.64448
 CYCLE:    92 TIME:   0.004 TIME LEFT:  2.00D  GRAD.:     0.320 HEAT: -20.64417
 CYCLE:    93 TIME:   0.004 TIME LEFT:  2.00D  GRAD.:     0.145 HEAT: -20.64455
 CYCLE:    94 TIME:   0.004 TIME LEFT:  2.00D  GRAD.:     0.126 HEAT: -20.64457
 CYCLE:    95 TIME:   0.008 TIME LEFT:  2.00D  GRAD.:     0.156 HEAT: -20.64465
 CYCLE:    96 TIME:   0.004 TIME LEFT:  2.00D  GRAD.:     0.126 HEAT: -20.64469
 CYCLE:    97 TIME:   0.004 TIME LEFT:  2.00D  GRAD.:     0.125 HEAT: -20.64473
 CYCLE:    98 TIME:   0.004 TIME LEFT:  2.00D  GRAD.:     0.138 HEAT: -20.64477
 CYCLE:    99 TIME:   0.004 TIME LEFT:  2.00D  GRAD.:     0.207 HEAT: -20.64468
 CYCLE:   100 TIME:   0.004 TIME LEFT:  2.00D  GRAD.:     0.180 HEAT: -20.64485
 CYCLE:   101 TIME:   0.004 TIME LEFT:  2.00D  GRAD.:     0.109 HEAT: -20.64487
 CYCLE:   102 TIME:   0.004 TIME LEFT:  2.00D  GRAD.:     0.055 HEAT: -20.64491
 CYCLE:   103 TIME:   0.004 TIME LEFT:  2.00D  GRAD.:     0.071 HEAT: -20.64493
 CYCLE:   104 TIME:   0.004 TIME LEFT:  2.00D  GRAD.:     0.083 HEAT: -20.64494
 CYCLE:   105 TIME:   0.008 TIME LEFT:  2.00D  GRAD.:     0.054 HEAT: -20.64495
 CYCLE:   106 TIME:   0.004 TIME LEFT:  2.00D  GRAD.:     0.097 HEAT: -20.64496
 CYCLE:   107 TIME:   0.004 TIME LEFT:  2.00D  GRAD.:     0.092 HEAT: -20.64497
 CYCLE:   108 TIME:   0.004 TIME LEFT:  2.00D  GRAD.:     0.082 HEAT: -20.64497
 CYCLE:   109 TIME:   0.004 TIME LEFT:  2.00D  GRAD.:     0.054 HEAT: -20.64499
 CYCLE:   110 TIME:   0.004 TIME LEFT:  2.00D  GRAD.:     0.039 HEAT: -20.64499

     GRADIENT =  0.03883  IS LESS THAN CUTOFF =  0.05000



 -------------------------------------------------------------------------------
 pm3  precise nosym THREADS=1
 InChI=1S/C7H12O2/c8-9-7-3-1-2-5-4-6(5)7/h5-8H,1-4H2



     GEOMETRY OPTIMISED USING EIGENVECTOR FOLLOWING (EF).     
     SCF FIELD WAS ACHIEVED                                   


                              PM3 CALCULATION
                                                       MOPAC2016 (Version: 18.184L)
                                                       Sat Jun 15 10:23:08 2019
                                                       No. of days remaining =  18




          FINAL HEAT OF FORMATION =        -20.64499 KCAL/MOL =     -86.37865 KJ/MOL


          TOTAL ENERGY            =      -1599.22017 EV
          ELECTRONIC ENERGY       =      -7936.48446 EV  POINT GROUP:     C1  
          CORE-CORE REPULSION     =       6337.26429 EV
          COSMO AREA              =        163.87 SQUARE ANGSTROMS
          COSMO VOLUME            =        164.97 CUBIC ANGSTROMS

          GRADIENT NORM           =          0.03883 = 0.00847 PER ATOM
          IONIZATION POTENTIAL    =         10.875585 EV
          HOMO LUMO ENERGIES (EV) =        -10.876  1.141
          NO. OF FILLED LEVELS    =         26
          MOLECULAR WEIGHT        =        128.1706

          MOLECULAR DIMENSIONS (Angstroms)

            Atom       Atom       Distance
            H    21    H    18     6.93225
            H    15    H    19     5.23625
            H    11    H    20     3.05368


          SCF CALCULATIONS        =        119
 
          WALL-CLOCK TIME         =          0.520 SECONDS
          COMPUTATION TIME        =          0.480 SECONDS




   ATOM   CHEMICAL          X               Y               Z
  NUMBER   SYMBOL      (ANGSTROMS)     (ANGSTROMS)     (ANGSTROMS)
 
     1       O          1.94448591  *   1.03108570  *  -0.86886987  *
     2       O          3.34885947  *   0.61233676  *  -0.48356642  *
     3       C          0.63824480  *   0.13405363  *   0.96222400  *
     4       C         -0.79637687  *  -0.13637649  *   1.34665049  *
     5       C          1.07693075  *  -0.02310206  *  -0.48470099  *
     6       C         -0.24940660  *   1.26362771  *   1.39740298  *
     7       C         -1.81874331  *  -0.48624818  *   0.29532809  *
     8       C         -0.10286733  *   0.01842920  *  -1.46993477  *
     9       C         -1.18903632  *  -0.93946339  *  -1.01265220  *
    10       H         -0.97751853  *  -0.65841917  *   2.30359897  *
    11       H          1.43421110  *  -0.18746873  *   1.65989216  *
    12       H          1.59645453  *  -1.00977600  *  -0.58345114  *
    13       H         -1.97043116  *  -1.02149113  *  -1.79289275  *
    14       H         -0.76794165  *  -1.95858037  *  -0.90101425  *
    15       H          0.24608988  *  -0.25272387  *  -2.48524175  *
    16       H         -0.51383067  *   1.04518104  *  -1.55603531  *
    17       H         -2.47046191  *   0.39318722  *   0.11708909  *
    18       H         -2.48890253  *  -1.28162954  *   0.67450693  *
    19       H         -0.07318403  *   1.74881768  *   2.36329357  *
    20       H         -0.59006055  *   2.00756437  *   0.66659562  *
    21       H          3.73751331  *   1.44886246  *  -0.67909062  *

                             CARTESIAN COORDINATES

   1    O        1.944485915     1.031085698    -0.868869868
   2    O        3.348859467     0.612336758    -0.483566424
   3    C        0.638244798     0.134053634     0.962224001
   4    C       -0.796376869    -0.136376495     1.346650488
   5    C        1.076930746    -0.023102062    -0.484700994
   6    C       -0.249406600     1.263627708     1.397402983
   7    C       -1.818743314    -0.486248182     0.295328092
   8    C       -0.102867331     0.018429204    -1.469934766
   9    C       -1.189036320    -0.939463388    -1.012652198
  10    H       -0.977518529    -0.658419171     2.303598967
  11    H        1.434211104    -0.187468733     1.659892165
  12    H        1.596454534    -1.009776000    -0.583451137
  13    H       -1.970431160    -1.021491134    -1.792892754
  14    H       -0.767941650    -1.958580368    -0.901014251
  15    H        0.246089885    -0.252723873    -2.485241752
  16    H       -0.513830672     1.045181041    -1.556035315
  17    H       -2.470461914     0.393187221     0.117089088
  18    H       -2.488902534    -1.281629542     0.674506929
  19    H       -0.073184026     1.748817680     2.363293572
  20    H       -0.590060549     2.007564373     0.666595617
  21    H        3.737513314     1.448862457    -0.679090624


           Empirical Formula: C7 H12 O2  =    21 atoms



      MOLECULAR POINT GROUP   :   C1  


                  EIGENVALUES  
 -42.17632 -35.59160 -33.71812 -32.99450 -28.63295 -24.03855 -22.16845 -20.81081
 -18.82054 -17.62156 -17.47056 -17.06260 -16.10684 -15.19850 -14.83896 -14.45044
 -14.02556 -13.92392 -13.20869 -12.44734 -12.34559 -12.04016 -11.88283 -11.26009
 -11.03087 -10.87558   1.14051   2.75902   3.10495   3.15569   3.40717   3.49974
   3.60719   3.64563   3.75743   3.83833   4.07604   4.11643   4.41868   4.44564
   4.64260   4.68063   4.76407   4.98636   5.06539   5.09432   5.18946   5.28485


              NET ATOMIC CHARGES AND DIPOLE CONTRIBUTIONS

  ATOM NO.   TYPE          CHARGE      No. of ELECS.   s-Pop       p-Pop       
    1          O          -0.147694        6.1477     1.90586     4.24184
    2          O          -0.211114        6.2111     1.86501     4.34610
    3          C          -0.160736        4.1607     1.18516     2.97558
    4          C          -0.124889        4.1249     1.17659     2.94830
    5          C           0.100142        3.8999     1.16858     2.73127
    6          C          -0.143916        4.1439     1.16334     2.98058
    7          C          -0.067854        4.0679     1.15281     2.91504
    8          C          -0.112588        4.1126     1.16388     2.94871
    9          C          -0.091215        4.0912     1.15853     2.93269
   10          H           0.092294        0.9077     0.90771
   11          H           0.101195        0.8988     0.89881
   12          H           0.074734        0.9253     0.92527
   13          H           0.050945        0.9491     0.94905
   14          H           0.053272        0.9467     0.94673
   15          H           0.060710        0.9393     0.93929
   16          H           0.063002        0.9370     0.93700
   17          H           0.053416        0.9466     0.94658
   18          H           0.050639        0.9494     0.94936
   19          H           0.076771        0.9232     0.92323
   20          H           0.084875        0.9151     0.91513
   21          H           0.198011        0.8020     0.80199
 DIPOLE           X         Y         Z       TOTAL
 POINT-CHG.    -0.808    -0.322    -0.056     0.872
 HYBRID         0.211     0.393     0.038     0.448
 SUM           -0.597     0.071    -0.017     0.601


          ATOMIC ORBITAL ELECTRON POPULATIONS

     Atom    s        px        py        pz   
    1  O   1.90586   1.05769   1.37001   1.81414
    2  O   1.86501   1.09532   1.34763   1.90315
    3  C   1.18516   0.94585   1.04508   0.98465
    4  C   1.17659   0.94909   0.99766   1.00155
    5  C   1.16858   0.89504   0.92197   0.91427
    6  C   1.16334   1.03572   0.91775   1.02712
    7  C   1.15281   0.96062   1.00970   0.94473
    8  C   1.16388   0.95877   1.00812   0.98182
    9  C   1.15853   0.97768   0.98503   0.96998
   10  H   0.90771
   11  H   0.89881
   12  H   0.92527
   13  H   0.94905
   14  H   0.94673
   15  H   0.93929
   16  H   0.93700
   17  H   0.94658
   18  H   0.94936
   19  H   0.92323
   20  H   0.91513
   21  H   0.80199
 *******************************************************************************
 ** Site#: 14399        For non-commercial use only    Version 18.184L 64BITS **
 *******************************************************************************
 ** Cite this program as: MOPAC2016, Version: 18.184L, James J. P. Stewart,   **
 ** Stewart Computational Chemistry, web: HTTP://OpenMOPAC.net. Days left:  18**
 *******************************************************************************
 **                                                                           **
 **                                MOPAC2016                                  **
 **                                                                           **
 *******************************************************************************

                              PM3 CALCULATION RESULTS

 *******************************************************************************
 *  CALCULATION DONE:                                Sat Jun 15 10:23:08 2019  *
 *  PM3        - The PM3 Hamiltonian to be used
 *  OLDGEO     - PREVIOUS GEOMETRY TO BE USED
 *  PRECISE    - CRITERIA TO BE INCREASED BY 100 TIMES
 *  NOSYM      - POINT-GROUP SYMMETRY SET TO C1
 *  THREADS=1  - MULTI-THREADING NOT USED
 *  T=         - A TIME OF 172800.0 SECONDS REQUESTED
 *  DUMP=N     - RESTART FILE WRITTEN EVERY  7200.000 SECONDS
 *  THERMO     - THERMODYNAMIC QUANTITIES TO BE CALCULATED
 *******************************************************************************
oldgeo thermo nosym precise THREADS=1  pm3
 InChI=1S/C7H12O2/c8-9-7-3-1-2-5-4-6(5)7/h5-8H,1-4H2

   ATOM   CHEMICAL          X               Y               Z
  NUMBER   SYMBOL      (ANGSTROMS)     (ANGSTROMS)     (ANGSTROMS)
 
     1       O          1.94448591  *   1.03108570  *  -0.86886987  *
     2       O          3.34885947  *   0.61233676  *  -0.48356642  *
     3       C          0.63824480  *   0.13405363  *   0.96222400  *
     4       C         -0.79637687  *  -0.13637649  *   1.34665049  *
     5       C          1.07693075  *  -0.02310206  *  -0.48470099  *
     6       C         -0.24940660  *   1.26362771  *   1.39740298  *
     7       C         -1.81874331  *  -0.48624818  *   0.29532809  *
     8       C         -0.10286733  *   0.01842920  *  -1.46993477  *
     9       C         -1.18903632  *  -0.93946339  *  -1.01265220  *
    10       H         -0.97751853  *  -0.65841917  *   2.30359897  *
    11       H          1.43421110  *  -0.18746873  *   1.65989216  *
    12       H          1.59645453  *  -1.00977600  *  -0.58345114  *
    13       H         -1.97043116  *  -1.02149113  *  -1.79289275  *
    14       H         -0.76794165  *  -1.95858037  *  -0.90101425  *
    15       H          0.24608988  *  -0.25272387  *  -2.48524175  *
    16       H         -0.51383067  *   1.04518104  *  -1.55603531  *
    17       H         -2.47046191  *   0.39318722  *   0.11708909  *
    18       H         -2.48890253  *  -1.28162954  *   0.67450693  *
    19       H         -0.07318403  *   1.74881768  *   2.36329357  *
    20       H         -0.59006055  *   2.00756437  *   0.66659562  *
    21       H          3.73751331  *   1.44886246  *  -0.67909062  *
 


          CARTESIAN COORDINATES 

    NO.       ATOM           X           Y           Z

     1         O          1.9445      1.0311     -0.8689
     2         O          3.3489      0.6123     -0.4836
     3         C          0.6382      0.1341      0.9622
     4         C         -0.7964     -0.1364      1.3467
     5         C          1.0769     -0.0231     -0.4847
     6         C         -0.2494      1.2636      1.3974
     7         C         -1.8187     -0.4862      0.2953
     8         C         -0.1029      0.0184     -1.4699
     9         C         -1.1890     -0.9395     -1.0127
    10         H         -0.9775     -0.6584      2.3036
    11         H          1.4342     -0.1875      1.6599
    12         H          1.5965     -1.0098     -0.5835
    13         H         -1.9704     -1.0215     -1.7929
    14         H         -0.7679     -1.9586     -0.9010
    15         H          0.2461     -0.2527     -2.4852
    16         H         -0.5138      1.0452     -1.5560
    17         H         -2.4705      0.3932      0.1171
    18         H         -2.4889     -1.2816      0.6745
    19         H         -0.0732      1.7488      2.3633
    20         H         -0.5901      2.0076      0.6666
    21         H          3.7375      1.4489     -0.6791

  H: (PM3): J. J. P. STEWART, J. COMP. CHEM. 10, 209 (1989).
  C: (PM3): J. J. P. STEWART, J. COMP. CHEM. 10, 209 (1989).
  O: (PM3): J. J. P. STEWART, J. COMP. CHEM. 10, 209 (1989).

           Empirical Formula: C7 H12 O2  =    21 atoms



      MOLECULAR POINT GROUP   :   C1  


      RHF CALCULATION, NO. OF DOUBLY OCCUPIED LEVELS = 26



          HEAT OF FORMATION =     -20.644992 KCALS/MOLE


          CARTESIAN COORDINATE DERIVATIVES

   NUMBER  ATOM         X            Y            Z

     1       O     -0.001251    -0.001579     0.002024
     2       O     -0.000982    -0.008942    -0.018912
     3       C     -0.000968     0.000047    -0.000858
     4       C      0.001607     0.000471    -0.000584
     5       C      0.000037    -0.001952    -0.002653
     6       C     -0.005331    -0.000612     0.001358
     7       C     -0.004177    -0.001087     0.000193
     8       C      0.001282     0.000833     0.001298
     9       C      0.000352     0.003580     0.000899
    10       H      0.012049    -0.000829     0.006207
    11       H     -0.007085     0.002772     0.000633
    12       H     -0.005813     0.002045     0.001788
    13       H      0.010946    -0.007149    -0.002942
    14       H     -0.005613     0.002453    -0.000047
    15       H     -0.002816     0.003106     0.002906
    16       H     -0.000411    -0.001400    -0.002195
    17       H      0.003809     0.000723    -0.000972
    18       H     -0.003566     0.000883    -0.002400
    19       H      0.005677    -0.005581    -0.003051
    20       H     -0.006811     0.004376     0.004705
    21       H      0.009066     0.007840     0.012602
 


          GRADIENT NORM =   0.03951


          TIME FOR SCF CALCULATION =    0.00

          TIME FOR DERIVATIVES     =    0.00

          MOLECULAR WEIGHT =  128.17



          ROTATIONAL CONSTANTS IN CM(-1)

          A =    0.09547369   B =    0.04116161   C =    0.03260466



           PRINCIPAL MOMENTS OF INERTIA IN UNITS OF 10**(-40)*GRAM-CM**2

          A =      293.1988   B =      680.0700   C =      858.5513


          ORIENTATION OF MOLECULE IN FORCE CALCULATION

    NO.       ATOM         X         Y         Z

     1          O       0.9882   -1.5709   -0.4988
     2          O       2.5035   -1.5709   -0.4988
     3          C       0.4911    0.7990   -0.4988
     4          C      -0.6660    1.7464   -0.2924
     5          C       0.5732   -0.4840    0.3123
     6          C      -0.5331    0.9821   -1.5808
     7          C      -1.7842    1.3955    0.6560
     8          C      -0.7823   -0.8950    0.9108
     9          C      -1.4080    0.2883    1.6283
    10          H      -0.4463    2.8293   -0.3056
    11          H       1.4950    1.2317   -0.6678
    12          H       1.3022   -0.3202    1.1459
    13          H      -2.3079   -0.0416    2.1827
    14          H      -0.7077    0.6751    2.3953
    15          H      -0.6421   -1.7397    1.6128
    16          H      -1.4688   -1.2676    0.1232
    17          H      -2.6766    1.0969    0.0691
    18          H      -2.0891    2.2949    1.2248
    19          H      -0.2583    1.5053   -2.5029
    20          H      -1.2402    0.1753   -1.8102
    21          H       2.5828   -2.2362   -1.1622


    FIRST DERIVATIVES WILL BE USED IN THE CALCULATION OF SECOND DERIVATIVES

          ESTIMATED TIME TO COMPLETE CALCULATION =        1.97 SECONDS

    FOR POINT-GROUP C1   THERE ARE   1 UNIQUE SYMMETRY FUNCTIONS.

 STEP:   1 TIME =     0.02 SECS, INTEGRAL =      0.02 TIME LEFT: 172799.98
 STEP:   2 TIME =     0.02 SECS, INTEGRAL =      0.04 TIME LEFT: 172799.96
 STEP:   3 TIME =     0.02 SECS, INTEGRAL =      0.05 TIME LEFT: 172799.94
 STEP:   4 TIME =     0.02 SECS, INTEGRAL =      0.07 TIME LEFT: 172799.92
 STEP:   5 TIME =     0.02 SECS, INTEGRAL =      0.09 TIME LEFT: 172799.90
 STEP:   6 TIME =     0.02 SECS, INTEGRAL =      0.11 TIME LEFT: 172799.88
 STEP:   7 TIME =     0.02 SECS, INTEGRAL =      0.13 TIME LEFT: 172799.86
 STEP:   8 TIME =     0.02 SECS, INTEGRAL =      0.15 TIME LEFT: 172799.84
 STEP:   9 TIME =     0.02 SECS, INTEGRAL =      0.17 TIME LEFT: 172799.82
 STEP:  10 TIME =     0.02 SECS, INTEGRAL =      0.19 TIME LEFT: 172799.80
 STEP:  11 TIME =     0.02 SECS, INTEGRAL =      0.20 TIME LEFT: 172799.79
 STEP:  12 TIME =     0.02 SECS, INTEGRAL =      0.22 TIME LEFT: 172799.77
 STEP:  13 TIME =     0.02 SECS, INTEGRAL =      0.24 TIME LEFT: 172799.75
 STEP:  14 TIME =     0.02 SECS, INTEGRAL =      0.26 TIME LEFT: 172799.73
 STEP:  15 TIME =     0.02 SECS, INTEGRAL =      0.28 TIME LEFT: 172799.71
 STEP:  16 TIME =     0.02 SECS, INTEGRAL =      0.29 TIME LEFT: 172799.70
 STEP:  17 TIME =     0.02 SECS, INTEGRAL =      0.31 TIME LEFT: 172799.68
 STEP:  18 TIME =     0.02 SECS, INTEGRAL =      0.33 TIME LEFT: 172799.66
 STEP:  19 TIME =     0.02 SECS, INTEGRAL =      0.35 TIME LEFT: 172799.64
 STEP:  20 TIME =     0.02 SECS, INTEGRAL =      0.37 TIME LEFT: 172799.62
 STEP:  21 TIME =     0.02 SECS, INTEGRAL =      0.38 TIME LEFT: 172799.61
 STEP:  22 TIME =     0.02 SECS, INTEGRAL =      0.40 TIME LEFT: 172799.59
 STEP:  23 TIME =     0.02 SECS, INTEGRAL =      0.42 TIME LEFT: 172799.57
 STEP:  24 TIME =     0.02 SECS, INTEGRAL =      0.44 TIME LEFT: 172799.55
 STEP:  25 TIME =     0.02 SECS, INTEGRAL =      0.45 TIME LEFT: 172799.54
 STEP:  26 TIME =     0.02 SECS, INTEGRAL =      0.47 TIME LEFT: 172799.52
 STEP:  27 TIME =     0.02 SECS, INTEGRAL =      0.49 TIME LEFT: 172799.50
 STEP:  28 TIME =     0.02 SECS, INTEGRAL =      0.51 TIME LEFT: 172799.48
 STEP:  29 TIME =     0.02 SECS, INTEGRAL =      0.53 TIME LEFT: 172799.46
 STEP:  30 TIME =     0.02 SECS, INTEGRAL =      0.55 TIME LEFT: 172799.45
 STEP:  31 TIME =     0.02 SECS, INTEGRAL =      0.57 TIME LEFT: 172799.43
 STEP:  32 TIME =     0.02 SECS, INTEGRAL =      0.58 TIME LEFT: 172799.41
 STEP:  33 TIME =     0.02 SECS, INTEGRAL =      0.60 TIME LEFT: 172799.39
 STEP:  34 TIME =     0.02 SECS, INTEGRAL =      0.62 TIME LEFT: 172799.37
 STEP:  35 TIME =     0.02 SECS, INTEGRAL =      0.64 TIME LEFT: 172799.35
 STEP:  36 TIME =     0.02 SECS, INTEGRAL =      0.66 TIME LEFT: 172799.34
 STEP:  37 TIME =     0.02 SECS, INTEGRAL =      0.68 TIME LEFT: 172799.32
 STEP:  38 TIME =     0.02 SECS, INTEGRAL =      0.70 TIME LEFT: 172799.30
 STEP:  39 TIME =     0.02 SECS, INTEGRAL =      0.71 TIME LEFT: 172799.28
 STEP:  40 TIME =     0.02 SECS, INTEGRAL =      0.73 TIME LEFT: 172799.27
 STEP:  41 TIME =     0.02 SECS, INTEGRAL =      0.75 TIME LEFT: 172799.25
 STEP:  42 TIME =     0.02 SECS, INTEGRAL =      0.77 TIME LEFT: 172799.23
 STEP:  43 TIME =     0.02 SECS, INTEGRAL =      0.78 TIME LEFT: 172799.21
 STEP:  44 TIME =     0.02 SECS, INTEGRAL =      0.80 TIME LEFT: 172799.19
 STEP:  45 TIME =     0.02 SECS, INTEGRAL =      0.82 TIME LEFT: 172799.17
 STEP:  46 TIME =     0.02 SECS, INTEGRAL =      0.84 TIME LEFT: 172799.16
 STEP:  47 TIME =     0.02 SECS, INTEGRAL =      0.85 TIME LEFT: 172799.14
 STEP:  48 TIME =     0.02 SECS, INTEGRAL =      0.87 TIME LEFT: 172799.12
 STEP:  49 TIME =     0.02 SECS, INTEGRAL =      0.89 TIME LEFT: 172799.10
 STEP:  50 TIME =     0.02 SECS, INTEGRAL =      0.91 TIME LEFT: 172799.09
 STEP:  51 TIME =     0.02 SECS, INTEGRAL =      0.93 TIME LEFT: 172799.07
 STEP:  52 TIME =     0.02 SECS, INTEGRAL =      0.95 TIME LEFT: 172799.05
 STEP:  53 TIME =     0.02 SECS, INTEGRAL =      0.96 TIME LEFT: 172799.03
 STEP:  54 TIME =     0.02 SECS, INTEGRAL =      0.98 TIME LEFT: 172799.01
 STEP:  55 TIME =     0.02 SECS, INTEGRAL =      1.00 TIME LEFT: 172798.99
 STEP:  56 TIME =     0.02 SECS, INTEGRAL =      1.02 TIME LEFT: 172798.97
 STEP:  57 TIME =     0.02 SECS, INTEGRAL =      1.04 TIME LEFT: 172798.96
 STEP:  58 TIME =     0.02 SECS, INTEGRAL =      1.05 TIME LEFT: 172798.94
 STEP:  59 TIME =     0.02 SECS, INTEGRAL =      1.07 TIME LEFT: 172798.92
 STEP:  60 TIME =     0.02 SECS, INTEGRAL =      1.09 TIME LEFT: 172798.90
 STEP:  61 TIME =     0.02 SECS, INTEGRAL =      1.11 TIME LEFT: 172798.88
 STEP:  62 TIME =     0.02 SECS, INTEGRAL =      1.12 TIME LEFT: 172798.87
 STEP:  63 TIME =     0.02 SECS, INTEGRAL =      1.14 TIME LEFT: 172798.85

(To convert to Hartree/Bohr^2, multiply by (10^(-21) x N x a0^2)/(4.184 x 627.51) =  0.0642)


           FORCE MATRIX IN MILLIDYNES/ANGSTROM


                  O  1       O  2       C  3       C  4       C  5       C  6
 ------------------------------------------------------------------------------
     O    1   7.867814
     O    2   2.568846  10.097736
     C    3   0.888624   0.057474  15.345771
     C    4   0.064680   0.003525   4.609120  15.378487
     C    5   4.788969   0.984882   3.975837   0.506894  14.439533
     C    6   0.025863   0.003178   4.939085   4.846909   0.520187  15.330037
     C    7   0.007781   0.002690   0.512563   4.464674   0.037247   0.548717
     C    8   0.848999   0.111940   0.583928   0.053853   3.628892   0.042033
     C    9   0.060460   0.020552   0.050560   0.641972   0.666851   0.032416
     H   10   0.010844   0.001095   0.443268   4.585602   0.039481   0.441112
     H   11   0.020774   0.005589   4.561634   0.437183   0.424916   0.442725
     H   12   0.445614   0.083251   0.408399   0.010420   4.129111   0.045193
     H   13   0.010853   0.004278   0.005405   0.050804   0.052252   0.003901
     H   14   0.003710   0.001264   0.005599   0.009845   0.035989   0.001310
     H   15   0.050081   0.002419   0.049100   0.003623   0.449038   0.003110
     H   16   0.079677   0.003587   0.010448   0.008087   0.466411   0.012905
     H   17   0.000567   0.000624   0.031966   0.436347   0.004096   0.027116
     H   18   0.001077   0.000741   0.023742   0.427969   0.004174   0.033723
     H   19   0.005387   0.001279   0.465132   0.454814   0.048552   4.846829
     H   20   0.006151   0.001707   0.468538   0.467357   0.023642   4.783867
     H   21   1.072726   8.656727   0.007451   0.002313   0.144166   0.001658


                  C  7       C  8       C  9       H 10       H 11       H 12
 ------------------------------------------------------------------------------
     C    7  14.515321
     C    8   0.656887  14.234667
     C    9   4.160046   4.223966  14.386835
     H   10   0.417653   0.001754   0.029717   5.091953
     H   11   0.041311   0.042316   0.002733   0.023192   5.077989
     H   12   0.003326   0.416791   0.020145   0.001463   0.039776   4.514160
     H   13   0.432694   0.434900   4.487993   0.005289   0.000621   0.001352
     H   14   0.442856   0.444511   4.452721   0.001338   0.000778   0.017856
     H   15   0.051128   4.499129   0.436745   0.000381   0.007116   0.033819
     H   16   0.026043   4.431187   0.447015   0.000626   0.001703   0.041950
     H   17   4.426554   0.014379   0.447792   0.019414   0.005432   0.000508
     H   18   4.500195   0.050695   0.432394   0.029377   0.001568   0.000496
     H   19   0.042511   0.002159   0.004350   0.020526   0.022575   0.006632
     H   20   0.020926   0.011912   0.003290   0.039607   0.038978   0.004587
     H   21   0.001360   0.020213   0.004031   0.000608   0.002377   0.008444


                  H 13       H 14       H 15       H 16       H 17       H 18
 ------------------------------------------------------------------------------
     H   13   5.099385
     H   14   0.568674   5.067670
     H   15   0.035976   0.025293   5.119076
     H   16   0.025343   0.046069   0.563059   5.065379
     H   17   0.035086   0.045746   0.001499   0.011259   5.029396
     H   18   0.028268   0.035156   0.008304   0.002492   0.572361   5.086784
     H   19   0.000927   0.000377   0.000492   0.000786   0.002912   0.003654
     H   20   0.000554   0.000626   0.001098   0.022490   0.021821   0.003533
     H   21   0.000872   0.000344   0.001099   0.000811   0.000349   0.000311


                  H 19       H 20       H 21
 ------------------------------------------
     H   19   5.451408
     H   20   0.492058   5.398163
     H   21   0.001036   0.000825   8.995272


          HEAT OF FORMATION =     -20.644992 KCALS/MOLE

          ZERO POINT ENERGY     113.336 KCAL/MOL


           NORMAL COORDINATE ANALYSIS (Total motion = 1 Angstrom)


   Root No.       1         2         3         4         5         6         7         8

                 1 A       2 A       3 A       4 A       5 A       6 A       7 A       8 A   

                  49.8      87.4     179.1     217.3     246.1     288.0     350.4     408.6
  
           1    0.0130    0.0145   -0.0014   -0.0024    0.0108   -0.0125    0.0293   -0.0148
           2    0.0267   -0.0201    0.0053   -0.0257   -0.0227    0.0077   -0.0057    0.0155
           3   -0.0487    0.0221   -0.0106    0.0058    0.0466   -0.0400   -0.0288    0.0067
           4    0.0130    0.0155   -0.0024    0.0000    0.0105   -0.0126    0.0453   -0.0297
           5   -0.0610    0.0369   -0.0251    0.0251   -0.0303    0.0314   -0.0158    0.0099
           6    0.0899    0.0073    0.0411    0.0171   -0.0149    0.0180   -0.0150    0.0079
           7   -0.0184   -0.0062    0.0002   -0.0099   -0.0084    0.0002   -0.0151    0.0212
           8    0.0149   -0.0212   -0.0054   -0.0161    0.0003   -0.0200   -0.0211    0.0039
           9   -0.0302   -0.0219    0.0007   -0.0143   -0.0283   -0.0107    0.0241   -0.0091
          10   -0.0166    0.0168    0.0010    0.0064    0.0081    0.0282    0.0072    0.0365
          11    0.0102    0.0014   -0.0039    0.0006    0.0143    0.0025    0.0138    0.0134
          12    0.0027    0.0001   -0.0070    0.0085    0.0145    0.0020    0.0247    0.0181
          13    0.0039   -0.0136   -0.0028   -0.0196    0.0142   -0.0103    0.0036    0.0095
          14    0.0130   -0.0108   -0.0051   -0.0189    0.0161   -0.0145   -0.0319    0.0179
          15   -0.0352   -0.0058    0.0029   -0.0155   -0.0039   -0.0069    0.0035    0.0092
          16   -0.0447   -0.0293   -0.0001    0.0016   -0.0250   -0.0030   -0.0289   -0.0266
          17    0.0180   -0.0103   -0.0140    0.0404    0.0454    0.0045   -0.0085   -0.0198
          18   -0.0049    0.0018   -0.0010   -0.0153   -0.0061   -0.0033    0.0384    0.0321
          19    0.0053    0.0297    0.0043   -0.0053   -0.0062    0.0194   -0.0319    0.0103
          20    0.0019    0.0314    0.0046   -0.0232   -0.0042    0.0052    0.0247   -0.0260
          21    0.0257    0.0266   -0.0003   -0.0120   -0.0085   -0.0100   -0.0216   -0.0256
          22    0.0143   -0.0255   -0.0028   -0.0137    0.0242    0.0180   -0.0127    0.0040
          23   -0.0003   -0.0060    0.0006   -0.0054    0.0019   -0.0175    0.0108    0.0011
          24   -0.0214   -0.0308    0.0048    0.0033    0.0106    0.0506    0.0045   -0.0220
          25    0.0221   -0.0062    0.0033    0.0360   -0.0261   -0.0258   -0.0098    0.0105
          26   -0.0115   -0.0103    0.0061    0.0153   -0.0130   -0.0064    0.0382   -0.0084
          27    0.0040   -0.0063    0.0020    0.0152   -0.0121   -0.0048   -0.0180   -0.0094
          28   -0.0204    0.0361    0.0012    0.0260    0.0259    0.0505    0.0435    0.0362
          29    0.0110   -0.0027   -0.0040   -0.0032    0.0108   -0.0021    0.0057    0.0117
          30    0.0037   -0.0137   -0.0172    0.0528    0.0518    0.0137    0.0333    0.0222
          31   -0.0237   -0.0017    0.0004   -0.0025   -0.0089    0.0089   -0.0141    0.0212
          32    0.0185   -0.0429   -0.0060   -0.0284   -0.0063   -0.0444   -0.0307   -0.0195
          33   -0.0523   -0.0506    0.0009   -0.0049   -0.0526   -0.0257    0.0026   -0.0652
          34    0.0082   -0.0331   -0.0025   -0.0213    0.0175    0.0112    0.0053    0.0032
          35    0.0218    0.0050   -0.0094   -0.0079    0.0557   -0.0151   -0.0508    0.0153
          36   -0.0401    0.0084    0.0036   -0.0144   -0.0151   -0.0238    0.0047    0.0151
          37    0.0311   -0.0204    0.0038    0.0661   -0.0457   -0.0591    0.0035    0.0136
          38   -0.0210   -0.0046    0.0117    0.0406   -0.0368   -0.0087    0.0455   -0.0063
          39    0.0129   -0.0258    0.0060    0.0781   -0.0572   -0.0587    0.0073   -0.0037
          40    0.0327   -0.0054    0.0071    0.0829   -0.0679   -0.0726    0.0042    0.0144
          41   -0.0210   -0.0512    0.0061    0.0380   -0.0104   -0.0062    0.0612   -0.0031
          42   -0.0008    0.0138   -0.0014   -0.0389    0.0244    0.0375   -0.0423   -0.0160
          43    0.0276   -0.0479   -0.0037   -0.0172    0.0498    0.0725   -0.0373   -0.0096
          44   -0.0095   -0.0258    0.0022   -0.0104    0.0223    0.0368    0.0272   -0.0199
          45   -0.0352   -0.0500    0.0069   -0.0026    0.0309    0.1063    0.0282   -0.0449
          46    0.0044   -0.0243   -0.0052   -0.0362    0.0377    0.0161   -0.0111    0.0115
          47    0.0078    0.0259   -0.0003    0.0133   -0.0374   -0.1013    0.0036    0.0241
          48   -0.0165   -0.0466    0.0075    0.0147    0.0170    0.0930    0.0076   -0.0410
          49   -0.0095   -0.0010   -0.0002    0.0209    0.0070    0.0223   -0.0068    0.0576
          50    0.0129    0.0918    0.0077   -0.0837   -0.0014    0.0265    0.0000   -0.0818
          51    0.0426    0.0427    0.0050   -0.0215   -0.0308   -0.0256   -0.0480   -0.0724
          52    0.0221    0.0909    0.0122   -0.0618   -0.0244    0.0259   -0.0735   -0.0739
          53   -0.0039    0.0334    0.0083   -0.0242   -0.0127    0.0059    0.0221   -0.0393
          54    0.0439    0.0565   -0.0019   -0.0414   -0.0048   -0.0069   -0.0402   -0.0522
          55   -0.0679   -0.0416   -0.0018    0.0230   -0.0282    0.0031   -0.0301   -0.0738
          56    0.0243   -0.0217   -0.0207    0.0661    0.0632   -0.0023   -0.0408   -0.0621
          57   -0.0082   -0.0083   -0.0052    0.0054    0.0028   -0.0051    0.0205   -0.0043
          58   -0.0482   -0.0512   -0.0003   -0.0156   -0.0482   -0.0270   -0.0620   -0.0510
          59    0.0178    0.0028   -0.0161    0.0653    0.0683    0.0232    0.0101   -0.0207
          60    0.0067    0.0233    0.0063   -0.0491   -0.0146    0.0050    0.0702    0.1019
          61    0.0367    0.0336    0.0132    0.0291   -0.0230    0.0291    0.0361   -0.0225
          62   -0.0631    0.0308    0.5381    0.0295    0.0025    0.0163   -0.0205    0.0099
          63    0.0949    0.0156   -0.5215    0.0165   -0.0521    0.0386   -0.0111    0.0083


   Root No.       9        10        11        12        13        14        15        16

                 9 A      10 A      11 A      12 A      13 A      14 A      15 A      16 A   

                 469.4     480.8     581.9     641.1     793.9     805.8     839.6     875.1
  
           1    0.0060    0.0117   -0.0031    0.0009    0.1425   -0.0112    0.0067    0.0074
           2    0.0155    0.0646   -0.0206   -0.0201   -0.0050    0.0070   -0.0102    0.0025
           3   -0.0164    0.0089    0.0055   -0.0090   -0.0070    0.0072   -0.0074    0.0048
           4    0.0171    0.0261    0.0306   -0.0018   -0.1079    0.0091   -0.0041   -0.0040
           5   -0.0042   -0.0241   -0.0073    0.0029   -0.0094   -0.0010    0.0006   -0.0012
           6   -0.0057   -0.0196   -0.0044    0.0023   -0.0084   -0.0002    0.0002   -0.0007
           7    0.0205   -0.0245    0.0220   -0.0291   -0.0060   -0.0224    0.0151   -0.0188
           8   -0.0177   -0.0148    0.0452    0.0015   -0.0006   -0.0170    0.0081    0.0058
           9   -0.0309   -0.0014   -0.0023    0.0224   -0.0036   -0.0002   -0.0093    0.0222
          10    0.0161    0.0139    0.0029   -0.0092   -0.0012    0.0060    0.0045    0.0072
          11   -0.0413    0.0168    0.0272    0.0383    0.0120    0.0142    0.0208   -0.0230
          12    0.0138   -0.0214   -0.0056   -0.0256    0.0022    0.0107   -0.0124    0.0022
          13    0.0008   -0.0298   -0.0386    0.0120   -0.0113   -0.0167    0.0119   -0.0092
          14    0.0078    0.0106    0.0057   -0.0144    0.0004    0.0183    0.0007    0.0064
          15   -0.0040    0.0428   -0.0435    0.0093   -0.0182   -0.0254    0.0048   -0.0155
          16    0.0056   -0.0071    0.0063   -0.0063    0.0125    0.0263    0.0080   -0.0112
          17   -0.0057    0.0083   -0.0077    0.0032   -0.0062   -0.0235    0.0087    0.0029
          18   -0.0139   -0.0209    0.0130   -0.0046   -0.0010   -0.0015    0.0005   -0.0104
          19   -0.0012    0.0322    0.0178    0.0244   -0.0014   -0.0184   -0.0173    0.0183
          20   -0.0199   -0.0133   -0.0105   -0.0068    0.0166    0.0081   -0.0182   -0.0260
          21    0.0110   -0.0109    0.0002   -0.0047    0.0159    0.0181   -0.0106   -0.0261
          22   -0.0188   -0.0366   -0.0274    0.0138   -0.0197    0.0093   -0.0039    0.0016
          23    0.0489   -0.0407   -0.0086    0.0122   -0.0115    0.0134   -0.0010    0.0150
          24    0.0029    0.0190    0.0097    0.0026   -0.0069   -0.0192    0.0167   -0.0029
          25   -0.0385    0.0083   -0.0092    0.0038   -0.0115    0.0027   -0.0277    0.0046
          26    0.0111   -0.0114   -0.0037   -0.0039    0.0110   -0.0067   -0.0148    0.0037
          27    0.0568    0.0092    0.0191    0.0210    0.0227    0.0045    0.0161    0.0008
          28    0.0220    0.0230   -0.0473   -0.0224    0.0069    0.0681   -0.0224    0.0926
          29   -0.0419    0.0142    0.0364    0.0401    0.0100    0.0002    0.0254   -0.0381
          30    0.0352   -0.0147   -0.0446   -0.0489   -0.0117    0.0601    0.0010    0.1207
          31    0.0200   -0.0087    0.0237   -0.0280   -0.0027   -0.0133    0.0170   -0.0378
          32   -0.0229   -0.0574    0.0466    0.0009   -0.0010   -0.0423   -0.0151    0.1051
          33   -0.0472   -0.0216    0.0221    0.0259    0.0103   -0.0272   -0.0589    0.1600
          34   -0.0033   -0.0570   -0.0515    0.0324   -0.0902   -0.0173    0.0261   -0.0135
          35    0.0070    0.0304    0.0017   -0.0322    0.0862    0.0548   -0.0073    0.0130
          36   -0.0016    0.0607   -0.0315   -0.0057    0.0355   -0.0307   -0.0070   -0.0124
          37   -0.0614    0.0024   -0.0243   -0.0426   -0.0196    0.0222    0.0267   -0.0065
          38   -0.0117    0.0418    0.0183   -0.0268    0.0287   -0.0503    0.0123    0.0110
          39    0.0078    0.0306    0.0091   -0.0642    0.0210    0.0103    0.1174   -0.0132
          40   -0.0814    0.0353   -0.0115   -0.0634   -0.0076    0.0049    0.0349   -0.0139
          41    0.0033   -0.0244   -0.0197   -0.0296   -0.0136   -0.0117    0.0413    0.0224
          42    0.0968   -0.0081    0.0286    0.0915    0.0309    0.0051   -0.0659    0.0086
          43   -0.0463   -0.0435    0.0367   -0.0391    0.0376    0.0830   -0.0255    0.0220
          44    0.0039   -0.0466    0.0181   -0.0355    0.0275    0.0359   -0.0335    0.0134
          45   -0.0480    0.0121    0.0308   -0.0463    0.0296   -0.0046   -0.0201   -0.0098
          46   -0.0286   -0.0336   -0.0624    0.0142   -0.0354   -0.0060    0.0049   -0.0216
          47    0.1158   -0.0297   -0.0558    0.0877   -0.0742   -0.0359    0.0426    0.0211
          48   -0.0222    0.0128    0.0649   -0.0370    0.0424    0.0185   -0.0120    0.0143
          49    0.0219    0.0378    0.0420    0.0484    0.0372   -0.0031   -0.0678   -0.0325
          50   -0.0569   -0.0275   -0.0477   -0.0670   -0.0560   -0.0200    0.0804    0.0509
          51   -0.0073   -0.0128   -0.0198   -0.0137   -0.0086    0.0091    0.0215    0.0161
          52   -0.0308    0.0204   -0.0274   -0.0317   -0.0764   -0.0590    0.0800    0.1312
          53    0.0047   -0.0160   -0.0169   -0.0149    0.0191   -0.0082   -0.0183    0.0042
          54   -0.0452   -0.0138   -0.0151   -0.0249   -0.0303    0.0210    0.0452   -0.0119
          55   -0.0124    0.0393   -0.0605    0.0551    0.0244    0.1747    0.0391   -0.0278
          56    0.0325   -0.0103   -0.0375   -0.0481   -0.0270   -0.1385   -0.0793   -0.0525
          57    0.0018   -0.0181   -0.0216   -0.0158   -0.0090   -0.0224   -0.0391   -0.0424
          58    0.0146   -0.0459    0.0465   -0.0436    0.0253   -0.0497   -0.0577   -0.0500
          59   -0.0065    0.0456   -0.0643    0.0350   -0.0204    0.0407    0.0471    0.0129
          60   -0.0366   -0.0295    0.0788   -0.0015    0.0082    0.0068    0.0608    0.0609
          61    0.0049   -0.0512    0.0125    0.0219    0.0104   -0.0140    0.0167   -0.0066
          62   -0.0066   -0.0314   -0.0040    0.0040   -0.0104   -0.0003    0.0018   -0.0020
          63   -0.0046   -0.0224   -0.0086    0.0043   -0.0061   -0.0031    0.0015   -0.0012


   Root No.      17        18        19        20        21        22        23        24

                17 A      18 A      19 A      20 A      21 A      22 A      23 A      24 A   

                 907.5     929.4     950.2     985.0     998.0    1031.3    1067.4    1092.9
  
           1    0.0031    0.0072   -0.0023    0.0031   -0.0018    0.0041   -0.0033    0.0051
           2   -0.0013    0.0067    0.0037   -0.0010    0.0041    0.0047   -0.0002    0.0323
           3   -0.0005    0.0033    0.0002   -0.0036    0.0029    0.0025   -0.0048    0.0264
           4   -0.0011   -0.0024    0.0003   -0.0000    0.0015   -0.0016    0.0024   -0.0067
           5   -0.0003   -0.0020    0.0007   -0.0006   -0.0005   -0.0005   -0.0002    0.0019
           6   -0.0003   -0.0015    0.0003   -0.0007   -0.0004   -0.0005   -0.0005    0.0022
           7    0.0067    0.0111    0.0253   -0.0243    0.0041    0.0054   -0.0058   -0.0027
           8   -0.0047   -0.0062   -0.0001   -0.0117   -0.0141    0.0002   -0.0279   -0.0275
           9    0.0156   -0.0036   -0.0123    0.0000    0.0127   -0.0113   -0.0056   -0.0090
          10   -0.0046   -0.0070   -0.0082   -0.0001    0.0119    0.0131   -0.0025   -0.0043
          11   -0.0089    0.0030   -0.0034    0.0287    0.0024   -0.0082   -0.0034    0.0124
          12   -0.0026    0.0011   -0.0170   -0.0034   -0.0169    0.0113    0.0032   -0.0064
          13    0.0002   -0.0280    0.0088   -0.0062   -0.0138   -0.0080   -0.0112    0.0187
          14    0.0021   -0.0033   -0.0141   -0.0086   -0.0045   -0.0069    0.0038   -0.0176
          15    0.0009   -0.0097    0.0191    0.0165    0.0030   -0.0020   -0.0032   -0.0340
          16   -0.0131    0.0079    0.0063    0.0095   -0.0058   -0.0011    0.0199    0.0097
          17   -0.0007    0.0027    0.0213    0.0048    0.0079   -0.0050    0.0133    0.0021
          18    0.0221    0.0211   -0.0143   -0.0109   -0.0013   -0.0157    0.0113    0.0146
          19    0.0235   -0.0165   -0.0162    0.0064   -0.0114    0.0028    0.0053   -0.0094
          20   -0.0318   -0.0128    0.0012   -0.0224    0.0156    0.0001   -0.0047   -0.0013
          21   -0.0049   -0.0172    0.0148    0.0042   -0.0078    0.0173    0.0061   -0.0093
          22   -0.0120    0.0110   -0.0105   -0.0003    0.0199    0.0014    0.0096   -0.0107
          23    0.0347   -0.0009    0.0033    0.0363    0.0060    0.0111    0.0039    0.0037
          24   -0.0249    0.0135   -0.0124   -0.0078   -0.0168    0.0142    0.0026    0.0018
          25   -0.0049    0.0335    0.0149   -0.0020   -0.0093    0.0024   -0.0082    0.0001
          26    0.0044    0.0096    0.0062   -0.0073   -0.0141   -0.0036    0.0037   -0.0064
          27   -0.0074   -0.0081   -0.0022   -0.0081    0.0240   -0.0178   -0.0089    0.0043
          28   -0.1142   -0.0456    0.0048    0.0488    0.0229   -0.0672   -0.0732    0.0154
          29    0.0122    0.0099   -0.0065    0.0187    0.0006    0.0059    0.0092    0.0082
          30   -0.0759   -0.0071    0.0363    0.0546   -0.1063   -0.0691   -0.0704   -0.0544
          31    0.0091    0.0326    0.0234    0.0026    0.0286   -0.0026    0.0202    0.0010
          32   -0.0338   -0.0776    0.0125   -0.0871   -0.0460    0.0597   -0.0481   -0.0102
          33   -0.0417   -0.0534    0.0166   -0.0221    0.0857    0.0941    0.1004    0.0570
          34   -0.0162   -0.0609   -0.0205   -0.0096   -0.0506   -0.0197    0.0062    0.1534
          35   -0.0340    0.0238   -0.0777   -0.0143   -0.0350   -0.0245    0.1683   -0.1274
          36    0.0234    0.0144    0.0573    0.0215    0.0442    0.0111   -0.0484   -0.1354
          37   -0.0030   -0.0030   -0.0059    0.0264    0.0572    0.0278   -0.0199   -0.0294
          38    0.0208   -0.0655   -0.0324   -0.0458   -0.1054   -0.0596    0.0584    0.0530
          39    0.0063   -0.1086   -0.0543    0.0165    0.0740   -0.0097    0.0041   -0.0057
          40    0.0146   -0.0750   -0.0172    0.0098   -0.0028   -0.0108    0.0231    0.0301
          41   -0.0070    0.0503   -0.0434    0.0132    0.0371    0.0588   -0.0268   -0.0902
          42   -0.0169    0.0668    0.0505   -0.0261   -0.0077   -0.0359   -0.0212    0.0178
          43    0.0522   -0.0074   -0.0119   -0.0067    0.1252   -0.0478   -0.0415    0.0130
          44    0.1174   -0.0457    0.0556    0.0821   -0.0115    0.0086    0.0055    0.0022
          45    0.0644   -0.0374    0.0545    0.0499   -0.0554    0.0203    0.0119   -0.0062
          46   -0.0076   -0.0496   -0.0053    0.0124   -0.0068   -0.0170    0.0797   -0.0751
          47   -0.0776    0.0804   -0.0644   -0.0074   -0.0136    0.0503    0.0053    0.0262
          48    0.0284    0.0248    0.0170    0.0025    0.0165    0.0105   -0.0610    0.0483
          49    0.0001   -0.0700   -0.0403    0.0019   -0.0046    0.0559   -0.0072   -0.0215
          50   -0.0096    0.0469   -0.0674    0.0184    0.0176    0.0431   -0.0515    0.0108
          51    0.0200    0.0355    0.0844   -0.0064   -0.0175   -0.0863    0.0473    0.0018
          52    0.0763    0.0586   -0.0287    0.0121   -0.0060   -0.0781    0.0097   -0.0062
          53   -0.0227   -0.0157    0.0100   -0.0802    0.0448   -0.0852    0.0127   -0.0279
          54    0.0088    0.0307   -0.0062    0.0991   -0.0535    0.1101   -0.0196    0.0338
          55    0.0789    0.0083   -0.0420   -0.0908   -0.0768    0.0023   -0.0530   -0.0256
          56    0.0371    0.0112   -0.0730    0.0172    0.0506   -0.0225   -0.0065    0.0284
          57    0.0675    0.0259   -0.0789   -0.0318    0.0022   -0.0246   -0.0184    0.0194
          58   -0.0738    0.0072   -0.0642    0.1448   -0.0186   -0.0657   -0.0135    0.0090
          59    0.0800    0.0047    0.0437   -0.1264    0.0143    0.0473    0.0155   -0.0009
          60   -0.0578    0.0174    0.1048    0.0235    0.0138   -0.0031    0.0929    0.0252
          61    0.0009   -0.0133   -0.0035    0.0021   -0.0118   -0.0086    0.0012   -0.0550
          62   -0.0003   -0.0029   -0.0004   -0.0009   -0.0020   -0.0016   -0.0002   -0.0016
          63   -0.0003   -0.0032    0.0010   -0.0004   -0.0008   -0.0009   -0.0004   -0.0023


   Root No.      25        26        27        28        29        30        31        32

                25 A      26 A      27 A      28 A      29 A      30 A      31 A      32 A   

                1106.5    1110.4    1126.4    1136.6    1151.0    1156.2    1171.8    1174.7
  
           1   -0.0009   -0.0063    0.0054   -0.0066   -0.0006   -0.0009    0.0011    0.0008
           2   -0.0101   -0.0080    0.0021    0.0062    0.0044    0.0010    0.0034   -0.0039
           3   -0.0104   -0.0082    0.0046    0.0020    0.0032    0.0034    0.0017   -0.0023
           4    0.0017    0.0026   -0.0007    0.0007    0.0004   -0.0002   -0.0002    0.0003
           5   -0.0004    0.0004   -0.0009    0.0012   -0.0001    0.0002   -0.0001   -0.0004
           6   -0.0008   -0.0001   -0.0004    0.0008    0.0001    0.0005   -0.0001   -0.0004
           7    0.0196   -0.0024    0.0123    0.0051    0.0030   -0.0078   -0.0057   -0.0237
           8   -0.0049   -0.0127    0.0068   -0.0250   -0.0057    0.0107   -0.0080    0.0042
           9   -0.0088   -0.0051    0.0078   -0.0350   -0.0294    0.0155   -0.0161   -0.0123
          10   -0.0038   -0.0086   -0.0132   -0.0152    0.0053    0.0104   -0.0282    0.0359
          11    0.0179   -0.0031   -0.0067    0.0228    0.0140    0.0083    0.0095    0.0203
          12   -0.0249    0.0036   -0.0147   -0.0071    0.0104   -0.0013   -0.0055    0.0364
          13    0.0014    0.0146   -0.0247    0.0191   -0.0119   -0.0005   -0.0077   -0.0010
          14    0.0117    0.0044    0.0047   -0.0097   -0.0048    0.0023   -0.0076    0.0007
          15    0.0076    0.0174   -0.0111    0.0022   -0.0050   -0.0070   -0.0001    0.0088
          16   -0.0042    0.0077   -0.0066   -0.0004   -0.0131    0.0216    0.0350    0.0157
          17   -0.0210    0.0061   -0.0014   -0.0009   -0.0017   -0.0262   -0.0229   -0.0237
          18    0.0165   -0.0025   -0.0003    0.0228    0.0085   -0.0153    0.0105   -0.0206
          19   -0.0122   -0.0049    0.0102    0.0209   -0.0135   -0.0068    0.0157   -0.0122
          20    0.0008    0.0006    0.0004   -0.0070   -0.0045   -0.0106    0.0113   -0.0061
          21   -0.0066   -0.0080    0.0143    0.0129   -0.0135    0.0038   -0.0050   -0.0031
          22   -0.0090   -0.0013    0.0279   -0.0021    0.0145   -0.0028    0.0061    0.0066
          23    0.0098   -0.0031    0.0071   -0.0162   -0.0037   -0.0206    0.0081    0.0074
          24    0.0115   -0.0124    0.0127   -0.0127   -0.0057   -0.0190    0.0049    0.0077
          25    0.0055    0.0068   -0.0168   -0.0170    0.0076    0.0028   -0.0019   -0.0038
          26   -0.0115    0.0089    0.0024    0.0124    0.0069    0.0220   -0.0097   -0.0015
          27   -0.0019    0.0119   -0.0180   -0.0051    0.0240    0.0193    0.0017   -0.0150
          28    0.1415   -0.0504    0.0350    0.0004   -0.0259    0.0329   -0.0901   -0.0618
          29   -0.0099    0.0041   -0.0166    0.0201    0.0204    0.0035    0.0214    0.0395
          30    0.0015    0.0124    0.0623    0.0439   -0.0046   -0.0037    0.1613   -0.0528
          31    0.0095   -0.0104    0.0484   -0.0249    0.0009    0.0026   -0.0294   -0.0514
          32    0.0530    0.0090   -0.0811    0.0877    0.0396   -0.0290    0.0392    0.0725
          33    0.0700    0.0045    0.0092    0.0752    0.0800   -0.0302   -0.0344   -0.0067
          34   -0.0305   -0.0354   -0.0516   -0.0215   -0.0585    0.0398   -0.0242   -0.0394
          35    0.0857    0.0459   -0.1226    0.0004   -0.0795   -0.0121   -0.0328   -0.0610
          36    0.0234    0.0576    0.0365    0.0369    0.0485   -0.0421    0.0180    0.0547
          37    0.0022   -0.0570   -0.0470   -0.0044   -0.0121   -0.0237    0.0294   -0.0167
          38   -0.0059    0.1308    0.1260    0.0064    0.0362    0.0444   -0.0555    0.0380
          39   -0.0010   -0.0200    0.0044    0.0126    0.0093   -0.0084    0.0225   -0.0119
          40    0.0306    0.0117    0.0291   -0.0836    0.0078   -0.0706    0.0296    0.0275
          41   -0.0835   -0.0536   -0.0109    0.1999   -0.0501    0.1115   -0.0375   -0.0579
          42    0.0126    0.0393   -0.0525   -0.0400    0.0544    0.0416   -0.0126   -0.0159
          43   -0.0231    0.1308    0.0481    0.0485   -0.0532   -0.0146   -0.0140    0.0475
          44    0.0166   -0.0298   -0.0444   -0.0312    0.0189   -0.0012    0.0106   -0.0181
          45    0.0227   -0.0698   -0.0545   -0.0415    0.0365    0.0057    0.0132   -0.0305
          46   -0.0131   -0.0589    0.0538   -0.0418    0.1383    0.0810    0.0154   -0.0355
          47    0.0183   -0.0128    0.0521   -0.0173   -0.0590   -0.0840    0.0135    0.0400
          48    0.0121    0.0452   -0.0326    0.0220   -0.0882   -0.0633   -0.0059    0.0298
          49   -0.0352    0.0190    0.0130    0.0035   -0.0202   -0.0236    0.0521   -0.0756
          50   -0.0190    0.0822   -0.0584   -0.0712    0.0661    0.0184    0.0370   -0.0730
          51    0.0378   -0.0871    0.0376    0.0728   -0.0379    0.0156   -0.0734    0.1270
          52   -0.0281   -0.0277   -0.0359    0.0120    0.0247   -0.0112    0.0141    0.0350
          53   -0.0504   -0.0572   -0.0316   -0.0055    0.0018   -0.0543    0.0493    0.0289
          54    0.0642    0.0743    0.0413    0.0081   -0.0016    0.0746   -0.0667   -0.0329
          55   -0.0088   -0.0208   -0.0000    0.0486    0.0687   -0.1061   -0.0764   -0.0490
          56    0.0858   -0.0116   -0.0004    0.0027   -0.0282    0.0831    0.0713    0.0363
          57    0.0724   -0.0198    0.0021    0.0382    0.0166    0.0080    0.0313   -0.0068
          58   -0.0456   -0.0005   -0.0215    0.0423    0.0457   -0.0854   -0.0709   -0.0139
          59    0.0409    0.0010    0.0135   -0.0285   -0.0391    0.0668    0.0611    0.0076
          60   -0.0611    0.0335   -0.0087   -0.0092   -0.0377   -0.0107    0.0365   -0.0337
          61    0.0223    0.0187   -0.0148   -0.0082   -0.0159   -0.0039   -0.0104    0.0070
          62    0.0009    0.0015   -0.0022    0.0004   -0.0015    0.0003   -0.0013   -0.0002
          63    0.0014    0.0021   -0.0021    0.0009   -0.0011   -0.0000   -0.0008    0.0004


   Root No.      33        34        35        36        37        38        39        40

                33 A      34 A      35 A      36 A      37 A      38 A      39 A      40 A   

                1221.3    1244.7    1267.8    1302.9    1336.9    1363.3    1388.6    1397.6
  
           1    0.0049   -0.0085    0.0033   -0.0037   -0.0026    0.0020    0.0004   -0.0002
           2   -0.0081    0.0065   -0.0160   -0.0049    0.0064   -0.0039   -0.0021    0.0030
           3   -0.0056    0.0049   -0.0092   -0.0010    0.0037   -0.0026   -0.0009    0.0014
           4   -0.0003   -0.0001    0.0001   -0.0005   -0.0005    0.0008    0.0003   -0.0000
           5   -0.0009    0.0014   -0.0016   -0.0001    0.0012   -0.0009   -0.0004    0.0009
           6   -0.0008    0.0012   -0.0014   -0.0001    0.0009   -0.0006   -0.0003    0.0007
           7    0.0109   -0.0029   -0.0148   -0.0165    0.0003   -0.0031    0.0022   -0.0149
           8    0.0082    0.0105   -0.0007   -0.0146    0.0193    0.0154   -0.0156    0.0341
           9   -0.0086    0.0074   -0.0222    0.0077   -0.0095   -0.0174    0.0117   -0.0199
          10    0.0152    0.0056   -0.0193    0.0017   -0.0158   -0.0106    0.0207   -0.0074
          11    0.0090    0.0102    0.0023   -0.0138    0.0112   -0.0065    0.0053   -0.0107
          12   -0.0012    0.0004    0.0150    0.0003    0.0122    0.0111   -0.0254    0.0127
          13   -0.0086    0.0372    0.0021    0.0315    0.0178   -0.0268   -0.0083    0.0068
          14    0.0129   -0.0085    0.0530    0.0402   -0.0293   -0.0001    0.0139   -0.0289
          15    0.0236   -0.0263    0.0120   -0.0287   -0.0057    0.0277   -0.0005    0.0070
          16   -0.0208   -0.0077    0.0151    0.0041    0.0032    0.0042   -0.0064   -0.0020
          17   -0.0144   -0.0121   -0.0019    0.0061   -0.0072   -0.0022    0.0018   -0.0092
          18   -0.0112   -0.0122    0.0058    0.0037   -0.0032    0.0014   -0.0042   -0.0172
          19   -0.0023   -0.0065   -0.0036    0.0136   -0.0060    0.0021   -0.0033    0.0193
          20    0.0053   -0.0020   -0.0129    0.0157   -0.0257    0.0040   -0.0274    0.0063
          21   -0.0025    0.0067    0.0147   -0.0243    0.0193   -0.0104    0.0283   -0.0167
          22   -0.0169    0.0177   -0.0130   -0.0146   -0.0106    0.0455    0.0200   -0.0067
          23   -0.0017   -0.0106   -0.0006   -0.0095    0.0006   -0.0156    0.0021    0.0124
          24    0.0006   -0.0118    0.0042    0.0152    0.0116   -0.0298   -0.0060    0.0031
          25    0.0027   -0.0028    0.0151   -0.0111   -0.0129   -0.0191   -0.0109    0.0022
          26    0.0090   -0.0118   -0.0147    0.0242    0.0407    0.0264    0.0237   -0.0112
          27   -0.0020    0.0047   -0.0057    0.0002   -0.0088   -0.0039    0.0040    0.0061
          28   -0.1292   -0.0365    0.0807   -0.0453    0.0736    0.0344   -0.0195    0.0308
          29    0.0367    0.0185   -0.0177   -0.0054   -0.0059   -0.0156    0.0131   -0.0184
          30    0.1406    0.0494   -0.0776    0.0092   -0.0408   -0.0246    0.0192   -0.0240
          31    0.0828    0.0663    0.0323   -0.0032    0.0361    0.0096   -0.0289    0.0283
          32   -0.1067   -0.1275   -0.0783   -0.0450   -0.0516   -0.0061    0.0476   -0.0548
          33    0.1367    0.0758    0.0679    0.0118    0.0265    0.0077   -0.0173    0.0209
          34    0.1178   -0.0866    0.0346   -0.0604   -0.0257    0.0520    0.0055   -0.0051
          35    0.0053    0.0509   -0.1154   -0.0641    0.0428   -0.0123   -0.0094    0.0231
          36   -0.0862    0.0760    0.0148    0.0731    0.0206   -0.0403   -0.0083    0.0078
          37    0.0192   -0.0228   -0.0221    0.0565    0.0157    0.0475   -0.0300   -0.0110
          38   -0.0527    0.0638    0.0280   -0.1061   -0.0820   -0.0030   -0.0315   -0.0023
          39   -0.0126    0.0209   -0.0439    0.0363   -0.0413    0.0988   -0.0717   -0.0138
          40    0.0034   -0.0154   -0.0136    0.0075    0.0575   -0.0318    0.0720    0.0119
          41   -0.0158    0.0129    0.0574   -0.0566   -0.0676   -0.0645   -0.0240    0.0170
          42    0.0087    0.0046   -0.0181    0.0263   -0.0220    0.0620   -0.0561   -0.0194
          43    0.0626   -0.1090   -0.0266   -0.0474    0.0513   -0.0914   -0.0909    0.0216
          44   -0.0218    0.0405    0.0036   -0.0545   -0.0536   -0.0029   -0.0587   -0.0080
          45   -0.0389    0.0736    0.0119   -0.0282   -0.0628    0.0178   -0.0460   -0.0243
          46   -0.0044   -0.0950   -0.0231    0.0194    0.0295   -0.0992   -0.0344    0.0215
          47   -0.0230    0.0376   -0.0058   -0.0512   -0.0305   -0.0025   -0.0758   -0.0244
          48   -0.0007    0.0663    0.0152    0.0022   -0.0105    0.0861    0.0682   -0.0060
          49   -0.0197   -0.0063    0.0278   -0.0029    0.0527    0.0358   -0.0330   -0.0521
          50   -0.0030    0.0240    0.0354   -0.0568   -0.0128   -0.0635    0.0925    0.0467
          51    0.0281   -0.0081   -0.0580    0.0409   -0.0687   -0.0182    0.0008    0.0579
          52   -0.0104   -0.0011    0.0355   -0.0034    0.0959    0.0653   -0.0661   -0.0871
          53    0.0032    0.0316    0.0560   -0.0624    0.0236   -0.0260    0.0140   -0.0232
          54   -0.0004   -0.0409   -0.0753    0.0871   -0.0144    0.0602   -0.0579   -0.0142
          55    0.0177   -0.0130   -0.0001    0.0050   -0.0103    0.0305    0.0290    0.1265
          56   -0.0034    0.0066    0.0074    0.0151   -0.0172    0.0133    0.0517    0.1084
          57    0.0055   -0.0037    0.0075    0.0117   -0.0146    0.0194    0.0370    0.0963
          58   -0.0023   -0.0159   -0.0155    0.0094   -0.0196   -0.0126    0.0106   -0.0261
          59   -0.0152    0.0025    0.0154   -0.0119    0.0205    0.0039   -0.0265   -0.0357
          60   -0.0650   -0.0391    0.0379    0.0510   -0.0342    0.0366    0.0560    0.1833
          61    0.0255   -0.0115    0.0545    0.0285   -0.0222    0.0093    0.0075   -0.0224
          62    0.0011    0.0013    0.0030    0.0031   -0.0008   -0.0003    0.0002   -0.0014
          63    0.0013    0.0004    0.0030    0.0022   -0.0006    0.0001    0.0003   -0.0011


   Root No.      41        42        43        44        45        46        47        48

                41 A      42 A      43 A      44 A      45 A      46 A      47 A      48 A   

                1410.3    1415.3    1416.6    1481.1    1602.2    2825.1    2948.1    2957.7
  
           1   -0.0010   -0.0007   -0.0006   -0.0215    0.0001    0.0007   -0.0000   -0.0001
           2   -0.0009   -0.0006   -0.0011    0.0418   -0.0019    0.0010   -0.0000    0.0000
           3    0.0000    0.0000   -0.0005    0.0353   -0.0002    0.0009   -0.0000   -0.0000
           4   -0.0004   -0.0002   -0.0001   -0.0231    0.0000    0.0002    0.0000    0.0000
           5   -0.0005   -0.0003   -0.0005   -0.0272    0.0004   -0.0006   -0.0000   -0.0000
           6   -0.0004   -0.0002   -0.0004   -0.0270    0.0005   -0.0005   -0.0000   -0.0000
           7   -0.0028   -0.0004   -0.0025    0.0017   -0.1015    0.0014   -0.0000    0.0003
           8   -0.0023   -0.0045    0.0056    0.0038    0.0816    0.0012   -0.0000    0.0001
           9    0.0002    0.0048   -0.0079   -0.0011   -0.0584   -0.0007   -0.0000    0.0000
          10    0.0019    0.0166   -0.0134   -0.0003    0.0878    0.0001    0.0003   -0.0001
          11    0.0016    0.0006   -0.0048    0.0000   -0.0678   -0.0000    0.0023   -0.0010
          12   -0.0063   -0.0150    0.0135   -0.0008   -0.0930   -0.0001    0.0002    0.0001
          13    0.0021    0.0006   -0.0038   -0.0083    0.0110   -0.0471   -0.0003   -0.0009
          14    0.0077    0.0060    0.0029   -0.0318   -0.0246   -0.0100    0.0000   -0.0000
          15   -0.0016   -0.0022    0.0063   -0.0107    0.0137   -0.0523   -0.0001   -0.0007
          16    0.0008   -0.0077    0.0070   -0.0005    0.0385    0.0003   -0.0003   -0.0001
          17    0.0011   -0.0021    0.0021   -0.0008    0.0221   -0.0003   -0.0001   -0.0002
          18    0.0013   -0.0118    0.0106    0.0003    0.1097    0.0003    0.0001   -0.0001
          19    0.0140   -0.0268    0.0197   -0.0004   -0.0272    0.0000   -0.0146    0.0050
          20   -0.0250    0.0053    0.0074    0.0007   -0.0004    0.0000   -0.0229    0.0088
          21    0.0158    0.0094   -0.0225   -0.0001    0.0245    0.0000   -0.0235    0.0089
          22   -0.0058   -0.0028    0.0112    0.0053   -0.0034    0.0009   -0.0026   -0.0138
          23   -0.0313   -0.0187   -0.0214    0.0096    0.0047   -0.0009    0.0006    0.0049
          24   -0.0015   -0.0035   -0.0145    0.0004    0.0004    0.0031   -0.0040   -0.0232
          25   -0.0088   -0.0006   -0.0143    0.0001    0.0034   -0.0003    0.0169    0.0166
          26    0.0294    0.0033    0.0117   -0.0039   -0.0028   -0.0001    0.0077    0.0076
          27   -0.0208    0.0108    0.0351   -0.0001   -0.0024   -0.0002    0.0037    0.0034
          28    0.0138   -0.0272    0.0168    0.0027   -0.0360    0.0001   -0.0043    0.0016
          29   -0.0011    0.0090   -0.0107   -0.0004   -0.0477   -0.0003   -0.0281    0.0108
          30   -0.0089    0.0227   -0.0167    0.0009    0.0415    0.0001   -0.0018    0.0007
          31   -0.0056   -0.0104    0.0087   -0.0002   -0.0334   -0.0200    0.0004   -0.0048
          32    0.0041    0.0161   -0.0159    0.0047   -0.0541   -0.0037    0.0003   -0.0021
          33   -0.0003   -0.0048    0.0063   -0.0068    0.0417   -0.0010   -0.0000    0.0007
          34   -0.0020   -0.0033    0.0072   -0.0153   -0.0076    0.5572    0.0020    0.0095
          35   -0.0166   -0.0080   -0.0084    0.0046   -0.0192    0.1119    0.0006    0.0025
          36    0.0064    0.0039   -0.0005   -0.0142    0.0273    0.6200    0.0021    0.0080
          37    0.0636   -0.0339   -0.0675   -0.0028   -0.0091   -0.0007   -0.1009   -0.1016
          38   -0.0190   -0.0109   -0.0748    0.0126    0.0178   -0.0003   -0.0363   -0.0365
          39    0.0830   -0.0603   -0.1291    0.0056   -0.0085    0.0005    0.0647    0.0659
          40   -0.0490    0.0401    0.1297   -0.0028   -0.0044    0.0011   -0.1019   -0.0986
          41   -0.0642    0.0141    0.0163    0.0013    0.0029    0.0021   -0.0591   -0.0517
          42    0.0739   -0.0390   -0.1181    0.0003    0.0017    0.0038   -0.1122   -0.1087
          43    0.1013    0.0524    0.0128    0.0016    0.0204   -0.0074    0.0026    0.0192
          44    0.0752    0.0583    0.0529   -0.0093   -0.0014    0.0157   -0.0193   -0.1387
          45    0.0857    0.0659    0.0668   -0.0186   -0.0105   -0.0129    0.0151    0.1099
          46   -0.0030   -0.0015   -0.0295    0.0192    0.0004   -0.0122    0.0296    0.1504
          47    0.1544    0.0952    0.0687   -0.0174   -0.0062   -0.0084    0.0153    0.0807
          48   -0.0742   -0.0478   -0.0131   -0.0021    0.0023   -0.0222    0.0323    0.1681
          49   -0.0486    0.0655   -0.0395    0.0005    0.0072   -0.0003    0.2489   -0.0878
          50    0.1074   -0.0921    0.0201   -0.0011   -0.0128   -0.0002    0.0825   -0.0273
          51    0.0253   -0.0623    0.0529   -0.0004   -0.0162   -0.0002    0.1624   -0.0581
          52   -0.0951    0.1129   -0.0520    0.0002   -0.0237    0.0001   -0.0691    0.0287
          53   -0.0003    0.0131   -0.0366    0.0009   -0.0062   -0.0002    0.1907   -0.0795
          54   -0.0644    0.0523    0.0176   -0.0004    0.0307   -0.0001    0.1173   -0.0485
          55    0.0080    0.0608   -0.0380    0.0046   -0.0528    0.0002   -0.0003    0.0001
          56    0.0123    0.0743   -0.0521    0.0007   -0.0690   -0.0008   -0.0001    0.0001
          57    0.0106    0.0570   -0.0365    0.0028    0.0270    0.0015    0.0008   -0.0006
          58    0.0036   -0.0015    0.0010   -0.0020    0.0441   -0.0004    0.0013    0.0018
          59   -0.0062   -0.0357    0.0248    0.0008    0.0688   -0.0004    0.0020    0.0017
          60    0.0222    0.1050   -0.0631    0.0005   -0.0758    0.0000    0.0009    0.0006
          61    0.0177    0.0102    0.0137    0.7311   -0.0104    0.0005    0.0000    0.0000
          62    0.0012    0.0007    0.0009    0.0382   -0.0008   -0.0011   -0.0000    0.0000
          63    0.0012    0.0007    0.0007    0.0450   -0.0004   -0.0012   -0.0000    0.0000


   Root No.      49        50        51        52        53        54        55        56

                49 A      50 A      51 A      52 A      53 A      54 A      55 A      56 A   

                2963.7    3000.7    3010.2    3032.1    3037.5    3042.3    3085.0    3130.0
  
           1   -0.0001   -0.0001   -0.0000    0.0001   -0.0002   -0.0001   -0.0000   -0.0000
           2    0.0000   -0.0000    0.0000    0.0000   -0.0000   -0.0000    0.0000   -0.0000
           3    0.0000    0.0001    0.0000   -0.0000    0.0001    0.0001    0.0000   -0.0000
           4    0.0000   -0.0000   -0.0000    0.0000    0.0000    0.0000   -0.0000    0.0000
           5   -0.0000   -0.0000   -0.0000   -0.0000    0.0000    0.0000   -0.0000    0.0000
           6   -0.0000   -0.0000   -0.0000   -0.0000    0.0000    0.0000   -0.0000    0.0000
           7    0.0002   -0.0421   -0.0197   -0.0009   -0.0002    0.0005   -0.0029    0.0014
           8    0.0000   -0.0170   -0.0079   -0.0003    0.0000    0.0002   -0.0016   -0.0003
           9   -0.0000    0.0066    0.0025    0.0002   -0.0000   -0.0001    0.0005   -0.0002
          10    0.0001    0.0043   -0.0075   -0.0003   -0.0002    0.0002   -0.0010   -0.0005
          11    0.0010    0.0231   -0.0402   -0.0029   -0.0016    0.0011   -0.0035    0.0013
          12   -0.0001   -0.0003   -0.0003   -0.0003   -0.0000   -0.0000    0.0002    0.0002
          13   -0.0004   -0.0007   -0.0005    0.0001   -0.0004   -0.0002   -0.0002    0.0001
          14   -0.0002   -0.0006   -0.0001    0.0000   -0.0001   -0.0002    0.0000    0.0000
          15   -0.0007   -0.0006   -0.0002   -0.0001    0.0002    0.0001   -0.0003    0.0002
          16   -0.0002    0.0006    0.0029    0.0006   -0.0001   -0.0006   -0.0322   -0.0082
          17   -0.0002    0.0015    0.0035    0.0008   -0.0001   -0.0007   -0.0418   -0.0009
          18    0.0000   -0.0003   -0.0011   -0.0001   -0.0000    0.0001    0.0141   -0.0437
          19   -0.0038    0.0021   -0.0046    0.0186    0.0093   -0.0057    0.0007    0.0002
          20   -0.0073    0.0007    0.0000   -0.0124   -0.0066    0.0045   -0.0005    0.0002
          21   -0.0070    0.0012   -0.0016   -0.0019   -0.0016    0.0015   -0.0004    0.0003
          22   -0.0112   -0.0003   -0.0002    0.0017   -0.0063   -0.0048    0.0005    0.0003
          23    0.0051    0.0001    0.0001    0.0051   -0.0176   -0.0157    0.0008    0.0002
          24   -0.0192   -0.0007   -0.0005    0.0000    0.0008    0.0024    0.0003    0.0003
          25   -0.0237    0.0001   -0.0003   -0.0019    0.0025   -0.0053    0.0001    0.0000
          26   -0.0106   -0.0000   -0.0000    0.0004   -0.0006   -0.0005    0.0000    0.0000
          27   -0.0035    0.0000   -0.0002    0.0135   -0.0118    0.0176   -0.0001    0.0000
          28   -0.0017   -0.0563    0.0907    0.0078    0.0042   -0.0026    0.0075   -0.0015
          29   -0.0109   -0.2813    0.4800    0.0358    0.0193   -0.0124    0.0407   -0.0072
          30   -0.0006    0.0002   -0.0010   -0.0004   -0.0002    0.0002    0.0034   -0.0002
          31   -0.0032    0.5066    0.2317    0.0080    0.0020   -0.0039    0.0359   -0.0075
          32   -0.0014    0.2139    0.0951    0.0033    0.0009   -0.0016    0.0137   -0.0032
          33    0.0006   -0.0817   -0.0382   -0.0013   -0.0004    0.0006   -0.0023    0.0009
          34    0.0076    0.0078    0.0037    0.0004   -0.0004   -0.0002    0.0008   -0.0006
          35    0.0016   -0.0010   -0.0005    0.0003   -0.0005   -0.0002    0.0003   -0.0003
          36    0.0053    0.0113    0.0053    0.0008   -0.0006    0.0003    0.0010   -0.0005
          37    0.1576   -0.0016    0.0037    0.1246   -0.1142    0.1879   -0.0019   -0.0001
          38    0.0578   -0.0008    0.0020    0.0454   -0.0457    0.0696   -0.0007   -0.0000
          39   -0.1017    0.0012   -0.0028   -0.0641    0.0609   -0.1018    0.0012    0.0001
          40    0.1254   -0.0003    0.0010   -0.0997    0.0867   -0.1235    0.0006   -0.0003
          41    0.0710    0.0000    0.0005   -0.0543    0.0465   -0.0662    0.0002   -0.0002
          42    0.1431   -0.0005    0.0015   -0.0959    0.0829   -0.1156    0.0005   -0.0004
          43    0.0170    0.0002    0.0001    0.0090   -0.0351   -0.0333    0.0014    0.0003
          44   -0.1241   -0.0007   -0.0008   -0.0421    0.1621    0.1536   -0.0058   -0.0009
          45    0.0998    0.0002    0.0004    0.0405   -0.1497   -0.1375    0.0055    0.0009
          46    0.1153    0.0054    0.0036   -0.0329    0.1163    0.0928   -0.0078   -0.0035
          47    0.0657    0.0027    0.0021   -0.0152    0.0514    0.0397   -0.0034   -0.0017
          48    0.1320    0.0060    0.0042   -0.0394    0.1385    0.1114   -0.0096   -0.0041
          49    0.0695   -0.0231    0.0528   -0.1659   -0.0818    0.0479   -0.0043   -0.0029
          50    0.0202   -0.0080    0.0196   -0.0705   -0.0356    0.0208   -0.0027   -0.0014
[...]
 T-DIPOLE    0.2671         C  3 -- C  5         +13.6% ( 51.9%)     59.9%
 TRAVEL      0.0894         C  5 -- C  8         +13.5% ( 51.7%)     77.3%
 RED. MASS   1.1667         O  1 -- C  5          +9.8% ( 44.2%)      1.9%
 EFF. MASS   6.4817

 VIBRATION   37   37A         ATOM PAIR      ENERGY CONTRIBUTION    RADIAL
 FREQ.      1336.89         C  7 -- C  9         +12.4% ( 48.6%)     88.2%
 T-DIPOLE    0.2419         C  9 -- H 14          +9.7% ( 42.8%)      0.0%
 TRAVEL      0.0910         C  9 -- H 13          +9.6% ( 42.7%)      0.3%
 RED. MASS   0.7104         C  3 -- C  5          +6.8% ( 35.9%)     72.1%
 EFF. MASS   6.0898

 VIBRATION   38   38A         ATOM PAIR      ENERGY CONTRIBUTION    RADIAL
 FREQ.      1363.32         C  5 -- C  8         +15.1% ( 53.4%)     76.5%
 T-DIPOLE    0.1144         C  8 -- H 16         +14.9% ( 53.0%)      0.0%
 TRAVEL      0.0875         C  8 -- C  9         +13.5% ( 50.5%)     77.6%
 RED. MASS   1.0701         C  8 -- H 15         +11.7% ( 47.1%)      0.0%
 EFF. MASS   6.4653

 VIBRATION   39   39A         ATOM PAIR      ENERGY CONTRIBUTION    RADIAL
 FREQ.      1388.63         C  4 -- C  7         +13.1% ( 46.3%)     77.4%
 T-DIPOLE    0.1679         C  7 -- C  9          +9.7% ( 39.9%)     91.5%
 TRAVEL      0.0949         C  7 -- H 17          +9.4% ( 39.4%)      0.8%
 RED. MASS   0.5311         C  7 -- H 18          +8.6% ( 37.6%)      1.4%
 EFF. MASS   5.3911

 VIBRATION   40   40A         ATOM PAIR      ENERGY CONTRIBUTION    RADIAL
 FREQ.      1397.57         C  6 -- H 19         +13.0% ( 44.5%)      1.5%
 T-DIPOLE    0.2692         C  3 -- C  5         +12.7% ( 43.9%)     91.4%
 TRAVEL      0.1025         C  6 -- H 20         +12.6% ( 43.9%)      2.1%
 RED. MASS   0.4703         C  3 -- H 11          +9.2% ( 37.5%)      0.2%
 EFF. MASS   4.5950

 VIBRATION   41   41A         ATOM PAIR      ENERGY CONTRIBUTION    RADIAL
 FREQ.      1410.28         C  8 -- H 16         +15.3% ( 44.6%)      3.3%
 T-DIPOLE    0.1600         C  7 -- C  9         +12.8% ( 40.7%)     97.8%
 TRAVEL      0.1102         C  8 -- H 15         +12.0% ( 39.5%)      7.9%
 RED. MASS   0.4104         C  8 -- C  9         +10.4% ( 36.8%)     38.1%
 EFF. MASS   3.9369         C  9 -- H 14         +10.1% ( 36.2%)      2.0%

 VIBRATION   42   42A         ATOM PAIR      ENERGY CONTRIBUTION    RADIAL
 FREQ.      1415.29         C  7 -- H 17         +13.6% ( 40.0%)      4.9%
 T-DIPOLE    0.1070         C  7 -- H 18         +12.6% ( 38.5%)      6.0%
 TRAVEL      0.1219         C  4 -- C  7         +10.6% ( 35.2%)     86.1%
 RED. MASS   0.2348         C  6 -- H 19          +8.1% ( 30.9%)      1.9%
 EFF. MASS   3.2040

 VIBRATION   43   43A         ATOM PAIR      ENERGY CONTRIBUTION    RADIAL
 FREQ.      1416.62         C  9 -- H 14         +17.3% ( 50.0%)      4.1%
 T-DIPOLE    0.0894         C  9 -- H 13         +14.8% ( 46.3%)      7.6%
 TRAVEL      0.1024         C  8 -- C  9         +11.3% ( 40.4%)     84.8%
 RED. MASS   0.4635         C  7 -- C  9         +10.2% ( 38.4%)     14.2%
 EFF. MASS   4.5433

 VIBRATION   44   44A         ATOM PAIR      ENERGY CONTRIBUTION    RADIAL
 FREQ.      1481.14         O  2 -- H 21         +84.6% ( 91.5%)      2.8%
 T-DIPOLE    0.4318         O  1 -- C  5          +5.9% ( 24.2%)     98.0%
 TRAVEL      0.1316         O  1 -- O  2          +4.9% ( 22.0%)      0.0%
 RED. MASS   0.8681         C  5 -- C  8          +1.5% ( 12.3%)     17.4%
 EFF. MASS   2.6284

 VIBRATION   45   45A         ATOM PAIR      ENERGY CONTRIBUTION    RADIAL
 FREQ.      1602.16         C  3 -- C  4         +20.1% ( 74.4%)    100.0%
 T-DIPOLE    0.3397         C  4 -- C  6         +17.3% ( 69.0%)     97.0%
 TRAVEL      0.0599         C  3 -- C  6         +17.2% ( 68.9%)     97.6%
 RED. MASS   3.4352         C  4 -- C  7          +9.2% ( 50.5%)     65.2%
 EFF. MASS  11.7378

 VIBRATION   46   46A         ATOM PAIR      ENERGY CONTRIBUTION    RADIAL
 FREQ.      2825.06         C  5 -- H 12         +96.3% ( 99.9%)    100.0%
 T-DIPOLE    0.0894         O  1 -- C  5          +1.2% ( 11.0%)     11.9%
 TRAVEL      0.1274         C  5 -- C  8          +1.2% ( 11.0%)      9.9%
 RED. MASS   0.9254         C  3 -- C  5          +1.2% ( 10.9%)      8.4%
 EFF. MASS   1.4711

 VIBRATION   47   47A         ATOM PAIR      ENERGY CONTRIBUTION    RADIAL
 FREQ.      2948.11         C  7 -- H 17         +46.5% ( 71.0%)     97.6%
 T-DIPOLE    0.0170         C  7 -- H 18         +28.2% ( 55.2%)     94.6%
 TRAVEL      0.1214         C  9 -- H 14         +13.0% ( 37.6%)     97.4%
 RED. MASS   0.3475         C  9 -- H 13          +8.0% ( 29.5%)     94.7%
 EFF. MASS   1.5510

 VIBRATION   48   48A         ATOM PAIR      ENERGY CONTRIBUTION    RADIAL
 FREQ.      2957.75         C  8 -- H 16         +36.5% ( 62.7%)     97.8%
 T-DIPOLE    0.0483         C  8 -- H 15         +21.2% ( 47.7%)     94.7%
 TRAVEL      0.1218         C  9 -- H 14         +15.5% ( 40.9%)     97.4%
 RED. MASS   0.2403         C  9 -- H 13         +10.6% ( 33.8%)     95.3%
 EFF. MASS   1.5364

 VIBRATION   49   49A         ATOM PAIR      ENERGY CONTRIBUTION    RADIAL
 FREQ.      2963.73         C  9 -- H 14         +26.1% ( 52.9%)     96.8%
 T-DIPOLE    0.0659         C  9 -- H 13         +24.6% ( 51.4%)     96.4%
 TRAVEL      0.1216         C  8 -- H 16         +21.9% ( 48.5%)     97.4%
 RED. MASS   0.2251         C  8 -- H 15         +16.6% ( 42.2%)     95.7%
 EFF. MASS   1.5383

 VIBRATION   50   50A         ATOM PAIR      ENERGY CONTRIBUTION    RADIAL
 FREQ.      3000.67         C  3 -- H 11         +76.1% ( 88.8%)    100.0%
 T-DIPOLE    0.2106         C  4 -- H 10         +20.3% ( 45.9%)    100.0%
 TRAVEL      0.1247         C  3 -- C  4          +1.1% ( 10.5%)      3.4%
 RED. MASS   0.6170         C  3 -- C  6          +0.9% (  9.6%)     21.7%
 EFF. MASS   1.4448

 VIBRATION   51   51A         ATOM PAIR      ENERGY CONTRIBUTION    RADIAL
 FREQ.      3010.21         C  4 -- H 10         +74.2% ( 87.6%)    100.0%
 T-DIPOLE    0.2523         C  3 -- H 11         +19.9% ( 45.4%)    100.0%
 TRAVEL      0.1237         C  7 -- H 17          +1.3% ( 11.7%)     99.7%
 RED. MASS   0.5890         C  3 -- C  4          +1.2% ( 11.0%)     75.0%
 EFF. MASS   1.4635

 VIBRATION   52   52A         ATOM PAIR      ENERGY CONTRIBUTION    RADIAL
 FREQ.      3032.06         C  7 -- H 18         +41.8% ( 63.7%)     98.7%
 T-DIPOLE    0.0349         C  7 -- H 17         +26.9% ( 51.2%)     96.0%
 TRAVEL      0.1317         C  9 -- H 14         +12.8% ( 35.3%)     97.5%
 RED. MASS   0.2766         C  9 -- H 13         +12.6% ( 35.1%)     97.7%
 EFF. MASS   1.2830

 VIBRATION   53   53A         ATOM PAIR      ENERGY CONTRIBUTION    RADIAL
 FREQ.      3037.50         C  8 -- H 15         +32.5% ( 56.2%)     98.5%
 T-DIPOLE    0.0939         C  8 -- H 16         +22.5% ( 46.7%)     96.2%
 TRAVEL      0.1321         C  7 -- H 18         +13.5% ( 36.2%)     99.0%
 RED. MASS   0.2026         C  9 -- H 13         +12.2% ( 34.4%)     98.1%
 EFF. MASS   1.2730         C  9 -- H 14         +10.6% ( 32.1%)     97.1%

 VIBRATION   54   54A         ATOM PAIR      ENERGY CONTRIBUTION    RADIAL
 FREQ.      3042.26         C  9 -- H 13         +30.8% ( 54.7%)     98.6%
 T-DIPOLE    0.0743         C  8 -- H 15         +26.8% ( 51.0%)     99.0%
 TRAVEL      0.1316         C  9 -- H 14         +19.7% ( 43.7%)     96.1%
 RED. MASS   0.2233         C  8 -- H 16         +13.4% ( 36.1%)     94.7%
 EFF. MASS   1.2802

 VIBRATION   55   55A         ATOM PAIR      ENERGY CONTRIBUTION    RADIAL
 FREQ.      3085.00         C  6 -- H 20         +65.8% ( 83.7%)     98.7%
 T-DIPOLE    0.2051         C  6 -- H 19         +31.0% ( 57.5%)     94.2%
 TRAVEL      0.1191         C  3 -- C  6          +1.1% ( 11.0%)      1.1%
 RED. MASS   0.5692         C  4 -- C  6          +1.1% ( 11.0%)      0.9%
 EFF. MASS   1.5408

 VIBRATION   56   56A         ATOM PAIR      ENERGY CONTRIBUTION    RADIAL
 FREQ.      3129.97         C  6 -- H 19         +67.8% ( 82.0%)     98.4%
 T-DIPOLE    0.1949         C  6 -- H 20         +30.4% ( 54.9%)     91.8%
 TRAVEL      0.1282         C  3 -- C  6          +0.9% (  9.2%)     72.2%
 RED. MASS   0.5455         C  4 -- C  6          +0.9% (  9.2%)     72.6%
 EFF. MASS   1.3109

 VIBRATION   57   57A         ATOM PAIR      ENERGY CONTRIBUTION    RADIAL
 FREQ.      3988.64         O  2 -- H 21         +99.6% (100.0%)     99.9%
 T-DIPOLE    0.3775         O  1 -- O  2          +0.4% (  6.0%)      0.0%
 TRAVEL      0.1107
 RED. MASS   0.9479
 EFF. MASS   1.3795

      SYMMETRY NUMBER FOR POINT-GROUP C1  =  1


          SYSTEM IS A GROUND STATE



 InChI=1S/C7H12O2/c8-9-7-3-1-2-5-4-6(5)7/h5-8H,1-4H2


          MOLECULE IS NOT LINEAR

          THERE ARE 57 GENUINE VIBRATIONS IN THIS SYSTEM
          THIS THERMODYNAMICS CALCULATION IS LIMITED TO
          MOLECULES WHICH HAVE NO INTERNAL ROTATIONS




                    CALCULATED THERMODYNAMIC PROPERTIES
                                          *
   TEMP. (K)   PARTITION FUNCTION   H.O.F.    ENTHALPY  HEAT CAPACITY ENTROPY
                                   KCAL/MOL   CAL/MOLE    CAL/K/MOL  CAL/K/MOL


 298.00  VIB.     0.1651D+03                  3751.8526    27.8008    22.7374
         ROT.     0.4667D+06                   888.2813     2.9808    28.9209
         INT.     0.7704D+08                  4640.1339    30.7816    51.6583
         TRA.     0.1403D+28                  1480.4688     4.9680    40.4556
         TOT.                      -20.645    6120.6027    35.7496    92.1139

 200.00  VIB.     0.2200D+02                  1581.7259    16.8573    14.0516
         ROT.     0.2566D+06                   596.1620     2.9808    27.7322
         INT.     0.5647D+07                  2177.8878    19.8381    41.7838
         TRA.     0.7713D+27                   993.6033     4.9680    38.4745
         TOT.                      -23.594    3171.4911    24.8061    80.2583

 210.00  VIB.     0.2687D+02                  1755.2828    17.8592    14.8982
         ROT.     0.2761D+06                   625.9700     2.9808    27.8777
         INT.     0.7418D+07                  2381.2528    20.8400    42.7759
         TRA.     0.8299D+27                  1043.2834     4.9680    38.7168
         TOT.                      -23.341    3424.5362    25.8080    81.4927

 220.00  VIB.     0.3285D+02                  1939.0109    18.8915    15.7527
         ROT.     0.2961D+06                   655.7781     2.9808    28.0163
         INT.     0.9725D+07                  2594.7890    21.8723    43.7690
         TRA.     0.8899D+27                  1092.9636     4.9680    38.9480
         TOT.                      -23.078    3687.7526    26.8404    82.7170

 230.00  VIB.     0.4021D+02                  2133.2135    19.9539    16.6158
         ROT.     0.3165D+06                   685.5862     2.9808    28.1488
         INT.     0.1273D+08                  2818.7998    22.9347    44.7646
         TRA.     0.9512D+27                  1142.6437     4.9680    39.1688
         TOT.                      -22.804    3961.4435    27.9027    83.9334

 240.00  VIB.     0.4929D+02                  2338.1848    21.0449    17.4880
         ROT.     0.3373D+06                   715.3943     2.9808    28.2757
         INT.     0.1663D+08                  3053.5791    24.0258    45.7637
         TRA.     0.1014D+28                  1192.3239     4.9680    39.3802
         TOT.                      -22.520    4245.9030    28.9938    85.1439

 250.00  VIB.     0.6050D+02                  2554.2008    22.1625    18.3697
         ROT.     0.3586D+06                   745.2024     2.9808    28.3974
         INT.     0.2170D+08                  3299.4033    25.1433    46.7670
         TRA.     0.1078D+28                  1242.0041     4.9680    39.5830
         TOT.                      -22.224    4541.4073    30.1113    86.3501

 260.00  VIB.     0.7437D+02                  2781.5137    23.3038    19.2611
         ROT.     0.3804D+06                   775.0105     2.9808    28.5143
         INT.     0.2829D+08                  3556.5243    26.2846    47.7753
         TRA.     0.1143D+28                  1291.6842     4.9680    39.7779
         TOT.                      -21.917    4848.2085    31.2527    87.5532

 270.00  VIB.     0.9154D+02                  3020.3464    24.4659    20.1623
         ROT.     0.4025D+06                   804.8186     2.9808    28.6268
         INT.     0.3685D+08                  3825.1651    27.4467    48.7891
         TRA.     0.1210D+28                  1341.3644     4.9680    39.9654
         TOT.                      -21.599    5166.5295    32.4147    88.7544

 280.00  VIB.     0.1128D+03                  3270.8894    25.6453    21.0733
         ROT.     0.4251D+06                   834.6267     2.9808    28.7352
         INT.     0.4797D+08                  4105.5162    28.6261    49.8085
         TRA.     0.1278D+28                  1391.0445     4.9680    40.1461
         TOT.                      -21.269    5496.5607    33.5941    89.9545

 290.00  VIB.     0.1393D+03                  3533.2988    26.8386    21.9940
         ROT.     0.4481D+06                   864.4348     2.9808    28.8398
         INT.     0.6242D+08                  4397.7336    29.8194    50.8338
         TRA.     0.1347D+28                  1440.7247     4.9680    40.3204
         TOT.                      -20.927    5838.4583    34.7874    91.1542

 300.00  VIB.     0.1722D+03                  3807.6956    28.0422    22.9242
         ROT.     0.4715D+06                   894.2429     2.9808    28.9408
         INT.     0.8120D+08                  4701.9385    31.0230    51.8650
         TRA.     0.1417D+28                  1490.4049     4.9680    40.4888
         TOT.                      -20.573    6192.3434    35.9910    92.3538

 310.00  VIB.     0.2133D+03                  4094.1657    29.2527    23.8634
         ROT.     0.4952D+06                   924.0510     2.9808    29.0386
         INT.     0.1056D+09                  5018.2168    32.2335    52.9019
         TRA.     0.1488D+28                  1540.0850     4.9680    40.6517
         TOT.                      -20.207    6558.3018    37.2015    93.5537

 320.00  VIB.     0.2644D+03                  4392.7615    30.4668    24.8113
         ROT.     0.5194D+06                   953.8591     2.9808    29.1332
         INT.     0.1373D+09                  5346.6206    33.4476    53.9445
         TRA.     0.1561D+28                  1589.7652     4.9680    40.8094
         TOT.                      -19.829    6936.3858    38.4156    94.7539

 330.00  VIB.     0.3284D+03                  4703.5025    31.6813    25.7674
         ROT.     0.5439D+06                   983.6672     2.9808    29.2249
         INT.     0.1786D+09                  5687.1698    34.6621    54.9923
         TRA.     0.1635D+28                  1639.4454     4.9680    40.9623
         TOT.                      -19.439    7326.6151    39.6301    95.9546

 340.00  VIB.     0.4084D+03                  5026.3784    32.8933    26.7312
         ROT.     0.5688D+06                  1013.4753     2.9808    29.3139
         INT.     0.2323D+09                  6039.8537    35.8741    56.0451
         TRA.     0.1710D+28                  1689.1255     4.9680    41.1106
         TOT.                      -19.037    7728.9793    40.8421    97.1557

 350.00  VIB.     0.5087D+03                  5361.3505    34.1001    27.7021
         ROT.     0.5941D+06                  1043.2834     2.9808    29.4003
         INT.     0.3022D+09                  6404.6339    37.0809    57.1024
         TRA.     0.1786D+28                  1738.8057     4.9680    41.2546
         TOT.                      -18.622    8143.4396    42.0489    98.3571

 360.00  VIB.     0.6345D+03                  5708.3549    35.2993    28.6796
         ROT.     0.6197D+06                  1073.0915     2.9808    29.4843
         INT.     0.3932D+09                  6781.4464    38.2801    58.1638
         TRA.     0.1863D+28                  1788.4859     4.9680    41.3946
         TOT.                      -18.196    8569.9322    43.2481    99.5584

 370.00  VIB.     0.7924D+03                  6067.3044    36.4888    29.6630
         ROT.     0.6457D+06                  1102.8996     2.9808    29.5660
         INT.     0.5117D+09                  7170.2040    39.4696    59.2289
         TRA.     0.1941D+28                  1838.1660     4.9680    41.5307
         TOT.                      -17.757    9008.3700    44.4376   100.7596

 380.00  VIB.     0.9911D+03                  6438.0919    37.6666    30.6517
         ROT.     0.6721D+06                  1132.7077     2.9808    29.6455
         INT.     0.6661D+09                  7570.7996    40.6474    60.2972
         TRA.     0.2020D+28                  1887.8462     4.9680    41.6632
         TOT.                      -17.307    9458.6457    45.6154   101.9604

 390.00  VIB.     0.1241D+04                  6820.5921    38.8311    31.6452
         ROT.     0.6988D+06                  1162.5158     2.9808    29.7229
         INT.     0.8673D+09                  7983.1079    41.8119    61.3681
         TRA.     0.2100D+28                  1937.5263     4.9680    41.7923
         TOT.                      -16.845    9920.6343    46.7799   103.1604

 400.00  VIB.     0.1556D+04                  7214.6647    39.9809    32.6429
         ROT.     0.7259D+06                  1192.3239     2.9808    29.7984
         INT.     0.1130D+10                  8406.9886    42.9617    62.4412
         TRA.     0.2182D+28                  1987.2065     4.9680    41.9180
         TOT.                      -16.371   10394.1951    47.9297   104.3593

   *: NOTE: HEATS OF FORMATION ARE RELATIVE TO THE
            ELEMENTS IN THEIR STANDARD STATE AT 298K
              (=  Standard Enthalpy of Formation).

            Hvib:  Zero-point energy is not included.
                   frequencies of less than zero cm-1 are not included.
            Hrot = (3/2)RT
            Htra = (3/2)RT + pV = (5/2)RT

            Heat capacity is Cp, not Cv

          For more information, see: HTTP://OpenMOPAC.net/Manual/thermochemistry.html


           FORCE CONSTANT IN CARTESIAN COORDINATES (Millidynes/A)

    ATOM   CHEMICAL       X               Y               Z
   NUMBER   SYMBOL  FORCE CONSTANT  FORCE CONSTANT  FORCE CONSTANT

      1       O        4.379283        4.472997        2.614072
      2       O        3.067669        4.916621        4.739073
      3       C       10.870669        8.127564        6.336251
      4       C        7.575844       10.118200        7.656463
      5       C        8.474344        8.382485        8.125774
      6       C        6.692279        7.214485       11.159561
      7       C        8.377771        8.412487        8.336112
      8       C        7.781920        8.649744        8.190669
      9       C        8.456545        8.012056        8.434514
     10       H        0.824800        4.849654        0.652823
     11       H        4.286635        1.338927        0.705495
     12       H        2.341308        0.761477        2.729806
     13       H        3.613630        1.123308        1.693869
     14       H        2.491611        1.263985        2.647174
     15       H        0.818350        3.127840        2.517569
     16       H        2.389660        1.137948        2.904369
     17       H        3.357201        1.035331        1.954325
     18       H        0.953379        3.566911        1.878130
     19       H        0.916804        1.718706        4.027656
     20       H        2.513163        3.130299        0.979903
     21       H        1.297645        4.413583        4.390112

 **********************
 *                    *
 * JOB ENDED NORMALLY *
 *                    *
 **********************



 TOTAL JOB TIME:             2.23 SECONDS

 == MOPAC DONE ==
