 *******************************************************************************
 ** Site#: 14399        For non-commercial use only    Version 18.184L 64BITS **
 *******************************************************************************
 ** Cite this program as: MOPAC2016, Version: 18.184L, James J. P. Stewart,   **
 ** Stewart Computational Chemistry, web: HTTP://OpenMOPAC.net. Days left:  18**
 *******************************************************************************
 **                                                                           **
 **                                MOPAC2016                                  **
 **                                                                           **
 *******************************************************************************

                              PM3 CALCULATION RESULTS

 *******************************************************************************
 *  CALCULATION DONE:                                Sat Jun 15 10:09:28 2019  *
 *  PM3        - The PM3 Hamiltonian to be used
 *  PRECISE    - CRITERIA TO BE INCREASED BY 100 TIMES
 *  NOSYM      - POINT-GROUP SYMMETRY SET TO C1
 *  THREADS=1  - MULTI-THREADING NOT USED
 *  T=         - A TIME OF 172800.0 SECONDS REQUESTED
 *  DUMP=N     - RESTART FILE WRITTEN EVERY  7200.000 SECONDS
 *******************************************************************************
pm3  precise nosym THREADS=1
 InChI=1S/C10H12/c1-2-6-9(5-1)10-7-3-4-8-10/h1-3,7-9H,4-6H2

   ATOM   CHEMICAL          X               Y               Z
  NUMBER   SYMBOL      (ANGSTROMS)     (ANGSTROMS)     (ANGSTROMS)
 
     1       C         -0.61420000  *   0.80430000  *  -0.19580000  *
     2       C         -1.40930000  *   0.11190000  *  -1.31900000  *
     3       C         -1.46790000  *   0.66350000  *   1.07870000  *
     4       C          3.05550000  *  -0.05560000  *   0.09170000  *
     5       C          0.75890000  *   0.20180000  *  -0.02370000  *
     6       C          1.90160000  *   0.86160000  *  -0.14750000  *
     7       C         -2.66270000  *  -0.33860000  *  -0.66100000  *
     8       C         -2.69420000  *  -0.04240000  *   0.62620000  *
     9       C          2.35570000  *  -1.34560000  *   0.37130000  *
    10       C          1.04480000  *  -1.18700000  *   0.30280000  *
    11       H         -0.51720000  *   1.88640000  *  -0.44240000  *
    12       H         -1.65080000  *   0.82940000  *  -2.13240000  *
    13       H         -0.88000000  *  -0.76640000  *  -1.74860000  *
    14       H         -0.96850000  *   0.06670000  *   1.87280000  *
    15       H         -1.73920000  *   1.66160000  *   1.48500000  *
    16       H          3.64660000  *   0.27320000  *   0.97200000  *
    17       H          3.69030000  *  -0.13800000  *  -0.81540000  *
    18       H         -3.46630000  *  -0.85630000  *  -1.17440000  *
    19       H         -3.52620000  *  -0.29250000  *   1.27630000  *
    20       H          1.98420000  *   1.91380000  *  -0.38760000  *
    21       H          2.84460000  *  -2.28350000  *   0.59900000  *
    22       H          0.31410000  *  -1.96850000  *   0.46480000  *
 


          CARTESIAN COORDINATES 

    NO.       ATOM           X           Y           Z

     1         C         -0.6142      0.8043     -0.1958
     2         C         -1.4093      0.1119     -1.3190
     3         C         -1.4679      0.6635      1.0787
     4         C          3.0555     -0.0556      0.0917
     5         C          0.7589      0.2018     -0.0237
     6         C          1.9016      0.8616     -0.1475
     7         C         -2.6627     -0.3386     -0.6610
     8         C         -2.6942     -0.0424      0.6262
     9         C          2.3557     -1.3456      0.3713
    10         C          1.0448     -1.1870      0.3028
    11         H         -0.5172      1.8864     -0.4424
    12         H         -1.6508      0.8294     -2.1324
    13         H         -0.8800     -0.7664     -1.7486
    14         H         -0.9685      0.0667      1.8728
    15         H         -1.7392      1.6616      1.4850
    16         H          3.6466      0.2732      0.9720
    17         H          3.6903     -0.1380     -0.8154
    18         H         -3.4663     -0.8563     -1.1744
    19         H         -3.5262     -0.2925      1.2763
    20         H          1.9842      1.9138     -0.3876
    21         H          2.8446     -2.2835      0.5990
    22         H          0.3141     -1.9685      0.4648

  H: (PM3): J. J. P. STEWART, J. COMP. CHEM. 10, 209 (1989).
  C: (PM3): J. J. P. STEWART, J. COMP. CHEM. 10, 209 (1989).

           Empirical Formula: C10 H12  =    22 atoms



      MOLECULAR POINT GROUP   :   C1  


      RHF CALCULATION, NO. OF DOUBLY OCCUPIED LEVELS = 26


          Geometry optimization using EF

          DIAGONAL MATRIX USED AS START HESSIAN

 CYCLE:     1 TIME:   0.004 TIME LEFT:  2.00D  GRAD.:   120.459 HEAT:  43.01181
 CYCLE:     2 TIME:   0.016 TIME LEFT:  2.00D  GRAD.:    67.302 HEAT:  41.16366
 CYCLE:     3 TIME:   0.004 TIME LEFT:  2.00D  GRAD.:    88.710 HEAT:  40.92117
 CYCLE:     4 TIME:   0.004 TIME LEFT:  2.00D  GRAD.:    85.701 HEAT:  40.57652
 CYCLE:     5 TIME:   0.004 TIME LEFT:  2.00D  GRAD.:    59.165 HEAT:  40.01297
 CYCLE:     6 TIME:   0.004 TIME LEFT:  2.00D  GRAD.:    61.553 HEAT:  39.74518
 CYCLE:     7 TIME:   0.008 TIME LEFT:  2.00D  GRAD.:    50.257 HEAT:  39.46221
 CYCLE:     8 TIME:   0.008 TIME LEFT:  2.00D  GRAD.:    25.086 HEAT:  38.92387
 CYCLE:     9 TIME:   0.008 TIME LEFT:  2.00D  GRAD.:    18.618 HEAT:  38.82358
 CYCLE:    10 TIME:   0.004 TIME LEFT:  2.00D  GRAD.:    18.912 HEAT:  38.75745
 CYCLE:    11 TIME:   0.008 TIME LEFT:  2.00D  GRAD.:    12.449 HEAT:  38.67407
 CYCLE:    12 TIME:   0.008 TIME LEFT:  2.00D  GRAD.:    13.277 HEAT:  38.65025
 CYCLE:    13 TIME:   0.004 TIME LEFT:  2.00D  GRAD.:     8.909 HEAT:  38.60674
 CYCLE:    14 TIME:   0.008 TIME LEFT:  2.00D  GRAD.:     8.275 HEAT:  38.59120
 CYCLE:    15 TIME:   0.004 TIME LEFT:  2.00D  GRAD.:     7.342 HEAT:  38.57785
 CYCLE:    16 TIME:   0.008 TIME LEFT:  2.00D  GRAD.:     9.628 HEAT:  38.57048
 CYCLE:    17 TIME:   0.004 TIME LEFT:  2.00D  GRAD.:     8.875 HEAT:  38.56239
 CYCLE:    18 TIME:   0.004 TIME LEFT:  2.00D  GRAD.:     8.171 HEAT:  38.55396
 CYCLE:    19 TIME:   0.004 TIME LEFT:  2.00D  GRAD.:     6.811 HEAT:  38.54411
 CYCLE:    20 TIME:   0.004 TIME LEFT:  2.00D  GRAD.:     5.377 HEAT:  38.53460
 CYCLE:    21 TIME:   0.008 TIME LEFT:  2.00D  GRAD.:     3.999 HEAT:  38.52802
 CYCLE:    22 TIME:   0.004 TIME LEFT:  2.00D  GRAD.:     5.516 HEAT:  38.52394
 CYCLE:    23 TIME:   0.004 TIME LEFT:  2.00D  GRAD.:     3.762 HEAT:  38.51510
 CYCLE:    24 TIME:   0.004 TIME LEFT:  2.00D  GRAD.:     4.244 HEAT:  38.50906
 CYCLE:    25 TIME:   0.004 TIME LEFT:  2.00D  GRAD.:     3.073 HEAT:  38.50160
 CYCLE:    26 TIME:   0.008 TIME LEFT:  2.00D  GRAD.:     4.514 HEAT:  38.49645
 CYCLE:    27 TIME:   0.004 TIME LEFT:  2.00D  GRAD.:     2.451 HEAT:  38.48918
 CYCLE:    28 TIME:   0.004 TIME LEFT:  2.00D  GRAD.:     3.436 HEAT:  38.48625
 CYCLE:    29 TIME:   0.004 TIME LEFT:  2.00D  GRAD.:     2.312 HEAT:  38.48178
 CYCLE:    30 TIME:   0.004 TIME LEFT:  2.00D  GRAD.:     1.381 HEAT:  38.48004
 CYCLE:    31 TIME:   0.004 TIME LEFT:  2.00D  GRAD.:     1.250 HEAT:  38.47869
 CYCLE:    32 TIME:   0.008 TIME LEFT:  2.00D  GRAD.:     0.938 HEAT:  38.47743
 CYCLE:    33 TIME:   0.004 TIME LEFT:  2.00D  GRAD.:     1.228 HEAT:  38.47617
 CYCLE:    34 TIME:   0.004 TIME LEFT:  2.00D  GRAD.:     0.962 HEAT:  38.47528
 CYCLE:    35 TIME:   0.004 TIME LEFT:  2.00D  GRAD.:     1.030 HEAT:  38.47474
 CYCLE:    36 TIME:   0.008 TIME LEFT:  2.00D  GRAD.:     0.712 HEAT:  38.47402
 CYCLE:    37 TIME:   0.004 TIME LEFT:  2.00D  GRAD.:     1.056 HEAT:  38.47360
 CYCLE:    38 TIME:   0.004 TIME LEFT:  2.00D  GRAD.:     0.468 HEAT:  38.47307
 CYCLE:    39 TIME:   0.004 TIME LEFT:  2.00D  GRAD.:     0.459 HEAT:  38.47284
 CYCLE:    40 TIME:   0.008 TIME LEFT:  2.00D  GRAD.:     0.412 HEAT:  38.47259
 CYCLE:    41 TIME:   0.004 TIME LEFT:  2.00D  GRAD.:     0.442 HEAT:  38.47236
 CYCLE:    42 TIME:   0.004 TIME LEFT:  2.00D  GRAD.:     0.409 HEAT:  38.47213
 CYCLE:    43 TIME:   0.004 TIME LEFT:  2.00D  GRAD.:     0.501 HEAT:  38.47177
 CYCLE:    44 TIME:   0.008 TIME LEFT:  2.00D  GRAD.:     0.638 HEAT:  38.47110
 CYCLE:    45 TIME:   0.004 TIME LEFT:  2.00D  GRAD.:     0.700 HEAT:  38.47039
 CYCLE:    46 TIME:   0.004 TIME LEFT:  2.00D  GRAD.:     0.769 HEAT:  38.46904
 CYCLE:    47 TIME:   0.004 TIME LEFT:  2.00D  GRAD.:     0.961 HEAT:  38.46713
 CYCLE:    48 TIME:   0.008 TIME LEFT:  2.00D  GRAD.:     1.044 HEAT:  38.46494
 CYCLE:    49 TIME:   0.004 TIME LEFT:  2.00D  GRAD.:     0.997 HEAT:  38.46284
 CYCLE:    50 TIME:   0.004 TIME LEFT:  2.00D  GRAD.:     0.843 HEAT:  38.46094
 CYCLE:    51 TIME:   0.004 TIME LEFT:  2.00D  GRAD.:     0.725 HEAT:  38.45941
 CYCLE:    52 TIME:   0.008 TIME LEFT:  2.00D  GRAD.:     0.616 HEAT:  38.45826
 CYCLE:    53 TIME:   0.004 TIME LEFT:  2.00D  GRAD.:     0.425 HEAT:  38.45761
 CYCLE:    54 TIME:   0.004 TIME LEFT:  2.00D  GRAD.:     0.274 HEAT:  38.45729
 CYCLE:    55 TIME:   0.004 TIME LEFT:  2.00D  GRAD.:     0.198 HEAT:  38.45714
 CYCLE:    56 TIME:   0.008 TIME LEFT:  2.00D  GRAD.:     0.150 HEAT:  38.45707
 CYCLE:    57 TIME:   0.004 TIME LEFT:  2.00D  GRAD.:     0.097 HEAT:  38.45703
 CYCLE:    58 TIME:   0.004 TIME LEFT:  2.00D  GRAD.:     0.093 HEAT:  38.45702
 CYCLE:    59 TIME:   0.004 TIME LEFT:  2.00D  GRAD.:     0.093 HEAT:  38.45700
 CYCLE:    60 TIME:   0.004 TIME LEFT:  2.00D  GRAD.:     0.117 HEAT:  38.45697
 CYCLE:    61 TIME:   0.008 TIME LEFT:  2.00D  GRAD.:     0.083 HEAT:  38.45696
 CYCLE:    62 TIME:   0.004 TIME LEFT:  2.00D  GRAD.:     0.070 HEAT:  38.45694
 CYCLE:    63 TIME:   0.004 TIME LEFT:  2.00D  GRAD.:     0.087 HEAT:  38.45692
 CYCLE:    64 TIME:   0.004 TIME LEFT:  2.00D  GRAD.:     0.084 HEAT:  38.45691
 CYCLE:    65 TIME:   0.004 TIME LEFT:  2.00D  GRAD.:     0.056 HEAT:  38.45689
 CYCLE:    66 TIME:   0.004 TIME LEFT:  2.00D  GRAD.:     0.066 HEAT:  38.45688
 CYCLE:    67 TIME:   0.008 TIME LEFT:  2.00D  GRAD.:     0.052 HEAT:  38.45687
 CYCLE:    68 TIME:   0.004 TIME LEFT:  2.00D  GRAD.:     0.078 HEAT:  38.45687
 CYCLE:    69 TIME:   0.004 TIME LEFT:  2.00D  GRAD.:     0.041 HEAT:  38.45686

     GRADIENT =  0.04099  IS LESS THAN CUTOFF =  0.05000



 -------------------------------------------------------------------------------
 pm3  precise nosym THREADS=1
 InChI=1S/C10H12/c1-2-6-9(5-1)10-7-3-4-8-10/h1-3,7-9H,4-6H2



     GEOMETRY OPTIMISED USING EIGENVECTOR FOLLOWING (EF).     
     SCF FIELD WAS ACHIEVED                                   


                              PM3 CALCULATION
                                                       MOPAC2016 (Version: 18.184L)
                                                       Sat Jun 15 10:09:28 2019
                                                       No. of days remaining =  18




          FINAL HEAT OF FORMATION =         38.45686 KCAL/MOL =     160.90351 KJ/MOL


          TOTAL ENERGY            =      -1368.72865 EV
          ELECTRONIC ENERGY       =      -7449.58676 EV  POINT GROUP:     C1  
          CORE-CORE REPULSION     =       6080.85811 EV
          COSMO AREA              =        180.01 SQUARE ANGSTROMS
          COSMO VOLUME            =        183.04 CUBIC ANGSTROMS

          GRADIENT NORM           =          0.04099 = 0.00874 PER ATOM
          IONIZATION POTENTIAL    =          9.149906 EV
          HOMO LUMO ENERGIES (EV) =         -9.150  0.307
          NO. OF FILLED LEVELS    =         26
          MOLECULAR WEIGHT        =        132.2048

          MOLECULAR DIMENSIONS (Angstroms)

            Atom       Atom       Distance
            H    19    H    17     7.58936
            H    12    H    21     4.95483
            H    15    H    18     3.85617


          SCF CALCULATIONS        =         76
 
          WALL-CLOCK TIME         =          0.359 SECONDS
          COMPUTATION TIME        =          0.336 SECONDS




   ATOM   CHEMICAL          X               Y               Z
  NUMBER   SYMBOL      (ANGSTROMS)     (ANGSTROMS)     (ANGSTROMS)
 
     1       C         -0.61611319  *   0.78537671  *  -0.19012264  *
     2       C         -1.40967590  *   0.07303144  *  -1.30985644  *
     3       C         -1.47013346  *   0.62293871  *   1.08861467  *
     4       C          3.06378334  *  -0.04820509  *   0.08801802  *
     5       C          0.74782793  *   0.22378627  *  -0.02786005  *
     6       C          1.92027715  *   0.89318134  *  -0.15597048  *
     7       C         -2.70626964  *  -0.31669745  *  -0.67653019  *
     8       C         -2.73923214  *  -0.01769585  *   0.62684410  *
     9       C          2.37226913  *  -1.35066324  *   0.37356735  *
    10       C          1.03344238  *  -1.17850971  *   0.30323824  *
    11       H         -0.51927077  *   1.86887352  *  -0.43601103  *
    12       H         -1.57196925  *   0.73191793  *  -2.18172849  *
    13       H         -0.87974739  *  -0.82124364  *  -1.68983720  *
    14       H         -0.96902636  *  -0.01100992  *   1.84486071  *
    15       H         -1.66655511  *   1.59384924  *   1.57790649  *
    16       H          3.68744975  *   0.27892047  *   0.93968509  *
    17       H          3.72732249  *  -0.12192782  *  -0.79267629  *
    18       H         -3.49752472  *  -0.79129642  *  -1.25589199  *
    19       H         -3.56270208  *  -0.20107535  *   1.31625579  *
    20       H          2.06239883  *   1.94478988  *  -0.39613626  *
    21       H          2.91528653  *  -2.26583562  *   0.59767062  *
    22       H          0.25457205  *  -1.92370742  *   0.45797348  *

                             CARTESIAN COORDINATES

   1    C       -0.616113189     0.785376715    -0.190122642
   2    C       -1.409675902     0.073031440    -1.309856443
   3    C       -1.470133459     0.622938710     1.088614667
   4    C        3.063783345    -0.048205086     0.088018019
   5    C        0.747827934     0.223786273    -0.027860046
   6    C        1.920277152     0.893181344    -0.155970475
   7    C       -2.706269636    -0.316697448    -0.676530189
   8    C       -2.739232141    -0.017695849     0.626844100
   9    C        2.372269126    -1.350663241     0.373567347
  10    C        1.033442375    -1.178509712     0.303238238
  11    H       -0.519270774     1.868873519    -0.436011028
  12    H       -1.571969245     0.731917932    -2.181728491
  13    H       -0.879747387    -0.821243636    -1.689837196
  14    H       -0.969026360    -0.011009925     1.844860715
  15    H       -1.666555112     1.593849237     1.577906487
  16    H        3.687449751     0.278920473     0.939685092
  17    H        3.727322491    -0.121927816    -0.792676293
  18    H       -3.497524718    -0.791296424    -1.255891985
  19    H       -3.562702083    -0.201075349     1.316255786
  20    H        2.062398832     1.944789877    -0.396136259
  21    H        2.915286531    -2.265835621     0.597670618
  22    H        0.254572049    -1.923707422     0.457973482


           Empirical Formula: C10 H12  =    22 atoms



      MOLECULAR POINT GROUP   :   C1  


                  EIGENVALUES  
 -41.44657 -37.73191 -29.45174 -28.05076 -27.34187 -24.89329 -20.36831 -19.51832
 -18.49766 -18.23974 -17.82563 -16.77994 -14.95853 -14.94541 -13.79975 -13.72457
 -13.51076 -13.45564 -13.01967 -12.97008 -12.58705 -12.56782 -11.97047 -10.63315
  -9.52786  -9.14991   0.30654   1.14861   1.90011   3.20919   3.36488   3.49097
   3.58919   3.73619   3.79678   3.93603   3.99696   4.05414   4.25689   4.26558
   4.32713   4.38293   4.41955   4.61730   4.68404   4.97778   5.12959   5.62155
   5.80036   5.92029   6.01181   6.22259


              NET ATOMIC CHARGES AND DIPOLE CONTRIBUTIONS

  ATOM NO.   TYPE          CHARGE      No. of ELECS.   s-Pop       p-Pop       
    1          C          -0.018313        4.0183     1.16474     2.85357
    2          C          -0.065791        4.0658     1.15703     2.90876
    3          C          -0.065745        4.0657     1.15702     2.90873
    4          C          -0.048728        4.0487     1.14488     2.90385
    5          C          -0.098364        4.0984     1.19647     2.90189
    6          C          -0.162529        4.1625     1.20663     2.95590
    7          C          -0.156380        4.1564     1.20230     2.95408
    8          C          -0.156408        4.1564     1.20231     2.95410
    9          C          -0.164554        4.1646     1.20704     2.95751
   10          C          -0.108958        4.1090     1.19039     2.91857
   11          H           0.065080        0.9349     0.93492
   12          H           0.056377        0.9436     0.94362
   13          H           0.065833        0.9342     0.93417
   14          H           0.065810        0.9342     0.93419
   15          H           0.056382        0.9436     0.94362
   16          H           0.080999        0.9190     0.91900
   17          H           0.081008        0.9190     0.91899
   18          H           0.110628        0.8894     0.88937
   19          H           0.110636        0.8894     0.88936
   20          H           0.117645        0.8824     0.88235
   21          H           0.115498        0.8845     0.88450
   22          H           0.119873        0.8801     0.88013
 DIPOLE           X         Y         Z       TOTAL
 POINT-CHG.     0.508     0.074    -0.006     0.513
 HYBRID         0.046    -0.009     0.003     0.047
 SUM            0.554     0.065    -0.003     0.558


          ATOMIC ORBITAL ELECTRON POPULATIONS

     Atom    s        px        py        pz   
    1  C   1.16474   0.91439   0.98773   0.95145
    2  C   1.15703   0.94328   0.99926   0.96622
    3  C   1.15702   0.94237   1.00059   0.96577
    4  C   1.14488   0.96690   0.93334   1.00361
    5  C   1.19647   0.94797   0.94642   1.00750
    6  C   1.20663   0.94939   0.98191   1.02460
    7  C   1.20230   0.97982   1.00979   0.96448
    8  C   1.20231   0.98092   1.00646   0.96671
    9  C   1.20704   0.96252   0.97612   1.01887
   10  C   1.19039   0.95971   0.95234   1.00653
   11  H   0.93492
   12  H   0.94362
   13  H   0.93417
   14  H   0.93419
   15  H   0.94362
   16  H   0.91900
   17  H   0.91899
   18  H   0.88937
   19  H   0.88936
   20  H   0.88235
   21  H   0.88450
   22  H   0.88013
 *******************************************************************************
 ** Site#: 14399        For non-commercial use only    Version 18.184L 64BITS **
 *******************************************************************************
 ** Cite this program as: MOPAC2016, Version: 18.184L, James J. P. Stewart,   **
 ** Stewart Computational Chemistry, web: HTTP://OpenMOPAC.net. Days left:  18**
 *******************************************************************************
 **                                                                           **
 **                                MOPAC2016                                  **
 **                                                                           **
 *******************************************************************************

                              PM3 CALCULATION RESULTS

 *******************************************************************************
 *  CALCULATION DONE:                                Sat Jun 15 10:09:28 2019  *
 *  PM3        - The PM3 Hamiltonian to be used
 *  OLDGEO     - PREVIOUS GEOMETRY TO BE USED
 *  PRECISE    - CRITERIA TO BE INCREASED BY 100 TIMES
 *  NOSYM      - POINT-GROUP SYMMETRY SET TO C1
 *  THREADS=1  - MULTI-THREADING NOT USED
 *  T=         - A TIME OF 172800.0 SECONDS REQUESTED
 *  DUMP=N     - RESTART FILE WRITTEN EVERY  7200.000 SECONDS
 *  THERMO     - THERMODYNAMIC QUANTITIES TO BE CALCULATED
 *******************************************************************************
oldgeo thermo nosym precise THREADS=1  pm3
 InChI=1S/C10H12/c1-2-6-9(5-1)10-7-3-4-8-10/h1-3,7-9H,4-6H2

   ATOM   CHEMICAL          X               Y               Z
  NUMBER   SYMBOL      (ANGSTROMS)     (ANGSTROMS)     (ANGSTROMS)
 
     1       C         -0.61611319  *   0.78537671  *  -0.19012264  *
     2       C         -1.40967590  *   0.07303144  *  -1.30985644  *
     3       C         -1.47013346  *   0.62293871  *   1.08861467  *
     4       C          3.06378334  *  -0.04820509  *   0.08801802  *
     5       C          0.74782793  *   0.22378627  *  -0.02786005  *
     6       C          1.92027715  *   0.89318134  *  -0.15597048  *
     7       C         -2.70626964  *  -0.31669745  *  -0.67653019  *
     8       C         -2.73923214  *  -0.01769585  *   0.62684410  *
     9       C          2.37226913  *  -1.35066324  *   0.37356735  *
    10       C          1.03344238  *  -1.17850971  *   0.30323824  *
    11       H         -0.51927077  *   1.86887352  *  -0.43601103  *
    12       H         -1.57196925  *   0.73191793  *  -2.18172849  *
    13       H         -0.87974739  *  -0.82124364  *  -1.68983720  *
    14       H         -0.96902636  *  -0.01100992  *   1.84486071  *
    15       H         -1.66655511  *   1.59384924  *   1.57790649  *
    16       H          3.68744975  *   0.27892047  *   0.93968509  *
    17       H          3.72732249  *  -0.12192782  *  -0.79267629  *
    18       H         -3.49752472  *  -0.79129642  *  -1.25589199  *
    19       H         -3.56270208  *  -0.20107535  *   1.31625579  *
    20       H          2.06239883  *   1.94478988  *  -0.39613626  *
    21       H          2.91528653  *  -2.26583562  *   0.59767062  *
    22       H          0.25457205  *  -1.92370742  *   0.45797348  *
 


          CARTESIAN COORDINATES 

    NO.       ATOM           X           Y           Z

     1         C         -0.6161      0.7854     -0.1901
     2         C         -1.4097      0.0730     -1.3099
     3         C         -1.4701      0.6229      1.0886
     4         C          3.0638     -0.0482      0.0880
     5         C          0.7478      0.2238     -0.0279
     6         C          1.9203      0.8932     -0.1560
     7         C         -2.7063     -0.3167     -0.6765
     8         C         -2.7392     -0.0177      0.6268
     9         C          2.3723     -1.3507      0.3736
    10         C          1.0334     -1.1785      0.3032
    11         H         -0.5193      1.8689     -0.4360
    12         H         -1.5720      0.7319     -2.1817
    13         H         -0.8797     -0.8212     -1.6898
    14         H         -0.9690     -0.0110      1.8449
    15         H         -1.6666      1.5938      1.5779
    16         H          3.6874      0.2789      0.9397
    17         H          3.7273     -0.1219     -0.7927
    18         H         -3.4975     -0.7913     -1.2559
    19         H         -3.5627     -0.2011      1.3163
    20         H          2.0624      1.9448     -0.3961
    21         H          2.9153     -2.2658      0.5977
    22         H          0.2546     -1.9237      0.4580

  H: (PM3): J. J. P. STEWART, J. COMP. CHEM. 10, 209 (1989).
  C: (PM3): J. J. P. STEWART, J. COMP. CHEM. 10, 209 (1989).

           Empirical Formula: C10 H12  =    22 atoms



      MOLECULAR POINT GROUP   :   C1  


      RHF CALCULATION, NO. OF DOUBLY OCCUPIED LEVELS = 26



          HEAT OF FORMATION =      38.456862 KCALS/MOLE


          CARTESIAN COORDINATE DERIVATIVES

   NUMBER  ATOM         X            Y            Z

     1       C     -0.001194     0.002409     0.002151
     2       C     -0.005433    -0.000711    -0.001291
     3       C      0.002525     0.012061     0.007874
     4       C      0.007917    -0.002642    -0.004448
     5       C      0.006465     0.007071    -0.012639
     6       C     -0.003134    -0.006919    -0.006019
     7       C     -0.005082    -0.006040    -0.003060
     8       C      0.001744     0.008396     0.010467
     9       C     -0.003135    -0.014079    -0.007392
    10       C     -0.001700    -0.004021     0.012663
    11       H     -0.001945    -0.001136    -0.002008
    12       H     -0.002985     0.003826    -0.003818
    13       H     -0.002448    -0.005773    -0.003791
    14       H      0.005005     0.004721     0.007768
    15       H     -0.005005     0.001840    -0.000169
    16       H      0.005136     0.002467     0.006525
    17       H     -0.002923    -0.011695    -0.004643
    18       H     -0.004571    -0.008501    -0.010252
    19       H      0.004463     0.006290     0.000304
    20       H      0.003392     0.006334     0.003966
    21       H      0.005443     0.003241    -0.001112
    22       H     -0.002534     0.002860     0.008926
 


          GRADIENT NORM =   0.04826


          TIME FOR SCF CALCULATION =    0.00

          TIME FOR DERIVATIVES     =    0.00

          MOLECULAR WEIGHT =  132.20



          ROTATIONAL CONSTANTS IN CM(-1)

          A =    0.11540828   B =    0.02715328   C =    0.02658253



           PRINCIPAL MOMENTS OF INERTIA IN UNITS OF 10**(-40)*GRAM-CM**2

          A =      242.5543   B =     1030.9169   C =     1053.0514


          ORIENTATION OF MOLECULE IN FORCE CALCULATION

    NO.       ATOM         X         Y         Z

     1          C       0.0968    0.1292    1.0367
     2          C       1.6431    0.1292    1.0367
     3          C      -0.3161    1.6193    1.0367
     4          C      -1.6092   -2.1230   -1.4795
     5          C      -0.4620   -0.6069   -0.1243
     6          C      -1.2793   -1.6882   -0.0811
     7          C       2.0294    1.5653    1.1865
     8          C       0.9648    2.3751    1.1867
     9          C      -0.8610   -1.1323   -2.3251
    10          C      -0.2023   -0.2616   -1.5282
    11          H      -0.2740   -0.3582    1.9688
    12          H       2.0542   -0.4839    1.8588
    13          H       2.0583   -0.2881    0.0995
    14          H      -0.8288    1.9081    0.0994
    15          H      -1.0169    1.8517    1.8586
    16          H      -2.6967   -2.0865   -1.6727
    17          H      -1.2780   -3.1592   -1.6740
    18          H       3.0737    1.8627    1.2764
    19          H       0.9726    3.4608    1.2769
    20          H      -1.6628   -2.1966    0.8011
    21          H      -0.8804   -1.1568   -3.4121
    22          H       0.4287    0.5736   -1.8285


    FIRST DERIVATIVES WILL BE USED IN THE CALCULATION OF SECOND DERIVATIVES

          ESTIMATED TIME TO COMPLETE CALCULATION =        2.06 SECONDS

    FOR POINT-GROUP C1   THERE ARE   1 UNIQUE SYMMETRY FUNCTIONS.

 STEP:   1 TIME =     0.02 SECS, INTEGRAL =      0.02 TIME LEFT: 172799.97
 STEP:   2 TIME =     0.02 SECS, INTEGRAL =      0.04 TIME LEFT: 172799.95
 STEP:   3 TIME =     0.02 SECS, INTEGRAL =      0.06 TIME LEFT: 172799.93
 STEP:   4 TIME =     0.02 SECS, INTEGRAL =      0.08 TIME LEFT: 172799.91
 STEP:   5 TIME =     0.02 SECS, INTEGRAL =      0.10 TIME LEFT: 172799.89
 STEP:   6 TIME =     0.02 SECS, INTEGRAL =      0.12 TIME LEFT: 172799.87
 STEP:   7 TIME =     0.02 SECS, INTEGRAL =      0.14 TIME LEFT: 172799.85
 STEP:   8 TIME =     0.02 SECS, INTEGRAL =      0.16 TIME LEFT: 172799.83
 STEP:   9 TIME =     0.02 SECS, INTEGRAL =      0.18 TIME LEFT: 172799.81
 STEP:  10 TIME =     0.02 SECS, INTEGRAL =      0.21 TIME LEFT: 172799.79
 STEP:  11 TIME =     0.02 SECS, INTEGRAL =      0.23 TIME LEFT: 172799.77
 STEP:  12 TIME =     0.02 SECS, INTEGRAL =      0.25 TIME LEFT: 172799.75
 STEP:  13 TIME =     0.02 SECS, INTEGRAL =      0.27 TIME LEFT: 172799.72
 STEP:  14 TIME =     0.02 SECS, INTEGRAL =      0.29 TIME LEFT: 172799.70
 STEP:  15 TIME =     0.02 SECS, INTEGRAL =      0.31 TIME LEFT: 172799.68
 STEP:  16 TIME =     0.02 SECS, INTEGRAL =      0.33 TIME LEFT: 172799.66
 STEP:  17 TIME =     0.02 SECS, INTEGRAL =      0.35 TIME LEFT: 172799.64
 STEP:  18 TIME =     0.02 SECS, INTEGRAL =      0.37 TIME LEFT: 172799.62
 STEP:  19 TIME =     0.02 SECS, INTEGRAL =      0.39 TIME LEFT: 172799.60
 STEP:  20 TIME =     0.02 SECS, INTEGRAL =      0.41 TIME LEFT: 172799.58
 STEP:  21 TIME =     0.02 SECS, INTEGRAL =      0.43 TIME LEFT: 172799.56
 STEP:  22 TIME =     0.02 SECS, INTEGRAL =      0.45 TIME LEFT: 172799.54
 STEP:  23 TIME =     0.02 SECS, INTEGRAL =      0.48 TIME LEFT: 172799.52
 STEP:  24 TIME =     0.02 SECS, INTEGRAL =      0.50 TIME LEFT: 172799.50
 STEP:  25 TIME =     0.02 SECS, INTEGRAL =      0.52 TIME LEFT: 172799.47
 STEP:  26 TIME =     0.02 SECS, INTEGRAL =      0.54 TIME LEFT: 172799.45
 STEP:  27 TIME =     0.02 SECS, INTEGRAL =      0.56 TIME LEFT: 172799.43
 STEP:  28 TIME =     0.02 SECS, INTEGRAL =      0.58 TIME LEFT: 172799.41
 STEP:  29 TIME =     0.02 SECS, INTEGRAL =      0.60 TIME LEFT: 172799.39
 STEP:  30 TIME =     0.02 SECS, INTEGRAL =      0.62 TIME LEFT: 172799.37
 STEP:  31 TIME =     0.02 SECS, INTEGRAL =      0.64 TIME LEFT: 172799.35
 STEP:  32 TIME =     0.02 SECS, INTEGRAL =      0.66 TIME LEFT: 172799.33
 STEP:  33 TIME =     0.02 SECS, INTEGRAL =      0.69 TIME LEFT: 172799.30
 STEP:  34 TIME =     0.02 SECS, INTEGRAL =      0.71 TIME LEFT: 172799.29
 STEP:  35 TIME =     0.02 SECS, INTEGRAL =      0.73 TIME LEFT: 172799.26
 STEP:  36 TIME =     0.02 SECS, INTEGRAL =      0.75 TIME LEFT: 172799.24
 STEP:  37 TIME =     0.02 SECS, INTEGRAL =      0.77 TIME LEFT: 172799.22
 STEP:  38 TIME =     0.02 SECS, INTEGRAL =      0.79 TIME LEFT: 172799.20
 STEP:  39 TIME =     0.02 SECS, INTEGRAL =      0.81 TIME LEFT: 172799.18
 STEP:  40 TIME =     0.02 SECS, INTEGRAL =      0.83 TIME LEFT: 172799.16
 STEP:  41 TIME =     0.02 SECS, INTEGRAL =      0.85 TIME LEFT: 172799.14
 STEP:  42 TIME =     0.02 SECS, INTEGRAL =      0.87 TIME LEFT: 172799.12
 STEP:  43 TIME =     0.02 SECS, INTEGRAL =      0.89 TIME LEFT: 172799.10
 STEP:  44 TIME =     0.02 SECS, INTEGRAL =      0.91 TIME LEFT: 172799.08
 STEP:  45 TIME =     0.02 SECS, INTEGRAL =      0.94 TIME LEFT: 172799.05
 STEP:  46 TIME =     0.02 SECS, INTEGRAL =      0.96 TIME LEFT: 172799.04
 STEP:  47 TIME =     0.02 SECS, INTEGRAL =      0.98 TIME LEFT: 172799.02
 STEP:  48 TIME =     0.02 SECS, INTEGRAL =      1.00 TIME LEFT: 172798.99
 STEP:  49 TIME =     0.02 SECS, INTEGRAL =      1.02 TIME LEFT: 172798.97
 STEP:  50 TIME =     0.02 SECS, INTEGRAL =      1.04 TIME LEFT: 172798.95
 STEP:  51 TIME =     0.02 SECS, INTEGRAL =      1.06 TIME LEFT: 172798.93
 STEP:  52 TIME =     0.02 SECS, INTEGRAL =      1.08 TIME LEFT: 172798.91
 STEP:  53 TIME =     0.02 SECS, INTEGRAL =      1.11 TIME LEFT: 172798.89
 STEP:  54 TIME =     0.02 SECS, INTEGRAL =      1.12 TIME LEFT: 172798.87
 STEP:  55 TIME =     0.02 SECS, INTEGRAL =      1.15 TIME LEFT: 172798.84
 STEP:  56 TIME =     0.02 SECS, INTEGRAL =      1.17 TIME LEFT: 172798.82
 STEP:  57 TIME =     0.02 SECS, INTEGRAL =      1.19 TIME LEFT: 172798.80
 STEP:  58 TIME =     0.02 SECS, INTEGRAL =      1.21 TIME LEFT: 172798.78
 STEP:  59 TIME =     0.02 SECS, INTEGRAL =      1.23 TIME LEFT: 172798.76
 STEP:  60 TIME =     0.02 SECS, INTEGRAL =      1.25 TIME LEFT: 172798.74
 STEP:  61 TIME =     0.02 SECS, INTEGRAL =      1.27 TIME LEFT: 172798.72
 STEP:  62 TIME =     0.02 SECS, INTEGRAL =      1.30 TIME LEFT: 172798.70
 STEP:  63 TIME =     0.02 SECS, INTEGRAL =      1.32 TIME LEFT: 172798.68
 STEP:  64 TIME =     0.02 SECS, INTEGRAL =      1.34 TIME LEFT: 172798.66
 STEP:  65 TIME =     0.02 SECS, INTEGRAL =      1.36 TIME LEFT: 172798.63
 STEP:  66 TIME =     0.02 SECS, INTEGRAL =      1.38 TIME LEFT: 172798.61

(To convert to Hartree/Bohr^2, multiply by (10^(-21) x N x a0^2)/(4.184 x 627.51) =  0.0642)


           FORCE MATRIX IN MILLIDYNES/ANGSTROM


                  C  1       C  2       C  3       C  4       C  5       C  6
 ------------------------------------------------------------------------------
     C    1  14.744752
     C    2   3.428432  14.579180
     C    3   3.429099   0.723275  14.578661
     C    4   0.120692   0.017780   0.017618  14.914302
     C    5   5.068400   0.634669   0.633043   1.235809  18.831624
     C    6   0.670347   0.029861   0.030065   4.435636   9.409346  17.863027
     C    7   0.864756   4.734530   1.181585   0.003124   0.037652   0.003858
     C    8   0.864755   1.181357   4.735624   0.003055   0.037438   0.004631
     C    9   0.053569   0.003343   0.003435   4.414782   1.576907   1.125768
     C   10   0.497576   0.042286   0.042184   1.253693   4.976248   1.538016
     H   11   4.290634   0.423826   0.423749   0.002501   0.432707   0.043769
     H   12   0.437096   4.544366   0.032654   0.001439   0.023804   0.002211
     H   13   0.449030   4.487009   0.022671   0.001650   0.060933   0.002950
     H   14   0.449046   0.022781   4.487202   0.001534   0.060509   0.002936
     H   15   0.437317   0.032462   4.544123   0.001432   0.023918   0.002157
     H   16   0.017080   0.002358   0.003038   4.515358   0.042495   0.414575
     H   17   0.017124   0.003031   0.002390   4.513547   0.042676   0.414321
     H   18   0.042080   0.411834   0.115962   0.000708   0.005229   0.000939
     H   19   0.042254   0.115972   0.411908   0.000788   0.005187   0.000966
     H   20   0.047536   0.005458   0.005416   0.399841   0.453496   5.069796
     H   21   0.006207   0.000868   0.000858   0.402827   0.099761   0.043323
     H   22   0.007480   0.006903   0.007056   0.111591   0.426020   0.047785


                  C  7       C  8       C  9       C 10       H 11       H 12
 ------------------------------------------------------------------------------
     C    7  18.363110
     C    8  10.572642  18.370787
     C    9   0.001711   0.001340  17.925333
     C   10   0.005026   0.005381   9.719843  18.289689
     H   11   0.022877   0.022792   0.007608   0.040856   4.730236
     H   12   0.433115   0.039875   0.000580   0.002353   0.029619   5.145752
     H   13   0.426145   0.036400   0.002174   0.011362   0.029188   0.562507
     H   14   0.036441   0.425945   0.002218   0.011634   0.029155   0.003589
     H   15   0.040041   0.432739   0.000571   0.002377   0.029595   0.001269
     H   16   0.000649   0.000811   0.416171   0.044771   0.000485   0.000252
     H   17   0.000848   0.000624   0.415441   0.044522   0.000499   0.000373
     H   18   5.021779   0.449861   0.000672   0.000779   0.002283   0.015470
     H   19   0.450486   5.021497   0.000584   0.000771   0.002262   0.015358
     H   20   0.001427   0.001573   0.042091   0.090840   0.016068   0.000662
     H   21   0.000512   0.000515   5.085376   0.443091   0.001405   0.000083
     H   22   0.003620   0.003764   0.444104   5.047626   0.001733   0.000847


                  H 13       H 14       H 15       H 16       H 17       H 18
 ------------------------------------------------------------------------------
     H   13   5.098166
     H   14   0.001602   5.098358
     H   15   0.003586   0.562605   5.145501
     H   16   0.000309   0.000460   0.000376   5.121711
     H   17   0.000445   0.000275   0.000275   0.546919   5.120913
     H   18   0.013537   0.016024   0.015387   0.000114   0.000143   5.418615
     H   19   0.015879   0.013538   0.015523   0.000150   0.000119   0.048184
     H   20   0.000635   0.000630   0.000717   0.011037   0.011001   0.000369
     H   21   0.000562   0.000563   0.000095   0.011328   0.011358   0.000174
     H   22   0.008593   0.008975   0.000847   0.014848   0.014574   0.001156


                  H 19       H 20       H 21       H 22
 ------------------------------------------------------
     H   19   5.418675
     H   20   0.000385   5.474052
     H   21   0.000201   0.010680   5.485140
     H   22   0.001146   0.005082   0.041189   5.442920


          HEAT OF FORMATION =      38.456862 KCALS/MOLE

          ZERO POINT ENERGY     119.139 KCAL/MOL


           NORMAL COORDINATE ANALYSIS (Total motion = 1 Angstrom)


   Root No.       1         2         3         4         5         6         7         8

                 1 A       2 A       3 A       4 A       5 A       6 A       7 A       8 A   

                  63.6      76.0     136.7     232.9     317.2     366.2     376.6     386.5
  
           1    0.0172    0.0100    0.0166   -0.0017   -0.0231   -0.0039   -0.0042   -0.0138
           2   -0.0143    0.0103   -0.0126   -0.0022    0.0175    0.0031   -0.0057    0.0105
           3    0.0017   -0.0251   -0.0000    0.0115   -0.0000    0.0000    0.0043    0.0001
           4    0.0169    0.0096    0.0156   -0.0003   -0.0251   -0.0041   -0.0105   -0.0164
           5    0.0139    0.0138    0.0056    0.0010   -0.0017   -0.0012   -0.0311    0.0006
           6   -0.0190   -0.0268    0.0392   -0.0401   -0.0118    0.0108   -0.0217   -0.0161
           7   -0.0102    0.0093   -0.0013    0.0010   -0.0054    0.0006   -0.0270   -0.0049
           8   -0.0216    0.0099   -0.0166   -0.0000    0.0244    0.0046   -0.0188    0.0157
           9    0.0224   -0.0238   -0.0389   -0.0404    0.0116   -0.0104   -0.0222    0.0162
          10   -0.0307   -0.0130   -0.0297    0.0066   -0.0224    0.0074    0.0168    0.0086
          11    0.0247   -0.0123    0.0225    0.0088    0.0171   -0.0059    0.0215   -0.0066
          12   -0.0008    0.0121   -0.0000   -0.0122    0.0003   -0.0005    0.0437   -0.0001
          13    0.0093    0.0022    0.0321   -0.0162    0.0069    0.0087    0.0250    0.0136
          14   -0.0074    0.0014   -0.0243   -0.0214   -0.0050   -0.0071    0.0327   -0.0104
          15    0.0011   -0.0153   -0.0001    0.0342   -0.0001    0.0002   -0.0136    0.0001
          16   -0.0324   -0.0007    0.0203   -0.0160    0.0462   -0.0066    0.0286    0.0026
          17    0.0241    0.0041   -0.0154   -0.0214   -0.0346    0.0044    0.0386   -0.0021
          18   -0.0002    0.0039   -0.0001    0.0049    0.0001   -0.0003    0.0267   -0.0001
          19   -0.0070    0.0041   -0.0053   -0.0019   -0.0036    0.0013   -0.0241   -0.0041
          20    0.0200    0.0074    0.0135   -0.0026   -0.0084    0.0027   -0.0330   -0.0077
          21   -0.0150    0.0514    0.0234   -0.0019   -0.0184   -0.0422   -0.0072    0.0164
          22   -0.0217    0.0029   -0.0144   -0.0020    0.0068   -0.0018   -0.0255    0.0063
          23    0.0006    0.0061    0.0015   -0.0025    0.0054   -0.0014   -0.0322    0.0061
          24    0.0078    0.0531   -0.0235   -0.0022    0.0184    0.0422   -0.0060   -0.0165
          25    0.0203   -0.0167   -0.0331    0.0194    0.0118   -0.0187    0.0059   -0.0308
          26   -0.0128   -0.0247    0.0250    0.0255   -0.0090    0.0141    0.0088    0.0233
          27    0.0004   -0.0057   -0.0000    0.0184    0.0001   -0.0001    0.0137    0.0000
          28    0.0419   -0.0078    0.0083    0.0057    0.0153    0.0159    0.0198    0.0376
          29   -0.0301   -0.0167   -0.0062    0.0078   -0.0114   -0.0123    0.0254   -0.0284
          30    0.0015   -0.0215   -0.0001    0.0461   -0.0002    0.0003   -0.0159    0.0001
          31    0.0386    0.0161    0.0009    0.0214   -0.0307   -0.0145   -0.0077   -0.0152
          32   -0.0311    0.0150   -0.0009    0.0283    0.0232    0.0112   -0.0102    0.0116
          33    0.0014   -0.0198   -0.0001    0.0353   -0.0001    0.0001    0.0005    0.0001
          34    0.0389    0.0125    0.0020    0.0319   -0.0265   -0.0170    0.0030   -0.0072
          35    0.0167   -0.0324    0.0256   -0.0342   -0.0043    0.0516   -0.0538   -0.0406
          36   -0.0279   -0.0628    0.0610   -0.0832   -0.0130    0.0579   -0.0459   -0.0524
          37    0.0125    0.0092    0.0438   -0.0319   -0.0379    0.0056   -0.0296   -0.0329
          38    0.0267    0.0687   -0.0062    0.0442   -0.0121   -0.0655   -0.0122    0.0406
          39   -0.0268   -0.0516    0.0573   -0.0743   -0.0134    0.0448   -0.0399   -0.0428
          40   -0.0307    0.0599    0.0173    0.0511    0.0015    0.0648   -0.0018   -0.0479
          41   -0.0227    0.0241   -0.0405   -0.0191    0.0395    0.0126   -0.0321    0.0207
          42    0.0333   -0.0472   -0.0567   -0.0746    0.0130   -0.0442   -0.0415    0.0428
          43   -0.0010   -0.0351   -0.0238   -0.0414   -0.0035   -0.0534   -0.0543    0.0373
          44   -0.0419   -0.0028   -0.0089    0.0218    0.0265    0.0029   -0.0120    0.0179
          45    0.0360   -0.0582   -0.0604   -0.0836    0.0126   -0.0572   -0.0479    0.0525
          46   -0.0265   -0.0144   -0.0352    0.0099   -0.0293    0.0072    0.0144    0.0057
          47    0.0677   -0.0117    0.0546    0.0137    0.1301   -0.0618    0.0176   -0.0789
          48   -0.0162    0.0202    0.0362   -0.0293    0.0509   -0.0043    0.0580    0.0095
          49   -0.0706   -0.0173   -0.0622    0.0095   -0.1328    0.0610    0.0173    0.0772
          50    0.0094   -0.0156    0.0191    0.0131   -0.0068    0.0095    0.0191    0.0157
          51    0.0131    0.0222   -0.0363   -0.0296   -0.0503    0.0031    0.0587   -0.0097
          52   -0.0110    0.0009   -0.0113   -0.0033    0.0029    0.0061   -0.0268   -0.0024
          53    0.0384    0.0045    0.0275   -0.0047   -0.0238    0.0056   -0.0271   -0.0222
          54   -0.0294    0.0975    0.0473    0.0208   -0.0428   -0.1071    0.0024    0.0443
          55   -0.0402   -0.0019   -0.0295   -0.0036    0.0235   -0.0033   -0.0194    0.0209
          56    0.0001    0.0021    0.0036   -0.0043    0.0032   -0.0068   -0.0333    0.0083
          57    0.0158    0.1008   -0.0476    0.0201    0.0430    0.1069    0.0054   -0.0444
          58   -0.0635    0.0048    0.0319   -0.0297    0.0926   -0.0267    0.0459   -0.0167
          59    0.0465    0.0160   -0.0241   -0.0400   -0.0695    0.0191    0.0631    0.0124
          60   -0.0009    0.0132   -0.0001   -0.0121    0.0002   -0.0005    0.0484   -0.0001
          61    0.0346   -0.0253   -0.0643    0.0371    0.0239   -0.0505   -0.0143   -0.0879
          62   -0.0221   -0.0379    0.0485    0.0489   -0.0184    0.0387   -0.0160    0.0667
          63    0.0004   -0.0052    0.0000    0.0176    0.0001   -0.0001    0.0147    0.0001
          64    0.0760   -0.0079    0.0205    0.0110    0.0286    0.0356    0.0167    0.0838
          65   -0.0555   -0.0222   -0.0155    0.0149   -0.0215   -0.0272    0.0205   -0.0633
          66    0.0027   -0.0372   -0.0001    0.0756   -0.0002    0.0005   -0.0358    0.0002


   Root No.       9        10        11        12        13        14        15        16

                 9 A      10 A      11 A      12 A      13 A      14 A      15 A      16 A   

                 614.5     632.9     725.5     755.3     763.1     773.2     805.0     816.6
  
           1   -0.0142   -0.0061    0.0315   -0.0056    0.0144    0.0243   -0.0009   -0.0013
           2   -0.0188    0.0043    0.0414   -0.0079   -0.0110   -0.0183   -0.0012    0.0009
           3    0.0683    0.0008    0.0243    0.0282   -0.0003   -0.0002   -0.0032    0.0000
           4   -0.0138   -0.0162    0.0538   -0.0069   -0.0062    0.0029    0.0022   -0.0043
           5    0.0111   -0.0002   -0.0303    0.0043   -0.0203   -0.0354   -0.0003    0.0043
           6    0.0107   -0.0033    0.0037   -0.0103   -0.0019   -0.0055   -0.0013    0.0037
           7    0.0145   -0.0039   -0.0437    0.0067    0.0180    0.0347   -0.0009   -0.0052
           8   -0.0107    0.0154    0.0438   -0.0053    0.0113    0.0069    0.0021    0.0029
           9    0.0106    0.0035    0.0037   -0.0101    0.0021    0.0057   -0.0013   -0.0037
          10   -0.0038    0.0052   -0.0063   -0.0007   -0.0260    0.0151   -0.0618   -0.0262
          11   -0.0049   -0.0039   -0.0080   -0.0008    0.0193   -0.0111   -0.0813    0.0205
          12   -0.0113   -0.0001   -0.0256   -0.0038    0.0001    0.0000   -0.0189    0.0001
          13    0.0100    0.0747    0.0119    0.0049    0.0272   -0.0198    0.0184    0.0128
          14    0.0146   -0.0562    0.0156    0.0064   -0.0205    0.0148    0.0246   -0.0099
          15    0.0057   -0.0000    0.0291    0.0067   -0.0002    0.0000   -0.0230    0.0001
          16    0.0106   -0.0093    0.0097    0.0054    0.0039   -0.0059    0.0091   -0.0195
          17    0.0137    0.0073    0.0128    0.0071   -0.0030    0.0044    0.0127    0.0147
          18   -0.0186   -0.0002   -0.0204   -0.0068   -0.0001    0.0002   -0.0760    0.0004
          19    0.0065   -0.0066   -0.0147    0.0025   -0.0376   -0.0581   -0.0003    0.0051
          20    0.0097   -0.0061   -0.0232    0.0048   -0.0089   -0.0105   -0.0003   -0.0001
          21   -0.0003   -0.0034   -0.0017   -0.0226   -0.0032   -0.0024   -0.0010   -0.0002
          22    0.0076    0.0043   -0.0184    0.0039   -0.0015   -0.0055   -0.0002    0.0014
          23    0.0087    0.0081   -0.0204    0.0051    0.0386    0.0587   -0.0004   -0.0049
          24   -0.0004    0.0034   -0.0017   -0.0224    0.0034    0.0028   -0.0011    0.0002
          25   -0.0098    0.0108   -0.0100   -0.0031   -0.0091    0.0084   -0.0031    0.0200
          26   -0.0128   -0.0084   -0.0132   -0.0041    0.0070   -0.0063   -0.0053   -0.0150
          27   -0.0168   -0.0002   -0.0146   -0.0048    0.0004   -0.0002    0.1116   -0.0006
          28   -0.0069   -0.0140   -0.0177   -0.0030   -0.0169    0.0117    0.0425    0.0117
          29   -0.0094    0.0103   -0.0233   -0.0039    0.0132   -0.0091    0.0553   -0.0092
          30   -0.0167   -0.0002    0.0079   -0.0026    0.0001   -0.0001    0.0210   -0.0001
          31   -0.0188   -0.0287    0.0652   -0.0018    0.0002    0.0271   -0.0154   -0.0113
          32   -0.0253    0.0213    0.0855   -0.0029   -0.0005   -0.0202   -0.0204    0.0086
          33    0.0611    0.0007    0.0588    0.0321   -0.0005   -0.0001   -0.0200    0.0001
          34    0.0672   -0.0081    0.0680    0.0107    0.0105    0.0193    0.0028    0.0001
          35   -0.0316   -0.0176   -0.0358    0.0700   -0.0188   -0.0115   -0.0030   -0.0068
          36   -0.0648   -0.0209   -0.0062    0.0317   -0.0082    0.0064   -0.0039   -0.0075
          37   -0.0884   -0.0285    0.0404   -0.0257    0.0023    0.0276    0.0051   -0.0137
          38    0.0759    0.0141   -0.0385   -0.0685   -0.0117   -0.0434    0.0051    0.0158
          39   -0.0541   -0.0167    0.0009    0.0156   -0.0034    0.0085   -0.0028   -0.0062
          40    0.0970   -0.0188   -0.0480   -0.0583    0.0129    0.0502    0.0036   -0.0189
          41   -0.0654    0.0223    0.0286   -0.0435    0.0014   -0.0141    0.0064    0.0088
          42   -0.0544    0.0153    0.0009    0.0154    0.0031   -0.0088   -0.0028    0.0062
          43   -0.0485    0.0134   -0.0528    0.0650    0.0200    0.0150   -0.0037    0.0068
          44    0.0562    0.0139    0.0561    0.0288   -0.0058   -0.0158    0.0019    0.0017
          45   -0.0652    0.0192   -0.0062    0.0316    0.0077   -0.0070   -0.0040    0.0075
          46   -0.0062    0.0094   -0.0078   -0.0018   -0.0238    0.0159   -0.0611   -0.0076
          47   -0.0095    0.0554   -0.0133   -0.0030   -0.1185    0.0688   -0.1005   -0.0785
          48   -0.0002   -0.0209   -0.0202    0.0019   -0.0176   -0.0011   -0.0431   -0.1059
          49   -0.0067   -0.0505   -0.0100   -0.0020    0.1066   -0.0611   -0.0802    0.0742
          50   -0.0081   -0.0240   -0.0106   -0.0024    0.0543   -0.0334   -0.0862    0.0292
          51   -0.0006    0.0208   -0.0200    0.0020    0.0178    0.0009   -0.0403    0.1066
          52    0.0134   -0.0012   -0.0301   -0.0113   -0.0307   -0.0525   -0.0011    0.0067
          53    0.0017   -0.0221    0.0316   -0.0254   -0.0327   -0.0347    0.0016   -0.0016
          54   -0.0549   -0.0125    0.0022    0.2384   -0.0076    0.0087    0.0030   -0.0137
          55   -0.0025    0.0210    0.0387   -0.0205    0.0233    0.0198    0.0018    0.0032
          56    0.0132    0.0073   -0.0206   -0.0163    0.0385    0.0601   -0.0007   -0.0061
          57   -0.0551    0.0112    0.0024    0.2382    0.0042   -0.0128    0.0029    0.0139
          58    0.0106   -0.1591   -0.0038    0.0043    0.0220    0.0233    0.0473    0.2071
          59    0.0111    0.1204   -0.0056    0.0055   -0.0164   -0.0179    0.0565   -0.1569
          60   -0.0200   -0.0001   -0.0375   -0.0084    0.0000    0.0001   -0.0352    0.0001
          61   -0.0124   -0.0425    0.0071   -0.0027    0.1975   -0.1374    0.0149   -0.0773
          62   -0.0175    0.0317    0.0079   -0.0042   -0.1488    0.1036    0.0268    0.0583
          63   -0.0172   -0.0002   -0.0159   -0.0050    0.0002   -0.0001    0.1124   -0.0006
          64   -0.0108   -0.1714   -0.0216   -0.0050    0.0618   -0.0390    0.0277   -0.1035
          65   -0.0173    0.1292   -0.0290   -0.0068   -0.0462    0.0293    0.0429    0.0780
          66   -0.0469   -0.0005   -0.0146   -0.0148    0.0001    0.0001   -0.0480    0.0004


   Root No.      17        18        19        20        21        22        23        24

                17 A      18 A      19 A      20 A      21 A      22 A      23 A      24 A   

                 869.7     931.0     934.1     982.2     984.5     987.5    1013.5    1013.5
  
           1    0.0021   -0.0117    0.0033   -0.0112    0.0031    0.0105   -0.0138    0.0151
           2   -0.0016   -0.0155   -0.0019   -0.0150   -0.0017   -0.0076   -0.0173   -0.0124
           3   -0.0000   -0.0028    0.0000    0.0225   -0.0005   -0.0004    0.0016    0.0001
           4    0.0045    0.0306   -0.0078    0.0095   -0.0031   -0.0114    0.0100   -0.0117
           5   -0.0087   -0.0078    0.0063    0.0023    0.0031    0.0162    0.0010    0.0215
           6    0.0341    0.0239   -0.0027   -0.0244    0.0013   -0.0139   -0.0074    0.0186
           7    0.0095   -0.0160   -0.0074   -0.0008   -0.0038   -0.0185   -0.0003   -0.0239
           8   -0.0020    0.0276    0.0046    0.0100    0.0016    0.0062    0.0096    0.0061
           9   -0.0341    0.0240    0.0018   -0.0241   -0.0003    0.0147   -0.0063   -0.0191
          10    0.0056    0.0016    0.0262    0.0039    0.0347   -0.0007   -0.0103   -0.0030
          11   -0.0043    0.0012   -0.0199    0.0044   -0.0261    0.0004   -0.0142    0.0016
          12   -0.0000    0.0137   -0.0003    0.0060   -0.0002   -0.0001    0.0041    0.0002
          13   -0.0058   -0.0136    0.0286   -0.0055    0.0086   -0.0007    0.0003   -0.0052
          14    0.0044   -0.0189   -0.0209   -0.0075   -0.0062    0.0007   -0.0001    0.0039
          15   -0.0000   -0.0233    0.0005   -0.0020    0.0001    0.0000   -0.0090   -0.0003
          16   -0.0015   -0.0193   -0.0243   -0.0085   -0.0399    0.0010    0.0051    0.0010
          17    0.0012   -0.0246    0.0193   -0.0103    0.0305   -0.0005    0.0074   -0.0004
          18   -0.0000    0.0143   -0.0003    0.0003    0.0000   -0.0000   -0.0053   -0.0002
          19   -0.0044   -0.0010    0.0017   -0.0028    0.0003   -0.0035   -0.0037   -0.0024
          20    0.0014    0.0002   -0.0024   -0.0016   -0.0015   -0.0114   -0.0013   -0.0125
          21    0.0041   -0.0150   -0.0022    0.0206   -0.0018    0.0343    0.0057   -0.0165
          22   -0.0025    0.0005    0.0027   -0.0005    0.0015    0.0100   -0.0009    0.0114
          23    0.0039   -0.0010   -0.0009   -0.0029    0.0003    0.0065   -0.0042    0.0053
          24   -0.0041   -0.0150    0.0028    0.0198    0.0009   -0.0349    0.0048    0.0169
          25   -0.0013    0.0055   -0.0035   -0.0004   -0.0381    0.0008    0.0069    0.0075
          26    0.0009    0.0075    0.0023    0.0005    0.0285   -0.0006    0.0096   -0.0052
          27    0.0000    0.0052    0.0000    0.0065    0.0002   -0.0001   -0.0235   -0.0008
          28   -0.0023    0.0160   -0.0381    0.0121    0.0262    0.0003   -0.0053   -0.0022
          29    0.0017    0.0224    0.0281    0.0154   -0.0203   -0.0006   -0.0071    0.0014
          30    0.0000   -0.0232    0.0005   -0.0201    0.0004    0.0004    0.0116    0.0003
          31   -0.0462   -0.0371    0.0034    0.0176    0.0050    0.1053   -0.0410    0.0680
          32    0.0350   -0.0491   -0.0010    0.0204   -0.0043   -0.0805   -0.0496   -0.0540
          33   -0.0001   -0.0335    0.0006    0.0515   -0.0010   -0.0008   -0.0273   -0.0006
          34    0.0572    0.1063   -0.0103    0.0445    0.0023   -0.0822    0.0500    0.0842
          35   -0.0929   -0.0292    0.0116    0.1031    0.0058    0.0238    0.0502    0.0602
          36   -0.0589   -0.0322    0.0029    0.0353    0.0006    0.0298    0.0090   -0.0008
          37   -0.0395    0.0056   -0.0020    0.0073   -0.0055    0.0842    0.0175   -0.0310
          38    0.0992    0.0613    0.0023   -0.0823    0.0061    0.0268   -0.0082    0.0661
          39   -0.0370   -0.0197    0.0014    0.0147   -0.0012    0.0257    0.0009   -0.0109
          40   -0.1061    0.0574   -0.0050   -0.0816   -0.0039   -0.0008   -0.0085   -0.0726
          41    0.0116    0.0215    0.0002   -0.0172    0.0044   -0.0881    0.0141    0.0132
          42    0.0370   -0.0198   -0.0006    0.0141    0.0007   -0.0262    0.0003    0.0110
          43    0.1047   -0.0571   -0.0118    0.0864   -0.0089   -0.0475    0.0370   -0.0332
          44   -0.0303    0.0951    0.0024    0.0723   -0.0077    0.0703    0.0670   -0.0936
          45    0.0589   -0.0324   -0.0016    0.0346   -0.0021   -0.0309    0.0089    0.0015
          46    0.0044    0.0062    0.0465    0.0069    0.0174   -0.0017   -0.0264   -0.0108
          47    0.0181    0.0099    0.1065    0.0116    0.0753   -0.0033   -0.0406   -0.0182
          48    0.0075   -0.0106   -0.1050   -0.0111    0.0987    0.0052    0.0914    0.0415
          49   -0.0162    0.0049   -0.0894    0.0076   -0.0670    0.0023   -0.0335    0.0121
          50   -0.0091    0.0062   -0.0738    0.0088   -0.0364    0.0021   -0.0376    0.0127
          51   -0.0076   -0.0072    0.1045   -0.0128   -0.1002   -0.0045    0.0911   -0.0348
          52    0.0017   -0.0199    0.0063   -0.0028    0.0037    0.0273   -0.0117    0.0271
          53    0.0233    0.0458   -0.0228    0.0247   -0.0155   -0.0600    0.0339   -0.1297
          54   -0.1410    0.0625    0.0130   -0.0638    0.0068   -0.1552   -0.0158    0.0454
          55   -0.0219    0.0506    0.0213    0.0264    0.0145    0.0650    0.0283    0.1354
          56   -0.0079   -0.0071    0.0003    0.0037    0.0004   -0.0104   -0.0027    0.0083
          57    0.1413    0.0622   -0.0154   -0.0601   -0.0043    0.1570   -0.0135   -0.0466
          58   -0.0015   -0.0190    0.0931   -0.0222    0.1289   -0.0040    0.0465   -0.0092
          59    0.0012   -0.0287   -0.0692   -0.0325   -0.0968    0.0040    0.0594    0.0097
          60   -0.0000    0.0137   -0.0003   -0.0178    0.0000    0.0004    0.0428    0.0012
          61   -0.0049   -0.0335   -0.0325   -0.0469    0.1458   -0.0009    0.0716   -0.0181
          62    0.0037   -0.0436    0.0258   -0.0659   -0.1090    0.0027    0.0933    0.0181
          63    0.0000    0.0068    0.0000    0.0083    0.0000   -0.0002   -0.0260   -0.0009
          64    0.0220    0.0230    0.2030    0.0047   -0.1062   -0.0033    0.0140    0.0057
          65   -0.0166    0.0234   -0.1544    0.0087    0.0795    0.0023    0.0186   -0.0032
          66   -0.0000   -0.0088   -0.0001   -0.0549    0.0001    0.0010    0.1205    0.0040


   Root No.      25        26        27        28        29        30        31        32

                25 A      26 A      27 A      28 A      29 A      30 A      31 A      32 A   

                1035.5    1041.1    1063.2    1073.3    1087.7    1090.0    1100.8    1109.9
  
           1   -0.0014    0.0023    0.0136    0.0036   -0.0067    0.0080   -0.0123    0.0216
           2    0.0013    0.0030    0.0178   -0.0026   -0.0089    0.0106   -0.0156   -0.0169
           3    0.0000   -0.0001    0.0068   -0.0003    0.0105   -0.0114    0.0163    0.0002
           4    0.0001   -0.0010   -0.0045   -0.0004   -0.0019    0.0022    0.0031   -0.0258
           5   -0.0036   -0.0010   -0.0072    0.0009    0.0075   -0.0090   -0.0105   -0.0059
           6   -0.0046    0.0013    0.0058    0.0083   -0.0025    0.0013   -0.0098    0.0132
           7    0.0035   -0.0007   -0.0058   -0.0010    0.0077   -0.0093   -0.0108   -0.0018
           8    0.0007   -0.0013   -0.0061    0.0001    0.0003   -0.0004   -0.0006    0.0265
           9    0.0046    0.0013    0.0057   -0.0082   -0.0026    0.0014   -0.0094   -0.0135
          10   -0.0016    0.0077   -0.0155    0.0000   -0.0017    0.0036   -0.0001    0.0003
          11    0.0015    0.0100   -0.0207    0.0002   -0.0022    0.0048   -0.0001   -0.0001
          12    0.0002    0.0168    0.0028    0.0000   -0.0024   -0.0008   -0.0003    0.0000
          13    0.0166   -0.0017   -0.0098   -0.0025    0.0005    0.0038   -0.0002    0.0001
          14   -0.0127   -0.0019   -0.0129    0.0020    0.0007    0.0051   -0.0004   -0.0000
          15    0.0001    0.0084   -0.0076    0.0000    0.0016   -0.0037    0.0019   -0.0000
          16   -0.0254   -0.0006   -0.0106    0.0013    0.0042    0.0049    0.0008    0.0009
          17    0.0190   -0.0012   -0.0140   -0.0009    0.0056    0.0065    0.0011   -0.0006
          18   -0.0004   -0.0397    0.0114   -0.0001   -0.0075   -0.0083   -0.0004   -0.0000
          19    0.0013    0.0018    0.0098    0.0001   -0.0080    0.0099    0.0110    0.0091
          20    0.0028    0.0013    0.0065    0.0025   -0.0064    0.0078    0.0150    0.0099
          21    0.0015   -0.0028    0.0013   -0.0332   -0.0050    0.0063    0.0002   -0.0030
          22   -0.0023    0.0008    0.0036   -0.0023   -0.0041    0.0050    0.0115   -0.0067
          23   -0.0018    0.0021    0.0111   -0.0007   -0.0094    0.0117    0.0149   -0.0107
          24   -0.0016   -0.0029    0.0016    0.0333   -0.0046    0.0060    0.0003    0.0031
          25    0.0322    0.0008    0.0110   -0.0012   -0.0014   -0.0048    0.0002   -0.0001
          26   -0.0243    0.0019    0.0148    0.0008   -0.0019   -0.0064    0.0002   -0.0001
          27    0.0001   -0.0029   -0.0208    0.0002   -0.0064    0.0040   -0.0018    0.0001
          28   -0.0214    0.0072    0.0149    0.0015    0.0015   -0.0051    0.0001    0.0003
          29    0.0165    0.0089    0.0196   -0.0014    0.0019   -0.0068    0.0002   -0.0004
          30   -0.0002   -0.0010   -0.0246    0.0002   -0.0002    0.0121   -0.0011    0.0001
          31   -0.0216    0.0113    0.0872    0.0197    0.0342   -0.0556   -0.0184    0.2137
          32    0.0176    0.0144    0.1141   -0.0169    0.0436   -0.0720   -0.0179   -0.1641
          33    0.0005    0.0094    0.0873   -0.0015    0.0557   -0.0815    0.0152   -0.0004
          34   -0.0273   -0.0327   -0.0205   -0.1387   -0.0319    0.0378   -0.1177   -0.0537
          35   -0.0172   -0.0283   -0.0440   -0.1142    0.0078   -0.0098   -0.0891   -0.0709
          36   -0.0009   -0.0030   -0.0116   -0.0082    0.0125   -0.0168   -0.0074   -0.0189
          37    0.0076    0.0163   -0.0631    0.1300    0.0898   -0.1040    0.0139   -0.1161
          38   -0.0118    0.0122   -0.0541    0.1153    0.0711   -0.0867   -0.0431   -0.0610
          39    0.0024    0.0031   -0.0006    0.0162    0.0117   -0.0138    0.0101   -0.0044
          40    0.0133    0.0076   -0.0359   -0.0768    0.0438   -0.0555   -0.0458    0.0255
          41   -0.0044    0.0194   -0.0761   -0.1583    0.1041   -0.1230   -0.0022    0.1273
          42   -0.0023    0.0031   -0.0007   -0.0167    0.0115   -0.0138    0.0099    0.0046
          43    0.0086   -0.0187   -0.0362    0.0731    0.0173   -0.0205   -0.0550    0.0520
          44    0.0294   -0.0394   -0.0300    0.1660   -0.0260    0.0323   -0.1376    0.0672
          45    0.0008   -0.0031   -0.0115    0.0080    0.0127   -0.0170   -0.0078    0.0184
          46   -0.0417   -0.0210   -0.0215    0.0010    0.0053    0.0101    0.0008    0.0003
          47   -0.0583   -0.0195   -0.0455    0.0015    0.0035    0.0176    0.0010    0.0004
          48    0.2162    0.1708    0.0269   -0.0052   -0.0434   -0.0359   -0.0043   -0.0001
          49    0.0439   -0.0147   -0.0387   -0.0007    0.0021    0.0144    0.0007    0.0001
          50    0.0557   -0.0274   -0.0336   -0.0011    0.0061    0.0147    0.0010   -0.0001
          51   -0.2130    0.1758    0.0273    0.0058   -0.0435   -0.0359   -0.0043   -0.0003
          52   -0.0054    0.0032    0.0221   -0.0030   -0.0091    0.0132   -0.0446   -0.0151
          53    0.0263   -0.0062   -0.0350   -0.0167   -0.0072    0.0027    0.2066    0.0846
          54   -0.0029    0.0066    0.0008    0.0663    0.0055   -0.0083    0.0147    0.0149
          55   -0.0278   -0.0070   -0.0400    0.0147   -0.0048   -0.0005    0.2129   -0.0804
          56   -0.0017    0.0014    0.0120    0.0075   -0.0106    0.0134    0.0123   -0.0074
          57    0.0030    0.0069    0.0002   -0.0667    0.0047   -0.0078    0.0145   -0.0145
          58    0.0473   -0.1021    0.0292   -0.0036    0.0466    0.0050    0.0166   -0.0034
          59   -0.0390   -0.1341    0.0385    0.0014    0.0618    0.0066    0.0218    0.0029
          60   -0.0022   -0.1604    0.0606   -0.0009    0.0422   -0.0092    0.0184    0.0001
          61   -0.0759   -0.0538    0.0058    0.0031   -0.1058   -0.0779   -0.0015    0.0001
          62    0.0546   -0.0733    0.0072   -0.0013   -0.1401   -0.1030   -0.0019    0.0003
          63    0.0002    0.0003   -0.0215    0.0002   -0.0024    0.0074   -0.0018    0.0001
          64    0.0606    0.0153    0.0295   -0.0075    0.0297    0.0187   -0.0016    0.0004
          65   -0.0455    0.0217    0.0395    0.0049    0.0393    0.0247   -0.0022   -0.0006
          66   -0.0003    0.0495    0.0526   -0.0009    0.1602    0.1497   -0.0110   -0.0003


   Root No.      33        34        35        36        37        38        39        40

                33 A      34 A      35 A      36 A      37 A      38 A      39 A      40 A   

                1129.1    1196.3    1226.4    1226.8    1248.5    1305.3    1351.2    1365.1
  
           1    0.0191   -0.0059   -0.0232    0.0551    0.0346    0.0143   -0.0003    0.0188
           2    0.0250   -0.0077   -0.0136   -0.0472   -0.0264    0.0190   -0.0003    0.0248
           3   -0.0199   -0.0189   -0.0123   -0.0020    0.0000    0.0268   -0.0091    0.0074
           4   -0.0248   -0.0001   -0.0008   -0.0114   -0.0408    0.0157   -0.0010   -0.0311
           5    0.0208   -0.0043   -0.0102    0.0087   -0.0133    0.0217   -0.0022   -0.0294
           6    0.0116    0.0066    0.0058   -0.0044   -0.0053   -0.0029    0.0015   -0.0050
           7    0.0268   -0.0041   -0.0060   -0.0141    0.0020    0.0167   -0.0018   -0.0196
           8   -0.0183   -0.0012   -0.0059    0.0070    0.0430    0.0207   -0.0013   -0.0364
           9    0.0115    0.0066    0.0043    0.0061    0.0053   -0.0029    0.0015   -0.0049
          10   -0.0014    0.0152    0.0083    0.0017    0.0002   -0.0021   -0.0154   -0.0220
          11   -0.0019    0.0202    0.0111    0.0017   -0.0001   -0.0027   -0.0206   -0.0290
          12   -0.0011   -0.0108    0.0203    0.0035    0.0001    0.0157    0.1374   -0.0002
          13    0.0001   -0.0114    0.0021   -0.0087   -0.0039   -0.0071   -0.0022    0.0003
          14    0.0002   -0.0151    0.0002    0.0069    0.0029   -0.0093   -0.0029    0.0003
          15   -0.0001    0.0019   -0.0277   -0.0048   -0.0001   -0.0026    0.0130    0.0160
          16   -0.0001   -0.0072    0.0042    0.0037    0.0014   -0.0141   -0.0015   -0.0023
          17   -0.0001   -0.0096    0.0065   -0.0012   -0.0011   -0.0187   -0.0020   -0.0030
          18    0.0009   -0.0375   -0.0174   -0.0030   -0.0001   -0.0239   -0.0724    0.0004
          19   -0.0236    0.0033    0.0059    0.0065    0.0119   -0.0112    0.0008    0.0108
          20   -0.0191    0.0038    0.0050    0.0240   -0.0185   -0.0143    0.0011    0.0131
          21   -0.0021    0.0002    0.0001    0.0040   -0.0009   -0.0015   -0.0000    0.0018
          22   -0.0123    0.0028    0.0088   -0.0193    0.0209   -0.0108    0.0007    0.0085
          23   -0.0280    0.0042    0.0102   -0.0097   -0.0066   -0.0145    0.0009    0.0130
          24   -0.0022    0.0002    0.0011   -0.0038    0.0008   -0.0015   -0.0000    0.0017
          25    0.0004    0.0031   -0.0174   -0.0034   -0.0003   -0.0067    0.0314    0.0054
          26    0.0006    0.0040   -0.0232   -0.0037    0.0001   -0.0089    0.0417    0.0071
          27    0.0003    0.0088    0.0214    0.0037    0.0001    0.0052   -0.0559   -0.0103
          28    0.0012   -0.0052   -0.0086    0.0003    0.0009    0.0025   -0.0077    0.0050
          29    0.0015   -0.0069   -0.0109   -0.0032   -0.0007    0.0033   -0.0103    0.0066
          30   -0.0009    0.0272   -0.0057   -0.0010   -0.0000   -0.0183    0.0317   -0.0081
          31    0.0503    0.0395    0.1100   -0.1473   -0.0603   -0.0443    0.0044   -0.0250
          32    0.0657    0.0522    0.0979    0.1431    0.0461   -0.0587    0.0057   -0.0335
          33    0.0128    0.0301    0.0988    0.0169    0.0002   -0.0373   -0.0049   -0.0394
          34    0.0401    0.0332    0.0492   -0.0774    0.0352   -0.0777    0.0067    0.0716
          35    0.0705    0.0007   -0.0008   -0.0346    0.0954   -0.0112    0.0042    0.0273
          36    0.0128   -0.0061   -0.0106   -0.0035    0.0346    0.0171    0.0021   -0.0113
          37   -0.0868   -0.0228    0.0113   -0.0701    0.0530   -0.0358   -0.0066    0.0834
          38    0.0324   -0.0082   -0.0033   -0.0475    0.0975   -0.0029    0.0033    0.0250
          39   -0.0200   -0.0022    0.0076   -0.0073   -0.0104   -0.0129   -0.0032    0.0197
          40    0.0551   -0.0018   -0.0130    0.0237   -0.0797    0.0071    0.0052    0.0049
          41   -0.0737   -0.0241   -0.0122    0.0802   -0.0770   -0.0352   -0.0060    0.0829
          42   -0.0200   -0.0022    0.0053    0.0096    0.0104   -0.0130   -0.0035    0.0169
          43    0.0577   -0.0083   -0.0165    0.0074   -0.0826    0.0102    0.0025    0.0097
          44    0.0579    0.0320    0.0223    0.0957   -0.0596   -0.0777    0.0070    0.0722
          45    0.0130   -0.0061   -0.0110   -0.0002   -0.0346    0.0172    0.0023   -0.0083
          46   -0.0026    0.0015    0.0231    0.0045    0.0003    0.0083    0.0327   -0.0104
          47   -0.0065    0.0452    0.0875    0.0160    0.0009    0.1198   -0.0511    0.1445
          48    0.0026    0.0885   -0.0273   -0.0055   -0.0001    0.0188   -0.1731    0.0237
          49   -0.0057    0.0434    0.0786    0.0129   -0.0001    0.1134   -0.0581    0.1423
          50   -0.0043    0.0138    0.0466    0.0074   -0.0002    0.0409    0.0178    0.0296
          51    0.0026    0.0884   -0.0277   -0.0040    0.0000    0.0185   -0.1731    0.0233
          52   -0.0731    0.0036    0.0020    0.0363   -0.0354   -0.0093    0.0007    0.0069
          53    0.1400    0.0032    0.0203   -0.0767    0.1423   -0.0248    0.0016    0.0292
          54    0.0092    0.0026    0.0039   -0.0056    0.0103   -0.0040    0.0008    0.0029
          55    0.1537    0.0021   -0.0039    0.0857   -0.1461   -0.0212    0.0016    0.0286
          56   -0.0331    0.0043    0.0110   -0.0114   -0.0040   -0.0155    0.0009    0.0135
          57    0.0089    0.0026    0.0022    0.0065   -0.0101   -0.0040    0.0008    0.0029
          58   -0.0139    0.1100   -0.0139   -0.0122   -0.0048    0.0323    0.0137   -0.0010
          59   -0.0184    0.1455   -0.0212    0.0039    0.0037    0.0427    0.0182   -0.0013
          60   -0.0158    0.1004   -0.0442   -0.0075   -0.0000    0.0324   -0.0564    0.0037
          61   -0.0054   -0.0547    0.0809    0.0136    0.0002    0.0385   -0.0068   -0.0050
          62   -0.0072   -0.0724    0.1071    0.0189    0.0005    0.0510   -0.0091   -0.0066
          63    0.0005    0.0124    0.0191    0.0033    0.0001    0.0037   -0.0549   -0.0111
          64    0.0050   -0.0321    0.0106   -0.0011   -0.0019    0.0119   -0.0323    0.0058
          65    0.0066   -0.0425    0.0130    0.0044    0.0015    0.0156   -0.0427    0.0076
          66    0.0194   -0.1195    0.1049    0.0180    0.0004    0.0335   -0.1046   -0.0092


   Root No.      41        42        43        44        45        46        47        48

                41 A      42 A      43 A      44 A      45 A      46 A      47 A      48 A   

                1365.8    1393.4    1400.3    1407.6    1497.8    1745.5    1827.9    1833.4
  
           1   -0.0041    0.0213   -0.0040   -0.0119   -0.0361    0.0092   -0.0048   -0.0200
           2    0.0022    0.0281   -0.0050    0.0091   -0.0475    0.0121   -0.0063   -0.0264
           3   -0.0002    0.0176   -0.0047    0.0000   -0.0757    0.0190   -0.0105   -0.0269
           4   -0.0340   -0.0164    0.0170    0.0046    0.0114    0.0001    0.0042   -0.0024
           5   -0.0214   -0.0200   -0.0366   -0.0473    0.0089    0.0002   -0.0122    0.0053
           6   -0.0024   -0.0048   -0.0026   -0.0040    0.0096   -0.0005   -0.0005    0.0007
           7    0.0125   -0.0148   -0.0389    0.0477    0.0055    0.0002   -0.0130    0.0057
           8    0.0402   -0.0211    0.0068    0.0082    0.0134    0.0001    0.0008   -0.0009
           9    0.0026   -0.0048   -0.0025    0.0041    0.0096   -0.0005   -0.0005    0.0007
          10    0.0004    0.0302   -0.0042   -0.0001   -0.0064   -0.0065    0.0001    0.0001
          11    0.0007    0.0399   -0.0055    0.0001   -0.0084   -0.0086    0.0002    0.0002
          12   -0.0001    0.0111   -0.0030    0.0000    0.0000   -0.0034    0.0002    0.0003
          13    0.0012   -0.0083    0.0010    0.0033   -0.0198   -0.0402    0.0453    0.0938
          14   -0.0009   -0.0110    0.0013   -0.0025   -0.0265   -0.0532    0.0599    0.1241
          15   -0.0004    0.0084    0.0005   -0.0000    0.1758   -0.0183    0.0170    0.0394
          16   -0.0002   -0.0140    0.0037   -0.0006    0.0315    0.0380   -0.0363   -0.0739
          17    0.0003   -0.0185    0.0048    0.0004    0.0417    0.0503   -0.0480   -0.0978
          18    0.0001   -0.0246    0.0044   -0.0000   -0.0191   -0.0049   -0.0048   -0.0096
          19    0.0155    0.0060    0.0099    0.0072   -0.0020    0.0010   -0.1130    0.0529
          20    0.0420    0.0059    0.0090    0.0393    0.0016   -0.0019    0.1080   -0.0486
          21    0.0040    0.0010    0.0014    0.0037   -0.0007   -0.0000    0.0019   -0.0008
          22   -0.0367    0.0040    0.0053   -0.0360    0.0021   -0.0021    0.1344   -0.0610
          23   -0.0268    0.0073    0.0116   -0.0177   -0.0016    0.0005   -0.0800    0.0380
          24   -0.0041    0.0010    0.0013   -0.0037   -0.0007   -0.0000    0.0018   -0.0008
          25   -0.0002   -0.0161    0.0015    0.0001   -0.0157    0.0984    0.0128    0.0245
          26   -0.0002   -0.0213    0.0020   -0.0001   -0.0207    0.1302    0.0169    0.0325
          27    0.0003    0.0174   -0.0017    0.0000   -0.0001    0.1055    0.0092    0.0171
          28   -0.0000    0.0016    0.0000   -0.0004    0.0211   -0.0876   -0.0131   -0.0252
          29   -0.0002    0.0021    0.0000    0.0003    0.0281   -0.1159   -0.0173   -0.0334
          30    0.0002   -0.0265    0.0024   -0.0000   -0.0911   -0.1138   -0.0200   -0.0399
          31    0.0172   -0.0299    0.0120    0.0429   -0.0008   -0.0094    0.0095    0.0186
          32   -0.0119   -0.0397    0.0150   -0.0329   -0.0012   -0.0123    0.0125    0.0247
          33    0.0009   -0.0374    0.0120   -0.0001   -0.0374    0.0018    0.0030    0.0142
          34    0.1247    0.0186   -0.0867   -0.0495    0.0192   -0.0027   -0.0115    0.0083
          35   -0.0408    0.0294    0.0996    0.0849   -0.0138   -0.0001   -0.0211    0.0109
          36   -0.0839    0.0137    0.1322    0.1062   -0.0120    0.0016   -0.0038   -0.0004
          37    0.1303    0.0398   -0.0979   -0.0540   -0.0454    0.0075   -0.0169   -0.0053
          38   -0.0556    0.0338    0.1252    0.1077   -0.0198    0.0023   -0.0185    0.0054
          39    0.0763   -0.0026   -0.1099   -0.0854   -0.0041    0.0031   -0.0043   -0.0036
          40    0.0880    0.0218    0.1446   -0.1213   -0.0070    0.0002   -0.0133    0.0067
          41   -0.1145    0.0472   -0.0606    0.0244   -0.0488    0.0079   -0.0212   -0.0036
          42   -0.0770   -0.0025   -0.1082    0.0876   -0.0041    0.0031   -0.0044   -0.0036
          43    0.0720    0.0232    0.1172   -0.0976   -0.0184    0.0006   -0.0173    0.0083
          44   -0.1127    0.0256   -0.0566    0.0260    0.0149   -0.0027   -0.0168    0.0109
          45    0.0841    0.0136    0.1302   -0.1089   -0.0120    0.0016   -0.0038   -0.0004
          46    0.0001    0.0197   -0.0031   -0.0001   -0.0007   -0.0052   -0.0028   -0.0059
          47   -0.0032   -0.1280    0.0169   -0.0001    0.0202   -0.0176   -0.0005   -0.0006
          48   -0.0004   -0.0181    0.0025   -0.0001   -0.0227    0.0174    0.0112    0.0220
          49   -0.0031   -0.1289    0.0172    0.0002    0.0197   -0.0154    0.0003    0.0010
          50   -0.0006   -0.0161    0.0017    0.0002    0.0049   -0.0099   -0.0029   -0.0058
          51   -0.0003   -0.0178    0.0025    0.0002   -0.0228    0.0174    0.0112    0.0220
          52    0.0458    0.0038    0.0152    0.0381    0.0001    0.0006   -0.0930    0.0442
          53   -0.0597    0.0148   -0.0017   -0.0652   -0.0049    0.0002   -0.0638    0.0308
          54   -0.0016    0.0012    0.0007   -0.0031    0.0004    0.0001   -0.0113    0.0054
          55    0.0683    0.0134   -0.0041    0.0730   -0.0047    0.0000   -0.0370    0.0180
          56   -0.0289    0.0076    0.0137   -0.0197   -0.0013    0.0006   -0.1066    0.0508
          57    0.0014    0.0012    0.0007    0.0030    0.0005    0.0001   -0.0112    0.0053
          58    0.0009    0.0395   -0.0061    0.0018    0.0489    0.0082   -0.0067   -0.0136
          59   -0.0007    0.0523   -0.0081   -0.0013    0.0648    0.0109   -0.0088   -0.0181
          60   -0.0000    0.0391   -0.0075    0.0001   -0.0018   -0.0564    0.0451    0.0925
          61    0.0004    0.0430   -0.0051    0.0001    0.0435   -0.0306   -0.0029   -0.0054
          62   -0.0001    0.0569   -0.0068   -0.0001    0.0575   -0.0408   -0.0038   -0.0072
          63    0.0003    0.0162   -0.0017    0.0000   -0.0066    0.1451    0.0134    0.0248
          64   -0.0018    0.0134   -0.0002    0.0016    0.0453   -0.0784   -0.0061   -0.0109
          65    0.0012    0.0178   -0.0002   -0.0013    0.0601   -0.1037   -0.0080   -0.0144
          66    0.0004    0.0426   -0.0004   -0.0001    0.0295    0.0649    0.0302    0.0599


   Root No.      49        50        51        52        53        54        55        56

                49 A      50 A      51 A      52 A      53 A      54 A      55 A      56 A   

                2892.8    2974.8    2976.0    2984.4    3051.4    3052.4    3052.8    3116.1
  
           1    0.0213   -0.0001    0.0011   -0.0000   -0.0007   -0.0001   -0.0000   -0.0001
           2    0.0280    0.0001    0.0015    0.0000    0.0005   -0.0001   -0.0000    0.0001
           3   -0.0540   -0.0000   -0.0030   -0.0000   -0.0000   -0.0004   -0.0000    0.0000
           4    0.0009   -0.0015    0.0015    0.0000   -0.0132   -0.0123    0.0011    0.0002
           5   -0.0006   -0.0016    0.0015   -0.0000    0.0171    0.0160   -0.0014   -0.0001
           6    0.0048    0.0306   -0.0292   -0.0001   -0.0015   -0.0014    0.0001    0.0001
           7   -0.0008    0.0012    0.0010    0.0000   -0.0198    0.0188   -0.0017    0.0001
           8    0.0007    0.0019    0.0018   -0.0000    0.0081   -0.0077    0.0007   -0.0002
           9    0.0048   -0.0306   -0.0292    0.0000    0.0014   -0.0014    0.0001   -0.0001
          10    0.0000   -0.0000    0.0000   -0.0485    0.0000   -0.0011   -0.0222    0.0000
          11    0.0000    0.0000   -0.0000    0.0368    0.0001   -0.0014   -0.0292   -0.0000
          12    0.0001   -0.0000   -0.0000    0.0001    0.0000   -0.0006   -0.0113   -0.0000
          13    0.0001   -0.0003    0.0003   -0.0001   -0.0001   -0.0000    0.0005   -0.0000
          14    0.0002    0.0002    0.0004    0.0001    0.0001   -0.0000    0.0006    0.0000
          15   -0.0001    0.0000    0.0001   -0.0000   -0.0000   -0.0000    0.0003    0.0000
          16   -0.0002    0.0000   -0.0000   -0.0002   -0.0000   -0.0000    0.0000    0.0000
          17   -0.0002   -0.0000   -0.0001    0.0002    0.0000   -0.0000    0.0001   -0.0000
          18   -0.0006   -0.0000   -0.0000   -0.0000    0.0000   -0.0000   -0.0013   -0.0000
          19   -0.0002   -0.0000    0.0000   -0.0000    0.0007    0.0009   -0.0001    0.0365
          20   -0.0001    0.0001   -0.0001    0.0000    0.0004    0.0006   -0.0001    0.0105
          21   -0.0001   -0.0001   -0.0002   -0.0000    0.0001    0.0001   -0.0000    0.0031
          22   -0.0000   -0.0001   -0.0001   -0.0000   -0.0002    0.0004   -0.0000   -0.0004
          23   -0.0002   -0.0000    0.0000   -0.0000   -0.0008    0.0010   -0.0001   -0.0379
          24   -0.0001    0.0001   -0.0002    0.0000   -0.0001    0.0001   -0.0000   -0.0031
          25   -0.0000    0.0000   -0.0000   -0.0002    0.0000   -0.0000   -0.0004   -0.0000
          26   -0.0001   -0.0000   -0.0000    0.0002   -0.0000   -0.0000   -0.0005    0.0000
          27    0.0000    0.0000   -0.0000   -0.0000   -0.0000    0.0000    0.0011    0.0000
          28    0.0001   -0.0000    0.0001   -0.0002   -0.0000   -0.0002   -0.0002    0.0000
          29    0.0001    0.0000    0.0002    0.0001    0.0000   -0.0003   -0.0002    0.0000
          30    0.0005   -0.0000    0.0000    0.0000   -0.0000    0.0001    0.0004   -0.0000
          31   -0.2575    0.0028   -0.0150   -0.0000   -0.0011   -0.0024    0.0002   -0.0001
          32   -0.3384   -0.0021   -0.0197   -0.0000    0.0008   -0.0032    0.0003    0.0001
          33    0.6452    0.0000    0.0329    0.0000    0.0000    0.0055   -0.0005   -0.0000
          34   -0.0095   -0.0797    0.0761    0.0001    0.0902    0.0826   -0.0071   -0.0008
          35    0.0220    0.1178   -0.1124   -0.0001   -0.1369   -0.1257    0.0109    0.0040
          36   -0.0285   -0.1503    0.1430    0.0002    0.2042    0.1875   -0.0162   -0.0040
          37    0.0100    0.0998   -0.0958   -0.0002    0.0729    0.0665   -0.0058   -0.0002
          38   -0.0131   -0.0990    0.0950    0.0002   -0.0689   -0.0629    0.0055    0.0020
          39   -0.0292   -0.2175    0.2085    0.0004   -0.1864   -0.1705    0.0148    0.0031
          40   -0.0153    0.1220    0.1169   -0.0001    0.0851   -0.0792    0.0074   -0.0020
          41    0.0062   -0.0698   -0.0668    0.0000   -0.0515    0.0478   -0.0045   -0.0003
          42   -0.0292    0.2175    0.2082   -0.0002    0.1850   -0.1722    0.0160   -0.0031
          43    0.0238   -0.1351   -0.1286    0.0000    0.1545   -0.1444    0.0133   -0.0041
          44   -0.0033    0.0454    0.0433   -0.0000   -0.0499    0.0464   -0.0043   -0.0003
          45   -0.0286    0.1506    0.1430   -0.0000   -0.2023    0.1889   -0.0174    0.0040
          46   -0.0001    0.0002   -0.0002    0.4584   -0.0006    0.0203    0.4115   -0.0000
          47    0.0000   -0.0000   -0.0000   -0.0057    0.0001   -0.0018   -0.0371    0.0000
          48    0.0000    0.0001   -0.0000    0.0835   -0.0001    0.0033    0.0671    0.0000
          49    0.0000    0.0001   -0.0000    0.1311    0.0003   -0.0073   -0.1469   -0.0000
          50   -0.0001   -0.0002    0.0000   -0.4416   -0.0007    0.0190    0.3840    0.0000
          51    0.0000   -0.0001    0.0000   -0.0844   -0.0001    0.0033    0.0674   -0.0000
          52   -0.0020    0.0006    0.0000   -0.0000   -0.0042   -0.0147    0.0016   -0.4326
          53   -0.0009    0.0001    0.0001   -0.0000   -0.0004   -0.0031    0.0004   -0.1264
          54   -0.0002    0.0004   -0.0010   -0.0000   -0.0003   -0.0012    0.0001   -0.0375
          55   -0.0004    0.0001    0.0001    0.0000   -0.0007    0.0009   -0.0001    0.0065
[...]
 FREQ.      1365.11         C  4 -- H 17          +8.8% ( 40.9%)      5.6%
 T-DIPOLE    0.3331         C  4 -- H 16          +8.8% ( 40.8%)      5.7%
 TRAVEL      0.0869         C  1 -- C  2          +8.7% ( 40.7%)     44.6%
 RED. MASS   0.6820         C  1 -- C  3          +8.4% ( 39.9%)     44.3%
 EFF. MASS   6.5351

 VIBRATION   41   41A         ATOM PAIR      ENERGY CONTRIBUTION    RADIAL
 FREQ.      1365.78         C  3 -- C  8         +13.5% ( 45.4%)     84.6%
 T-DIPOLE    0.0702         C  2 -- C  7         +12.7% ( 44.0%)     84.9%
 TRAVEL      0.0935         C  7 -- C  8         +12.0% ( 42.8%)      0.0%
 RED. MASS   0.6512         C  3 -- H 14         +10.9% ( 40.8%)      0.3%
 EFF. MASS   5.6502         C  2 -- H 13         +10.2% ( 39.5%)      0.3%
                            C  3 -- H 15         +10.2% ( 39.5%)      0.3%

 VIBRATION   42   42A         ATOM PAIR      ENERGY CONTRIBUTION    RADIAL
 FREQ.      1393.39         C  4 -- C  6         +10.9% ( 49.2%)     54.0%
 T-DIPOLE    0.0741         C  4 -- C  9         +10.6% ( 48.5%)     75.7%
 TRAVEL      0.0788         C  4 -- H 17          +9.3% ( 45.3%)      8.7%
 RED. MASS   0.8458         C  4 -- H 16          +9.3% ( 45.3%)      8.8%
 EFF. MASS   7.7879

 VIBRATION   43   43A         ATOM PAIR      ENERGY CONTRIBUTION    RADIAL
 FREQ.      1400.33         C  2 -- H 13         +17.8% ( 46.2%)      4.7%
 T-DIPOLE    0.0560         C  3 -- H 14         +17.2% ( 45.4%)      4.7%
 TRAVEL      0.1182         C  2 -- H 12         +16.5% ( 44.6%)      6.0%
 RED. MASS   0.3922         C  3 -- H 15         +16.0% ( 43.8%)      6.0%
 EFF. MASS   3.4441

 VIBRATION   44   44A         ATOM PAIR      ENERGY CONTRIBUTION    RADIAL
 FREQ.      1407.58         C  3 -- C  8         +13.7% ( 48.4%)     94.7%
 T-DIPOLE    0.0752         C  2 -- C  7         +13.4% ( 47.8%)     94.7%
 TRAVEL      0.0880         C  3 -- H 14         +10.6% ( 42.5%)      5.5%
 RED. MASS   0.7424         C  3 -- H 15         +10.2% ( 41.7%)      6.6%
 EFF. MASS   6.1793         C  2 -- H 13         +10.2% ( 41.6%)      5.5%

 VIBRATION   45   45A         ATOM PAIR      ENERGY CONTRIBUTION    RADIAL
 FREQ.      1497.82         C  5 -- C 10         +22.6% ( 80.7%)     99.8%
 T-DIPOLE    0.5623         C  1 -- C  5         +20.5% ( 76.8%)     71.1%
 TRAVEL      0.0621         C  5 -- C  6         +16.1% ( 68.2%)     18.5%
 RED. MASS   4.3767         C  5 -- C  9         +13.4% ( 62.1%)     89.4%
 EFF. MASS  11.6777

 VIBRATION   46   46A         ATOM PAIR      ENERGY CONTRIBUTION    RADIAL
 FREQ.      1745.53         C  9 -- C 10         +32.0% ( 96.0%)    100.0%
 T-DIPOLE    0.5325         C  5 -- C  9         +11.6% ( 57.7%)     50.0%
 TRAVEL      0.0568         C  4 -- C  9         +10.2% ( 54.2%)     16.2%
 RED. MASS   4.3129         C  6 -- C 10         +10.2% ( 54.1%)     15.8%
 EFF. MASS  11.9746

 VIBRATION   47   47A         ATOM PAIR      ENERGY CONTRIBUTION    RADIAL
 FREQ.      1827.88         C  7 -- C  8         +35.7% ( 90.5%)    100.0%
 T-DIPOLE    0.1290         C  3 -- C  8         +10.9% ( 49.9%)     26.0%
 TRAVEL      0.0558         C  2 -- C  7         +10.8% ( 49.9%)     25.9%
 RED. MASS   3.7597         C  8 -- H 19         +10.1% ( 48.2%)      9.6%
 EFF. MASS  11.8597         C  7 -- H 18         +10.1% ( 48.1%)      9.6%

 VIBRATION   48   48A         ATOM PAIR      ENERGY CONTRIBUTION    RADIAL
 FREQ.      1833.36         C  5 -- C  6         +25.1% ( 81.7%)     95.8%
 T-DIPOLE    0.2897         C  1 -- C  5         +12.2% ( 57.0%)     71.7%
 TRAVEL      0.0557         C  5 -- C 10         +12.2% ( 56.9%)      0.7%
 RED. MASS   3.1891         C  5 -- C  9         +11.0% ( 54.2%)     21.5%
 EFF. MASS  11.8431

 VIBRATION   49   49A         ATOM PAIR      ENERGY CONTRIBUTION    RADIAL
 FREQ.      2892.83         C  1 -- H 11         +95.8% ( 99.6%)    100.0%
 T-DIPOLE    0.0568         C  1 -- C  3          +1.1% ( 10.7%)      8.9%
 TRAVEL      0.1264         C  1 -- C  2          +1.1% ( 10.7%)      8.9%
 RED. MASS   0.9139         C  1 -- C  5          +1.1% ( 10.6%)     10.0%
 EFF. MASS   1.4584

 VIBRATION   50   50A         ATOM PAIR      ENERGY CONTRIBUTION    RADIAL
 FREQ.      2974.79         C  3 -- H 14         +29.4% ( 56.2%)     97.7%
 T-DIPOLE    0.0437         C  2 -- H 13         +29.4% ( 56.2%)     97.7%
 TRAVEL      0.1214         C  3 -- H 15         +19.5% ( 45.8%)     95.2%
 RED. MASS   0.2688         C  2 -- H 12         +19.5% ( 45.8%)     95.2%
 EFF. MASS   1.5376

 VIBRATION   51   51A         ATOM PAIR      ENERGY CONTRIBUTION    RADIAL
 FREQ.      2976.03         C  2 -- H 13         +29.4% ( 56.1%)     97.7%
 T-DIPOLE    0.0957         C  3 -- H 14         +29.3% ( 56.0%)     97.7%
 TRAVEL      0.1215         C  3 -- H 15         +19.2% ( 45.4%)     95.2%
 RED. MASS   0.2650         C  2 -- H 12         +19.2% ( 45.4%)     95.2%
 EFF. MASS   1.5337

 VIBRATION   52   52A         ATOM PAIR      ENERGY CONTRIBUTION    RADIAL
 FREQ.      2984.39         C  4 -- H 17         +49.2% ( 72.6%)     96.9%
 T-DIPOLE    0.1542         C  4 -- H 16         +48.7% ( 72.3%)     96.8%
 TRAVEL      0.1215         C  4 -- C  9          +1.1% ( 10.7%)      0.0%
 RED. MASS   0.5172         C  4 -- C  6          +1.1% ( 10.7%)      0.0%
 EFF. MASS   1.5317

 VIBRATION   53   53A         ATOM PAIR      ENERGY CONTRIBUTION    RADIAL
 FREQ.      3051.38         C  2 -- H 12         +30.4% ( 54.4%)     98.6%
 T-DIPOLE    0.1296         C  3 -- H 15         +29.8% ( 53.9%)     98.6%
 TRAVEL      0.1315         C  2 -- H 13         +19.4% ( 43.4%)     95.8%
 RED. MASS   0.2520         C  3 -- H 14         +19.1% ( 43.1%)     95.8%
 EFF. MASS   1.2773

 VIBRATION   54   54A         ATOM PAIR      ENERGY CONTRIBUTION    RADIAL
 FREQ.      3052.36         C  3 -- H 15         +30.2% ( 54.3%)     98.5%
 T-DIPOLE    0.0395         C  2 -- H 12         +29.7% ( 53.8%)     98.5%
 TRAVEL      0.1307         C  3 -- H 14         +19.2% ( 43.2%)     95.6%
 RED. MASS   0.2490         C  2 -- H 13         +18.8% ( 42.8%)     95.6%
 EFF. MASS   1.2927

 VIBRATION   55   55A         ATOM PAIR      ENERGY CONTRIBUTION    RADIAL
 FREQ.      3052.77         C  4 -- H 16         +49.2% ( 69.4%)     97.3%
 T-DIPOLE    0.2897         C  4 -- H 17         +48.7% ( 69.0%)     97.2%
 TRAVEL      0.1309         C  4 -- C  9          +0.7% (  8.5%)     35.9%
 RED. MASS   0.4788         C  4 -- C  6          +0.7% (  8.5%)     35.4%
 EFF. MASS   1.2886

 VIBRATION   56   56A         ATOM PAIR      ENERGY CONTRIBUTION    RADIAL
 FREQ.      3116.07         C  7 -- H 18         +48.8% ( 70.9%)    100.0%
 T-DIPOLE    0.3708         C  8 -- H 19         +48.7% ( 70.8%)    100.0%
 TRAVEL      0.1217         C  7 -- C  8          +1.1% ( 10.7%)      0.0%
 RED. MASS   0.4647         C  2 -- C  7          +0.7% (  8.6%)     27.4%
 EFF. MASS   1.4620

 VIBRATION   57   57A         ATOM PAIR      ENERGY CONTRIBUTION    RADIAL
 FREQ.      3129.92         C 10 -- H 22         +75.3% ( 88.9%)    100.0%
 T-DIPOLE    0.4091         C  9 -- H 21         +19.5% ( 45.3%)    100.0%
 TRAVEL      0.1201         C  9 -- C 10          +1.3% ( 11.7%)      9.2%
 RED. MASS   0.6171         C  5 -- C 10          +1.3% ( 11.6%)     28.4%
 EFF. MASS   1.4939

 VIBRATION   58   58A         ATOM PAIR      ENERGY CONTRIBUTION    RADIAL
 FREQ.      3135.10         C  8 -- H 19         +47.7% ( 70.4%)     99.9%
 T-DIPOLE    0.3558         C  7 -- H 18         +47.6% ( 70.3%)     99.9%
 TRAVEL      0.1141         C  7 -- C  8          +2.5% ( 16.0%)    100.0%
 RED. MASS   0.4648         C  3 -- C  8          +0.9% (  9.9%)     20.6%
 EFF. MASS   1.6508

 VIBRATION   59   59A         ATOM PAIR      ENERGY CONTRIBUTION    RADIAL
 FREQ.      3141.69         C  6 -- H 20         +85.7% ( 94.9%)    100.0%
 T-DIPOLE    0.4983         C  9 -- H 21          +8.9% ( 30.6%)    100.0%
 TRAVEL      0.1180         C  5 -- C  6          +1.6% ( 12.8%)     48.9%
 RED. MASS   0.7646         C  4 -- C  6          +1.5% ( 12.4%)     25.9%
 EFF. MASS   1.5421

 VIBRATION   60   60A         ATOM PAIR      ENERGY CONTRIBUTION    RADIAL
 FREQ.      3151.74         C  9 -- H 21         +66.1% ( 83.6%)    100.0%
 T-DIPOLE    0.2872         C 10 -- H 22         +19.3% ( 45.1%)     99.9%
 TRAVEL      0.1140         C  6 -- H 20          +8.5% ( 29.9%)    100.0%
 RED. MASS   0.5083         C  9 -- C 10          +2.1% ( 14.9%)     91.9%
 EFF. MASS   1.6473

      SYMMETRY NUMBER FOR POINT-GROUP C1  =  1


          SYSTEM IS A GROUND STATE



 InChI=1S/C10H12/c1-2-6-9(5-1)10-7-3-4-8-10/h1-3,7-9H,4-6H2


          MOLECULE IS NOT LINEAR

          THERE ARE 60 GENUINE VIBRATIONS IN THIS SYSTEM
          THIS THERMODYNAMICS CALCULATION IS LIMITED TO
          MOLECULES WHICH HAVE NO INTERNAL ROTATIONS




                    CALCULATED THERMODYNAMIC PROPERTIES
                                          *
   TEMP. (K)   PARTITION FUNCTION   H.O.F.    ENTHALPY  HEAT CAPACITY ENTROPY
                                   KCAL/MOL   CAL/MOLE    CAL/K/MOL  CAL/K/MOL


 298.00  VIB.     0.1221D+03                  3570.9431    27.7538    21.5307
         ROT.     0.5789D+06                   888.2813     2.9808    29.3487
         INT.     0.7066D+08                  4459.2244    30.7346    50.8794
         TRA.     0.1470D+28                  1480.4688     4.9680    40.5480
         TOT.                       38.457    5939.6932    35.7027    91.4274

 200.00  VIB.     0.1849D+02                  1463.4724    15.7206    13.1146
         ROT.     0.3183D+06                   596.1620     2.9808    28.1600
         INT.     0.5885D+07                  2059.6344    18.7014    41.2747
         TRA.     0.8080D+27                   993.6033     4.9680    38.5668
         TOT.                       35.570    3053.2376    23.6695    79.8415

 210.00  VIB.     0.2224D+02                  1626.0146    16.7956    13.9074
         ROT.     0.3424D+06                   625.9700     2.9808    28.3055
         INT.     0.7617D+07                  2251.9847    19.7764    42.2129
         TRA.     0.8694D+27                  1043.2834     4.9680    38.8092
         TOT.                       35.812    3295.2681    24.7444    81.0221

 220.00  VIB.     0.2680D+02                  1799.5348    17.9158    14.7145
         ROT.     0.3672D+06                   655.7781     2.9808    28.4441
         INT.     0.9841D+07                  2455.3129    20.8966    43.1586
         TRA.     0.9322D+27                  1092.9636     4.9680    39.0403
         TOT.                       36.065    3548.2765    25.8646    82.1989

 230.00  VIB.     0.3234D+02                  1984.4702    19.0780    15.5363
         ROT.     0.3925D+06                   685.5862     2.9808    28.5767
         INT.     0.1269D+08                  2670.0565    22.0588    44.1130
         TRA.     0.9965D+27                  1142.6437     4.9680    39.2612
         TOT.                       36.330    3812.7002    27.0269    83.3742

 240.00  VIB.     0.3910D+02                  2181.2226    20.2784    16.3735
         ROT.     0.4184D+06                   715.3943     2.9808    28.7035
         INT.     0.1636D+08                  2896.6169    23.2592    45.0770
         TRA.     0.1062D+28                  1192.3239     4.9680    39.4726
         TOT.                       36.606    4088.9408    28.2273    84.5496

 250.00  VIB.     0.4735D+02                  2390.1513    21.5125    17.2262
         ROT.     0.4448D+06                   745.2024     2.9808    28.8252
         INT.     0.2106D+08                  3135.3538    24.4933    46.0514
         TRA.     0.1129D+28                  1242.0041     4.9680    39.6754
         TOT.                       36.895    4377.3578    29.4614    85.7269

 260.00  VIB.     0.5745D+02                  2611.5698    22.7756    18.0945
         ROT.     0.4718D+06                   775.0105     2.9808    28.9421
         INT.     0.2710D+08                  3386.5803    25.7564    47.0366
         TRA.     0.1198D+28                  1291.6842     4.9680    39.8703
         TOT.                       37.195    4678.2645    30.7244    86.9069

 270.00  VIB.     0.6985D+02                  2845.7432    24.0627    18.9781
         ROT.     0.4992D+06                   804.8186     2.9808    29.0546
         INT.     0.3487D+08                  3650.5618    27.0435    48.0327
         TRA.     0.1267D+28                  1341.3644     4.9680    40.0578
         TOT.                       37.509    4991.9262    32.0115    88.0905

 280.00  VIB.     0.8510D+02                  3092.8878    25.3690    19.8768
         ROT.     0.5272D+06                   834.6267     2.9808    29.1630
         INT.     0.4487D+08                  3927.5145    28.3498    49.0398
         TRA.     0.1338D+28                  1391.0445     4.9680    40.2384
         TOT.                       37.836    5318.5590    33.3179    89.2782

 290.00  VIB.     0.1039D+03                  3353.1719    26.6898    20.7900
         ROT.     0.5557D+06                   864.4348     2.9808    29.2676
         INT.     0.5774D+08                  4217.6067    29.6706    50.0576
         TRA.     0.1411D+28                  1440.7247     4.9680    40.4128
         TOT.                       38.176    5658.3314    34.6387    90.4704

 300.00  VIB.     0.1271D+03                  3626.7175    28.0206    21.7173
         ROT.     0.5847D+06                   894.2429     2.9808    29.3687
         INT.     0.7433D+08                  4520.9604    31.0014    51.0859
         TRA.     0.1484D+28                  1490.4049     4.9680    40.5812
         TOT.                       38.529    6011.3653    35.9694    91.6671

 310.00  VIB.     0.1559D+03                  3913.6023    29.3570    22.6578
         ROT.     0.6142D+06                   924.0510     2.9808    29.4664
         INT.     0.9573D+08                  4837.6533    32.3378    52.1242
         TRA.     0.1559D+28                  1540.0850     4.9680    40.7441
         TOT.                       38.895    6377.7384    37.3058    92.8683

 320.00  VIB.     0.1915D+03                  4213.8633    30.6952    23.6110
         ROT.     0.6441D+06                   953.8591     2.9808    29.5610
         INT.     0.1234D+09                  5167.7225    33.6760    53.1720
         TRA.     0.1635D+28                  1589.7652     4.9680    40.9018
         TOT.                       39.275    6757.4877    38.6440    94.0739

 330.00  VIB.     0.2358D+03                  4527.4996    32.0315    24.5760
         ROT.     0.6746D+06                   983.6672     2.9808    29.6528
         INT.     0.1591D+09                  5511.1668    35.0123    54.2288
         TRA.     0.1713D+28                  1639.4454     4.9680    41.0547
         TOT.                       39.668    7150.6122    39.9803    95.2835

 340.00  VIB.     0.2910D+03                  4854.4758    33.3627    25.5520
         ROT.     0.7055D+06                  1013.4753     2.9808    29.7417
         INT.     0.2053D+09                  5867.9511    36.3435    55.2938
         TRA.     0.1791D+28                  1689.1255     4.9680    41.2030
         TOT.                       40.074    7557.0766    41.3115    96.4968

 350.00  VIB.     0.3599D+03                  5194.7258    34.6858    26.5382
         ROT.     0.7368D+06                  1043.2834     2.9808    29.8282
         INT.     0.2652D+09                  6238.0092    37.6666    56.3664
         TRA.     0.1871D+28                  1738.8057     4.9680    41.3470
         TOT.                       40.494    7976.8149    42.6346    97.7134

 360.00  VIB.     0.4459D+03                  5548.1560    35.9983    27.5338
         ROT.     0.7686D+06                  1073.0915     2.9808    29.9121
         INT.     0.3427D+09                  6621.2475    38.9791    57.4459
         TRA.     0.1951D+28                  1788.4859     4.9680    41.4870
         TOT.                       40.927    8409.7333    43.9471    98.9329

 370.00  VIB.     0.5537D+03                  5914.6488    37.2980    28.5379
         ROT.     0.8009D+06                  1102.8996     2.9808    29.9938
         INT.     0.4434D+09                  7017.5484    40.2788    58.5317
         TRA.     0.2033D+28                  1838.1660     4.9680    41.6231
         TOT.                       41.373    8855.7145    45.2468   100.1548

 380.00  VIB.     0.6888D+03                  6294.0659    38.5828    29.5496
         ROT.     0.8336D+06                  1132.7077     2.9808    30.0733
         INT.     0.5742D+09                  7426.7736    41.5637    59.6229
         TRA.     0.2116D+28                  1887.8462     4.9680    41.7556
         TOT.                       41.832    9314.6198    46.5317   101.3785

 390.00  VIB.     0.8585D+03                  6686.2511    39.8513    30.5683
         ROT.     0.8667D+06                  1162.5158     2.9808    30.1507
         INT.     0.7441D+09                  7848.7669    42.8321    60.7190
         TRA.     0.2200D+28                  1937.5263     4.9680    41.8846
         TOT.                       42.303    9786.2932    47.8001   102.6036

 400.00  VIB.     0.1072D+04                  7091.0330    41.1020    31.5930
         ROT.     0.9002D+06                  1192.3239     2.9808    30.2262
         INT.     0.9651D+09                  8283.3569    44.0828    61.8192
         TRA.     0.2285D+28                  1987.2065     4.9680    42.0104
         TOT.                       42.788   10270.5634    49.0508   103.8296

   *: NOTE: HEATS OF FORMATION ARE RELATIVE TO THE
            ELEMENTS IN THEIR STANDARD STATE AT 298K
              (=  Standard Enthalpy of Formation).

            Hvib:  Zero-point energy is not included.
                   frequencies of less than zero cm-1 are not included.
            Hrot = (3/2)RT
            Htra = (3/2)RT + pV = (5/2)RT

            Heat capacity is Cp, not Cv

          For more information, see: HTTP://OpenMOPAC.net/Manual/thermochemistry.html


           FORCE CONSTANT IN CARTESIAN COORDINATES (Millidynes/A)

    ATOM   CHEMICAL       X               Y               Z
   NUMBER   SYMBOL  FORCE CONSTANT  FORCE CONSTANT  FORCE CONSTANT

      1       C        7.736813        8.446872        9.087095
      2       C        7.600800        9.344470        8.148457
      3       C        9.592936        7.351910        8.148038
      4       C        8.564016        9.126923        7.931219
      5       C        7.164006       10.394035       11.122441
      6       C        6.625795        9.844584       10.328127
      7       C       14.525199       10.473633        2.421250
      8       C       11.891836       13.119078        2.421559
      9       C        5.510216        7.886631       13.416732
     10       C        6.841657       10.308429       10.208187
     11       H        1.144474        1.466540        3.439140
     12       H        1.276586        1.942772        3.188791
     13       H        1.325323        1.213502        3.847337
     14       H        1.519289        1.018657        3.848178
     15       H        2.339398        0.880318        3.187839
     16       H        4.908904        0.624831        0.737003
     17       H        1.056210        4.476895        0.739126
     18       H        4.971514        1.065150        0.386772
     19       H        0.710217        5.325498        0.387079
     20       H        1.055721        1.599657        3.804336
     21       H        0.468698        0.568025        5.427137
     22       H        2.050282        3.324223        1.066126

 **********************
 *                    *
 * JOB ENDED NORMALLY *
 *                    *
 **********************



 TOTAL JOB TIME:             2.13 SECONDS

 == MOPAC DONE ==
