 *******************************************************************************
 ** Site#: 14399        For non-commercial use only    Version 18.184L 64BITS **
 *******************************************************************************
 ** Cite this program as: MOPAC2016, Version: 18.184L, James J. P. Stewart,   **
 ** Stewart Computational Chemistry, web: HTTP://OpenMOPAC.net. Days left:  18**
 *******************************************************************************
 **                                                                           **
 **                                MOPAC2016                                  **
 **                                                                           **
 *******************************************************************************

                              PM3 CALCULATION RESULTS

 *******************************************************************************
 *  CALCULATION DONE:                                Sat Jun 15 12:52:58 2019  *
 *  PM3        - The PM3 Hamiltonian to be used
 *  PRECISE    - CRITERIA TO BE INCREASED BY 100 TIMES
 *  NOSYM      - POINT-GROUP SYMMETRY SET TO C1
 *  THREADS=1  - MULTI-THREADING NOT USED
 *  T=         - A TIME OF 172800.0 SECONDS REQUESTED
 *  DUMP=N     - RESTART FILE WRITTEN EVERY  7200.000 SECONDS
 *******************************************************************************
pm3  precise nosym THREADS=1
 InChI=1S/C7H12O2/c1-6(9-8)2-3-7-4-5-7/h2-3,6-8H,4-5H2,1H3

   ATOM   CHEMICAL          X               Y               Z
  NUMBER   SYMBOL      (ANGSTROMS)     (ANGSTROMS)     (ANGSTROMS)
 
     1       O         -2.86130000  *  -0.00660000  *   0.71210000  *
     2       O         -2.98780000  *  -1.31840000  *   0.61460000  *
     3       C          1.70530000  *  -1.00500000  *   0.21380000  *
     4       C          2.83380000  *  -0.98020000  *  -0.80480000  *
     5       C          2.66280000  *   0.17730000  *   0.16340000  *
     6       C         -1.89270000  *   0.37740000  *  -0.23520000  *
     7       C         -2.02910000  *   1.87410000  *  -0.50080000  *
     8       C          0.34260000  *  -0.71760000  *  -0.34780000  *
     9       C         -0.51160000  *   0.08650000  *   0.30000000  *
    10       H          1.82780000  *  -1.67440000  *   1.09160000  *
    11       H          3.68610000  *  -1.64920000  *  -0.56160000  *
    12       H          2.54420000  *  -0.73880000  *  -1.85050000  *
    13       H          3.41750000  *   0.19580000  *   0.97770000  *
    14       H          2.27600000  *   1.10480000  *  -0.31220000  *
    15       H         -2.06650000  *  -0.14510000  *  -1.20690000  *
    16       H         -3.04110000  *   2.09360000  *  -0.90270000  *
    17       H         -1.88620000  *   2.45230000  *   0.43770000  *
    18       H         -1.27480000  *   2.20220000  *  -1.24810000  *
    19       H          0.04780000  *  -1.19780000  *  -1.27670000  *
    20       H         -0.21130000  *   0.54460000  *   1.23930000  *
    21       H         -2.58160000  *  -1.67560000  *   1.44580000  *
 


          CARTESIAN COORDINATES 

    NO.       ATOM           X           Y           Z

     1         O         -2.8613     -0.0066      0.7121
     2         O         -2.9878     -1.3184      0.6146
     3         C          1.7053     -1.0050      0.2138
     4         C          2.8338     -0.9802     -0.8048
     5         C          2.6628      0.1773      0.1634
     6         C         -1.8927      0.3774     -0.2352
     7         C         -2.0291      1.8741     -0.5008
     8         C          0.3426     -0.7176     -0.3478
     9         C         -0.5116      0.0865      0.3000
    10         H          1.8278     -1.6744      1.0916
    11         H          3.6861     -1.6492     -0.5616
    12         H          2.5442     -0.7388     -1.8505
    13         H          3.4175      0.1958      0.9777
    14         H          2.2760      1.1048     -0.3122
    15         H         -2.0665     -0.1451     -1.2069
    16         H         -3.0411      2.0936     -0.9027
    17         H         -1.8862      2.4523      0.4377
    18         H         -1.2748      2.2022     -1.2481
    19         H          0.0478     -1.1978     -1.2767
    20         H         -0.2113      0.5446      1.2393
    21         H         -2.5816     -1.6756      1.4458

  H: (PM3): J. J. P. STEWART, J. COMP. CHEM. 10, 209 (1989).
  C: (PM3): J. J. P. STEWART, J. COMP. CHEM. 10, 209 (1989).
  O: (PM3): J. J. P. STEWART, J. COMP. CHEM. 10, 209 (1989).

           Empirical Formula: C7 H12 O2  =    21 atoms



      MOLECULAR POINT GROUP   :   C1  


      RHF CALCULATION, NO. OF DOUBLY OCCUPIED LEVELS = 26


          Geometry optimization using EF

          DIAGONAL MATRIX USED AS START HESSIAN

 CYCLE:     1 TIME:   0.004 TIME LEFT:  2.00D  GRAD.:   187.179 HEAT:  16.01576
 CYCLE:     2 TIME:   0.008 TIME LEFT:  2.00D  GRAD.:   211.282 HEAT:  10.88794
 CYCLE:     3 TIME:   0.008 TIME LEFT:  2.00D  GRAD.:    87.377 HEAT:  4.047686
 CYCLE:     4 TIME:   0.008 TIME LEFT:  2.00D  GRAD.:    89.302 HEAT:  2.561720
 CYCLE:     5 TIME:   0.004 TIME LEFT:  2.00D  GRAD.:    68.574 HEAT:  1.366194
 CYCLE:     6 TIME:   0.004 TIME LEFT:  2.00D  GRAD.:    70.575 HEAT: 0.9696880
 CYCLE:     7 TIME:   0.004 TIME LEFT:  2.00D  GRAD.:    63.842 HEAT: 0.3093475
 CYCLE:     8 TIME:   0.008 TIME LEFT:  2.00D  GRAD.:    32.704 HEAT:-0.6084071
 CYCLE:     9 TIME:   0.008 TIME LEFT:  2.00D  GRAD.:    20.714 HEAT:-0.8534221
 CYCLE:    10 TIME:   0.004 TIME LEFT:  2.00D  GRAD.:    25.251 HEAT:-0.9410321
 CYCLE:    11 TIME:   0.004 TIME LEFT:  2.00D  GRAD.:    17.043 HEAT: -1.100296
 CYCLE:    12 TIME:   0.008 TIME LEFT:  2.00D  GRAD.:    14.728 HEAT: -1.156089
 CYCLE:    13 TIME:   0.004 TIME LEFT:  2.00D  GRAD.:    13.804 HEAT: -1.211002
 CYCLE:    14 TIME:   0.008 TIME LEFT:  2.00D  GRAD.:    14.340 HEAT: -1.246768
 CYCLE:    15 TIME:   0.004 TIME LEFT:  2.00D  GRAD.:    12.118 HEAT: -1.288641
 CYCLE:    16 TIME:   0.004 TIME LEFT:  2.00D  GRAD.:    12.267 HEAT: -1.324878
 CYCLE:    17 TIME:   0.004 TIME LEFT:  2.00D  GRAD.:    11.615 HEAT: -1.350927
 CYCLE:    18 TIME:   0.004 TIME LEFT:  2.00D  GRAD.:    13.026 HEAT: -1.370154
 CYCLE:    19 TIME:   0.004 TIME LEFT:  2.00D  GRAD.:    14.902 HEAT: -1.374218
 CYCLE:    20 TIME:   0.004 TIME LEFT:  2.00D  GRAD.:     9.267 HEAT: -1.426549
 CYCLE:    21 TIME:   0.008 TIME LEFT:  2.00D  GRAD.:     7.750 HEAT: -1.446403
 CYCLE:    22 TIME:   0.004 TIME LEFT:  2.00D  GRAD.:     5.658 HEAT: -1.466734
 CYCLE:    23 TIME:   0.004 TIME LEFT:  2.00D  GRAD.:     5.397 HEAT: -1.488514
 CYCLE:    24 TIME:   0.008 TIME LEFT:  2.00D  GRAD.:     5.091 HEAT: -1.525474
 CYCLE:    25 TIME:   0.004 TIME LEFT:  2.00D  GRAD.:     5.427 HEAT: -1.564600
 CYCLE:    26 TIME:   0.004 TIME LEFT:  2.00D  GRAD.:     9.193 HEAT: -1.574534
 CYCLE:    27 TIME:   0.004 TIME LEFT:  2.00D  GRAD.:     3.709 HEAT: -1.605135
 CYCLE:    28 TIME:   0.004 TIME LEFT:  2.00D  GRAD.:     3.169 HEAT: -1.619911
 CYCLE:    29 TIME:   0.004 TIME LEFT:  2.00D  GRAD.:     4.296 HEAT: -1.649527
 CYCLE:    30 TIME:   0.004 TIME LEFT:  2.00D  GRAD.:     4.319 HEAT: -1.680355
 CYCLE:    31 TIME:   0.004 TIME LEFT:  2.00D  GRAD.:     3.868 HEAT: -1.697686
 CYCLE:    32 TIME:   0.008 TIME LEFT:  2.00D  GRAD.:     4.454 HEAT: -1.726335
 CYCLE:    33 TIME:   0.004 TIME LEFT:  2.00D  GRAD.:     6.927 HEAT: -1.778691
 CYCLE:    34 TIME:   0.004 TIME LEFT:  2.00D  GRAD.:     6.442 HEAT: -1.823742
 CYCLE:    35 TIME:   0.004 TIME LEFT:  2.00D  GRAD.:     8.755 HEAT: -1.850308
 CYCLE:    36 TIME:   0.004 TIME LEFT:  2.00D  GRAD.:     7.012 HEAT: -1.882029
 CYCLE:    37 TIME:   0.004 TIME LEFT:  2.00D  GRAD.:    10.958 HEAT: -1.906760
 CYCLE:    38 TIME:   0.004 TIME LEFT:  2.00D  GRAD.:     6.219 HEAT: -1.955114
 CYCLE:    39 TIME:   0.008 TIME LEFT:  2.00D  GRAD.:     7.622 HEAT: -2.000943
 CYCLE:    40 TIME:   0.004 TIME LEFT:  2.00D  GRAD.:     4.363 HEAT: -2.033756
 CYCLE:    41 TIME:   0.004 TIME LEFT:  2.00D  GRAD.:     7.174 HEAT: -2.059551
 CYCLE:    42 TIME:   0.004 TIME LEFT:  2.00D  GRAD.:     4.264 HEAT: -2.077306
 CYCLE:    43 TIME:   0.004 TIME LEFT:  2.00D  GRAD.:     3.295 HEAT: -2.093250
 CYCLE:    44 TIME:   0.004 TIME LEFT:  2.00D  GRAD.:     3.785 HEAT: -2.104408
 CYCLE:    45 TIME:   0.004 TIME LEFT:  2.00D  GRAD.:     3.895 HEAT: -2.115017
 CYCLE:    46 TIME:   0.008 TIME LEFT:  2.00D  GRAD.:     2.697 HEAT: -2.124774
 CYCLE:    47 TIME:   0.004 TIME LEFT:  2.00D  GRAD.:     4.167 HEAT: -2.136849
 CYCLE:    48 TIME:   0.004 TIME LEFT:  2.00D  GRAD.:     3.815 HEAT: -2.141672
 CYCLE:    49 TIME:   0.004 TIME LEFT:  2.00D  GRAD.:     2.013 HEAT: -2.151652
 CYCLE:    50 TIME:   0.004 TIME LEFT:  2.00D  GRAD.:     3.531 HEAT: -2.164409
 CYCLE:    51 TIME:   0.004 TIME LEFT:  2.00D  GRAD.:     3.370 HEAT: -2.172423
 CYCLE:    52 TIME:   0.004 TIME LEFT:  2.00D  GRAD.:     3.255 HEAT: -2.185049
 CYCLE:    53 TIME:   0.008 TIME LEFT:  2.00D  GRAD.:     3.420 HEAT: -2.194167
 CYCLE:    54 TIME:   0.004 TIME LEFT:  2.00D  GRAD.:     2.569 HEAT: -2.205375
 CYCLE:    55 TIME:   0.004 TIME LEFT:  2.00D  GRAD.:     3.159 HEAT: -2.229067
 CYCLE:    56 TIME:   0.004 TIME LEFT:  2.00D  GRAD.:     2.877 HEAT: -2.252263
 CYCLE:    57 TIME:   0.004 TIME LEFT:  2.00D  GRAD.:     9.366 HEAT: -2.264265
 CYCLE:    58 TIME:   0.004 TIME LEFT:  2.00D  GRAD.:     6.522 HEAT: -2.287036
 CYCLE:    59 TIME:   0.004 TIME LEFT:  2.00D  GRAD.:     2.604 HEAT: -2.306014
 CYCLE:    60 TIME:   0.004 TIME LEFT:  2.00D  GRAD.:     3.979 HEAT: -2.321424
 CYCLE:    61 TIME:   0.004 TIME LEFT:  2.00D  GRAD.:     3.896 HEAT: -2.337613
 CYCLE:    62 TIME:   0.008 TIME LEFT:  2.00D  GRAD.:     3.661 HEAT: -2.352289
 CYCLE:    63 TIME:   0.004 TIME LEFT:  2.00D  GRAD.:     1.605 HEAT: -2.358289
 CYCLE:    64 TIME:   0.004 TIME LEFT:  2.00D  GRAD.:     1.372 HEAT: -2.365175
 CYCLE:    65 TIME:   0.004 TIME LEFT:  2.00D  GRAD.:     1.332 HEAT: -2.371412
 CYCLE:    66 TIME:   0.004 TIME LEFT:  2.00D  GRAD.:     1.583 HEAT: -2.378334
 CYCLE:    67 TIME:   0.004 TIME LEFT:  2.00D  GRAD.:     1.720 HEAT: -2.383806
 CYCLE:    68 TIME:   0.004 TIME LEFT:  2.00D  GRAD.:     2.388 HEAT: -2.392556
 CYCLE:    69 TIME:   0.008 TIME LEFT:  2.00D  GRAD.:     2.084 HEAT: -2.400158
 CYCLE:    70 TIME:   0.004 TIME LEFT:  2.00D  GRAD.:     6.208 HEAT: -2.417722
 CYCLE:    71 TIME:   0.004 TIME LEFT:  2.00D  GRAD.:     5.269 HEAT: -2.424837
 CYCLE:    72 TIME:   0.004 TIME LEFT:  2.00D  GRAD.:     1.997 HEAT: -2.436585
 CYCLE:    73 TIME:   0.004 TIME LEFT:  2.00D  GRAD.:     2.538 HEAT: -2.444918
 CYCLE:    74 TIME:   0.008 TIME LEFT:  2.00D  GRAD.:     2.766 HEAT: -2.451728
 CYCLE:    75 TIME:   0.004 TIME LEFT:  2.00D  GRAD.:     1.646 HEAT: -2.460476
 CYCLE:    76 TIME:   0.004 TIME LEFT:  2.00D  GRAD.:     1.419 HEAT: -2.463977
 CYCLE:    77 TIME:   0.004 TIME LEFT:  2.00D  GRAD.:     1.228 HEAT: -2.469677
 CYCLE:    78 TIME:   0.004 TIME LEFT:  2.00D  GRAD.:     1.051 HEAT: -2.471413
 CYCLE:    79 TIME:   0.004 TIME LEFT:  2.00D  GRAD.:     0.620 HEAT: -2.473203
 CYCLE:    80 TIME:   0.004 TIME LEFT:  2.00D  GRAD.:     0.884 HEAT: -2.474299
 CYCLE:    81 TIME:   0.008 TIME LEFT:  2.00D  GRAD.:     0.545 HEAT: -2.475239
 CYCLE:    82 TIME:   0.004 TIME LEFT:  2.00D  GRAD.:     0.536 HEAT: -2.476037
 CYCLE:    83 TIME:   0.004 TIME LEFT:  2.00D  GRAD.:     0.631 HEAT: -2.477033
 CYCLE:    84 TIME:   0.004 TIME LEFT:  2.00D  GRAD.:     0.826 HEAT: -2.478609
 CYCLE:    85 TIME:   0.004 TIME LEFT:  2.00D  GRAD.:     1.034 HEAT: -2.481487
 CYCLE:    86 TIME:   0.004 TIME LEFT:  2.00D  GRAD.:     0.991 HEAT: -2.484995
 CYCLE:    87 TIME:   0.008 TIME LEFT:  2.00D  GRAD.:     0.729 HEAT: -2.486689
 CYCLE:    88 TIME:   0.004 TIME LEFT:  2.00D  GRAD.:     0.926 HEAT: -2.488967
 CYCLE:    89 TIME:   0.004 TIME LEFT:  2.00D  GRAD.:     1.123 HEAT: -2.491095
 CYCLE:    90 TIME:   0.004 TIME LEFT:  2.00D  GRAD.:     1.654 HEAT: -2.498220
 CYCLE:    91 TIME:   0.004 TIME LEFT:  2.00D  GRAD.:     3.361 HEAT: -2.508318
 CYCLE:    92 TIME:   0.004 TIME LEFT:  2.00D  GRAD.:     3.140 HEAT: -2.516258
 CYCLE:    93 TIME:   0.004 TIME LEFT:  2.00D  GRAD.:     1.379 HEAT: -2.528686
 CYCLE:    94 TIME:   0.008 TIME LEFT:  2.00D  GRAD.:     4.406 HEAT: -2.532374
 CYCLE:    95 TIME:   0.004 TIME LEFT:  2.00D  GRAD.:     1.770 HEAT: -2.540603
 CYCLE:    96 TIME:   0.004 TIME LEFT:  2.00D  GRAD.:     1.436 HEAT: -2.546310
 CYCLE:    97 TIME:   0.004 TIME LEFT:  2.00D  GRAD.:     2.510 HEAT: -2.551253
 CYCLE:    98 TIME:   0.004 TIME LEFT:  2.00D  GRAD.:     1.463 HEAT: -2.555796
 CYCLE:    99 TIME:   0.004 TIME LEFT:  2.00D  GRAD.:     1.407 HEAT: -2.564479
 CYCLE:   100 TIME:   0.004 TIME LEFT:  2.00D  GRAD.:     1.759 HEAT: -2.570443
 CYCLE:   101 TIME:   0.008 TIME LEFT:  2.00D  GRAD.:     1.808 HEAT: -2.578113
 CYCLE:   102 TIME:   0.004 TIME LEFT:  2.00D  GRAD.:     2.336 HEAT: -2.582825
 CYCLE:   103 TIME:   0.004 TIME LEFT:  2.00D  GRAD.:     5.057 HEAT: -2.584118
 CYCLE:   104 TIME:   0.004 TIME LEFT:  2.00D  GRAD.:     3.165 HEAT: -2.592232
 CYCLE:   105 TIME:   0.004 TIME LEFT:  2.00D  GRAD.:     1.570 HEAT: -2.597534
 CYCLE:   106 TIME:   0.004 TIME LEFT:  2.00D  GRAD.:     1.779 HEAT: -2.603784
 CYCLE:   107 TIME:   0.004 TIME LEFT:  2.00D  GRAD.:     3.226 HEAT: -2.614704
 CYCLE:   108 TIME:   0.004 TIME LEFT:  2.00D  GRAD.:     2.649 HEAT: -2.628211
 CYCLE:   109 TIME:   0.008 TIME LEFT:  2.00D  GRAD.:     6.693 HEAT: -2.634380
 CYCLE:   110 TIME:   0.004 TIME LEFT:  2.00D  GRAD.:     2.970 HEAT: -2.658500
 CYCLE:   111 TIME:   0.004 TIME LEFT:  2.00D  GRAD.:     2.367 HEAT: -2.667642
 CYCLE:   112 TIME:   0.004 TIME LEFT:  2.00D  GRAD.:     5.343 HEAT: -2.666999
 CYCLE:   113 TIME:   0.004 TIME LEFT:  2.00D  GRAD.:     1.883 HEAT: -2.679496
 CYCLE:   114 TIME:   0.004 TIME LEFT:  2.00D  GRAD.:     1.437 HEAT: -2.686130
 CYCLE:   115 TIME:   0.008 TIME LEFT:  2.00D  GRAD.:     1.749 HEAT: -2.697264
 CYCLE:   116 TIME:   0.004 TIME LEFT:  2.00D  GRAD.:     2.343 HEAT: -2.701842
 CYCLE:   117 TIME:   0.004 TIME LEFT:  2.00D  GRAD.:     2.324 HEAT: -2.707833
 CYCLE:   118 TIME:   0.004 TIME LEFT:  2.00D  GRAD.:     1.245 HEAT: -2.712302
 CYCLE:   119 TIME:   0.004 TIME LEFT:  2.00D  GRAD.:     1.108 HEAT: -2.715022
 CYCLE:   120 TIME:   0.004 TIME LEFT:  2.00D  GRAD.:     0.935 HEAT: -2.715875
 CYCLE:   121 TIME:   0.004 TIME LEFT:  2.00D  GRAD.:     0.947 HEAT: -2.716854
 CYCLE:   122 TIME:   0.008 TIME LEFT:  2.00D  GRAD.:     1.016 HEAT: -2.719858
 CYCLE:   123 TIME:   0.004 TIME LEFT:  2.00D  GRAD.:     1.365 HEAT: -2.721842
 CYCLE:   124 TIME:   0.004 TIME LEFT:  2.00D  GRAD.:     1.451 HEAT: -2.726015
 CYCLE:   125 TIME:   0.004 TIME LEFT:  2.00D  GRAD.:     1.607 HEAT: -2.729686
 CYCLE:   126 TIME:   0.004 TIME LEFT:  2.00D  GRAD.:     2.397 HEAT: -2.746898
 CYCLE:   127 TIME:   0.004 TIME LEFT:  2.00D  GRAD.:     1.943 HEAT: -2.754700
 CYCLE:   128 TIME:   0.004 TIME LEFT:  2.00D  GRAD.:     2.079 HEAT: -2.766324
 CYCLE:   129 TIME:   0.008 TIME LEFT:  2.00D  GRAD.:     4.716 HEAT: -2.761215
 CYCLE:   130 TIME:   0.004 TIME LEFT:  2.00D  GRAD.:     1.915 HEAT: -2.773971
 CYCLE:   131 TIME:   0.004 TIME LEFT:  2.00D  GRAD.:     1.565 HEAT: -2.776821
 CYCLE:   132 TIME:   0.004 TIME LEFT:  2.00D  GRAD.:     0.969 HEAT: -2.781709
 CYCLE:   133 TIME:   0.004 TIME LEFT:  2.00D  GRAD.:     0.773 HEAT: -2.782586
 CYCLE:   134 TIME:   0.004 TIME LEFT:  2.00D  GRAD.:     0.796 HEAT: -2.783761
 CYCLE:   135 TIME:   0.004 TIME LEFT:  2.00D  GRAD.:     0.678 HEAT: -2.784191
 CYCLE:   136 TIME:   0.004 TIME LEFT:  2.00D  GRAD.:     0.855 HEAT: -2.785137
 CYCLE:   137 TIME:   0.008 TIME LEFT:  2.00D  GRAD.:     0.813 HEAT: -2.785660
 CYCLE:   138 TIME:   0.004 TIME LEFT:  2.00D  GRAD.:     1.217 HEAT: -2.788476
 CYCLE:   139 TIME:   0.004 TIME LEFT:  2.00D  GRAD.:     1.113 HEAT: -2.790487
 CYCLE:   140 TIME:   0.004 TIME LEFT:  2.00D  GRAD.:     4.202 HEAT: -2.789432
 CYCLE:   141 TIME:   0.004 TIME LEFT:  2.00D  GRAD.:     1.020 HEAT: -2.800089
 CYCLE:   142 TIME:   0.004 TIME LEFT:  2.00D  GRAD.:     1.012 HEAT: -2.803347
 CYCLE:   143 TIME:   0.004 TIME LEFT:  2.00D  GRAD.:     6.560 HEAT: -2.806137
 CYCLE:   144 TIME:   0.008 TIME LEFT:  2.00D  GRAD.:     2.014 HEAT: -2.822696
 CYCLE:   145 TIME:   0.004 TIME LEFT:  2.00D  GRAD.:     2.478 HEAT: -2.828094
 CYCLE:   146 TIME:   0.004 TIME LEFT:  2.00D  GRAD.:     3.930 HEAT: -2.839447
 CYCLE:   147 TIME:   0.004 TIME LEFT:  2.00D  GRAD.:     3.522 HEAT: -2.855636
 CYCLE:   148 TIME:   0.004 TIME LEFT:  2.00D  GRAD.:     3.229 HEAT: -2.866969
 CYCLE:   149 TIME:   0.004 TIME LEFT:  2.00D  GRAD.:     1.909 HEAT: -2.873580
 CYCLE:   150 TIME:   0.008 TIME LEFT:  2.00D  GRAD.:     5.278 HEAT: -2.874098
 CYCLE:   151 TIME:   0.004 TIME LEFT:  2.00D  GRAD.:     0.858 HEAT: -2.880962
 CYCLE:   152 TIME:   0.004 TIME LEFT:  2.00D  GRAD.:     2.265 HEAT: -2.882602
 CYCLE:   153 TIME:   0.004 TIME LEFT:  2.00D  GRAD.:     2.207 HEAT: -2.885339
 CYCLE:   154 TIME:   0.004 TIME LEFT:  2.00D  GRAD.:     1.935 HEAT: -2.887119
 CYCLE:   155 TIME:   0.004 TIME LEFT:  2.00D  GRAD.:     1.670 HEAT: -2.892744
 CYCLE:   156 TIME:   0.004 TIME LEFT:  2.00D  GRAD.:     1.479 HEAT: -2.896415
 CYCLE:   157 TIME:   0.008 TIME LEFT:  2.00D  GRAD.:     1.875 HEAT: -2.899611
 CYCLE:   158 TIME:   0.004 TIME LEFT:  2.00D  GRAD.:     2.608 HEAT: -2.897730
 CYCLE:   159 TIME:   0.004 TIME LEFT:  2.00D  GRAD.:     1.366 HEAT: -2.901420
 CYCLE:   160 TIME:   0.004 TIME LEFT:  2.00D  GRAD.:     1.702 HEAT: -2.902204
 CYCLE:   161 TIME:   0.004 TIME LEFT:  2.00D  GRAD.:     1.956 HEAT: -2.904214
 CYCLE:   162 TIME:   0.004 TIME LEFT:  2.00D  GRAD.:     1.673 HEAT: -2.908198
 CYCLE:   163 TIME:   0.004 TIME LEFT:  2.00D  GRAD.:     2.568 HEAT: -2.910863
 CYCLE:   164 TIME:   0.004 TIME LEFT:  2.00D  GRAD.:     2.515 HEAT: -2.917733
 CYCLE:   165 TIME:   0.008 TIME LEFT:  2.00D  GRAD.:     3.772 HEAT: -2.916182
 CYCLE:   166 TIME:   0.004 TIME LEFT:  2.00D  GRAD.:     4.722 HEAT: -2.918190
 CYCLE:   167 TIME:   0.004 TIME LEFT:  2.00D  GRAD.:     2.651 HEAT: -2.923978
 CYCLE:   168 TIME:   0.004 TIME LEFT:  2.00D  GRAD.:     1.229 HEAT: -2.928447
 CYCLE:   169 TIME:   0.004 TIME LEFT:  2.00D  GRAD.:     1.942 HEAT: -2.931159
 CYCLE:   170 TIME:   0.004 TIME LEFT:  2.00D  GRAD.:     1.699 HEAT: -2.934864
 CYCLE:   171 TIME:   0.008 TIME LEFT:  2.00D  GRAD.:     2.346 HEAT: -2.942177
 CYCLE:   172 TIME:   0.004 TIME LEFT:  2.00D  GRAD.:     3.871 HEAT: -2.943447
 CYCLE:   173 TIME:   0.004 TIME LEFT:  2.00D  GRAD.:     2.303 HEAT: -2.949922
 CYCLE:   174 TIME:   0.004 TIME LEFT:  2.00D  GRAD.:     1.851 HEAT: -2.952870
 CYCLE:   175 TIME:   0.004 TIME LEFT:  2.00D  GRAD.:     1.304 HEAT: -2.957694
 CYCLE:   176 TIME:   0.004 TIME LEFT:  2.00D  GRAD.:     1.110 HEAT: -2.959266
 CYCLE:   177 TIME:   0.008 TIME LEFT:  2.00D  GRAD.:     1.070 HEAT: -2.960368
 CYCLE:   178 TIME:   0.004 TIME LEFT:  2.00D  GRAD.:     1.045 HEAT: -2.961541
 CYCLE:   179 TIME:   0.004 TIME LEFT:  2.00D  GRAD.:     1.447 HEAT: -2.963180
 CYCLE:   180 TIME:   0.004 TIME LEFT:  2.00D  GRAD.:     1.356 HEAT: -2.964125
 CYCLE:   181 TIME:   0.004 TIME LEFT:  2.00D  GRAD.:     1.072 HEAT: -2.964913
 CYCLE:   182 TIME:   0.004 TIME LEFT:  2.00D  GRAD.:     1.528 HEAT: -2.965815
 CYCLE:   183 TIME:   0.008 TIME LEFT:  2.00D  GRAD.:     0.966 HEAT: -2.966880
 CYCLE:   184 TIME:   0.004 TIME LEFT:  2.00D  GRAD.:     0.961 HEAT: -2.968942
 CYCLE:   185 TIME:   0.004 TIME LEFT:  2.00D  GRAD.:     1.511 HEAT: -2.971521
 CYCLE:   186 TIME:   0.004 TIME LEFT:  2.00D  GRAD.:     2.586 HEAT: -2.973687
 CYCLE:   187 TIME:   0.004 TIME LEFT:  2.00D  GRAD.:     2.155 HEAT: -2.976111
 CYCLE:   188 TIME:   0.004 TIME LEFT:  2.00D  GRAD.:     2.578 HEAT: -2.978634
 CYCLE:   189 TIME:   0.004 TIME LEFT:  2.00D  GRAD.:     1.836 HEAT: -2.980585
 CYCLE:   190 TIME:   0.008 TIME LEFT:  2.00D  GRAD.:     1.083 HEAT: -2.984182
 CYCLE:   191 TIME:   0.004 TIME LEFT:  2.00D  GRAD.:     1.085 HEAT: -2.986921
 CYCLE:   192 TIME:   0.004 TIME LEFT:  2.00D  GRAD.:     1.333 HEAT: -2.990841
 CYCLE:   193 TIME:   0.004 TIME LEFT:  2.00D  GRAD.:     1.516 HEAT: -2.992023
 CYCLE:   194 TIME:   0.004 TIME LEFT:  2.00D  GRAD.:     1.840 HEAT: -2.993183
 CYCLE:   195 TIME:   0.008 TIME LEFT:  2.00D  GRAD.:     1.228 HEAT: -2.994284
 CYCLE:   196 TIME:   0.004 TIME LEFT:  2.00D  GRAD.:     1.464 HEAT: -2.996255
 CYCLE:   197 TIME:   0.004 TIME LEFT:  2.00D  GRAD.:     0.868 HEAT: -2.997453
 CYCLE:   198 TIME:   0.004 TIME LEFT:  2.00D  GRAD.:     1.614 HEAT: -2.999251
 CYCLE:   199 TIME:   0.004 TIME LEFT:  2.00D  GRAD.:     2.016 HEAT: -3.001534
 CYCLE:   200 TIME:   0.004 TIME LEFT:  2.00D  GRAD.:     1.868 HEAT: -3.003610
 CYCLE:   201 TIME:   0.004 TIME LEFT:  2.00D  GRAD.:     1.874 HEAT: -3.005739
 CYCLE:   202 TIME:   0.008 TIME LEFT:  2.00D  GRAD.:     2.186 HEAT: -3.010346
 CYCLE:   203 TIME:   0.004 TIME LEFT:  2.00D  GRAD.:     2.933 HEAT: -3.010130
 CYCLE:   204 TIME:   0.004 TIME LEFT:  2.00D  GRAD.:     1.394 HEAT: -3.015076
 CYCLE:   205 TIME:   0.004 TIME LEFT:  2.00D  GRAD.:     1.630 HEAT: -3.017529
 CYCLE:   206 TIME:   0.008 TIME LEFT:  2.00D  GRAD.:     2.421 HEAT: -3.020760
 CYCLE:   207 TIME:   0.004 TIME LEFT:  2.00D  GRAD.:     2.190 HEAT: -3.023112
 CYCLE:   208 TIME:   0.004 TIME LEFT:  2.00D  GRAD.:     2.836 HEAT: -3.025670
 CYCLE:   209 TIME:   0.004 TIME LEFT:  2.00D  GRAD.:     3.001 HEAT: -3.029084
 CYCLE:   210 TIME:   0.008 TIME LEFT:  2.00D  GRAD.:     1.976 HEAT: -3.030244
 CYCLE:   211 TIME:   0.004 TIME LEFT:  2.00D  GRAD.:     1.110 HEAT: -3.033271
 CYCLE:   212 TIME:   0.004 TIME LEFT:  2.00D  GRAD.:     2.722 HEAT: -3.034576
 CYCLE:   213 TIME:   0.004 TIME LEFT:  2.00D  GRAD.:     1.470 HEAT: -3.036111
 CYCLE:   214 TIME:   0.004 TIME LEFT:  2.00D  GRAD.:     0.691 HEAT: -3.037287
 CYCLE:   215 TIME:   0.004 TIME LEFT:  2.00D  GRAD.:     0.919 HEAT: -3.037698
 CYCLE:   216 TIME:   0.004 TIME LEFT:  2.00D  GRAD.:     0.814 HEAT: -3.037997
 CYCLE:   217 TIME:   0.008 TIME LEFT:  2.00D  GRAD.:     0.963 HEAT: -3.038355
 CYCLE:   218 TIME:   0.004 TIME LEFT:  2.00D  GRAD.:     0.563 HEAT: -3.039071
 CYCLE:   219 TIME:   0.004 TIME LEFT:  2.00D  GRAD.:     0.606 HEAT: -3.039580
 CYCLE:   220 TIME:   0.004 TIME LEFT:  2.00D  GRAD.:     0.603 HEAT: -3.040306
 CYCLE:   221 TIME:   0.004 TIME LEFT:  2.00D  GRAD.:     0.754 HEAT: -3.040937
 CYCLE:   222 TIME:   0.008 TIME LEFT:  2.00D  GRAD.:     1.846 HEAT: -3.039963
 CYCLE:   223 TIME:   0.004 TIME LEFT:  2.00D  GRAD.:     0.592 HEAT: -3.041846
 CYCLE:   224 TIME:   0.004 TIME LEFT:  2.00D  GRAD.:     0.657 HEAT: -3.042256
 CYCLE:   225 TIME:   0.004 TIME LEFT:  2.00D  GRAD.:     0.743 HEAT: -3.042725
 CYCLE:   226 TIME:   0.004 TIME LEFT:  2.00D  GRAD.:     0.427 HEAT: -3.042983
 CYCLE:   227 TIME:   0.004 TIME LEFT:  2.00D  GRAD.:     0.408 HEAT: -3.043320
 CYCLE:   228 TIME:   0.004 TIME LEFT:  2.00D  GRAD.:     0.319 HEAT: -3.043606
 CYCLE:   229 TIME:   0.008 TIME LEFT:  2.00D  GRAD.:     0.276 HEAT: -3.043762
 CYCLE:   230 TIME:   0.004 TIME LEFT:  2.00D  GRAD.:     0.112 HEAT: -3.043802
 CYCLE:   231 TIME:   0.004 TIME LEFT:  2.00D  GRAD.:     0.152 HEAT: -3.043815
 CYCLE:   232 TIME:   0.004 TIME LEFT:  2.00D  GRAD.:     0.091 HEAT: -3.043829
 CYCLE:   233 TIME:   0.004 TIME LEFT:  2.00D  GRAD.:     0.136 HEAT: -3.043805
 CYCLE:   234 TIME:   0.004 TIME LEFT:  2.00D  GRAD.:     0.043 HEAT: -3.043830

     GRADIENT =  0.04284  IS LESS THAN CUTOFF =  0.05000



 -------------------------------------------------------------------------------
 pm3  precise nosym THREADS=1
 InChI=1S/C7H12O2/c1-6(9-8)2-3-7-4-5-7/h2-3,6-8H,4-5H2,1H3



     GEOMETRY OPTIMISED USING EIGENVECTOR FOLLOWING (EF).     
     SCF FIELD WAS ACHIEVED                                   


                              PM3 CALCULATION
                                                       MOPAC2016 (Version: 18.184L)
                                                       Sat Jun 15 12:52:59 2019
                                                       No. of days remaining =  18




          FINAL HEAT OF FORMATION =         -3.04383 KCAL/MOL =     -12.73538 KJ/MOL


          TOTAL ENERGY            =      -1598.45691 EV
          ELECTRONIC ENERGY       =      -7385.39529 EV  POINT GROUP:     C1  
          CORE-CORE REPULSION     =       5786.93838 EV
          COSMO AREA              =        184.14 SQUARE ANGSTROMS
          COSMO VOLUME            =        176.03 CUBIC ANGSTROMS

          GRADIENT NORM           =          0.04284 = 0.00935 PER ATOM
          IONIZATION POTENTIAL    =          9.788609 EV
          HOMO LUMO ENERGIES (EV) =         -9.789  0.823
          NO. OF FILLED LEVELS    =         26
          MOLECULAR WEIGHT        =        128.1706

          MOLECULAR DIMENSIONS (Angstroms)

            Atom       Atom       Distance
            H    21    H    13     8.03398
            H    16    H    11     6.00540
            H    20    H    12     3.17788


          SCF CALCULATIONS        =        242
 
          WALL-CLOCK TIME         =          1.078 SECONDS
          COMPUTATION TIME        =          0.996 SECONDS




   ATOM   CHEMICAL          X               Y               Z
  NUMBER   SYMBOL      (ANGSTROMS)     (ANGSTROMS)     (ANGSTROMS)
 
     1       O         -2.94784560  *  -0.15851410  *   0.67918646  *
     2       O         -3.15405419  *  -1.60381007  *   0.27699599  *
     3       C          1.84030053  *  -0.44934331  *   0.25558414  *
     4       C          2.75799187  *  -1.39684352  *  -0.47382896  *
     5       C          3.05796604  *   0.06851141  *  -0.46669757  *
     6       C         -1.90891464  *   0.35641297  *  -0.13991861  *
     7       C         -2.12774822  *   1.87013912  *  -0.18195090  *
     8       C          0.51006171  *  -0.17496232  *  -0.31423390  *
     9       C         -0.55859330  *   0.05295942  *   0.45087521  *
    10       H          1.85247190  *  -0.45784397  *   1.36160778  *
    11       H          3.38323036  *  -2.09047575  *   0.09825633  *
    12       H          2.42023967  *  -1.87988195  *  -1.39781137  *
    13       H          3.90449643  *   0.45523281  *   0.11047727  *
    14       H          2.93923970  *   0.65347136  *  -1.38580045  *
    15       H         -1.99173195  *  -0.06875318  *  -1.17147208  *
    16       H         -3.10418161  *   2.12730512  *  -0.61217271  *
    17       H         -2.07588355  *   2.32243891  *   0.81724315  *
    18       H         -1.35412797  *   2.34413477  *  -0.79904914  *
    19       H          0.43971262  *  -0.16642512  *  -1.41018403  *
    20       H         -0.49667854  *   0.03451034  *   1.54626966  *
    21       H         -3.75951005  *  -1.79457777  *   0.97430717  *

                             CARTESIAN COORDINATES

   1    O       -2.947845601    -0.158514098     0.679186457
   2    O       -3.154054192    -1.603810070     0.276995989
   3    C        1.840300532    -0.449343310     0.255584141
   4    C        2.757991865    -1.396843524    -0.473828961
   5    C        3.057966038     0.068511408    -0.466697565
   6    C       -1.908914639     0.356412973    -0.139918610
   7    C       -2.127748219     1.870139118    -0.181950900
   8    C        0.510061710    -0.174962324    -0.314233903
   9    C       -0.558593299     0.052959419     0.450875212
  10    H        1.852471903    -0.457843975     1.361607782
  11    H        3.383230361    -2.090475754     0.098256334
  12    H        2.420239671    -1.879881945    -1.397811375
  13    H        3.904496435     0.455232814     0.110477266
  14    H        2.939239703     0.653471362    -1.385800446
  15    H       -1.991731947    -0.068753184    -1.171472079
  16    H       -3.104181606     2.127305119    -0.612172715
  17    H       -2.075883548     2.322438907     0.817243153
  18    H       -1.354127969     2.344134769    -0.799049144
  19    H        0.439712619    -0.166425122    -1.410184035
  20    H       -0.496678536     0.034510337     1.546269663
  21    H       -3.759510053    -1.794577772     0.974307173


           Empirical Formula: C7 H12 O2  =    21 atoms



      MOLECULAR POINT GROUP   :   C1  


                  EIGENVALUES  
 -39.89075 -37.47331 -34.35762 -31.49340 -29.04203 -23.40440 -22.21548 -20.55139
 -20.09690 -17.89271 -17.48558 -16.97579 -16.15146 -15.63752 -14.73714 -14.02741
 -13.68387 -13.46633 -13.26759 -12.64067 -12.43058 -12.33583 -12.20085 -11.77043
 -11.07073  -9.78861   0.82291   1.17090   2.94183   3.13634   3.35694   3.38504
   3.46133   3.65109   3.78112   3.87249   3.98458   4.03570   4.36827   4.48142
   4.51112   4.65185   4.76319   4.83365   4.88304   5.07507   5.64533   5.90746


              NET ATOMIC CHARGES AND DIPOLE CONTRIBUTIONS

  ATOM NO.   TYPE          CHARGE      No. of ELECS.   s-Pop       p-Pop       
    1          O          -0.152698        6.1527     1.90656     4.24613
    2          O          -0.206336        6.2063     1.86502     4.34131
    3          C          -0.106151        4.1062     1.16352     2.94263
    4          C          -0.143510        4.1435     1.16087     2.98264
    5          C          -0.146215        4.1462     1.16106     2.98516
    6          C           0.105451        3.8945     1.16353     2.73102
    7          C          -0.121036        4.1210     1.14183     2.97920
    8          C          -0.100966        4.1010     1.18611     2.91486
    9          C          -0.177098        4.1771     1.20628     2.97082
   10          H           0.097650        0.9024     0.90235
   11          H           0.077671        0.9223     0.92233
   12          H           0.080436        0.9196     0.91956
   13          H           0.077465        0.9225     0.92254
   14          H           0.079229        0.9208     0.92077
   15          H           0.073937        0.9261     0.92606
   16          H           0.050103        0.9499     0.94990
   17          H           0.049784        0.9502     0.95022
   18          H           0.050470        0.9495     0.94953
   19          H           0.101175        0.8988     0.89883
   20          H           0.113392        0.8866     0.88661
   21          H           0.197247        0.8028     0.80275
 DIPOLE           X         Y         Z       TOTAL
 POINT-CHG.     0.539     0.529    -0.278     0.804
 HYBRID        -0.149    -0.099     0.310     0.358
 SUM            0.389     0.430     0.032     0.581


          ATOMIC ORBITAL ELECTRON POPULATIONS

     Atom    s        px        py        pz   
    1  O   1.90656   1.56748   1.09885   1.57980
    2  O   1.86502   1.70921   1.10873   1.52337
    3  C   1.16352   0.90968   1.04920   0.98375
    4  C   1.16087   1.02752   0.93071   1.02440
    5  C   1.16106   0.98954   0.97103   1.02459
    6  C   1.16353   0.86038   0.92713   0.94352
    7  C   1.14183   1.01716   0.94023   1.02182
    8  C   1.18611   0.93884   0.99244   0.98358
    9  C   1.20628   0.95548   1.01531   1.00002
   10  H   0.90235
   11  H   0.92233
   12  H   0.91956
   13  H   0.92254
   14  H   0.92077
   15  H   0.92606
   16  H   0.94990
   17  H   0.95022
   18  H   0.94953
   19  H   0.89883
   20  H   0.88661
   21  H   0.80275
 *******************************************************************************
 ** Site#: 14399        For non-commercial use only    Version 18.184L 64BITS **
 *******************************************************************************
 ** Cite this program as: MOPAC2016, Version: 18.184L, James J. P. Stewart,   **
 ** Stewart Computational Chemistry, web: HTTP://OpenMOPAC.net. Days left:  18**
 *******************************************************************************
 **                                                                           **
 **                                MOPAC2016                                  **
 **                                                                           **
 *******************************************************************************

                              PM3 CALCULATION RESULTS

 *******************************************************************************
 *  CALCULATION DONE:                                Sat Jun 15 12:52:59 2019  *
 *  PM3        - The PM3 Hamiltonian to be used
 *  OLDGEO     - PREVIOUS GEOMETRY TO BE USED
 *  PRECISE    - CRITERIA TO BE INCREASED BY 100 TIMES
 *  NOSYM      - POINT-GROUP SYMMETRY SET TO C1
 *  THREADS=1  - MULTI-THREADING NOT USED
 *  T=         - A TIME OF 172800.0 SECONDS REQUESTED
 *  DUMP=N     - RESTART FILE WRITTEN EVERY  7200.000 SECONDS
 *  THERMO     - THERMODYNAMIC QUANTITIES TO BE CALCULATED
 *******************************************************************************
oldgeo thermo nosym precise THREADS=1  pm3
 InChI=1S/C7H12O2/c1-6(9-8)2-3-7-4-5-7/h2-3,6-8H,4-5H2,1H3

   ATOM   CHEMICAL          X               Y               Z
  NUMBER   SYMBOL      (ANGSTROMS)     (ANGSTROMS)     (ANGSTROMS)
 
     1       O         -2.94784560  *  -0.15851410  *   0.67918646  *
     2       O         -3.15405419  *  -1.60381007  *   0.27699599  *
     3       C          1.84030053  *  -0.44934331  *   0.25558414  *
     4       C          2.75799187  *  -1.39684352  *  -0.47382896  *
     5       C          3.05796604  *   0.06851141  *  -0.46669757  *
     6       C         -1.90891464  *   0.35641297  *  -0.13991861  *
     7       C         -2.12774822  *   1.87013912  *  -0.18195090  *
     8       C          0.51006171  *  -0.17496232  *  -0.31423390  *
     9       C         -0.55859330  *   0.05295942  *   0.45087521  *
    10       H          1.85247190  *  -0.45784397  *   1.36160778  *
    11       H          3.38323036  *  -2.09047575  *   0.09825633  *
    12       H          2.42023967  *  -1.87988195  *  -1.39781137  *
    13       H          3.90449643  *   0.45523281  *   0.11047727  *
    14       H          2.93923970  *   0.65347136  *  -1.38580045  *
    15       H         -1.99173195  *  -0.06875318  *  -1.17147208  *
    16       H         -3.10418161  *   2.12730512  *  -0.61217271  *
    17       H         -2.07588355  *   2.32243891  *   0.81724315  *
    18       H         -1.35412797  *   2.34413477  *  -0.79904914  *
    19       H          0.43971262  *  -0.16642512  *  -1.41018403  *
    20       H         -0.49667854  *   0.03451034  *   1.54626966  *
    21       H         -3.75951005  *  -1.79457777  *   0.97430717  *
 


          CARTESIAN COORDINATES 

    NO.       ATOM           X           Y           Z

     1         O         -2.9478     -0.1585      0.6792
     2         O         -3.1541     -1.6038      0.2770
     3         C          1.8403     -0.4493      0.2556
     4         C          2.7580     -1.3968     -0.4738
     5         C          3.0580      0.0685     -0.4667
     6         C         -1.9089      0.3564     -0.1399
     7         C         -2.1277      1.8701     -0.1820
     8         C          0.5101     -0.1750     -0.3142
     9         C         -0.5586      0.0530      0.4509
    10         H          1.8525     -0.4578      1.3616
    11         H          3.3832     -2.0905      0.0983
    12         H          2.4202     -1.8799     -1.3978
    13         H          3.9045      0.4552      0.1105
    14         H          2.9392      0.6535     -1.3858
    15         H         -1.9917     -0.0688     -1.1715
    16         H         -3.1042      2.1273     -0.6122
    17         H         -2.0759      2.3224      0.8172
    18         H         -1.3541      2.3441     -0.7990
    19         H          0.4397     -0.1664     -1.4102
    20         H         -0.4967      0.0345      1.5463
    21         H         -3.7595     -1.7946      0.9743

  H: (PM3): J. J. P. STEWART, J. COMP. CHEM. 10, 209 (1989).
  C: (PM3): J. J. P. STEWART, J. COMP. CHEM. 10, 209 (1989).
  O: (PM3): J. J. P. STEWART, J. COMP. CHEM. 10, 209 (1989).

           Empirical Formula: C7 H12 O2  =    21 atoms



      MOLECULAR POINT GROUP   :   C1  


      RHF CALCULATION, NO. OF DOUBLY OCCUPIED LEVELS = 26



          HEAT OF FORMATION =      -3.043829 KCALS/MOLE


          CARTESIAN COORDINATE DERIVATIVES

   NUMBER  ATOM         X            Y            Z

     1       O     -0.004188    -0.000868    -0.004543
     2       O     -0.000590    -0.010311     0.007851
     3       C      0.004151    -0.010254     0.002042
     4       C      0.011100     0.005943    -0.004458
     5       C     -0.018637     0.005301    -0.002176
     6       C      0.004292     0.004042     0.003710
     7       C     -0.001853     0.000859     0.001654
     8       C      0.003212    -0.013890    -0.000584
     9       C     -0.000713     0.015381    -0.005482
    10       H     -0.001885    -0.000311     0.000948
    11       H     -0.000932    -0.001151    -0.000060
    12       H     -0.001617     0.001282     0.001106
    13       H      0.001475    -0.003456     0.002726
    14       H      0.005554     0.003738    -0.001630
    15       H     -0.000723    -0.001234     0.002759
    16       H     -0.003161    -0.000007    -0.000334
    17       H      0.001863    -0.001392    -0.001401
    18       H      0.001766    -0.001378     0.001177
    19       H     -0.001812    -0.002282     0.011193
    20       H      0.000807     0.001443    -0.008329
    21       H      0.001893     0.008545    -0.006171
 


          GRADIENT NORM =   0.04306


          TIME FOR SCF CALCULATION =    0.00

          TIME FOR DERIVATIVES     =    0.00

          MOLECULAR WEIGHT =  128.17



          ROTATIONAL CONSTANTS IN CM(-1)

          A =    0.10803456   B =    0.02274727   C =    0.01982555



           PRINCIPAL MOMENTS OF INERTIA IN UNITS OF 10**(-40)*GRAM-CM**2

          A =      259.1094   B =     1230.5994   C =     1411.9547


          ORIENTATION OF MOLECULE IN FORCE CALCULATION

    NO.       ATOM         X         Y         Z

     1          O       0.1530   -2.5776    0.4510
     2          O       1.6673   -2.5776    0.4510
     3          C      -0.1089    2.2309    0.4510
     4          C       0.8641    3.3192    0.0761
     5          C      -0.5772    3.4502   -0.3017
     6          C      -0.2624   -1.5247   -0.4059
     7          C      -1.6662   -1.9069   -0.8796
     8          C      -0.0383    0.9437   -0.2616
     9          C      -0.3136   -0.2166    0.3362
    10          H      -0.3962    2.1304    1.5144
    11          H       1.2891    3.9565    0.8588
    12          H       1.6165    3.1345   -0.6990
    13          H      -1.2148    4.1842    0.2022
    14          H      -0.8752    3.3613   -1.3526
    15          H       0.4286   -1.4530   -1.2829
    16          H      -1.6644   -2.8568   -1.4295
    17          H      -2.3703   -2.0090   -0.0432
    18          H      -2.0600   -1.1324   -1.5496
    19          H       0.2542    0.9856   -1.3193
    20          H      -0.5953   -0.2657    1.3955
    21          H       1.7466   -3.2261    1.1310


    FIRST DERIVATIVES WILL BE USED IN THE CALCULATION OF SECOND DERIVATIVES

          ESTIMATED TIME TO COMPLETE CALCULATION =        1.97 SECONDS

    FOR POINT-GROUP C1   THERE ARE   1 UNIQUE SYMMETRY FUNCTIONS.

 STEP:   1 TIME =     0.02 SECS, INTEGRAL =      0.02 TIME LEFT: 172799.97
 STEP:   2 TIME =     0.02 SECS, INTEGRAL =      0.04 TIME LEFT: 172799.96
 STEP:   3 TIME =     0.02 SECS, INTEGRAL =      0.05 TIME LEFT: 172799.94
 STEP:   4 TIME =     0.02 SECS, INTEGRAL =      0.07 TIME LEFT: 172799.92
 STEP:   5 TIME =     0.02 SECS, INTEGRAL =      0.09 TIME LEFT: 172799.90
 STEP:   6 TIME =     0.02 SECS, INTEGRAL =      0.11 TIME LEFT: 172799.88
 STEP:   7 TIME =     0.02 SECS, INTEGRAL =      0.13 TIME LEFT: 172799.86
 STEP:   8 TIME =     0.02 SECS, INTEGRAL =      0.15 TIME LEFT: 172799.84
 STEP:   9 TIME =     0.02 SECS, INTEGRAL =      0.16 TIME LEFT: 172799.83
 STEP:  10 TIME =     0.02 SECS, INTEGRAL =      0.18 TIME LEFT: 172799.81
 STEP:  11 TIME =     0.02 SECS, INTEGRAL =      0.20 TIME LEFT: 172799.79
 STEP:  12 TIME =     0.02 SECS, INTEGRAL =      0.22 TIME LEFT: 172799.77
 STEP:  13 TIME =     0.02 SECS, INTEGRAL =      0.24 TIME LEFT: 172799.75
 STEP:  14 TIME =     0.02 SECS, INTEGRAL =      0.26 TIME LEFT: 172799.73
 STEP:  15 TIME =     0.02 SECS, INTEGRAL =      0.28 TIME LEFT: 172799.71
 STEP:  16 TIME =     0.02 SECS, INTEGRAL =      0.29 TIME LEFT: 172799.70
 STEP:  17 TIME =     0.02 SECS, INTEGRAL =      0.31 TIME LEFT: 172799.68
 STEP:  18 TIME =     0.02 SECS, INTEGRAL =      0.33 TIME LEFT: 172799.66
 STEP:  19 TIME =     0.02 SECS, INTEGRAL =      0.35 TIME LEFT: 172799.64
 STEP:  20 TIME =     0.02 SECS, INTEGRAL =      0.36 TIME LEFT: 172799.63
 STEP:  21 TIME =     0.02 SECS, INTEGRAL =      0.38 TIME LEFT: 172799.61
 STEP:  22 TIME =     0.02 SECS, INTEGRAL =      0.40 TIME LEFT: 172799.59
 STEP:  23 TIME =     0.02 SECS, INTEGRAL =      0.42 TIME LEFT: 172799.57
 STEP:  24 TIME =     0.02 SECS, INTEGRAL =      0.44 TIME LEFT: 172799.55
 STEP:  25 TIME =     0.02 SECS, INTEGRAL =      0.46 TIME LEFT: 172799.54
 STEP:  26 TIME =     0.02 SECS, INTEGRAL =      0.47 TIME LEFT: 172799.52
 STEP:  27 TIME =     0.02 SECS, INTEGRAL =      0.49 TIME LEFT: 172799.50
 STEP:  28 TIME =     0.02 SECS, INTEGRAL =      0.51 TIME LEFT: 172799.48
 STEP:  29 TIME =     0.02 SECS, INTEGRAL =      0.53 TIME LEFT: 172799.46
 STEP:  30 TIME =     0.02 SECS, INTEGRAL =      0.55 TIME LEFT: 172799.44
 STEP:  31 TIME =     0.02 SECS, INTEGRAL =      0.57 TIME LEFT: 172799.43
 STEP:  32 TIME =     0.02 SECS, INTEGRAL =      0.59 TIME LEFT: 172799.41
 STEP:  33 TIME =     0.02 SECS, INTEGRAL =      0.60 TIME LEFT: 172799.39
 STEP:  34 TIME =     0.02 SECS, INTEGRAL =      0.62 TIME LEFT: 172799.37
 STEP:  35 TIME =     0.02 SECS, INTEGRAL =      0.64 TIME LEFT: 172799.35
 STEP:  36 TIME =     0.02 SECS, INTEGRAL =      0.66 TIME LEFT: 172799.34
 STEP:  37 TIME =     0.02 SECS, INTEGRAL =      0.68 TIME LEFT: 172799.32
 STEP:  38 TIME =     0.02 SECS, INTEGRAL =      0.70 TIME LEFT: 172799.30
 STEP:  39 TIME =     0.02 SECS, INTEGRAL =      0.71 TIME LEFT: 172799.28
 STEP:  40 TIME =     0.02 SECS, INTEGRAL =      0.73 TIME LEFT: 172799.26
 STEP:  41 TIME =     0.02 SECS, INTEGRAL =      0.75 TIME LEFT: 172799.24
 STEP:  42 TIME =     0.02 SECS, INTEGRAL =      0.77 TIME LEFT: 172799.22
 STEP:  43 TIME =     0.02 SECS, INTEGRAL =      0.79 TIME LEFT: 172799.21
 STEP:  44 TIME =     0.02 SECS, INTEGRAL =      0.80 TIME LEFT: 172799.19
 STEP:  45 TIME =     0.02 SECS, INTEGRAL =      0.82 TIME LEFT: 172799.17
 STEP:  46 TIME =     0.02 SECS, INTEGRAL =      0.84 TIME LEFT: 172799.15
 STEP:  47 TIME =     0.02 SECS, INTEGRAL =      0.86 TIME LEFT: 172799.14
 STEP:  48 TIME =     0.02 SECS, INTEGRAL =      0.88 TIME LEFT: 172799.12
 STEP:  49 TIME =     0.02 SECS, INTEGRAL =      0.89 TIME LEFT: 172799.10
 STEP:  50 TIME =     0.02 SECS, INTEGRAL =      0.91 TIME LEFT: 172799.08
 STEP:  51 TIME =     0.02 SECS, INTEGRAL =      0.93 TIME LEFT: 172799.06
 STEP:  52 TIME =     0.02 SECS, INTEGRAL =      0.95 TIME LEFT: 172799.04
 STEP:  53 TIME =     0.02 SECS, INTEGRAL =      0.96 TIME LEFT: 172799.03
 STEP:  54 TIME =     0.02 SECS, INTEGRAL =      0.98 TIME LEFT: 172799.01
 STEP:  55 TIME =     0.02 SECS, INTEGRAL =      1.00 TIME LEFT: 172798.99
 STEP:  56 TIME =     0.02 SECS, INTEGRAL =      1.02 TIME LEFT: 172798.97
 STEP:  57 TIME =     0.02 SECS, INTEGRAL =      1.04 TIME LEFT: 172798.95
 STEP:  58 TIME =     0.02 SECS, INTEGRAL =      1.06 TIME LEFT: 172798.93
 STEP:  59 TIME =     0.02 SECS, INTEGRAL =      1.07 TIME LEFT: 172798.92
 STEP:  60 TIME =     0.02 SECS, INTEGRAL =      1.09 TIME LEFT: 172798.90
 STEP:  61 TIME =     0.02 SECS, INTEGRAL =      1.11 TIME LEFT: 172798.89
 STEP:  62 TIME =     0.02 SECS, INTEGRAL =      1.12 TIME LEFT: 172798.87
 STEP:  63 TIME =     0.02 SECS, INTEGRAL =      1.14 TIME LEFT: 172798.85

(To convert to Hartree/Bohr^2, multiply by (10^(-21) x N x a0^2)/(4.184 x 627.51) =  0.0642)


           FORCE MATRIX IN MILLIDYNES/ANGSTROM


                  O  1       O  2       C  3       C  4       C  5       C  6
 ------------------------------------------------------------------------------
     O    1   7.873541
     O    2   2.566557  10.099036
     C    3   0.023011   0.002581  15.855194
     C    4   0.004996   0.001968   4.690508  15.347538
     C    5   0.003116   0.001847   4.684112   5.187531  15.344248
     C    6   4.775534   0.976409   0.141117   0.022639   0.023109  14.573353
     C    7   0.863836   0.117056   0.020907   0.004348   0.004602   3.846685
     C    8   0.061584   0.002880   5.286588   0.616890   0.617442   0.785468
     C    9   0.919486   0.054496   0.916231   0.039205   0.036801   4.367228
     H   10   0.001393   0.000814   4.548368   0.436135   0.435783   0.002370
     H   11   0.001518   0.000569   0.462722   4.848526   0.461408   0.004155
     H   12   0.000771   0.000539   0.463036   4.822677   0.463140   0.002306
     H   13   0.000729   0.000490   0.461715   0.461243   4.848664   0.004003
     H   14   0.000553   0.000390   0.462036   0.463118   4.822930   0.002473
     H   15   0.441689   0.087071   0.005854   0.000965   0.001275   4.137915
     H   16   0.060137   0.003417   0.003902   0.000923   0.000958   0.469877
     H   17   0.056093   0.003196   0.001041   0.000573   0.000494   0.478555
     H   18   0.061332   0.018197   0.001355   0.000755   0.000662   0.452701
     H   19   0.009549   0.001796   0.440404   0.019420   0.018651   0.087718
     H   20   0.049527   0.004465   0.089166   0.010075   0.010075   0.453765
     H   21   1.083988   8.653264   0.001593   0.000932   0.000807   0.144210


                  C  7       C  8       C  9       H 10       H 11       H 12
 ------------------------------------------------------------------------------
     C    7  14.204421
     C    8   0.034970  18.470776
     C    9   0.664622  10.665406  18.060929
     H   10   0.001136   0.438859   0.048626   5.069885
     H   11   0.000703   0.043117   0.006287   0.020822   5.452535
     H   12   0.000661   0.027594   0.003930   0.038174   0.495378   5.431672
     H   13   0.001455   0.043811   0.005525   0.020644   0.020845   0.042986
     H   14   0.000786   0.027137   0.003760   0.038333   0.043023   0.021517
     H   15   0.415963   0.047782   0.431581   0.000624   0.000349   0.000328
     H   16   4.760016   0.003061   0.047159   0.000243   0.000177   0.000141
     H   17   4.746091   0.002711   0.017159   0.000271   0.000168   0.000144
     H   18   4.767858   0.004531   0.025133   0.000281   0.000268   0.000156
     H   19   0.012511   4.745109   0.467474   0.035023   0.001396   0.013438
     H   20   0.010124   0.468821   4.793729   0.029919   0.001960   0.000910
     H   21   0.021515   0.001579   0.009739   0.000514   0.000260   0.000304


                  H 13       H 14       H 15       H 16       H 17       H 18
 ------------------------------------------------------------------------------
     H   13   5.452851
     H   14   0.495333   5.432142
     H   15   0.000258   0.000244   4.546587
     H   16   0.000300   0.000150   0.025958   5.499444
     H   17   0.000130   0.000116   0.043993   0.567296   5.490991
     H   18   0.000211   0.000212   0.027364   0.562404   0.573807   5.491191
     H   19   0.001461   0.012677   0.028787   0.002484   0.000645   0.002719
     H   20   0.002009   0.000875   0.033663   0.001740   0.004403   0.002804
     H   21   0.000218   0.000249   0.007259   0.001154   0.000675   0.003726


                  H 19       H 20       H 21
 ------------------------------------------
     H   19   5.122259
     H   20   0.105933   5.180593
     H   21   0.000891   0.002784   8.994431


          HEAT OF FORMATION =      -3.043829 KCALS/MOLE

          ZERO POINT ENERGY     111.342 KCAL/MOL


           NORMAL COORDINATE ANALYSIS (Total motion = 1 Angstrom)


   Root No.       1         2         3         4         5         6         7         8

                 1 A       2 A       3 A       4 A       5 A       6 A       7 A       8 A   

                  18.0      49.1      66.4     112.3     143.7     158.5     170.2     265.6
  
           1    0.0145   -0.0024   -0.0025    0.0023   -0.0013    0.0034    0.0011   -0.0085
           2    0.0071   -0.0072    0.0204    0.0260    0.0065   -0.0067   -0.0033    0.0218
           3   -0.0023   -0.0281    0.0260    0.0355    0.0114   -0.0119   -0.0056    0.0560
           4    0.0145   -0.0023   -0.0027    0.0023   -0.0019    0.0047    0.0011   -0.0051
           5    0.0374    0.0722   -0.0222   -0.0042   -0.0086    0.0169   -0.0131    0.0441
           6   -0.0177    0.0370   -0.0398   -0.0124    0.0026   -0.0046   -0.0315   -0.0274
           7   -0.0242    0.0386    0.0180    0.0071    0.0016   -0.0033   -0.0032    0.0041
           8   -0.0017   -0.0156    0.0039    0.0023   -0.0066    0.0044    0.0006   -0.0337
           9   -0.0058    0.0096    0.0064    0.0032   -0.0111    0.0136    0.0111   -0.0067
          10    0.0180    0.0081   -0.0123    0.0200   -0.0051    0.0043    0.0015   -0.0047
          11   -0.0225    0.0014    0.0307   -0.0178    0.0099   -0.0126   -0.0103   -0.0237
          12    0.0430   -0.0196    0.0068   -0.0236    0.0214   -0.0179   -0.0091    0.0118
          13    0.0396   -0.0068   -0.0107    0.0079   -0.0046    0.0037    0.0016   -0.0052
          14    0.0089   -0.0207   -0.0210    0.0226    0.0086   -0.0099   -0.0101   -0.0348
          15   -0.0282    0.0295   -0.0168    0.0366    0.0183   -0.0145   -0.0096    0.0035
          16   -0.0151   -0.0199   -0.0095   -0.0029    0.0013   -0.0013    0.0000   -0.0049
          17   -0.0034   -0.0068    0.0037    0.0004   -0.0083    0.0069    0.0029   -0.0107
          18   -0.0009   -0.0193    0.0085    0.0054   -0.0095    0.0085    0.0035    0.0151
          19   -0.0154   -0.0223   -0.0000    0.0209   -0.0073    0.0055    0.0027   -0.0026
          20   -0.0286   -0.0185   -0.0176   -0.0399   -0.0083    0.0124    0.0159    0.0443
          21    0.0207   -0.0019   -0.0026   -0.0300    0.0146   -0.0146   -0.0126   -0.0254
          22   -0.0149    0.0328    0.0599   -0.0325    0.0090   -0.0102   -0.0065    0.0053
          23   -0.0029   -0.0120   -0.0022    0.0060    0.0037   -0.0045   -0.0044   -0.0198
          24   -0.0026    0.0024    0.0213   -0.0078   -0.0312    0.0313    0.0215   -0.0246
          25   -0.0269   -0.0206   -0.0361   -0.0378    0.0130   -0.0127   -0.0012    0.0214
          26   -0.0014   -0.0088    0.0087    0.0070    0.0030   -0.0046   -0.0057   -0.0085
          27   -0.0052   -0.0161   -0.0018   -0.0082   -0.0305    0.0291    0.0204   -0.0003
          28   -0.0790    0.0761    0.0060    0.0444   -0.0019   -0.0000   -0.0029    0.0020
          29    0.0040   -0.0238    0.0083   -0.0019   -0.0293    0.0256    0.0146   -0.0492
          30   -0.0201    0.0189    0.0036    0.0129   -0.0136    0.0159    0.0120   -0.0083
          31   -0.0069    0.0241   -0.0454    0.0691   -0.0136    0.0134    0.0054   -0.0177
          32   -0.0322    0.0058    0.0549   -0.0375   -0.0078    0.0042    0.0021   -0.0285
          33    0.0645   -0.0318    0.0051   -0.0344    0.0406   -0.0366   -0.0215    0.0227
          34    0.0524   -0.0151    0.0058   -0.0168   -0.0004   -0.0007   -0.0003    0.0029
          35   -0.0386    0.0167    0.0459   -0.0289    0.0366   -0.0395   -0.0283   -0.0076
          36    0.0803   -0.0458    0.0207   -0.0569    0.0198   -0.0165   -0.0067    0.0156
          37    0.0306   -0.0019   -0.0426    0.0474   -0.0129    0.0128    0.0062   -0.0173
          38    0.0224   -0.0329   -0.0353    0.0324   -0.0099    0.0088    0.0024   -0.0471
          39   -0.0593    0.0536   -0.0365    0.0725    0.0349   -0.0304   -0.0222    0.0057
          40    0.0896   -0.0409    0.0082   -0.0376    0.0012   -0.0024   -0.0006    0.0026
          41    0.0161   -0.0223   -0.0454    0.0437    0.0342   -0.0343   -0.0280   -0.0300
          42   -0.0430    0.0394   -0.0201    0.0479    0.0146   -0.0108   -0.0076    0.0007
          43   -0.0287   -0.0300   -0.0032    0.0171   -0.0054    0.0053    0.0038    0.0099
          44    0.0039   -0.0026    0.0054    0.0054   -0.0316    0.0247    0.0127   -0.0386
          45   -0.0111   -0.0268    0.0133    0.0211   -0.0161    0.0146    0.0069    0.0224
          46   -0.0074   -0.0220    0.0183    0.0630   -0.0456   -0.0125   -0.0065   -0.0176
          47   -0.0306   -0.0202   -0.0214   -0.0436   -0.0904   -0.0523   -0.0047    0.0650
          48    0.0240    0.0008    0.0042   -0.0235    0.1559    0.0967    0.0229   -0.0600
          49   -0.0016   -0.0120   -0.0067    0.0003   -0.0296   -0.0384   -0.0175   -0.0270
          50   -0.0376   -0.0208   -0.0215   -0.0542    0.1535    0.1440    0.0634    0.0367
          51    0.0313    0.0065   -0.0086   -0.0493    0.0155   -0.0359   -0.0241   -0.0475
          52   -0.0383   -0.0354   -0.0045    0.0182    0.0469    0.0734    0.0353    0.0400
          53   -0.0377   -0.0235   -0.0278   -0.0554   -0.0882   -0.0487   -0.0001    0.0828
          54    0.0237    0.0001   -0.0116   -0.0462   -0.1094   -0.1252   -0.0502   -0.0071
          55    0.0041    0.0746    0.1680   -0.0369    0.0056   -0.0070   -0.0121   -0.0261
          56   -0.0050   -0.0116   -0.0147    0.0060    0.0130   -0.0122   -0.0079   -0.0195
          57    0.0025    0.0140    0.0506   -0.0089   -0.0310    0.0312    0.0193   -0.0325
          58   -0.0453   -0.0631   -0.1415   -0.0453    0.0179   -0.0177    0.0009    0.0577
          59    0.0007   -0.0088    0.0208    0.0107    0.0112   -0.0144   -0.0127    0.0066
          60   -0.0100   -0.0274   -0.0292   -0.0099   -0.0281    0.0268    0.0202    0.0106
          61    0.0344    0.0018    0.0093    0.0116   -0.0044    0.0110    0.0126    0.0470
          62    0.0423    0.0774   -0.0144    0.0088    0.0176   -0.0739    0.3787    0.0189
          63   -0.0154    0.0416   -0.0337   -0.0012    0.0279   -0.0920    0.3405   -0.0583


   Root No.       9        10        11        12        13        14        15        16

                 9 A      10 A      11 A      12 A      13 A      14 A      15 A      16 A   

                 316.8     356.6     412.5     463.4     518.5     552.5     800.8     816.8
  
           1    0.0167    0.0004   -0.0193   -0.0074    0.0092    0.0008    0.1575    0.0079
           2    0.0067    0.0512   -0.0063    0.0185    0.0503   -0.0295    0.0020   -0.0033
           3   -0.0030    0.0009    0.0063   -0.0320   -0.0016   -0.0092    0.0027    0.0014
           4    0.0221   -0.0045   -0.0356   -0.0240    0.0376    0.0333   -0.1164   -0.0051
           5   -0.0159   -0.0119    0.0206   -0.0003   -0.0186   -0.0086   -0.0107   -0.0005
           6    0.0127    0.0113   -0.0165   -0.0026    0.0178    0.0055    0.0103    0.0005
           7   -0.0262   -0.0011   -0.0432    0.0047   -0.0098   -0.0097   -0.0006   -0.0005
           8   -0.0111   -0.0052    0.0109   -0.0297   -0.0053    0.0038    0.0008    0.0040
           9   -0.0072    0.0489    0.0068   -0.0303   -0.0243    0.0232    0.0031    0.0032
          10   -0.0026    0.0009   -0.0079   -0.0019   -0.0056   -0.0018   -0.0015    0.0010
          11   -0.0364   -0.0283   -0.0318   -0.0215   -0.0047   -0.0199    0.0011   -0.0033
          12   -0.0098   -0.0024   -0.0134    0.0076   -0.0017    0.0022    0.0000    0.0062
          13   -0.0053   -0.0010   -0.0070   -0.0059   -0.0032   -0.0052    0.0005   -0.0044
          14    0.0071   -0.0462    0.0279   -0.0203    0.0179   -0.0135    0.0024   -0.0028
          15    0.0117   -0.0104    0.0039    0.0067    0.0005    0.0015   -0.0006    0.0047
          16    0.0144    0.0088    0.0111    0.0070   -0.0373   -0.0393   -0.0186   -0.0015
          17    0.0034    0.0210   -0.0035    0.0530    0.0113    0.0078   -0.0072   -0.0001
          18   -0.0048   -0.0388   -0.0047    0.0194   -0.0177    0.0501    0.0130    0.0015
          19   -0.0042   -0.0017    0.0140    0.0299   -0.0450   -0.0218   -0.0262   -0.0023
          20    0.0445   -0.0068   -0.0197   -0.0071   -0.0110   -0.0081   -0.0012   -0.0002
          21    0.0151    0.0100    0.0060    0.0187   -0.0296   -0.0158   -0.0096   -0.0006
          22    0.0107   -0.0086    0.0468    0.0080    0.0259    0.0219    0.0082   -0.0014
          23   -0.0056    0.0223    0.0072   -0.0153   -0.0245    0.0340    0.0001    0.0121
          24   -0.0084    0.0047    0.0180   -0.0294    0.0220   -0.0339   -0.0076    0.0096
          25   -0.0326    0.0124    0.0484   -0.0049    0.0264    0.0120   -0.0033    0.0019
          26    0.0032    0.0078   -0.0029    0.0264   -0.0172    0.0452    0.0023    0.0050
          27   -0.0145   -0.0263   -0.0023    0.0414    0.0344   -0.0118   -0.0009   -0.0062
          28   -0.0328    0.0055   -0.0753    0.0022   -0.0338   -0.0178   -0.0098    0.0006
          29   -0.0169    0.0004    0.0187   -0.0512    0.0018   -0.0124   -0.0065    0.0294
          30   -0.0095    0.0490   -0.0020   -0.0312   -0.0290    0.0183   -0.0005    0.0068
          31    0.0328   -0.0018    0.0439   -0.0083    0.0082    0.0089   -0.0233    0.1662
          32   -0.0546    0.0183   -0.0375   -0.0518   -0.0329    0.0059    0.0355   -0.1421
          33   -0.0149   -0.0394   -0.0384    0.0358    0.0135   -0.0257   -0.0155    0.0224
          34   -0.0219    0.0045   -0.0328    0.0011   -0.0129   -0.0038    0.0174   -0.1305
          35   -0.0588   -0.0779   -0.0922    0.0120    0.0068   -0.0690   -0.0257    0.0527
          36   -0.0241    0.0125   -0.0250    0.0030   -0.0118    0.0109    0.0253   -0.1422
          37    0.0249    0.0022    0.0391   -0.0181    0.0014    0.0111    0.0324   -0.1770
          38    0.0175   -0.0115    0.0568   -0.0496   -0.0001    0.0138    0.0258   -0.1107
          39    0.0357   -0.0587    0.0218    0.0340    0.0345   -0.0188    0.0074   -0.0677
          40   -0.0261   -0.0046   -0.0318   -0.0012   -0.0017   -0.0187   -0.0324    0.1896
          41    0.0326   -0.1172    0.0491    0.0143    0.0695   -0.0500   -0.0060    0.0231
          42    0.0161   -0.0044    0.0101    0.0028   -0.0032    0.0080    0.0103   -0.0579
          43    0.0131   -0.0021    0.0095    0.0099   -0.0650   -0.0454   -0.1100   -0.0067
          44    0.0014    0.0087   -0.0207    0.0977    0.0180    0.0120    0.0540   -0.0010
          45   -0.0046   -0.0464   -0.0084    0.0236   -0.0379    0.0444   -0.0563   -0.0026
          46   -0.0497   -0.0046    0.0295    0.0861   -0.0173    0.0384   -0.0221    0.0008
          47    0.0522   -0.0159   -0.0253   -0.0219   -0.0128   -0.0017    0.0236    0.0012
          48    0.0036    0.0259    0.0140    0.0421   -0.0274   -0.0289   -0.0509   -0.0032
          49    0.0107    0.0314    0.0217    0.0319   -0.0603   -0.0816   -0.1046   -0.0087
          50    0.0605   -0.0072   -0.0287   -0.0272   -0.0224   -0.0333    0.0016   -0.0017
          51    0.0300    0.0386    0.0117    0.0184   -0.0455   -0.0717   -0.0804   -0.0065
          52    0.0082   -0.0422   -0.0068   -0.0095   -0.0460    0.0124    0.0685    0.0030
          53    0.0683   -0.0249   -0.0347   -0.0471   -0.0214   -0.0112    0.0423    0.0012
          54    0.0344    0.0136    0.0022   -0.0026   -0.0413   -0.0403   -0.0210   -0.0024
          55    0.1019   -0.0406    0.1059    0.0049    0.0092    0.0227   -0.0059    0.0001
          56   -0.0124    0.0605    0.0179   -0.0504   -0.0499    0.0621    0.0074    0.0307
          57    0.0167   -0.0030    0.0346   -0.0309    0.0163   -0.0318   -0.0113    0.0104
          58   -0.1300    0.0422    0.0256    0.0000    0.0863    0.0377    0.0294    0.0019
          59    0.0119   -0.0153   -0.0061    0.0530   -0.0360    0.1051    0.0193    0.0038
          60   -0.0401   -0.0186   -0.0080    0.0426    0.0494   -0.0022    0.0082   -0.0062
          61   -0.0008   -0.0400    0.0020   -0.0397   -0.0320    0.0166    0.0037    0.0039
          62   -0.0160   -0.0199    0.0187    0.0044   -0.0244   -0.0042   -0.0129   -0.0003
          63    0.0154    0.0085   -0.0227    0.0046    0.0206    0.0106    0.0084    0.0002


   Root No.      17        18        19        20        21        22        23        24

                17 A      18 A      19 A      20 A      21 A      22 A      23 A      24 A   

                 866.6     918.6     919.9     921.7     943.0     958.9     971.7    1007.1
  
           1    0.0009    0.0001    0.0017   -0.0043   -0.0140    0.0004    0.0011    0.0008
           2    0.0017   -0.0008   -0.0015    0.0126    0.0267   -0.0011   -0.0073    0.0020
           3   -0.0004    0.0005    0.0022   -0.0080   -0.0236    0.0012    0.0047   -0.0016
           4   -0.0007   -0.0001   -0.0007    0.0007    0.0024    0.0002    0.0021   -0.0010
           5   -0.0000   -0.0002    0.0002    0.0004    0.0008   -0.0001   -0.0010    0.0002
           6    0.0001   -0.0001    0.0002   -0.0003   -0.0015    0.0001    0.0009   -0.0002
           7   -0.0029   -0.0088   -0.0094   -0.0106    0.0021    0.0156   -0.0027   -0.0105
           8    0.0002   -0.0007    0.0079   -0.0118    0.0020   -0.0033   -0.0127   -0.0266
           9   -0.0009   -0.0001   -0.0119    0.0124    0.0000    0.0053    0.0091    0.0261
          10   -0.0067    0.0100    0.0252   -0.0057    0.0009   -0.0209   -0.0073   -0.0185
          11   -0.0130    0.0126    0.0038    0.0258   -0.0061   -0.0165    0.0022   -0.0052
          12   -0.0051   -0.0016   -0.0082    0.0053   -0.0042    0.0043   -0.0083   -0.0187
          13   -0.0059    0.0086    0.0039    0.0164   -0.0021   -0.0100    0.0112    0.0248
          14    0.0141   -0.0095   -0.0279    0.0080   -0.0022    0.0200   -0.0010   -0.0101
          15    0.0016    0.0096    0.0017    0.0183   -0.0070   -0.0139   -0.0034   -0.0064
          16    0.0006   -0.0010    0.0041    0.0007   -0.0053   -0.0003   -0.0132    0.0022
          17    0.0007   -0.0016    0.0038   -0.0015   -0.0161    0.0030    0.0133    0.0010
          18    0.0011   -0.0019    0.0015    0.0065    0.0148    0.0005    0.0018    0.0066
          19   -0.0044    0.0049   -0.0131    0.0001    0.0203   -0.0019    0.0081   -0.0039
          20   -0.0003   -0.0010    0.0036   -0.0008   -0.0216    0.0070    0.0363   -0.0115
          21   -0.0007   -0.0018   -0.0006    0.0084    0.0370    0.0026    0.0207   -0.0102
          22   -0.0118   -0.0341   -0.0422   -0.0144   -0.0004   -0.0163    0.0065   -0.0019
          23    0.0009    0.0004    0.0162   -0.0210    0.0030    0.0001   -0.0077    0.0028
          24   -0.0028   -0.0132    0.0049   -0.0254    0.0121   -0.0029    0.0108   -0.0011
          25    0.0151   -0.0283    0.0427    0.0209   -0.0042    0.0077   -0.0137    0.0066
          26   -0.0016    0.0020   -0.0004   -0.0135   -0.0065   -0.0040   -0.0184    0.0046
          27    0.0042   -0.0048    0.0051    0.0104   -0.0155   -0.0016   -0.0291    0.0033
          28    0.1440   -0.0474   -0.0436   -0.0284    0.0094    0.2153   -0.0421   -0.0032
          29   -0.0132   -0.0028    0.0381   -0.0522    0.0246   -0.0211   -0.0002   -0.0092
          30    0.0375   -0.0110   -0.0170    0.0016    0.0049    0.0575   -0.0005    0.0305
          31   -0.0356    0.0164   -0.0200    0.0487   -0.0215   -0.0454   -0.0258   -0.0900
          32   -0.1341    0.0386   -0.0026    0.1122   -0.0297    0.0481   -0.0012    0.0350
          33    0.1140   -0.0272    0.0234   -0.0989    0.0288   -0.0345    0.0054   -0.0105
          34    0.0148   -0.0052    0.0557   -0.0667    0.0211    0.0233   -0.0166   -0.0256
          35    0.1278    0.0156    0.0454   -0.0353    0.0225   -0.1288    0.0755    0.1465
          36   -0.0129   -0.0181    0.0144   -0.0441    0.0102    0.0731   -0.0337   -0.0587
          37    0.0485   -0.0022   -0.0232    0.0116   -0.0015   -0.0552    0.0465    0.0840
          38    0.1330   -0.0144   -0.1071    0.0659   -0.0263   -0.0343    0.0213    0.0135
          39   -0.1098    0.0029    0.0880   -0.0777    0.0313    0.0075    0.0105    0.0374
          40   -0.0163    0.0048   -0.0445    0.0746   -0.0156    0.0854    0.0098    0.0806
          41   -0.1273   -0.0314    0.0220   -0.0624    0.0372    0.1322    0.0357    0.1383
          42    0.0130    0.0123    0.0136    0.0044   -0.0052   -0.0497   -0.0053   -0.0326
          43   -0.0097    0.0141   -0.0260   -0.0219   -0.0489   -0.0125   -0.0487    0.0302
          44   -0.0057    0.0117   -0.0245   -0.0126   -0.0447   -0.0075   -0.0092    0.0372
          45   -0.0077    0.0108   -0.0246   -0.0133   -0.0244   -0.0103   -0.0302    0.0327
          46    0.0094   -0.0240    0.0464    0.0312   -0.0026    0.0458    0.2216   -0.0808
          47   -0.0006   -0.0013   -0.0008    0.0065    0.0320    0.0017    0.0158   -0.0080
          48   -0.0010    0.0002    0.0037   -0.0055   -0.0537    0.0096    0.0478   -0.0127
          49   -0.0129    0.0239   -0.0387   -0.0402   -0.1207   -0.0144   -0.0502    0.0290
          50   -0.0074    0.0139   -0.0277   -0.0130    0.0057   -0.0157   -0.0599    0.0232
          51   -0.0092    0.0169   -0.0275   -0.0288   -0.0842   -0.0115   -0.0433    0.0236
          52   -0.0044    0.0016   -0.0271    0.0355    0.2459   -0.0180   -0.0473   -0.0009
          53   -0.0052    0.0077   -0.0243    0.0065    0.0981   -0.0162   -0.0565    0.0142
          54   -0.0063    0.0103   -0.0241   -0.0046    0.0368   -0.0142   -0.0519    0.0175
          55    0.0797    0.3085    0.1090    0.0378    0.0016    0.0796   -0.0248    0.0094
          56   -0.0075   -0.0319    0.0182   -0.0514    0.0227   -0.0051    0.0314    0.0688
          57    0.0222    0.0802    0.0468   -0.0120    0.0135    0.0234    0.0036    0.0052
          58   -0.0273    0.2882   -0.1411   -0.0945    0.0295   -0.0023    0.0519   -0.0148
          59    0.0018   -0.0167    0.0010    0.0056   -0.0117   -0.0103   -0.0630    0.0424
          60   -0.0068    0.0786   -0.0435   -0.0192   -0.0063   -0.0044   -0.0133   -0.0006
          61   -0.0017    0.0014    0.0032   -0.0186   -0.0469    0.0014    0.0063   -0.0015
          62   -0.0003    0.0013   -0.0005   -0.0013   -0.0015    0.0001   -0.0005    0.0001
          63    0.0001    0.0012   -0.0009    0.0005    0.0023    0.0002    0.0009   -0.0001


   Root No.      25        26        27        28        29        30        31        32

                25 A      26 A      27 A      28 A      29 A      30 A      31 A      32 A   

                1091.8    1100.2    1125.8    1130.5    1132.6    1162.2    1170.9    1175.7
  
           1    0.0003    0.0044   -0.0053    0.0041   -0.0068   -0.0022   -0.0001   -0.0066
           2    0.0025    0.0184   -0.0063    0.0095   -0.0207   -0.0063    0.0002    0.0005
           3   -0.0027   -0.0192    0.0111   -0.0099    0.0181    0.0046   -0.0000    0.0041
           4   -0.0011   -0.0067    0.0032   -0.0018    0.0025    0.0003    0.0000    0.0010
           5    0.0005    0.0024   -0.0003   -0.0000    0.0002    0.0002    0.0000    0.0009
           6   -0.0005   -0.0028    0.0007   -0.0003    0.0003   -0.0000   -0.0000   -0.0001
           7    0.0612   -0.0085   -0.0086   -0.0460   -0.0149   -0.0106    0.0131   -0.0031
           8   -0.0053    0.0009   -0.0058    0.0046    0.0048   -0.0216   -0.0011    0.0028
           9    0.0161   -0.0029   -0.0047   -0.0078   -0.0143    0.0314    0.0034    0.0107
          10   -0.0297    0.0051   -0.0023    0.0064    0.0067   -0.0292   -0.0070    0.0023
          11   -0.0033    0.0026    0.0206    0.0327   -0.0014    0.0327    0.0472   -0.0003
          12    0.0370   -0.0073    0.0029    0.0203    0.0143   -0.0330   -0.0330    0.0039
          13   -0.0078    0.0009    0.0099    0.0130   -0.0049    0.0464   -0.0303   -0.0032
          14    0.0050    0.0033    0.0039   -0.0310   -0.0237    0.0252   -0.0436    0.0010
          15   -0.0462    0.0074   -0.0097   -0.0181   -0.0001   -0.0125    0.0234    0.0019
          16    0.0111    0.0460   -0.0083   -0.0123    0.0356    0.0197    0.0001    0.0280
          17   -0.0008   -0.0031    0.0124   -0.0087    0.0149    0.0041   -0.0003   -0.0208
          18    0.0020    0.0219    0.0025    0.0130   -0.0353   -0.0145    0.0004   -0.0227
          19   -0.0101   -0.0534   -0.0022    0.0092   -0.0224   -0.0077   -0.0000   -0.0091
          20   -0.0012   -0.0014   -0.0064    0.0058   -0.0103   -0.0026    0.0001    0.0069
          21    0.0004    0.0087    0.0048   -0.0056    0.0129    0.0022   -0.0002    0.0072
          22   -0.0217    0.0065   -0.0023    0.0076    0.0078    0.0045   -0.0053    0.0028
          23    0.0028   -0.0057   -0.0106   -0.0046    0.0163    0.0013   -0.0002   -0.0296
          24   -0.0058    0.0055   -0.0004    0.0024    0.0017   -0.0094   -0.0016   -0.0130
          25    0.0079   -0.0060    0.0108   -0.0029   -0.0112   -0.0091    0.0016   -0.0091
          26    0.0011   -0.0113   -0.0268   -0.0031    0.0253    0.0148   -0.0009   -0.0133
          27    0.0038   -0.0157   -0.0186   -0.0038    0.0163    0.0184    0.0002    0.0103
          28   -0.0872    0.0096    0.0414    0.1686    0.0612   -0.0145   -0.0791    0.0124
          29    0.0084    0.0071   -0.0223    0.0076   -0.0550   -0.0981    0.0113    0.2260
          30   -0.0226    0.0024    0.0058    0.0509    0.0004    0.0217   -0.0203    0.0396
          31    0.0965   -0.0112    0.0576    0.1148    0.0218    0.0005    0.0590    0.0061
          32   -0.0598    0.0004   -0.0342   -0.0230    0.0386   -0.1193   -0.1493    0.0004
          33    0.0112    0.0041    0.0140    0.0039   -0.0285    0.0754    0.0913    0.0029
          34   -0.1290    0.0283   -0.0069   -0.0513   -0.0363    0.0227    0.0847    0.0077
          35   -0.0245   -0.0083   -0.0509   -0.0194    0.0260   -0.0697   -0.1425    0.0064
          36   -0.0599    0.0187    0.0134   -0.0254   -0.0346    0.0423    0.1014    0.0086
          37    0.1027   -0.0290   -0.0025    0.0927    0.0687   -0.0561    0.1191   -0.0089
          38    0.0459   -0.0124   -0.0257   -0.0143    0.0371   -0.1126    0.1330   -0.0014
          39    0.0392   -0.0083    0.0193    0.0639    0.0048    0.0595   -0.0447    0.0005
          40   -0.1313    0.0127   -0.0559   -0.0652    0.0195   -0.0499    0.1451   -0.0126
          41    0.0541   -0.0200   -0.0318    0.0273    0.0366   -0.0621    0.1205    0.0051
          42   -0.0112    0.0052    0.0119    0.0011   -0.0116    0.0225   -0.0405    0.0049
          43    0.0340    0.2854    0.0155    0.0053   -0.0089   -0.0246   -0.0014   -0.0341
          44   -0.0260   -0.0349    0.3117   -0.0917    0.0427   -0.0680    0.0040    0.0758
          45    0.0190    0.2141    0.0400    0.0231   -0.0719   -0.0558   -0.0006   -0.0705
          46    0.0013    0.0317   -0.0222    0.0086   -0.0032   -0.0034   -0.0002    0.0439
          47   -0.0004    0.0023    0.0047   -0.0050    0.0109    0.0022   -0.0002    0.0067
          48   -0.0018    0.0007   -0.0100    0.0129   -0.0260   -0.0083    0.0002    0.0040
          49   -0.0236   -0.1254   -0.0148    0.0457   -0.1107   -0.0358    0.0006   -0.0476
          50   -0.0104   -0.0521    0.0164    0.0055   -0.0248   -0.0125    0.0002   -0.0217
          51   -0.0126   -0.0599   -0.0029    0.0264   -0.0667   -0.0239    0.0003   -0.0306
          52   -0.0091   -0.0454    0.0354   -0.0255    0.0453    0.0030   -0.0008   -0.0138
          53   -0.0070   -0.0341    0.0224   -0.0081    0.0074   -0.0046   -0.0002   -0.0175
          54   -0.0066   -0.0310    0.0145    0.0005   -0.0100   -0.0075   -0.0000   -0.0189
          55    0.0530   -0.0202    0.0153   -0.0206   -0.0190   -0.0050    0.0101   -0.0032
          56   -0.0126    0.0093    0.1167   -0.0083   -0.0484   -0.0186    0.0017    0.0271
          57    0.0145   -0.0013    0.0075   -0.0050   -0.0084   -0.0119    0.0028   -0.0124
          58   -0.0227    0.0360   -0.0130    0.0130    0.0152    0.0072   -0.0045    0.0279
          59    0.0045   -0.0149   -0.0504    0.0325   -0.0605    0.0155    0.0042    0.3063
          60   -0.0042   -0.0047   -0.0262    0.0022    0.0193    0.0232   -0.0012    0.0315
          61   -0.0024   -0.0225    0.0186   -0.0260    0.0554    0.0183   -0.0006    0.0081
          62    0.0003    0.0021    0.0014   -0.0020    0.0047    0.0016   -0.0001    0.0006
          63   -0.0005   -0.0006   -0.0005    0.0021   -0.0048   -0.0019   -0.0000   -0.0022


   Root No.      33        34        35        36        37        38        39        40

                33 A      34 A      35 A      36 A      37 A      38 A      39 A      40 A   

                1212.8    1248.2    1273.7    1295.0    1339.8    1392.5    1399.8    1400.1
  
           1   -0.0011    0.0007   -0.0134   -0.0017    0.0016   -0.0026   -0.0000    0.0003
           2    0.0041   -0.0041    0.0142    0.0091   -0.0139    0.0002    0.0000   -0.0006
           3   -0.0035    0.0021   -0.0124   -0.0041    0.0074   -0.0009   -0.0000    0.0001
           4   -0.0006   -0.0000   -0.0013   -0.0001   -0.0000   -0.0013   -0.0000   -0.0001
           5    0.0006   -0.0003    0.0028    0.0011   -0.0023   -0.0004    0.0000   -0.0002
           6   -0.0005    0.0001   -0.0025   -0.0008    0.0019    0.0005   -0.0000    0.0003
           7    0.0075   -0.0035    0.0006   -0.0091   -0.0043    0.0001    0.0021    0.0002
           8   -0.0128   -0.0056    0.0006    0.0265   -0.0068   -0.0031   -0.0003    0.0014
           9   -0.0334    0.0104   -0.0011    0.0432    0.0141   -0.0004    0.0006    0.0003
          10    0.0027   -0.0029    0.0027    0.0320    0.0156   -0.0003   -0.0281   -0.0013
          11    0.0013    0.0018   -0.0003   -0.0035    0.0028    0.0003   -0.0126   -0.0009
          12    0.0062    0.0022    0.0013   -0.0037    0.0003    0.0001    0.0004    0.0000
          13   -0.0052    0.0017   -0.0028   -0.0262   -0.0130    0.0007   -0.0216   -0.0017
          14    0.0021    0.0014    0.0004    0.0017    0.0053   -0.0000    0.0172    0.0011
          15    0.0042    0.0034   -0.0003   -0.0189   -0.0072    0.0004   -0.0134   -0.0011
          16    0.0142    0.0026    0.0819    0.0046   -0.0045    0.0243    0.0003   -0.0011
          17   -0.0109    0.0213    0.0066   -0.0362    0.0714    0.0069   -0.0000    0.0005
          18   -0.0016    0.0023    0.0888   -0.0015   -0.0009    0.0134    0.0003   -0.0032
          19   -0.0016   -0.0011   -0.0107   -0.0001    0.0011   -0.0671   -0.0010    0.0118
          20    0.0031   -0.0056   -0.0028    0.0082   -0.0133   -0.0217   -0.0007    0.0115
          21   -0.0014   -0.0017   -0.0254    0.0010   -0.0001   -0.0289    0.0014   -0.0350
          22   -0.0021    0.0111    0.0024    0.0086   -0.0042    0.0005   -0.0002    0.0001
          23   -0.0015   -0.0202   -0.0032   -0.0110   -0.0247   -0.0001    0.0000   -0.0001
          24    0.0139   -0.0471    0.0103   -0.0344    0.0056    0.0015   -0.0000   -0.0007
          25   -0.0115   -0.0078   -0.0102   -0.0070    0.0025   -0.0025    0.0000    0.0000
          26   -0.0018    0.0058   -0.0142   -0.0030   -0.0234   -0.0003    0.0000   -0.0005
          27    0.0249    0.0258   -0.0340    0.0240   -0.0179   -0.0027   -0.0001    0.0006
          28    0.0012    0.0144    0.0009   -0.0183   -0.0067    0.0000   -0.0056   -0.0005
          29   -0.1341    0.2739   -0.0004   -0.1314   -0.0397    0.0039    0.0005   -0.0016
          30   -0.0500    0.0436   -0.0013    0.0252    0.0109    0.0003   -0.0014   -0.0001
          31    0.0182    0.0090    0.0040    0.0646    0.0790    0.0081    0.1858    0.0075
          32    0.0299   -0.0030    0.0040   -0.0137    0.0063    0.0011    0.0048   -0.0001
          33   -0.0274    0.0012   -0.0027   -0.0082   -0.0322   -0.0047   -0.1182   -0.0049
          34   -0.0066    0.0067    0.0029    0.0786    0.0679    0.0056    0.1382    0.0058
          35   -0.0276   -0.0031    0.0029    0.0913    0.0546    0.0035    0.1291    0.0061
          36    0.0010    0.0132    0.0007    0.0166    0.0347    0.0046    0.1168    0.0048
          37    0.0029   -0.0088   -0.0021   -0.0537   -0.0510   -0.0064    0.1002    0.0085
          38    0.0312   -0.0017    0.0044   -0.0027    0.0181    0.0028   -0.0308   -0.0030
          39   -0.0310   -0.0030   -0.0047   -0.0395   -0.0664   -0.0116    0.1925    0.0164
          40    0.0009   -0.0126   -0.0031   -0.0600   -0.0658   -0.0095    0.1525    0.0129
          41   -0.0283   -0.0016    0.0036    0.1040    0.0668    0.0076   -0.1548   -0.0123
          42    0.0028    0.0081   -0.0006   -0.0197   -0.0004    0.0022   -0.0400   -0.0034
          43   -0.0284   -0.0040   -0.2284   -0.0084    0.0137   -0.0332   -0.0007    0.0051
          44   -0.0950   -0.0806    0.0415    0.0530   -0.1055   -0.0079   -0.0000    0.0015
          45   -0.0397   -0.0073   -0.1580   -0.0058    0.0009   -0.0342   -0.0004    0.0007
          46    0.0058   -0.0302   -0.1271    0.0357   -0.0624    0.2668    0.0034   -0.0263
          47   -0.0010   -0.0016   -0.0139    0.0005    0.0005   -0.0340    0.0089   -0.1942
          48    0.0030   -0.0085   -0.0110    0.0127   -0.0217    0.0348   -0.0153    0.3301
          49   -0.0058   -0.0065   -0.0167    0.0039   -0.0172    0.1651    0.0054   -0.0933
          50   -0.0104    0.0013   -0.0020   -0.0087    0.0138    0.0966    0.0076   -0.1344
          51   -0.0066   -0.0049   -0.0247    0.0021   -0.0113    0.1595    0.0062   -0.1094
          52   -0.0196    0.0065   -0.1375   -0.0190    0.0252    0.1657    0.0018   -0.0233
          53   -0.0129    0.0043   -0.0504   -0.0121    0.0170    0.1454   -0.0079    0.1935
          54   -0.0090    0.0044   -0.0108   -0.0098    0.0170    0.0542   -0.0097    0.2229
          55    0.0171    0.0231   -0.0234    0.0095   -0.0017   -0.0038   -0.0015    0.0003
          56    0.3615    0.1414   -0.0431    0.0159    0.0037    0.0001   -0.0004    0.0006
          57    0.0332   -0.0416    0.0015   -0.0341    0.0090    0.0004   -0.0003   -0.0007
          58    0.0037   -0.0218    0.0369   -0.0089    0.0084    0.0054   -0.0007   -0.0008
          59    0.0565   -0.2468   -0.0651   -0.0517    0.0817   -0.0036   -0.0001    0.0028
          60    0.0345    0.0132   -0.0234    0.0233   -0.0124   -0.0004   -0.0003    0.0004
          61   -0.0093    0.0131   -0.0308   -0.0311    0.0676    0.0278   -0.0001    0.0065
          62   -0.0001    0.0013    0.0019   -0.0017    0.0039    0.0021    0.0000    0.0001
          63    0.0000   -0.0005    0.0002    0.0016   -0.0036   -0.0024    0.0000   -0.0005


   Root No.      41        42        43        44        45        46        47        48

                41 A      42 A      43 A      44 A      45 A      46 A      47 A      48 A   

                1407.7    1416.6    1486.5    1592.6    1887.8    2834.0    2998.8    3030.9
  
           1    0.0005   -0.0005   -0.0208    0.0000   -0.0012   -0.0007    0.0000   -0.0000
           2   -0.0001   -0.0019    0.0399   -0.0007    0.0041   -0.0009   -0.0000    0.0000
           3   -0.0002    0.0012   -0.0358    0.0011    0.0002    0.0010   -0.0000   -0.0000
           4    0.0000   -0.0004   -0.0221    0.0003    0.0000   -0.0002   -0.0000    0.0000
           5    0.0000   -0.0010   -0.0255    0.0002   -0.0000    0.0006    0.0000   -0.0000
           6   -0.0001    0.0010    0.0266   -0.0002    0.0002   -0.0005    0.0000   -0.0000
           7    0.0001   -0.0000    0.0004    0.0179   -0.0013    0.0000    0.0156    0.0020
           8    0.0064    0.0432   -0.0005    0.1387   -0.0466    0.0001    0.0064    0.0014
           9    0.0018    0.0153   -0.0021   -0.0196   -0.0105    0.0000   -0.0573   -0.0072
[...]
 T-DIPOLE    0.3822         C  3 -- H 10         +10.4% ( 47.9%)     16.0%
 TRAVEL      0.0796         C  3 -- C  4         +10.1% ( 47.3%)      5.7%
 RED. MASS   0.8502         C  3 -- C  5         +10.1% ( 47.2%)      5.5%
 EFF. MASS   8.2168

 VIBRATION   37   37A         ATOM PAIR      ENERGY CONTRIBUTION    RADIAL
 FREQ.      1339.76         C  6 -- C  9         +19.0% ( 63.1%)     88.9%
 T-DIPOLE    0.6741         C  6 -- H 15         +17.5% ( 60.6%)      0.0%
 TRAVEL      0.0810         O  1 -- C  6         +15.2% ( 56.6%)     67.5%
 RED. MASS   1.9241         C  6 -- C  7         +13.6% ( 53.5%)      3.5%
 EFF. MASS   7.6685

 VIBRATION   38   38A         ATOM PAIR      ENERGY CONTRIBUTION    RADIAL
 FREQ.      1392.54         C  7 -- H 16         +28.2% ( 61.9%)      3.9%
 T-DIPOLE    0.1071         C  7 -- H 17         +26.5% ( 59.9%)      2.1%
 TRAVEL      0.1133         C  7 -- H 18         +23.4% ( 56.4%)      2.9%
 RED. MASS   0.9674         C  6 -- C  7         +15.9% ( 46.4%)     98.9%
 EFF. MASS   3.7749

 VIBRATION   39   39A         ATOM PAIR      ENERGY CONTRIBUTION    RADIAL
 FREQ.      1399.75         C  4 -- H 12         +21.5% ( 46.0%)      2.6%
 T-DIPOLE    0.0832         C  5 -- H 14         +21.3% ( 45.7%)      2.6%
 TRAVEL      0.1596         C  4 -- H 11         +21.0% ( 45.4%)      2.8%
 RED. MASS   0.2652         C  5 -- H 13         +20.8% ( 45.2%)      2.9%
 EFF. MASS   1.8907

 VIBRATION   40   40A         ATOM PAIR      ENERGY CONTRIBUTION    RADIAL
 FREQ.      1400.12         C  7 -- H 16         +50.6% ( 61.3%)      0.2%
 T-DIPOLE    0.0788         C  7 -- H 18         +30.0% ( 47.2%)      4.2%
 TRAVEL      0.1772         C  7 -- H 17         +13.9% ( 32.1%)     25.3%
 RED. MASS   0.4078         C  6 -- C  7          +4.8% ( 19.0%)      1.7%
 EFF. MASS   1.5337

 VIBRATION   41   41A         ATOM PAIR      ENERGY CONTRIBUTION    RADIAL
 FREQ.      1407.65         C  7 -- H 17         +50.4% ( 62.0%)      0.5%
 T-DIPOLE    0.1155         C  7 -- H 18         +31.6% ( 49.1%)      5.7%
 TRAVEL      0.1718         C  7 -- H 16         +10.3% ( 28.0%)     28.7%
 RED. MASS   0.4270         C  6 -- C  7          +5.3% ( 20.2%)     11.6%
 EFF. MASS   1.6224

 VIBRATION   42   42A         ATOM PAIR      ENERGY CONTRIBUTION    RADIAL
 FREQ.      1416.56         C  3 -- C  8         +14.7% ( 49.2%)     99.7%
 T-DIPOLE    0.0463         C  3 -- H 10          +9.5% ( 39.5%)      1.6%
 TRAVEL      0.0955         C  5 -- H 13          +9.0% ( 38.5%)      1.5%
 RED. MASS   0.5311         C  4 -- H 11          +9.0% ( 38.4%)      1.5%
 EFF. MASS   5.2147

 VIBRATION   43   43A         ATOM PAIR      ENERGY CONTRIBUTION    RADIAL
 FREQ.      1486.49         O  2 -- H 21         +82.5% ( 90.9%)      2.8%
 T-DIPOLE    0.4014         O  1 -- C  6          +6.4% ( 25.4%)     97.0%
 TRAVEL      0.1290         O  1 -- O  2          +4.9% ( 22.1%)      0.0%
 RED. MASS   0.8595         C  6 -- C  7          +1.9% ( 13.8%)     28.7%
 EFF. MASS   2.7276

 VIBRATION   44   44A         ATOM PAIR      ENERGY CONTRIBUTION    RADIAL
 FREQ.      1592.56         C  3 -- C  4         +19.4% ( 73.2%)     94.7%
 T-DIPOLE    0.0382         C  3 -- C  5         +19.4% ( 73.1%)     94.7%
 TRAVEL      0.0605         C  4 -- C  5         +14.8% ( 63.9%)    100.0%
 RED. MASS   3.2601         C  3 -- C  8         +11.0% ( 55.1%)     77.1%
 EFF. MASS  11.5541         C  3 -- H 10         +10.0% ( 52.5%)      2.3%

 VIBRATION   45   45A         ATOM PAIR      ENERGY CONTRIBUTION    RADIAL
 FREQ.      1887.76         C  8 -- C  9         +43.6% ( 97.7%)     96.6%
 T-DIPOLE    0.6371         C  3 -- C  8         +15.3% ( 57.9%)     56.2%
 TRAVEL      0.0550         C  8 -- H 19         +13.9% ( 55.2%)      3.3%
 RED. MASS   5.3574         C  6 -- C  9         +13.0% ( 53.4%)     49.0%
 EFF. MASS  11.8031         C  9 -- H 20         +12.5% ( 52.4%)      4.3%

 VIBRATION   46   46A         ATOM PAIR      ENERGY CONTRIBUTION    RADIAL
 FREQ.      2833.99         C  6 -- H 15         +96.4% ( 99.9%)    100.0%
 T-DIPOLE    0.0647         O  1 -- C  6          +1.2% ( 11.0%)     11.4%
 TRAVEL      0.1272         C  6 -- C  9          +1.2% ( 11.0%)     12.6%
 RED. MASS   0.9279         C  6 -- C  7          +1.2% ( 11.0%)     11.1%
 EFF. MASS   1.4701

 VIBRATION   47   47A         ATOM PAIR      ENERGY CONTRIBUTION    RADIAL
 FREQ.      2998.83         C  3 -- H 10         +94.5% ( 99.0%)    100.0%
 T-DIPOLE    0.1712         C  8 -- H 19          +1.4% ( 12.1%)     99.9%
 TRAVEL      0.1239         C  3 -- C  8          +1.2% ( 11.2%)     15.1%
 RED. MASS   0.8932         C  3 -- C  4          +1.1% ( 10.9%)     21.9%
 EFF. MASS   1.4649

 VIBRATION   48   48A         ATOM PAIR      ENERGY CONTRIBUTION    RADIAL
 FREQ.      3030.89         C  8 -- H 19         +95.5% ( 99.1%)    100.0%
 T-DIPOLE    0.2768         C  8 -- C  9          +1.4% ( 12.1%)     39.9%
 TRAVEL      0.1215         C  3 -- C  8          +1.3% ( 11.7%)     16.0%
 RED. MASS   0.8973         C  3 -- H 10          +1.3% ( 11.7%)    100.0%
 EFF. MASS   1.5061

 VIBRATION   49   49A         ATOM PAIR      ENERGY CONTRIBUTION    RADIAL
 FREQ.      3047.37         C  9 -- H 20         +96.6% ( 99.7%)    100.0%
 T-DIPOLE    0.3143         C  8 -- C  9          +1.6% ( 12.8%)     40.8%
 TRAVEL      0.1206         C  6 -- C  9          +1.4% ( 11.8%)     14.1%
 RED. MASS   0.9217         C  8 -- H 19          +0.3% (  5.4%)     94.4%
 EFF. MASS   1.5218

 VIBRATION   50   50A         ATOM PAIR      ENERGY CONTRIBUTION    RADIAL
 FREQ.      3084.15         C  4 -- H 12         +27.8% ( 54.6%)     97.7%
 T-DIPOLE    0.0222         C  5 -- H 14         +27.3% ( 54.1%)     97.7%
 TRAVEL      0.1185         C  4 -- H 11         +21.4% ( 48.0%)     96.2%
 RED. MASS   0.2641         C  5 -- H 13         +21.1% ( 47.6%)     96.2%
 EFF. MASS   1.5566

 VIBRATION   51   51A         ATOM PAIR      ENERGY CONTRIBUTION    RADIAL
 FREQ.      3087.23         C  7 -- H 17         +64.9% ( 83.1%)     98.9%
 T-DIPOLE    0.0846         C  7 -- H 18         +22.4% ( 48.9%)     89.0%
 TRAVEL      0.1205         C  7 -- H 16         +11.7% ( 35.2%)     77.1%
 RED. MASS   0.5135         C  6 -- C  7          +1.0% ( 10.3%)      0.0%
 EFF. MASS   1.5033

 VIBRATION   52   52A         ATOM PAIR      ENERGY CONTRIBUTION    RADIAL
 FREQ.      3091.16         C  7 -- H 16         +54.2% ( 76.0%)     97.8%
 T-DIPOLE    0.0864         C  7 -- H 18         +43.2% ( 67.8%)     96.1%
 TRAVEL      0.1202         C  7 -- H 17          +1.6% ( 13.0%)     14.3%
 RED. MASS   0.5106         C  6 -- C  7          +1.0% ( 10.5%)      0.0%
 EFF. MASS   1.5095

 VIBRATION   53   53A         ATOM PAIR      ENERGY CONTRIBUTION    RADIAL
 FREQ.      3098.36         C  5 -- H 14         +28.8% ( 55.3%)     98.1%
 T-DIPOLE    0.2582         C  4 -- H 12         +28.4% ( 54.9%)     98.1%
 TRAVEL      0.1188         C  5 -- H 13         +20.3% ( 46.4%)     96.1%
 RED. MASS   0.2653         C  4 -- H 11         +19.9% ( 45.9%)     96.1%
 EFF. MASS   1.5431

 VIBRATION   54   54A         ATOM PAIR      ENERGY CONTRIBUTION    RADIAL
 FREQ.      3134.05         C  4 -- H 11         +30.8% ( 55.1%)     97.4%
 T-DIPOLE    0.2317         C  5 -- H 13         +25.4% ( 50.0%)     97.4%
 TRAVEL      0.1301         C  4 -- H 12         +23.1% ( 47.7%)     95.3%
 RED. MASS   0.2482         C  5 -- H 14         +19.4% ( 43.7%)     95.4%
 EFF. MASS   1.2707

 VIBRATION   55   55A         ATOM PAIR      ENERGY CONTRIBUTION    RADIAL
 FREQ.      3135.09         C  5 -- H 13         +31.7% ( 56.1%)     97.5%
 T-DIPOLE    0.1899         C  4 -- H 11         +26.4% ( 51.2%)     97.5%
 TRAVEL      0.1269         C  5 -- H 14         +21.9% ( 46.6%)     94.5%
 RED. MASS   0.2519         C  4 -- H 12         +18.0% ( 42.3%)     94.5%
 EFF. MASS   1.3355

 VIBRATION   56   56A         ATOM PAIR      ENERGY CONTRIBUTION    RADIAL
 FREQ.      3183.58         C  7 -- H 18         +33.7% ( 55.8%)     97.2%
 T-DIPOLE    0.0941         C  7 -- H 16         +33.4% ( 55.6%)     97.0%
 TRAVEL      0.1368         C  7 -- H 17         +32.7% ( 55.0%)     96.9%
 RED. MASS   0.3271         C  6 -- C  7          +0.3% (  4.9%)     99.9%
 EFF. MASS   1.1323

 VIBRATION   57   57A         ATOM PAIR      ENERGY CONTRIBUTION    RADIAL
 FREQ.      3988.21         O  2 -- H 21         +99.6% (100.0%)     99.9%
 T-DIPOLE    0.3821         O  1 -- O  2          +0.4% (  6.0%)      0.0%
 TRAVEL      0.1107
 RED. MASS   0.9479
 EFF. MASS   1.3794

      SYMMETRY NUMBER FOR POINT-GROUP C1  =  1


          SYSTEM IS A GROUND STATE



 InChI=1S/C7H12O2/c1-6(9-8)2-3-7-4-5-7/h2-3,6-8H,4-5H2,1H3


          MOLECULE IS NOT LINEAR

          THERE ARE 57 GENUINE VIBRATIONS IN THIS SYSTEM
          THIS THERMODYNAMICS CALCULATION IS LIMITED TO
          MOLECULES WHICH HAVE NO INTERNAL ROTATIONS




                    CALCULATED THERMODYNAMIC PROPERTIES
                                          *
   TEMP. (K)   PARTITION FUNCTION   H.O.F.    ENTHALPY  HEAT CAPACITY ENTROPY
                                   KCAL/MOL   CAL/MOLE    CAL/K/MOL  CAL/K/MOL


 298.00  VIB.     0.1290D+05                  5093.5092    31.9826    35.9014
         ROT.     0.7569D+06                   888.2813     2.9808    29.8817
         INT.     0.9765D+10                  5981.7905    34.9635    65.7831
         TRA.     0.1403D+28                  1480.4688     4.9680    40.4556
         TOT.                       -3.044    7462.2594    39.9315   106.2387

 200.00  VIB.     0.6984D+03                  2464.1499    21.9823    25.3344
         ROT.     0.4162D+06                   596.1620     2.9808    28.6930
         INT.     0.2906D+09                  3060.3119    24.9631    54.0274
         TRA.     0.7713D+27                   993.6033     4.9680    38.4745
         TOT.                       -6.452    4053.9151    29.9311    92.5019

 210.00  VIB.     0.9506D+03                  2688.5913    22.9098    26.4293
         ROT.     0.4478D+06                   625.9700     2.9808    28.8384
         INT.     0.4257D+09                  3314.5613    25.8907    55.2677
         TRA.     0.8299D+27                  1043.2834     4.9680    38.7168
         TOT.                       -6.148    4357.8447    30.8587    93.9846

 220.00  VIB.     0.1290D+04                  2922.4258    23.8610    27.5169
         ROT.     0.4801D+06                   655.7781     2.9808    28.9771
         INT.     0.6194D+09                  3578.2039    26.8419    56.4940
         TRA.     0.8899D+27                  1092.9636     4.9680    38.9480
         TOT.                       -5.835    4671.1675    31.8099    95.4420

 230.00  VIB.     0.1746D+04                  3165.8920    24.8362    28.5990
         ROT.     0.5132D+06                   685.5862     2.9808    29.1096
         INT.     0.8959D+09                  3851.4782    27.8170    57.7086
         TRA.     0.9512D+27                  1142.6437     4.9680    39.1688
         TOT.                       -5.512    4994.1219    32.7850    96.8774

 240.00  VIB.     0.2356D+04                  3419.2266    25.8345    29.6771
         ROT.     0.5471D+06                   715.3943     2.9808    29.2364
         INT.     0.1289D+10                  4134.6209    28.8154    58.9135
         TRA.     0.1014D+28                  1192.3239     4.9680    39.3802
         TOT.                       -5.179    5326.9448    33.7834    98.2937

 250.00  VIB.     0.3173D+04                  3682.6558    26.8548    30.7523
         ROT.     0.5816D+06                   745.2024     2.9808    29.3581
         INT.     0.1845D+10                  4427.8583    29.8356    60.1104
         TRA.     0.1078D+28                  1242.0041     4.9680    39.5830
         TOT.                       -4.836    5669.8623    34.8036    99.6935

 260.00  VIB.     0.4264D+04                  3956.3889    27.8949    31.8258
         ROT.     0.6169D+06                   775.0105     2.9808    29.4750
         INT.     0.2630D+10                  4731.3994    30.8757    61.3008
         TRA.     0.1143D+28                  1291.6842     4.9680    39.7779
         TOT.                       -4.483    6023.0836    35.8437   101.0787

 270.00  VIB.     0.5719D+04                  4240.6124    28.9525    32.8983
         ROT.     0.6528D+06                   804.8186     2.9808    29.5875
         INT.     0.3733D+10                  5045.4310    31.9333    62.4858
         TRA.     0.1210D+28                  1341.3644     4.9680    39.9654
         TOT.                       -4.119    6386.7954    36.9013   102.4512

 280.00  VIB.     0.7657D+04                  4535.4874    30.0247    33.9706
         ROT.     0.6894D+06                   834.6267     2.9808    29.6959
         INT.     0.5279D+10                  5370.1141    33.0055    63.6665
         TRA.     0.1278D+28                  1391.0445     4.9680    40.1461
         TOT.                       -3.745    6761.1587    37.9736   103.8126

 290.00  VIB.     0.1024D+05                  4841.1466    31.1088    35.0431
         ROT.     0.7266D+06                   864.4348     2.9808    29.8005
         INT.     0.7439D+10                  5705.5814    34.0896    64.8436
         TRA.     0.1347D+28                  1440.7247     4.9680    40.3204
         TOT.                       -3.360    7146.3061    39.0577   105.1640

 300.00  VIB.     0.1367D+05                  5157.6936    32.2018    36.1161
         ROT.     0.7646D+06                   894.2429     2.9808    29.9016
         INT.     0.1045D+11                  6051.9366    35.1826    66.0177
         TRA.     0.1417D+28                  1490.4049     4.9680    40.4888
         TOT.                       -2.964    7542.3414    40.1506   106.5065

 310.00  VIB.     0.1823D+05                  5485.2027    33.3008    37.1899
         ROT.     0.8031D+06                   924.0510     2.9808    29.9993
         INT.     0.1464D+11                  6409.2538    36.2816    67.1892
         TRA.     0.1488D+28                  1540.0850     4.9680    40.6517
         TOT.                       -2.557    7949.3388    41.2496   107.8409

 320.00  VIB.     0.2428D+05                  5823.7193    34.4028    38.2645
         ROT.     0.8423D+06                   953.8591     2.9808    30.0940
         INT.     0.2045D+11                  6777.5784    37.3837    68.3585
         TRA.     0.1561D+28                  1589.7652     4.9680    40.8094
         TOT.                       -2.139    8367.3436    42.3517   109.1680

 330.00  VIB.     0.3231D+05                  6173.2611    35.5054    39.3401
         ROT.     0.8821D+06                   983.6672     2.9808    30.1857
         INT.     0.2850D+11                  7156.9283    38.4862    69.5258
         TRA.     0.1635D+28                  1639.4454     4.9680    40.9623
         TOT.                       -1.710    8796.3736    43.4542   110.4881

 340.00  VIB.     0.4295D+05                  6533.8198    36.6058    40.4164
         ROT.     0.9225D+06                  1013.4753     2.9808    30.2747
         INT.     0.3962D+11                  7547.2952    39.5866    70.6910
         TRA.     0.1710D+28                  1689.1255     4.9680    41.1106
         TOT.                       -1.270    9236.4207    44.5547   111.8017

 350.00  VIB.     0.5706D+05                  6905.3631    37.7019    41.4933
         ROT.     0.9634D+06                  1043.2834     2.9808    30.3611
         INT.     0.5498D+11                  7948.6466    40.6827    71.8544
         TRA.     0.1786D+28                  1738.8057     4.9680    41.2546
         TOT.                       -0.819    9687.4522    45.6507   113.1090

 360.00  VIB.     0.7575D+05                  7287.8364    38.7915    42.5707
         ROT.     0.1005D+07                  1073.0915     2.9808    30.4451
         INT.     0.7613D+11                  8360.9279    41.7723    73.0157
         TRA.     0.1863D+28                  1788.4859     4.9680    41.3946
         TOT.                       -0.357   10149.4138    46.7403   114.4103

 370.00  VIB.     0.1005D+06                  7681.1651    39.8727    43.6483
         ROT.     0.1047D+07                  1102.8996     2.9808    30.5267
         INT.     0.1052D+12                  8784.0647    42.8535    74.1750
         TRA.     0.1941D+28                  1838.1660     4.9680    41.5307
         TOT.                        0.116   10622.2307    47.8215   115.7057

 380.00  VIB.     0.1332D+06                  8085.2569    40.9439    44.7259
         ROT.     0.1090D+07                  1132.7077     2.9808    30.6062
         INT.     0.1452D+12                  9217.9646    43.9247    75.3321
         TRA.     0.2020D+28                  1887.8462     4.9680    41.6632
         TOT.                        0.600   11105.8108    48.8927   116.9953

 390.00  VIB.     0.1766D+06                  8500.0039    42.0035    45.8031
         ROT.     0.1133D+07                  1162.5158     2.9808    30.6836
         INT.     0.2001D+12                  9662.5197    44.9843    76.4868
         TRA.     0.2100D+28                  1937.5263     4.9680    41.7923
         TOT.                        1.094   11600.0460    49.9523   118.2790

 400.00  VIB.     0.2338D+06                  8925.2846    43.0504    46.8798
         ROT.     0.1177D+07                  1192.3239     2.9808    30.7591
         INT.     0.2752D+12                 10117.6085    46.0312    77.6389
         TRA.     0.2182D+28                  1987.2065     4.9680    41.9180
         TOT.                        1.599   12104.8150    50.9992   119.5569

   *: NOTE: HEATS OF FORMATION ARE RELATIVE TO THE
            ELEMENTS IN THEIR STANDARD STATE AT 298K
              (=  Standard Enthalpy of Formation).

            Hvib:  Zero-point energy is not included.
                   frequencies of less than zero cm-1 are not included.
            Hrot = (3/2)RT
            Htra = (3/2)RT + pV = (5/2)RT

            Heat capacity is Cp, not Cv

          For more information, see: HTTP://OpenMOPAC.net/Manual/thermochemistry.html


           FORCE CONSTANT IN CARTESIAN COORDINATES (Millidynes/A)

    ATOM   CHEMICAL       X               Y               Z
   NUMBER   SYMBOL  FORCE CONSTANT  FORCE CONSTANT  FORCE CONSTANT

      1       O        4.375719        4.273235        2.830508
      2       O        3.071334        4.663521        4.991004
      3       C        4.927597       11.499704        9.442694
      4       C       11.024394        6.317562        7.699452
      5       C        8.784995        7.261720        8.990606
      6       C        8.209101        8.657200        8.337007
      7       C        7.881696        8.443842        8.264518
      8       C        3.155892       14.405363       10.002286
      9       C        3.242820       13.855503        9.919408
     10       H        0.822753        0.883371        4.627605
     11       H        1.430850        2.169453        3.058688
     12       H        2.909767        0.735400        2.998340
     13       H        2.225277        2.710599        1.723564
     14       H        1.006271        0.668096        4.968954
     15       H        2.183707        0.745660        2.955029
     16       H        0.736421        4.222534        1.852596
     17       H        2.582271        0.702984        3.514719
     18       H        1.250647        3.097147        2.420618
     19       H        0.684557        0.793767        4.712479
     20       H        0.664585        0.803027        4.788198
     21       H        1.304975        4.190404        4.608789

 **********************
 *                    *
 * JOB ENDED NORMALLY *
 *                    *
 **********************



 TOTAL JOB TIME:             3.34 SECONDS

 == MOPAC DONE ==
