 *******************************************************************************
 ** Site#: 14399        For non-commercial use only    Version 18.184L 64BITS **
 *******************************************************************************
 ** Cite this program as: MOPAC2016, Version: 18.184L, James J. P. Stewart,   **
 ** Stewart Computational Chemistry, web: HTTP://OpenMOPAC.net. Days left:  18**
 *******************************************************************************
 **                                                                           **
 **                                MOPAC2016                                  **
 **                                                                           **
 *******************************************************************************

                              PM3 CALCULATION RESULTS

 *******************************************************************************
 *  CALCULATION DONE:                                Sat Jun 15 10:10:18 2019  *
 *  PM3        - The PM3 Hamiltonian to be used
 *  PRECISE    - CRITERIA TO BE INCREASED BY 100 TIMES
 *  NOSYM      - POINT-GROUP SYMMETRY SET TO C1
 *  THREADS=1  - MULTI-THREADING NOT USED
 *  T=         - A TIME OF 172800.0 SECONDS REQUESTED
 *  DUMP=N     - RESTART FILE WRITTEN EVERY  7200.000 SECONDS
 *******************************************************************************
pm3  precise nosym THREADS=1
 InChI=1S/C12H18/c1-3-8-11(4-2)12-9-6-5-7-10-12/h5-7,9-11H,3-4,8H2,1-2H3

   ATOM   CHEMICAL          X               Y               Z
  NUMBER   SYMBOL      (ANGSTROMS)     (ANGSTROMS)     (ANGSTROMS)
 
     1       C         -0.63250000  *   0.53380000  *  -0.51960000  *
     2       C         -1.68450000  *  -0.32630000  *   0.21660000  *
     3       C         -0.93270000  *   2.03690000  *  -0.32380000  *
     4       C         -1.51990000  *  -1.82550000  *  -0.07810000  *
     5       C         -2.61460000  *  -2.64370000  *   0.60050000  *
     6       C         -0.01290000  *   2.92850000  *  -1.15920000  *
     7       C          0.78100000  *   0.18600000  *  -0.07670000  *
     8       C          1.70380000  *  -0.32110000  *  -1.00970000  *
     9       C          1.19000000  *   0.36070000  *   1.26000000  *
    10       C          3.00480000  *  -0.64580000  *  -0.61440000  *
    11       C          3.39870000  *  -0.46830000  *   0.71380000  *
    12       C          2.49220000  *   0.03440000  *   1.64970000  *
    13       H         -0.74520000  *   0.32100000  *  -1.60720000  *
    14       H         -0.53370000  *  -2.18020000  *   0.29140000  *
    15       H         -1.56820000  *  -2.00000000  *  -1.17500000  *
    16       H         -1.62440000  *  -0.15270000  *   1.31310000  *
    17       H         -2.69920000  *  -0.01350000  *  -0.11590000  *
    18       H         -0.84070000  *   2.31820000  *   0.74740000  *
    19       H         -1.98040000  *   2.24430000  *  -0.63350000  *
    20       H         -2.57450000  *  -2.50280000  *   1.70160000  *
    21       H         -2.46750000  *  -3.72090000  *   0.37470000  *
    22       H         -3.61450000  *  -2.33620000  *   0.22690000  *
    23       H         -0.08500000  *   2.65890000  *  -2.23430000  *
    24       H         -0.31630000  *   3.98980000  *  -1.03880000  *
    25       H          1.04100000  *   2.82660000  *  -0.82470000  *
    26       H          1.41770000  *  -0.46630000  *  -2.04390000  *
    27       H          3.70830000  *  -1.03550000  *  -1.33870000  *
    28       H          4.40650000  *  -0.72040000  *   1.01770000  *
    29       H          2.79870000  *   0.17140000  *   2.67870000  *
    30       H          0.50400000  *   0.74860000  *   2.00150000  *
 


          CARTESIAN COORDINATES 

    NO.       ATOM           X           Y           Z

     1         C         -0.6325      0.5338     -0.5196
     2         C         -1.6845     -0.3263      0.2166
     3         C         -0.9327      2.0369     -0.3238
     4         C         -1.5199     -1.8255     -0.0781
     5         C         -2.6146     -2.6437      0.6005
     6         C         -0.0129      2.9285     -1.1592
     7         C          0.7810      0.1860     -0.0767
     8         C          1.7038     -0.3211     -1.0097
     9         C          1.1900      0.3607      1.2600
    10         C          3.0048     -0.6458     -0.6144
    11         C          3.3987     -0.4683      0.7138
    12         C          2.4922      0.0344      1.6497
    13         H         -0.7452      0.3210     -1.6072
    14         H         -0.5337     -2.1802      0.2914
    15         H         -1.5682     -2.0000     -1.1750
    16         H         -1.6244     -0.1527      1.3131
    17         H         -2.6992     -0.0135     -0.1159
    18         H         -0.8407      2.3182      0.7474
    19         H         -1.9804      2.2443     -0.6335
    20         H         -2.5745     -2.5028      1.7016
    21         H         -2.4675     -3.7209      0.3747
    22         H         -3.6145     -2.3362      0.2269
    23         H         -0.0850      2.6589     -2.2343
    24         H         -0.3163      3.9898     -1.0388
    25         H          1.0410      2.8266     -0.8247
    26         H          1.4177     -0.4663     -2.0439
    27         H          3.7083     -1.0355     -1.3387
    28         H          4.4065     -0.7204      1.0177
    29         H          2.7987      0.1714      2.6787
    30         H          0.5040      0.7486      2.0015

  H: (PM3): J. J. P. STEWART, J. COMP. CHEM. 10, 209 (1989).
  C: (PM3): J. J. P. STEWART, J. COMP. CHEM. 10, 209 (1989).

           Empirical Formula: C12 H18  =    30 atoms



      MOLECULAR POINT GROUP   :   C1  


      RHF CALCULATION, NO. OF DOUBLY OCCUPIED LEVELS = 33


          Geometry optimization using EF

          DIAGONAL MATRIX USED AS START HESSIAN

 CYCLE:     1 TIME:   0.008 TIME LEFT:  2.00D  GRAD.:    67.623 HEAT: -7.362317
 CYCLE:     2 TIME:   0.020 TIME LEFT:  2.00D  GRAD.:    49.355 HEAT: -8.436431
 CYCLE:     3 TIME:   0.012 TIME LEFT:  2.00D  GRAD.:    33.607 HEAT: -9.094257
 CYCLE:     4 TIME:   0.012 TIME LEFT:  2.00D  GRAD.:    41.193 HEAT: -9.138461
 CYCLE:     5 TIME:   0.008 TIME LEFT:  2.00D  GRAD.:    29.975 HEAT: -9.326430
 CYCLE:     6 TIME:   0.008 TIME LEFT:  2.00D  GRAD.:    31.852 HEAT: -9.389432
 CYCLE:     7 TIME:   0.008 TIME LEFT:  2.00D  GRAD.:    28.513 HEAT: -9.453555
 CYCLE:     8 TIME:   0.016 TIME LEFT:  2.00D  GRAD.:    14.483 HEAT: -9.622129
 CYCLE:     9 TIME:   0.012 TIME LEFT:  2.00D  GRAD.:     7.784 HEAT: -9.673339
 CYCLE:    10 TIME:   0.008 TIME LEFT:  2.00D  GRAD.:     8.996 HEAT: -9.716239
 CYCLE:    11 TIME:   0.008 TIME LEFT:  2.00D  GRAD.:    20.079 HEAT: -9.726682
 CYCLE:    12 TIME:   0.008 TIME LEFT:  2.00D  GRAD.:    15.121 HEAT: -9.783956
 CYCLE:    13 TIME:   0.016 TIME LEFT:  2.00D  GRAD.:    12.877 HEAT: -9.806493
 CYCLE:    14 TIME:   0.008 TIME LEFT:  2.00D  GRAD.:    12.856 HEAT: -9.813096
 CYCLE:    15 TIME:   0.008 TIME LEFT:  2.00D  GRAD.:    13.649 HEAT: -9.817732
 CYCLE:    16 TIME:   0.008 TIME LEFT:  2.00D  GRAD.:    14.331 HEAT: -9.824467
 CYCLE:    17 TIME:   0.008 TIME LEFT:  2.00D  GRAD.:    12.125 HEAT: -9.834940
 CYCLE:    18 TIME:   0.012 TIME LEFT:  2.00D  GRAD.:     4.054 HEAT: -9.870118
 CYCLE:    19 TIME:   0.016 TIME LEFT:  2.00D  GRAD.:     4.293 HEAT: -9.871788
 CYCLE:    20 TIME:   0.008 TIME LEFT:  2.00D  GRAD.:     4.232 HEAT: -9.875795
 CYCLE:    21 TIME:   0.008 TIME LEFT:  2.00D  GRAD.:     4.100 HEAT: -9.878872
 CYCLE:    22 TIME:   0.008 TIME LEFT:  2.00D  GRAD.:     6.594 HEAT: -9.875746
 CYCLE:    23 TIME:   0.012 TIME LEFT:  2.00D  GRAD.:     3.478 HEAT: -9.884818
 CYCLE:    24 TIME:   0.008 TIME LEFT:  2.00D  GRAD.:     6.449 HEAT: -9.878922
 CYCLE:    25 TIME:   0.008 TIME LEFT:  2.00D  GRAD.:     2.563 HEAT: -9.889893
 CYCLE:    26 TIME:   0.008 TIME LEFT:  2.00D  GRAD.:     6.183 HEAT: -9.883906
 CYCLE:    27 TIME:   0.008 TIME LEFT:  2.00D  GRAD.:     1.044 HEAT: -9.894565
 CYCLE:    28 TIME:   0.008 TIME LEFT:  2.00D  GRAD.:     1.507 HEAT: -9.896170
 CYCLE:    29 TIME:   0.008 TIME LEFT:  2.00D  GRAD.:     3.137 HEAT: -9.899439
 CYCLE:    30 TIME:   0.008 TIME LEFT:  2.00D  GRAD.:     4.907 HEAT: -9.898191
 CYCLE:    31 TIME:   0.008 TIME LEFT:  2.00D  GRAD.:     2.198 HEAT: -9.905319
 CYCLE:    32 TIME:   0.008 TIME LEFT:  2.00D  GRAD.:     2.095 HEAT: -9.907230
 CYCLE:    33 TIME:   0.008 TIME LEFT:  2.00D  GRAD.:     1.455 HEAT: -9.909574
 CYCLE:    34 TIME:   0.008 TIME LEFT:  2.00D  GRAD.:     1.996 HEAT: -9.912031
 CYCLE:    35 TIME:   0.008 TIME LEFT:  2.00D  GRAD.:     1.948 HEAT: -9.914096
 CYCLE:    36 TIME:   0.008 TIME LEFT:  2.00D  GRAD.:     1.616 HEAT: -9.916746
 CYCLE:    37 TIME:   0.008 TIME LEFT:  2.00D  GRAD.:     1.474 HEAT: -9.919295
 CYCLE:    38 TIME:   0.008 TIME LEFT:  2.00D  GRAD.:     2.031 HEAT: -9.924591
 CYCLE:    39 TIME:   0.008 TIME LEFT:  2.00D  GRAD.:     2.520 HEAT: -9.928735
 CYCLE:    40 TIME:   0.008 TIME LEFT:  2.00D  GRAD.:     2.138 HEAT: -9.935372
 CYCLE:    41 TIME:   0.008 TIME LEFT:  2.00D  GRAD.:     1.972 HEAT: -9.943906
 CYCLE:    42 TIME:   0.008 TIME LEFT:  2.00D  GRAD.:     1.934 HEAT: -9.950214
 CYCLE:    43 TIME:   0.008 TIME LEFT:  2.00D  GRAD.:     1.486 HEAT: -9.954676
 CYCLE:    44 TIME:   0.008 TIME LEFT:  2.00D  GRAD.:     1.559 HEAT: -9.959698
 CYCLE:    45 TIME:   0.008 TIME LEFT:  2.00D  GRAD.:     1.659 HEAT: -9.964298
 CYCLE:    46 TIME:   0.008 TIME LEFT:  2.00D  GRAD.:     1.497 HEAT: -9.968127
 CYCLE:    47 TIME:   0.008 TIME LEFT:  2.00D  GRAD.:     1.423 HEAT: -9.971546
 CYCLE:    48 TIME:   0.008 TIME LEFT:  2.00D  GRAD.:     1.608 HEAT: -9.975514
 CYCLE:    49 TIME:   0.008 TIME LEFT:  2.00D  GRAD.:     1.795 HEAT: -9.980104
 CYCLE:    50 TIME:   0.008 TIME LEFT:  2.00D  GRAD.:     1.607 HEAT: -9.983541
 CYCLE:    51 TIME:   0.008 TIME LEFT:  2.00D  GRAD.:     1.695 HEAT: -9.986024
 CYCLE:    52 TIME:   0.008 TIME LEFT:  2.00D  GRAD.:     1.379 HEAT: -9.989020
 CYCLE:    53 TIME:   0.008 TIME LEFT:  2.00D  GRAD.:     1.119 HEAT: -9.992182
 CYCLE:    54 TIME:   0.008 TIME LEFT:  2.00D  GRAD.:     0.978 HEAT: -9.994637
 CYCLE:    55 TIME:   0.008 TIME LEFT:  2.00D  GRAD.:     0.887 HEAT: -9.996439
 CYCLE:    56 TIME:   0.004 TIME LEFT:  2.00D  GRAD.:     0.865 HEAT: -9.998246
 CYCLE:    57 TIME:   0.012 TIME LEFT:  2.00D  GRAD.:     0.726 HEAT: -9.999386
 CYCLE:    58 TIME:   0.008 TIME LEFT:  2.00D  GRAD.:     0.643 HEAT: -10.00015
 CYCLE:    59 TIME:   0.008 TIME LEFT:  2.00D  GRAD.:     0.686 HEAT: -10.00095
 CYCLE:    60 TIME:   0.008 TIME LEFT:  2.00D  GRAD.:     0.712 HEAT: -10.00185
 CYCLE:    61 TIME:   0.004 TIME LEFT:  2.00D  GRAD.:     0.635 HEAT: -10.00260
 CYCLE:    62 TIME:   0.012 TIME LEFT:  2.00D  GRAD.:     0.586 HEAT: -10.00321
 CYCLE:    63 TIME:   0.008 TIME LEFT:  2.00D  GRAD.:     0.720 HEAT: -10.00413
 CYCLE:    64 TIME:   0.004 TIME LEFT:  2.00D  GRAD.:     0.824 HEAT: -10.00531
 CYCLE:    65 TIME:   0.008 TIME LEFT:  2.00D  GRAD.:     0.754 HEAT: -10.00659
 CYCLE:    66 TIME:   0.008 TIME LEFT:  2.00D  GRAD.:     0.655 HEAT: -10.00763
 CYCLE:    67 TIME:   0.008 TIME LEFT:  2.00D  GRAD.:     0.648 HEAT: -10.00861
 CYCLE:    68 TIME:   0.008 TIME LEFT:  2.00D  GRAD.:     0.678 HEAT: -10.00968
 CYCLE:    69 TIME:   0.008 TIME LEFT:  2.00D  GRAD.:     0.640 HEAT: -10.01068
 CYCLE:    70 TIME:   0.008 TIME LEFT:  2.00D  GRAD.:     0.546 HEAT: -10.01156
 CYCLE:    71 TIME:   0.008 TIME LEFT:  2.00D  GRAD.:     0.480 HEAT: -10.01217
 CYCLE:    72 TIME:   0.008 TIME LEFT:  2.00D  GRAD.:     0.422 HEAT: -10.01263
 CYCLE:    73 TIME:   0.008 TIME LEFT:  2.00D  GRAD.:     0.326 HEAT: -10.01293
 CYCLE:    74 TIME:   0.008 TIME LEFT:  2.00D  GRAD.:     0.320 HEAT: -10.01321
 CYCLE:    75 TIME:   0.008 TIME LEFT:  2.00D  GRAD.:     0.328 HEAT: -10.01345
 CYCLE:    76 TIME:   0.008 TIME LEFT:  2.00D  GRAD.:     0.342 HEAT: -10.01372
 CYCLE:    77 TIME:   0.008 TIME LEFT:  2.00D  GRAD.:     0.317 HEAT: -10.01396
 CYCLE:    78 TIME:   0.012 TIME LEFT:  2.00D  GRAD.:     0.283 HEAT: -10.01421
 CYCLE:    79 TIME:   0.004 TIME LEFT:  2.00D  GRAD.:     0.306 HEAT: -10.01442
 CYCLE:    80 TIME:   0.008 TIME LEFT:  2.00D  GRAD.:     0.298 HEAT: -10.01464
 CYCLE:    81 TIME:   0.008 TIME LEFT:  2.00D  GRAD.:     0.256 HEAT: -10.01484
 CYCLE:    82 TIME:   0.008 TIME LEFT:  2.00D  GRAD.:     0.221 HEAT: -10.01498
 CYCLE:    83 TIME:   0.008 TIME LEFT:  2.00D  GRAD.:     0.225 HEAT: -10.01511
 CYCLE:    84 TIME:   0.012 TIME LEFT:  2.00D  GRAD.:     0.208 HEAT: -10.01521
 CYCLE:    85 TIME:   0.008 TIME LEFT:  2.00D  GRAD.:     0.227 HEAT: -10.01538
 CYCLE:    86 TIME:   0.008 TIME LEFT:  2.00D  GRAD.:     0.201 HEAT: -10.01547
 CYCLE:    87 TIME:   0.004 TIME LEFT:  2.00D  GRAD.:     0.271 HEAT: -10.01568
 CYCLE:    88 TIME:   0.008 TIME LEFT:  2.00D  GRAD.:     0.212 HEAT: -10.01576
 CYCLE:    89 TIME:   0.008 TIME LEFT:  2.00D  GRAD.:     0.263 HEAT: -10.01597
 CYCLE:    90 TIME:   0.008 TIME LEFT:  2.00D  GRAD.:     0.169 HEAT: -10.01602
 CYCLE:    91 TIME:   0.008 TIME LEFT:  2.00D  GRAD.:     0.173 HEAT: -10.01611
 CYCLE:    92 TIME:   0.008 TIME LEFT:  2.00D  GRAD.:     0.147 HEAT: -10.01615
 CYCLE:    93 TIME:   0.008 TIME LEFT:  2.00D  GRAD.:     0.161 HEAT: -10.01619
 CYCLE:    94 TIME:   0.008 TIME LEFT:  2.00D  GRAD.:     0.091 HEAT: -10.01623
 CYCLE:    95 TIME:   0.008 TIME LEFT:  2.00D  GRAD.:     0.071 HEAT: -10.01624
 CYCLE:    96 TIME:   0.008 TIME LEFT:  2.00D  GRAD.:     0.068 HEAT: -10.01626
 CYCLE:    97 TIME:   0.008 TIME LEFT:  2.00D  GRAD.:     0.063 HEAT: -10.01628
 CYCLE:    98 TIME:   0.008 TIME LEFT:  2.00D  GRAD.:     0.049 HEAT: -10.01629

     GRADIENT =  0.04938  IS LESS THAN CUTOFF =  0.05000



 -------------------------------------------------------------------------------
 pm3  precise nosym THREADS=1
 InChI=1S/C12H18/c1-3-8-11(4-2)12-9-6-5-7-10-12/h5-7,9-11H,3-4,8H2,1-2H3



     GEOMETRY OPTIMISED USING EIGENVECTOR FOLLOWING (EF).     
     SCF FIELD WAS ACHIEVED                                   


                              PM3 CALCULATION
                                                       MOPAC2016 (Version: 18.184L)
                                                       Sat Jun 15 10:10:18 2019
                                                       No. of days remaining =  18




          FINAL HEAT OF FORMATION =        -10.01629 KCAL/MOL =     -41.90814 KJ/MOL


          TOTAL ENERGY            =      -1700.10755 EV
          ELECTRONIC ENERGY       =     -10684.85507 EV  POINT GROUP:     C1  
          CORE-CORE REPULSION     =       8984.74752 EV
          COSMO AREA              =        221.80 SQUARE ANGSTROMS
          COSMO VOLUME            =        238.87 CUBIC ANGSTROMS

          GRADIENT NORM           =          0.04938 = 0.00902 PER ATOM
          IONIZATION POTENTIAL    =          9.509675 EV
          HOMO LUMO ENERGIES (EV) =         -9.510  0.376
          NO. OF FILLED LEVELS    =         33
          MOLECULAR WEIGHT        =        162.2742

          MOLECULAR DIMENSIONS (Angstroms)

            Atom       Atom       Distance
            H    28    H    22     8.18876
            H    24    H    21     7.25769
            H    26    H    29     4.55984


          SCF CALCULATIONS        =        108
 
          WALL-CLOCK TIME         =          0.832 SECONDS
          COMPUTATION TIME        =          0.788 SECONDS




   ATOM   CHEMICAL          X               Y               Z
  NUMBER   SYMBOL      (ANGSTROMS)     (ANGSTROMS)     (ANGSTROMS)
 
     1       C         -0.60498023  *   0.52828401  *  -0.50498947  *
     2       C         -1.64897258  *  -0.32143381  *   0.22621215  *
     3       C         -0.89955003  *   2.01852988  *  -0.30326926  *
     4       C         -1.56001607  *  -1.78988507  *  -0.15792378  *
     5       C         -2.57942520  *  -2.61918291  *   0.58962092  *
     6       C         -0.08282352  *   2.89133131  *  -1.22926338  *
     7       C          0.78977825  *   0.18415372  *  -0.05307585  *
     8       C          1.70967649  *  -0.31704147  *  -0.97707686  *
     9       C          1.18525595  *   0.35540114  *   1.27550925  *
    10       C          3.00160678  *  -0.64130617  *  -0.57843627  *
    11       C          3.38794330  *  -0.46852204  *   0.74592440  *
    12       C          2.47744981  *   0.03033592  *   1.67130638  *
    13       H         -0.68831988  *   0.30838860  *  -1.60047980  *
    14       H         -0.53743695  *  -2.16731015  *   0.04482414  *
    15       H         -1.70717950  *  -1.90394074  *  -1.25057060  *
    16       H         -1.53125489  *  -0.20848855  *   1.32335733  *
    17       H         -2.66457140  *   0.06011366  *  -0.00488001  *
    18       H         -0.71076179  *   2.30191440  *   0.75185945  *
    19       H         -1.97898146  *   2.20630968  *  -0.47364544  *
    20       H         -2.43172684  *  -2.56010339  *   1.67623001  *
    21       H         -2.51527921  *  -3.67772018  *   0.30724319  *
    22       H         -3.60485621  *  -2.28545190  *   0.38174715  *
    23       H         -0.30545794  *   2.68357957  *  -2.28451148  *
    24       H         -0.28627127  *   3.95536430  *  -1.05408084  *
    25       H          0.99455514  *   2.73235681  *  -1.08622781  *
    26       H          1.41287300  *  -0.45618271  *  -2.02330210  *
    27       H          3.71521382  *  -1.03364957  *  -1.31018182  *
    28       H          4.40509239  *  -0.72419070  *   1.05927113  *
    29       H          2.77818332  *   0.16778265  *   2.71502601  *
    30       H          0.47400116  *   0.74785345  *   2.01246506  *

                             CARTESIAN COORDINATES

   1    C       -0.604980229     0.528284013    -0.504989474
   2    C       -1.648972582    -0.321433813     0.226212153
   3    C       -0.899550026     2.018529876    -0.303269256
   4    C       -1.560016069    -1.789885069    -0.157923778
   5    C       -2.579425196    -2.619182914     0.589620925
   6    C       -0.082823522     2.891331313    -1.229263377
   7    C        0.789778255     0.184153720    -0.053075845
   8    C        1.709676492    -0.317041471    -0.977076865
   9    C        1.185255950     0.355401138     1.275509249
  10    C        3.001606781    -0.641306167    -0.578436271
  11    C        3.387943299    -0.468522036     0.745924397
  12    C        2.477449808     0.030335924     1.671306378
  13    H       -0.688319881     0.308388603    -1.600479799
  14    H       -0.537436953    -2.167310151     0.044824143
  15    H       -1.707179498    -1.903940745    -1.250570605
  16    H       -1.531254891    -0.208488554     1.323357325
  17    H       -2.664571396     0.060113664    -0.004880007
  18    H       -0.710761794     2.301914395     0.751859450
  19    H       -1.978981460     2.206309682    -0.473645435
  20    H       -2.431726839    -2.560103387     1.676230008
  21    H       -2.515279207    -3.677720183     0.307243185
  22    H       -3.604856211    -2.285451903     0.381747148
  23    H       -0.305457941     2.683579567    -2.284511477
  24    H       -0.286271270     3.955364302    -1.054080835
  25    H        0.994555142     2.732356810    -1.086227814
  26    H        1.412873000    -0.456182714    -2.023302102
  27    H        3.715213824    -1.033649573    -1.310181816
  28    H        4.405092386    -0.724190696     1.059271132
  29    H        2.778183321     0.167782647     2.715026012
  30    H        0.474001162     0.747853451     2.012465060


           Empirical Formula: C12 H18  =    30 atoms



      MOLECULAR POINT GROUP   :   C1  


                  EIGENVALUES  
 -41.61838 -37.34906 -34.56881 -29.90807 -29.65690 -27.44398 -23.57021 -22.38901
 -21.35167 -20.61505 -19.61637 -18.04278 -16.63882 -16.07863 -15.73398 -15.36034
 -15.06846 -14.82561 -14.52781 -14.12021 -13.75880 -13.41971 -13.18106 -12.91873
 -12.48280 -12.39268 -12.29552 -12.04173 -11.79216 -11.54125 -11.36761  -9.71325
  -9.50968   0.37609   0.44486   2.83052   3.10990   3.29315   3.45383   3.54735
   3.60822   3.67202   3.88930   3.91862   3.93206   3.99397   4.05620   4.11053
   4.15576   4.21370   4.25455   4.43273   4.49557   4.56354   4.82511   4.89958
   4.91799   5.01013   5.03857   5.07975   5.21027   5.24956   5.35118   5.41413
   6.18866   6.38924


              NET ATOMIC CHARGES AND DIPOLE CONTRIBUTIONS

  ATOM NO.   TYPE          CHARGE      No. of ELECS.   s-Pop       p-Pop       
    1          C          -0.035140        4.0351     1.16908     2.86606
    2          C          -0.101970        4.1020     1.16642     2.93555
    3          C          -0.096776        4.0968     1.16205     2.93473
    4          C          -0.103627        4.1036     1.15910     2.94452
    5          C          -0.108232        4.1082     1.13815     2.97008
    6          C          -0.114459        4.1145     1.13873     2.97573
    7          C          -0.068187        4.0682     1.18494     2.88325
    8          C          -0.102199        4.1022     1.18054     2.92166
    9          C          -0.099194        4.0992     1.17781     2.92139
   10          C          -0.101407        4.1014     1.17888     2.92253
   11          C          -0.106363        4.1064     1.17913     2.92723
   12          C          -0.100369        4.1004     1.17871     2.92166
   13          H           0.068605        0.9314     0.93140
   14          H           0.058118        0.9419     0.94188
   15          H           0.048128        0.9519     0.95187
   16          H           0.055090        0.9449     0.94491
   17          H           0.052303        0.9477     0.94770
   18          H           0.052846        0.9472     0.94715
   19          H           0.050115        0.9499     0.94988
   20          H           0.037770        0.9622     0.96223
   21          H           0.037317        0.9627     0.96268
   22          H           0.036360        0.9636     0.96364
   23          H           0.037289        0.9627     0.96271
   24          H           0.037683        0.9623     0.96232
   25          H           0.046399        0.9536     0.95360
   26          H           0.105548        0.8945     0.89445
   27          H           0.101960        0.8980     0.89804
   28          H           0.102528        0.8975     0.89747
   29          H           0.101821        0.8982     0.89818
   30          H           0.108043        0.8920     0.89196
 DIPOLE           X         Y         Z       TOTAL
 POINT-CHG.    -0.158     0.047    -0.020     0.166
 HYBRID         0.014     0.001     0.017     0.022
 SUM           -0.144     0.048    -0.004     0.152


          ATOMIC ORBITAL ELECTRON POPULATIONS

     Atom    s        px        py        pz   
    1  C   1.16908   0.91815   0.94925   0.99866
    2  C   1.16642   0.98011   0.95292   1.00252
    3  C   1.16205   0.99539   0.94071   0.99863
    4  C   1.15910   0.99785   0.94999   0.99669
    5  C   1.13815   0.98350   0.99012   0.99646
    6  C   1.13873   1.00255   0.98641   0.98678
    7  C   1.18494   0.95299   0.98381   0.94644
    8  C   1.18054   0.94625   0.99684   0.97856
    9  C   1.17781   0.96383   1.00115   0.95641
   10  C   1.17888   0.96236   0.99824   0.96193
   11  C   1.17913   0.98205   0.99833   0.94685
   12  C   1.17871   0.94762   0.99334   0.98069
   13  H   0.93140
   14  H   0.94188
   15  H   0.95187
   16  H   0.94491
   17  H   0.94770
   18  H   0.94715
   19  H   0.94988
   20  H   0.96223
   21  H   0.96268
   22  H   0.96364
   23  H   0.96271
   24  H   0.96232
   25  H   0.95360
   26  H   0.89445
   27  H   0.89804
   28  H   0.89747
   29  H   0.89818
   30  H   0.89196
 *******************************************************************************
 ** Site#: 14399        For non-commercial use only    Version 18.184L 64BITS **
 *******************************************************************************
 ** Cite this program as: MOPAC2016, Version: 18.184L, James J. P. Stewart,   **
 ** Stewart Computational Chemistry, web: HTTP://OpenMOPAC.net. Days left:  18**
 *******************************************************************************
 **                                                                           **
 **                                MOPAC2016                                  **
 **                                                                           **
 *******************************************************************************

                              PM3 CALCULATION RESULTS

 *******************************************************************************
 *  CALCULATION DONE:                                Sat Jun 15 10:10:18 2019  *
 *  PM3        - The PM3 Hamiltonian to be used
 *  OLDGEO     - PREVIOUS GEOMETRY TO BE USED
 *  PRECISE    - CRITERIA TO BE INCREASED BY 100 TIMES
 *  NOSYM      - POINT-GROUP SYMMETRY SET TO C1
 *  THREADS=1  - MULTI-THREADING NOT USED
 *  T=         - A TIME OF 172800.0 SECONDS REQUESTED
 *  DUMP=N     - RESTART FILE WRITTEN EVERY  7200.000 SECONDS
 *  THERMO     - THERMODYNAMIC QUANTITIES TO BE CALCULATED
 *******************************************************************************
oldgeo thermo nosym precise THREADS=1  pm3
 InChI=1S/C12H18/c1-3-8-11(4-2)12-9-6-5-7-10-12/h5-7,9-11H,3-4,8H2,1-2H3

   ATOM   CHEMICAL          X               Y               Z
  NUMBER   SYMBOL      (ANGSTROMS)     (ANGSTROMS)     (ANGSTROMS)
 
     1       C         -0.60498023  *   0.52828401  *  -0.50498947  *
     2       C         -1.64897258  *  -0.32143381  *   0.22621215  *
     3       C         -0.89955003  *   2.01852988  *  -0.30326926  *
     4       C         -1.56001607  *  -1.78988507  *  -0.15792378  *
     5       C         -2.57942520  *  -2.61918291  *   0.58962092  *
     6       C         -0.08282352  *   2.89133131  *  -1.22926338  *
     7       C          0.78977825  *   0.18415372  *  -0.05307585  *
     8       C          1.70967649  *  -0.31704147  *  -0.97707686  *
     9       C          1.18525595  *   0.35540114  *   1.27550925  *
    10       C          3.00160678  *  -0.64130617  *  -0.57843627  *
    11       C          3.38794330  *  -0.46852204  *   0.74592440  *
    12       C          2.47744981  *   0.03033592  *   1.67130638  *
    13       H         -0.68831988  *   0.30838860  *  -1.60047980  *
    14       H         -0.53743695  *  -2.16731015  *   0.04482414  *
    15       H         -1.70717950  *  -1.90394074  *  -1.25057060  *
    16       H         -1.53125489  *  -0.20848855  *   1.32335733  *
    17       H         -2.66457140  *   0.06011366  *  -0.00488001  *
    18       H         -0.71076179  *   2.30191440  *   0.75185945  *
    19       H         -1.97898146  *   2.20630968  *  -0.47364544  *
    20       H         -2.43172684  *  -2.56010339  *   1.67623001  *
    21       H         -2.51527921  *  -3.67772018  *   0.30724319  *
    22       H         -3.60485621  *  -2.28545190  *   0.38174715  *
    23       H         -0.30545794  *   2.68357957  *  -2.28451148  *
    24       H         -0.28627127  *   3.95536430  *  -1.05408084  *
    25       H          0.99455514  *   2.73235681  *  -1.08622781  *
    26       H          1.41287300  *  -0.45618271  *  -2.02330210  *
    27       H          3.71521382  *  -1.03364957  *  -1.31018182  *
    28       H          4.40509239  *  -0.72419070  *   1.05927113  *
    29       H          2.77818332  *   0.16778265  *   2.71502601  *
    30       H          0.47400116  *   0.74785345  *   2.01246506  *
 


          CARTESIAN COORDINATES 

    NO.       ATOM           X           Y           Z

     1         C         -0.6050      0.5283     -0.5050
     2         C         -1.6490     -0.3214      0.2262
     3         C         -0.8996      2.0185     -0.3033
     4         C         -1.5600     -1.7899     -0.1579
     5         C         -2.5794     -2.6192      0.5896
     6         C         -0.0828      2.8913     -1.2293
     7         C          0.7898      0.1842     -0.0531
     8         C          1.7097     -0.3170     -0.9771
     9         C          1.1853      0.3554      1.2755
    10         C          3.0016     -0.6413     -0.5784
    11         C          3.3879     -0.4685      0.7459
    12         C          2.4774      0.0303      1.6713
    13         H         -0.6883      0.3084     -1.6005
    14         H         -0.5374     -2.1673      0.0448
    15         H         -1.7072     -1.9039     -1.2506
    16         H         -1.5313     -0.2085      1.3234
    17         H         -2.6646      0.0601     -0.0049
    18         H         -0.7108      2.3019      0.7519
    19         H         -1.9790      2.2063     -0.4736
    20         H         -2.4317     -2.5601      1.6762
    21         H         -2.5153     -3.6777      0.3072
    22         H         -3.6049     -2.2855      0.3817
    23         H         -0.3055      2.6836     -2.2845
    24         H         -0.2863      3.9554     -1.0541
    25         H          0.9946      2.7324     -1.0862
    26         H          1.4129     -0.4562     -2.0233
    27         H          3.7152     -1.0336     -1.3102
    28         H          4.4051     -0.7242      1.0593
    29         H          2.7782      0.1678      2.7150
    30         H          0.4740      0.7479      2.0125

  H: (PM3): J. J. P. STEWART, J. COMP. CHEM. 10, 209 (1989).
  C: (PM3): J. J. P. STEWART, J. COMP. CHEM. 10, 209 (1989).

           Empirical Formula: C12 H18  =    30 atoms



      MOLECULAR POINT GROUP   :   C1  


      RHF CALCULATION, NO. OF DOUBLY OCCUPIED LEVELS = 33



          HEAT OF FORMATION =     -10.016285 KCALS/MOLE


          CARTESIAN COORDINATE DERIVATIVES

   NUMBER  ATOM         X            Y            Z

     1       C      0.000788     0.004155     0.002052
     2       C     -0.003231     0.001913    -0.003843
     3       C      0.003244     0.004647     0.004527
     4       C     -0.002226    -0.002657    -0.008603
     5       C      0.000393    -0.002634     0.003155
     6       C      0.003789     0.002689     0.003968
     7       C     -0.000432     0.006575    -0.003726
     8       C     -0.006985     0.001027    -0.001224
     9       C      0.006356     0.000046     0.006400
    10       C     -0.004487     0.003614     0.006013
    11       C      0.018973    -0.006338    -0.000952
    12       C      0.000756    -0.007055    -0.002703
    13       H     -0.006885     0.000956    -0.006249
    14       H     -0.000661    -0.007554    -0.008169
    15       H     -0.015870    -0.004175    -0.010413
    16       H      0.001422     0.019669    -0.000288
    17       H      0.005295     0.005049    -0.006853
    18       H     -0.000123    -0.006585    -0.001212
    19       H      0.001603     0.011296     0.005328
    20       H     -0.001564    -0.005072    -0.002067
    21       H      0.004967    -0.005809     0.002780
    22       H     -0.007210     0.000389     0.004880
    23       H      0.005702     0.001953     0.010342
    24       H     -0.010061    -0.002200     0.000047
    25       H      0.003746     0.000131     0.005887
    26       H     -0.001992    -0.007914    -0.003058
    27       H      0.006186    -0.001427     0.003650
    28       H      0.003058     0.002122     0.002642
    29       H     -0.002302    -0.004609    -0.002951
    30       H     -0.002247    -0.002205     0.000642
 


          GRADIENT NORM =   0.05397


          TIME FOR SCF CALCULATION =    0.01

          TIME FOR DERIVATIVES     =    0.00

          MOLECULAR WEIGHT =  162.27



          ROTATIONAL CONSTANTS IN CM(-1)

          A =    0.03499006   B =    0.02306142   C =    0.01693735



           PRINCIPAL MOMENTS OF INERTIA IN UNITS OF 10**(-40)*GRAM-CM**2

          A =      800.0207   B =     1213.8356   C =     1652.7241


          ORIENTATION OF MOLECULE IN FORCE CALCULATION

    NO.       ATOM         X         Y         Z

     1          C       0.0893    0.7092    0.9987
     2          C       1.6211    0.7092    0.9987
     3          C      -0.4403    2.1472    0.9987
     4          C       2.1917   -0.6745    1.2659
     5          C       3.7033   -0.6636    1.2384
     6          C      -1.9231    2.2085    1.2885
     7          C      -0.4547   -0.0700   -0.1695
     8          C      -1.2446   -1.1984    0.0625
     9          C      -0.1850    0.3121   -1.4856
    10          C      -1.7550   -1.9312   -1.0032
    11          C      -1.4819   -1.5449   -2.3106
    12          C      -0.6964   -0.4223   -2.5492
    13          H      -0.2549    0.2180    1.9451
    14          H       1.8009   -1.3906    0.5151
    15          H       1.8337   -1.0477    2.2463
    16          H       2.0020    1.0963    0.0315
    17          H       1.9913    1.4166    1.7688
    18          H      -0.2225    2.6305    0.0249
    19          H       0.1099    2.7417    1.7560
    20          H       4.0885   -0.3383    0.2628
    21          H       4.1119   -1.6628    1.4355
    22          H       4.1178    0.0158    1.9952
    23          H      -2.1598    1.8036    2.2816
    24          H      -2.2910    3.2419    1.2590
    25          H      -2.5009    1.6303    0.5548
    26          H      -1.4646   -1.5096    1.0905
    27          H      -2.3730   -2.8142   -0.8109
    28          H      -1.8837   -2.1223   -3.1493
    29          H      -0.4794   -0.1151   -3.5774
    30          H       0.4338    1.1958   -1.6836


    FIRST DERIVATIVES WILL BE USED IN THE CALCULATION OF SECOND DERIVATIVES

          ESTIMATED TIME TO COMPLETE CALCULATION =        4.22 SECONDS

    FOR POINT-GROUP C1   THERE ARE   1 UNIQUE SYMMETRY FUNCTIONS.

 STEP:   1 TIME =     0.04 SECS, INTEGRAL =      0.04 TIME LEFT: 172799.95
 STEP:   2 TIME =     0.03 SECS, INTEGRAL =      0.07 TIME LEFT: 172799.92
 STEP:   3 TIME =     0.04 SECS, INTEGRAL =      0.10 TIME LEFT: 172799.89
 STEP:   4 TIME =     0.04 SECS, INTEGRAL =      0.14 TIME LEFT: 172799.85
 STEP:   5 TIME =     0.04 SECS, INTEGRAL =      0.17 TIME LEFT: 172799.82
 STEP:   6 TIME =     0.04 SECS, INTEGRAL =      0.21 TIME LEFT: 172799.78
 STEP:   7 TIME =     0.04 SECS, INTEGRAL =      0.24 TIME LEFT: 172799.75
 STEP:   8 TIME =     0.04 SECS, INTEGRAL =      0.28 TIME LEFT: 172799.71
 STEP:   9 TIME =     0.04 SECS, INTEGRAL =      0.31 TIME LEFT: 172799.68
 STEP:  10 TIME =     0.04 SECS, INTEGRAL =      0.35 TIME LEFT: 172799.64
 STEP:  11 TIME =     0.04 SECS, INTEGRAL =      0.38 TIME LEFT: 172799.61
 STEP:  12 TIME =     0.03 SECS, INTEGRAL =      0.41 TIME LEFT: 172799.57
 STEP:  13 TIME =     0.04 SECS, INTEGRAL =      0.45 TIME LEFT: 172799.54
 STEP:  14 TIME =     0.04 SECS, INTEGRAL =      0.48 TIME LEFT: 172799.50
 STEP:  15 TIME =     0.04 SECS, INTEGRAL =      0.52 TIME LEFT: 172799.47
 STEP:  16 TIME =     0.03 SECS, INTEGRAL =      0.55 TIME LEFT: 172799.44
 STEP:  17 TIME =     0.04 SECS, INTEGRAL =      0.59 TIME LEFT: 172799.40
 STEP:  18 TIME =     0.04 SECS, INTEGRAL =      0.62 TIME LEFT: 172799.37
 STEP:  19 TIME =     0.04 SECS, INTEGRAL =      0.66 TIME LEFT: 172799.33
 STEP:  20 TIME =     0.04 SECS, INTEGRAL =      0.70 TIME LEFT: 172799.29
 STEP:  21 TIME =     0.04 SECS, INTEGRAL =      0.74 TIME LEFT: 172799.25
 STEP:  22 TIME =     0.04 SECS, INTEGRAL =      0.77 TIME LEFT: 172799.21
 STEP:  23 TIME =     0.04 SECS, INTEGRAL =      0.81 TIME LEFT: 172799.18
 STEP:  24 TIME =     0.04 SECS, INTEGRAL =      0.85 TIME LEFT: 172799.14
 STEP:  25 TIME =     0.04 SECS, INTEGRAL =      0.88 TIME LEFT: 172799.11
 STEP:  26 TIME =     0.04 SECS, INTEGRAL =      0.92 TIME LEFT: 172799.07
 STEP:  27 TIME =     0.04 SECS, INTEGRAL =      0.96 TIME LEFT: 172799.03
 STEP:  28 TIME =     0.04 SECS, INTEGRAL =      0.99 TIME LEFT: 172799.00
 STEP:  29 TIME =     0.03 SECS, INTEGRAL =      1.02 TIME LEFT: 172798.96
 STEP:  30 TIME =     0.04 SECS, INTEGRAL =      1.06 TIME LEFT: 172798.93
 STEP:  31 TIME =     0.04 SECS, INTEGRAL =      1.10 TIME LEFT: 172798.89
 STEP:  32 TIME =     0.04 SECS, INTEGRAL =      1.13 TIME LEFT: 172798.86
 STEP:  33 TIME =     0.04 SECS, INTEGRAL =      1.17 TIME LEFT: 172798.82
 STEP:  34 TIME =     0.04 SECS, INTEGRAL =      1.21 TIME LEFT: 172798.78
 STEP:  35 TIME =     0.04 SECS, INTEGRAL =      1.24 TIME LEFT: 172798.75
 STEP:  36 TIME =     0.04 SECS, INTEGRAL =      1.28 TIME LEFT: 172798.71
 STEP:  37 TIME =     0.04 SECS, INTEGRAL =      1.31 TIME LEFT: 172798.68
 STEP:  38 TIME =     0.04 SECS, INTEGRAL =      1.35 TIME LEFT: 172798.64
 STEP:  39 TIME =     0.04 SECS, INTEGRAL =      1.38 TIME LEFT: 172798.61
 STEP:  40 TIME =     0.04 SECS, INTEGRAL =      1.42 TIME LEFT: 172798.57
 STEP:  41 TIME =     0.04 SECS, INTEGRAL =      1.45 TIME LEFT: 172798.54
 STEP:  42 TIME =     0.04 SECS, INTEGRAL =      1.49 TIME LEFT: 172798.50
 STEP:  43 TIME =     0.04 SECS, INTEGRAL =      1.52 TIME LEFT: 172798.46
 STEP:  44 TIME =     0.04 SECS, INTEGRAL =      1.56 TIME LEFT: 172798.43
 STEP:  45 TIME =     0.04 SECS, INTEGRAL =      1.59 TIME LEFT: 172798.39
 STEP:  46 TIME =     0.04 SECS, INTEGRAL =      1.63 TIME LEFT: 172798.36
 STEP:  47 TIME =     0.04 SECS, INTEGRAL =      1.66 TIME LEFT: 172798.32
 STEP:  48 TIME =     0.04 SECS, INTEGRAL =      1.70 TIME LEFT: 172798.29
 STEP:  49 TIME =     0.04 SECS, INTEGRAL =      1.73 TIME LEFT: 172798.25
 STEP:  50 TIME =     0.04 SECS, INTEGRAL =      1.77 TIME LEFT: 172798.22
 STEP:  51 TIME =     0.04 SECS, INTEGRAL =      1.80 TIME LEFT: 172798.18
 STEP:  52 TIME =     0.04 SECS, INTEGRAL =      1.84 TIME LEFT: 172798.15
 STEP:  53 TIME =     0.04 SECS, INTEGRAL =      1.88 TIME LEFT: 172798.11
 STEP:  54 TIME =     0.04 SECS, INTEGRAL =      1.91 TIME LEFT: 172798.08
 STEP:  55 TIME =     0.04 SECS, INTEGRAL =      1.95 TIME LEFT: 172798.04
 STEP:  56 TIME =     0.04 SECS, INTEGRAL =      1.98 TIME LEFT: 172798.01
 STEP:  57 TIME =     0.04 SECS, INTEGRAL =      2.02 TIME LEFT: 172797.97
 STEP:  58 TIME =     0.04 SECS, INTEGRAL =      2.05 TIME LEFT: 172797.94
 STEP:  59 TIME =     0.04 SECS, INTEGRAL =      2.09 TIME LEFT: 172797.90
 STEP:  60 TIME =     0.04 SECS, INTEGRAL =      2.12 TIME LEFT: 172797.87
 STEP:  61 TIME =     0.03 SECS, INTEGRAL =      2.15 TIME LEFT: 172797.84
 STEP:  62 TIME =     0.04 SECS, INTEGRAL =      2.19 TIME LEFT: 172797.80
 STEP:  63 TIME =     0.04 SECS, INTEGRAL =      2.22 TIME LEFT: 172797.77
 STEP:  64 TIME =     0.04 SECS, INTEGRAL =      2.26 TIME LEFT: 172797.73
 STEP:  65 TIME =     0.04 SECS, INTEGRAL =      2.29 TIME LEFT: 172797.70
 STEP:  66 TIME =     0.04 SECS, INTEGRAL =      2.33 TIME LEFT: 172797.66
 STEP:  67 TIME =     0.04 SECS, INTEGRAL =      2.36 TIME LEFT: 172797.62
 STEP:  68 TIME =     0.04 SECS, INTEGRAL =      2.40 TIME LEFT: 172797.59
 STEP:  69 TIME =     0.04 SECS, INTEGRAL =      2.43 TIME LEFT: 172797.55
 STEP:  70 TIME =     0.04 SECS, INTEGRAL =      2.47 TIME LEFT: 172797.52
 STEP:  71 TIME =     0.04 SECS, INTEGRAL =      2.50 TIME LEFT: 172797.48
 STEP:  72 TIME =     0.04 SECS, INTEGRAL =      2.54 TIME LEFT: 172797.45
 STEP:  73 TIME =     0.04 SECS, INTEGRAL =      2.57 TIME LEFT: 172797.41
 STEP:  74 TIME =     0.03 SECS, INTEGRAL =      2.61 TIME LEFT: 172797.38
 STEP:  75 TIME =     0.04 SECS, INTEGRAL =      2.64 TIME LEFT: 172797.35
 STEP:  76 TIME =     0.04 SECS, INTEGRAL =      2.68 TIME LEFT: 172797.31
 STEP:  77 TIME =     0.04 SECS, INTEGRAL =      2.71 TIME LEFT: 172797.27
 STEP:  78 TIME =     0.04 SECS, INTEGRAL =      2.75 TIME LEFT: 172797.24
 STEP:  79 TIME =     0.04 SECS, INTEGRAL =      2.79 TIME LEFT: 172797.20
 STEP:  80 TIME =     0.04 SECS, INTEGRAL =      2.82 TIME LEFT: 172797.17
 STEP:  81 TIME =     0.04 SECS, INTEGRAL =      2.86 TIME LEFT: 172797.13
 STEP:  82 TIME =     0.04 SECS, INTEGRAL =      2.89 TIME LEFT: 172797.10
 STEP:  83 TIME =     0.04 SECS, INTEGRAL =      2.93 TIME LEFT: 172797.06
 STEP:  84 TIME =     0.04 SECS, INTEGRAL =      2.96 TIME LEFT: 172797.03
 STEP:  85 TIME =     0.04 SECS, INTEGRAL =      3.00 TIME LEFT: 172796.99
 STEP:  86 TIME =     0.04 SECS, INTEGRAL =      3.03 TIME LEFT: 172796.96
 STEP:  87 TIME =     0.03 SECS, INTEGRAL =      3.06 TIME LEFT: 172796.93
 STEP:  88 TIME =     0.04 SECS, INTEGRAL =      3.10 TIME LEFT: 172796.89
 STEP:  89 TIME =     0.04 SECS, INTEGRAL =      3.14 TIME LEFT: 172796.85
 STEP:  90 TIME =     0.04 SECS, INTEGRAL =      3.17 TIME LEFT: 172796.82

(To convert to Hartree/Bohr^2, multiply by (10^(-21) x N x a0^2)/(4.184 x 627.51) =  0.0642)


           FORCE MATRIX IN MILLIDYNES/ANGSTROM


                  C  1       C  2       C  3       C  4       C  5       C  6
 ------------------------------------------------------------------------------
     C    1  14.411194
     C    2   3.782188  14.224535
     C    3   3.765887   0.641391  14.260700
     C    4   0.613494   4.176133   0.050215  14.377347
     C    5   0.053414   0.664483   0.009617   4.477304  14.375994
     C    6   0.629060   0.051701   4.468652   0.009618   0.002347  14.371550
     C    7   4.358881   0.642472   0.639049   0.052333   0.004278   0.048801
     C    8   0.699112   0.029277   0.030820   0.013579   0.002626   0.011896
     C    9   0.636633   0.060173   0.058910   0.008574   0.003011   0.008393
     C   10   0.093955   0.013081   0.012979   0.002057   0.001162   0.000718
     C   11   0.012739   0.005048   0.003156   0.003137   0.001934   0.002074
     C   12   0.092255   0.009481   0.009322   0.003070   0.000973   0.003041
     H   13   4.127459   0.424464   0.424385   0.037821   0.001836   0.037476
     H   14   0.028518   0.444220   0.001342   4.445069   0.435723   0.000666
     H   15   0.027623   0.444993   0.001586   4.444783   0.437101   0.000453
     H   16   0.448670   4.414176   0.017503   0.444457   0.029458   0.001020
     H   17   0.439594   4.417528   0.052210   0.441446   0.027456   0.002142
     H   18   0.449305   0.017107   4.430476   0.001016   0.000565   0.438196
     H   19   0.439983   0.054172   4.431603   0.001931   0.000669   0.435547
     H   20   0.001750   0.023989   0.000574   0.463227   4.723854   0.000284
     H   21   0.009125   0.051247   0.001973   0.449657   4.753018   0.000565
     H   22   0.001927   0.023881   0.000586   0.463925   4.719930   0.000244
     H   23   0.022547   0.001779   0.464109   0.000383   0.000287   4.719236
     H   24   0.050389   0.008857   0.449396   0.001843   0.000672   4.753704
     H   25   0.022408   0.001601   0.463996   0.000723   0.000166   4.724166
     H   26   0.052138   0.004777   0.004985   0.001294   0.000691   0.000762
     H   27   0.007523   0.001159   0.001036   0.000287   0.000532   0.000277
     H   28   0.008678   0.000991   0.001157   0.000453   0.000376   0.000289
     H   29   0.007403   0.000852   0.000863   0.000277   0.000318   0.000346
     H   30   0.041532   0.019853   0.020115   0.001292   0.000834   0.001441


                  C  7       C  8       C  9       C 10       C 11       C 12
 ------------------------------------------------------------------------------
     C    7  17.622376
     C    8   6.832512  17.466904
     C    9   6.838113   2.330824  17.456385
     C   10   2.349831   7.112687   1.751241  17.397574
     C   11   1.670700   2.371801   2.359745   7.120190  17.529703
     C   12   2.313955   1.717083   7.158780   2.435548   7.133516  17.489159
     H   13   0.430368   0.080063   0.043066   0.002248   0.001961   0.007446
     H   14   0.012132   0.006109   0.004010   0.001363   0.000593   0.000598
     H   15   0.002493   0.001100   0.000707   0.000754   0.000530   0.000652
     H   16   0.027638   0.001756   0.019466   0.000554   0.000774   0.001184
     H   17   0.046067   0.004243   0.003096   0.002117   0.000916   0.001537
     H   18   0.028906   0.001682   0.019772   0.000659   0.001321   0.001207
     H   19   0.045574   0.004945   0.003291   0.002328   0.001002   0.001509
     H   20   0.000839   0.000673   0.000725   0.000213   0.000773   0.000676
     H   21   0.001208   0.000813   0.000533   0.000347   0.000820   0.000887
     H   22   0.000636   0.000609   0.000790   0.000653   0.000749   0.001205
     H   23   0.002014   0.001486   0.000822   0.000312   0.000901   0.000800
     H   24   0.002746   0.001508   0.001108   0.000520   0.000707   0.000897
     H   25   0.009310   0.005231   0.003213   0.000837   0.000726   0.000606
     H   26   0.443898   4.812065   0.081866   0.434554   0.088386   0.010735
     H   27   0.087517   0.434576   0.010911   4.864771   0.434816   0.086817
     H   28   0.007849   0.086697   0.085830   0.435787   4.874156   0.434221
     H   29   0.089045   0.010232   0.434715   0.087874   0.434773   4.864481
     H   30   0.446592   0.081596   4.793508   0.010357   0.085344   0.433441


                  H 13       H 14       H 15       H 16       H 17       H 18
 ------------------------------------------------------------------------------
     H   13   4.598993
     H   14   0.002202   5.056684
     H   15   0.027120   0.570401   5.065008
     H   16   0.042280   0.023445   0.045673   5.037152
     H   17   0.024201   0.045828   0.026243   0.566211   5.036858
     H   18   0.042558   0.000326   0.000424   0.007785   0.001551   5.049453
     H   19   0.023695   0.000455   0.000291   0.001647   0.024203   0.566824
     H   20   0.000500   0.024556   0.047876   0.020154   0.001529   0.000181
     H   21   0.000550   0.029584   0.030187   0.001836   0.001682   0.000140
     H   22   0.000316   0.047285   0.024256   0.001648   0.018841   0.000091
     H   23   0.024078   0.000104   0.000158   0.000416   0.000328   0.047813
     H   24   0.002184   0.000113   0.000120   0.000362   0.000458   0.031354
     H   25   0.002242   0.000204   0.000086   0.000364   0.000402   0.023151
     H   26   0.024638   0.000701   0.000883   0.000606   0.001106   0.000640
     H   27   0.000450   0.000326   0.000122   0.000266   0.000243   0.000186
     H   28   0.000196   0.000283   0.000081   0.000255   0.000255   0.000274
     H   29   0.001323   0.000301   0.000139   0.000354   0.000200   0.000348
     H   30   0.001906   0.000816   0.000573   0.020770   0.001860   0.020711


                  H 19       H 20       H 21       H 22       H 23       H 24
 ------------------------------------------------------------------------------
     H   19   5.047850
     H   20   0.000139   5.467546
     H   21   0.000177   0.574776   5.490611
     H   22   0.000189   0.576190   0.572779   5.464590
     H   23   0.026578   0.000120   0.000081   0.000080   5.463348
     H   24   0.029893   0.000086   0.000158   0.000082   0.573413   5.488694
     H   25   0.047985   0.000047   0.000090   0.000072   0.574530   0.566839
     H   26   0.001086   0.000250   0.000201   0.000281   0.000656   0.000379
     H   27   0.000259   0.000119   0.000158   0.000076   0.000085   0.000151
     H   28   0.000247   0.000102   0.000077   0.000091   0.000113   0.000130
     H   29   0.000196   0.000104   0.000109   0.000072   0.000186   0.000136
     H   30   0.001889   0.000322   0.000191   0.000186   0.000589   0.000501


                  H 25       H 26       H 27       H 28       H 29       H 30
 ------------------------------------------------------------------------------
     H   25   5.456815
     H   26   0.000687   5.180628
     H   27   0.000257   0.041902   5.229422
     H   28   0.000252   0.006467   0.040573   5.237607
     H   29   0.000253   0.007571   0.006805   0.040770   5.227856
     H   30   0.000744   0.006717   0.007211   0.006555   0.042195   5.165266


          HEAT OF FORMATION =     -10.016285 KCALS/MOLE

          ZERO POINT ENERGY     167.468 KCAL/MOL


           NORMAL COORDINATE ANALYSIS (Total motion = 1 Angstrom)


   Root No.       1         2         3         4         5         6         7         8

                 1 A       2 A       3 A       4 A       5 A       6 A       7 A       8 A   

                  60.0      73.3      78.7      88.9     148.1     148.9     191.5     206.4
  
           1    0.0098   -0.0064   -0.0048    0.0033   -0.0082   -0.0110    0.0003   -0.0020
           2   -0.0080    0.0101    0.0013   -0.0029   -0.0102   -0.0138    0.0027    0.0001
           3   -0.0146   -0.0104   -0.0002   -0.0021    0.0039    0.0072   -0.0057    0.0024
           4    0.0097   -0.0063   -0.0050    0.0034   -0.0072   -0.0112   -0.0002   -0.0022
           5   -0.0030    0.0006    0.0068    0.0016   -0.0136   -0.0093    0.0082    0.0024
           6   -0.0223   -0.0098    0.0046   -0.0045   -0.0173    0.0319    0.0167    0.0093
           7    0.0051   -0.0004   -0.0102   -0.0044    0.0142    0.0070   -0.0036   -0.0036
           8   -0.0095    0.0122   -0.0004   -0.0058   -0.0018   -0.0055    0.0013   -0.0001
           9   -0.0075   -0.0122   -0.0039    0.0004    0.0288   -0.0203   -0.0065   -0.0063
          10    0.0167   -0.0181   -0.0011    0.0043    0.0072    0.0089   -0.0033   -0.0024
          11    0.0065   -0.0006    0.0039    0.0141   -0.0034   -0.0035    0.0054   -0.0037
          12    0.0118    0.0098   -0.0188    0.0590    0.0008    0.0132    0.0085   -0.0221
          13    0.0175   -0.0183   -0.0011    0.0028    0.0077    0.0091   -0.0037   -0.0021
          14    0.0230   -0.0161    0.0092   -0.0047    0.0208    0.0267   -0.0015    0.0012
          15    0.0565    0.0036   -0.0159   -0.0287   -0.0017   -0.0112   -0.0026    0.0031
          16    0.0110    0.0122   -0.0018   -0.0046    0.0106    0.0135   -0.0010   -0.0021
          17   -0.0144    0.0217   -0.0023   -0.0157    0.0270    0.0318    0.0034    0.0038
          18    0.0237    0.0507    0.0396    0.0024    0.0002   -0.0000    0.0060    0.0009
          19    0.0011   -0.0047   -0.0006    0.0033   -0.0214    0.0006    0.0127    0.0055
          20   -0.0054    0.0060   -0.0009   -0.0017    0.0019   -0.0181   -0.0031   -0.0050
          21   -0.0123   -0.0086   -0.0007   -0.0032    0.0018    0.0040   -0.0077    0.0030
          22   -0.0071    0.0157   -0.0307   -0.0059   -0.0232    0.0020    0.0146    0.0071
          23    0.0012   -0.0075    0.0199    0.0046    0.0016   -0.0213   -0.0037   -0.0064
          24   -0.0089   -0.0057   -0.0017   -0.0050   -0.0046   -0.0064   -0.0020    0.0018
          25   -0.0041   -0.0147    0.0330    0.0090   -0.0142    0.0014    0.0101    0.0081
          26   -0.0062    0.0094   -0.0232   -0.0039    0.0023   -0.0090   -0.0097   -0.0042
          27   -0.0137   -0.0097   -0.0003   -0.0029    0.0034    0.0066   -0.0100    0.0039
          28   -0.0214    0.0276   -0.0254   -0.0105   -0.0024   -0.0047   -0.0009    0.0007
          29    0.0074   -0.0188    0.0171    0.0093   -0.0075   -0.0075   -0.0003    0.0001
          30   -0.0065   -0.0037   -0.0022   -0.0061   -0.0085   -0.0133    0.0033    0.0004
          31   -0.0268    0.0183    0.0106   -0.0050    0.0183   -0.0132   -0.0154   -0.0057
          32    0.0068   -0.0159   -0.0068    0.0071   -0.0158    0.0089    0.0017    0.0071
          33   -0.0077   -0.0047   -0.0019   -0.0055   -0.0067   -0.0101    0.0009    0.0011
          34   -0.0178   -0.0031    0.0388    0.0051    0.0087   -0.0072   -0.0057    0.0011
          35   -0.0001   -0.0015   -0.0265    0.0004   -0.0079    0.0069   -0.0064    0.0027
          36   -0.0112   -0.0078   -0.0009   -0.0039   -0.0007   -0.0000   -0.0053    0.0027
          37    0.0170   -0.0088   -0.0044    0.0066   -0.0012   -0.0283   -0.0069   -0.0053
          38   -0.0107    0.0141    0.0005   -0.0056   -0.0176   -0.0030    0.0006    0.0030
          39   -0.0132   -0.0091   -0.0005   -0.0023    0.0023    0.0057   -0.0088    0.0026
          40    0.0458   -0.0281    0.0028   -0.0455    0.0161    0.0102   -0.0114    0.0116
          41   -0.0074   -0.0087    0.0159   -0.0333   -0.0191   -0.0034    0.0106    0.0131
          42    0.0102    0.0226   -0.0324    0.1301    0.0116    0.0126    0.0075   -0.0454
          43   -0.0067   -0.0179   -0.0019    0.0555    0.0141    0.0287    0.0015   -0.0172
          44    0.0151    0.0182   -0.0146    0.0855    0.0058   -0.0170    0.0022   -0.0282
          45    0.0067    0.0171   -0.0262    0.1048    0.0067    0.0149    0.0090   -0.0367
          46    0.0053   -0.0032   -0.0027    0.0007   -0.0217   -0.0024    0.0120    0.0039
          47   -0.0258   -0.0155    0.0256   -0.0426   -0.0302    0.0135    0.0207    0.0270
          48   -0.0331   -0.0149    0.0129   -0.0233   -0.0299    0.0441    0.0266    0.0219
          49    0.0100   -0.0010   -0.0102    0.0053    0.0029   -0.0289   -0.0125   -0.0091
          50    0.0175    0.0081   -0.0057    0.0373    0.0018   -0.0195   -0.0005   -0.0160
          51   -0.0411   -0.0192    0.0185   -0.0384   -0.0358    0.0504    0.0305    0.0298
          52   -0.0168   -0.0397   -0.0406   -0.0085    0.0445    0.0012   -0.0107   -0.0085
          53   -0.0112   -0.0031   -0.0129   -0.0035    0.0179   -0.0334    0.0027   -0.0065
          54   -0.0131   -0.0285   -0.0168    0.0007    0.0453   -0.0357   -0.0072   -0.0106
          55    0.0183    0.0330    0.0093   -0.0071    0.0112    0.0273    0.0012    0.0001
          56   -0.0054    0.0225    0.0122   -0.0036   -0.0322    0.0061    0.0005    0.0050
          57   -0.0202   -0.0443   -0.0279    0.0006    0.0553   -0.0437   -0.0090   -0.0130
          58    0.0426   -0.0190   -0.0004   -0.0494    0.0007   -0.0134   -0.0093    0.0127
          59    0.0176   -0.0356    0.0260   -0.0792    0.0076    0.0504    0.0420   -0.1634
          60    0.0646   -0.0031   -0.0100   -0.0742   -0.0088   -0.0123    0.0096   -0.0456
          61    0.0227   -0.0274    0.0017    0.0029    0.0248    0.0328   -0.0077    0.0004
          62    0.0294   -0.0170    0.0074    0.0048    0.0317    0.0319   -0.0130    0.0375
          63    0.0785    0.0181   -0.0310    0.0195    0.0179   -0.0344   -0.0528    0.1822
          64   -0.0121   -0.0086   -0.0047    0.0538   -0.0024    0.0079    0.0056   -0.0193
          65    0.0350   -0.0080   -0.0015    0.0451    0.0430    0.0229   -0.0393    0.1334
          66    0.0620   -0.0090   -0.0043   -0.1014   -0.0160   -0.0071    0.0261   -0.1058
          67    0.0332    0.0527    0.0292   -0.0007   -0.0242    0.0224   -0.0126   -0.0030
          68   -0.0146    0.0337    0.0099   -0.0186   -0.0267    0.0794   -0.1408   -0.0293
          69    0.0290    0.0652    0.0520    0.0021   -0.0300    0.0214   -0.0552   -0.0128
          70    0.0068    0.0153   -0.0064   -0.0112    0.0449    0.0311    0.0323    0.0083
          71   -0.0157    0.0230   -0.0040   -0.0180    0.0409    0.0371    0.0199    0.0087
          72    0.0308    0.0553    0.0371    0.0044    0.0561   -0.0392    0.1657    0.0394
          73   -0.0026   -0.0217   -0.0216   -0.0018    0.0080   -0.0083   -0.0216   -0.0106
          74   -0.0169    0.0165   -0.0140   -0.0184    0.0914    0.0104    0.1349    0.0363
          75    0.0363    0.0817    0.0644    0.0023   -0.0482    0.0343   -0.0809   -0.0178
          76   -0.0032    0.0234   -0.0584   -0.0104   -0.0372    0.0056    0.0246    0.0115
          77    0.0016   -0.0104    0.0386    0.0061    0.0055   -0.0338   -0.0044   -0.0109
          78   -0.0079   -0.0049   -0.0020   -0.0055   -0.0064   -0.0095   -0.0000    0.0013
          79   -0.0281    0.0441   -0.0487   -0.0183   -0.0007   -0.0051   -0.0026   -0.0005
          80    0.0128   -0.0298    0.0332    0.0144   -0.0098   -0.0089    0.0023    0.0006
          81   -0.0035   -0.0012   -0.0031   -0.0073   -0.0131   -0.0209    0.0095   -0.0013
          82   -0.0377    0.0277    0.0161   -0.0085    0.0405   -0.0227   -0.0324   -0.0149
          83    0.0118   -0.0247   -0.0101    0.0107   -0.0270    0.0230    0.0084    0.0150
          84   -0.0059   -0.0032   -0.0023   -0.0063   -0.0096   -0.0152    0.0044    0.0001
          85   -0.0220   -0.0105    0.0664    0.0097    0.0205   -0.0100   -0.0117   -0.0001
          86   -0.0006    0.0009   -0.0450   -0.0014   -0.0104    0.0184   -0.0088    0.0052
          87   -0.0123   -0.0086   -0.0006   -0.0035    0.0011    0.0028   -0.0074    0.0032
          88    0.0019   -0.0302    0.0547    0.0157   -0.0217    0.0071    0.0167    0.0133
          89   -0.0111    0.0196   -0.0383   -0.0083    0.0085   -0.0113   -0.0157   -0.0074
          90   -0.0167   -0.0124    0.0004   -0.0019    0.0074    0.0135   -0.0154    0.0058


   Root No.       9        10        11        12        13        14        15        16

                 9 A      10 A      11 A      12 A      13 A      14 A      15 A      16 A   

                 243.5     266.7     322.3     356.2     371.9     442.4     505.6     566.2
  
           1    0.0003   -0.0045   -0.0041    0.0089    0.0001   -0.0099    0.0215    0.0315
           2   -0.0000   -0.0005    0.0029    0.0021   -0.0013    0.0320    0.0277   -0.0017
           3   -0.0078    0.0008   -0.0018   -0.0009   -0.0002   -0.0028   -0.0015    0.0159
           4   -0.0011   -0.0043   -0.0140    0.0014   -0.0001   -0.0045    0.0234    0.0345
           5   -0.0007    0.0132   -0.0364    0.0300   -0.0025   -0.0123   -0.0054    0.0087
           6    0.0364   -0.0233   -0.0125    0.0084   -0.0047    0.0054    0.0016    0.0043
           7    0.0080   -0.0021    0.0092    0.0409   -0.0026    0.0039   -0.0101   -0.0074
           8    0.0018    0.0000    0.0056    0.0084   -0.0023    0.0456    0.0274   -0.0211
           9    0.0288    0.0383   -0.0056    0.0034    0.0033    0.0029    0.0077    0.0007
          10    0.0022   -0.0135   -0.0257   -0.0276   -0.0013    0.0165   -0.0051   -0.0100
          11   -0.0048    0.0140   -0.0377    0.0239   -0.0023   -0.0098   -0.0227   -0.0100
          12    0.0077   -0.0068    0.0037   -0.0015   -0.0002    0.0027    0.0039    0.0029
          13    0.0025   -0.0150   -0.0269   -0.0325   -0.0013    0.0218   -0.0052   -0.0147
          14    0.0050   -0.0004    0.0386    0.0132    0.0015   -0.0075    0.0077    0.0081
          15   -0.0021    0.0014   -0.0072   -0.0021   -0.0000    0.0010   -0.0017   -0.0013
          16    0.0033   -0.0069    0.0091    0.0436   -0.0032   -0.0010   -0.0176   -0.0093
          17   -0.0018    0.0252   -0.0182   -0.0311    0.0028   -0.0098    0.0089    0.0055
          18    0.0046    0.0057   -0.0014   -0.0037    0.0007    0.0021    0.0045   -0.0012
          19    0.0072    0.0129    0.0059   -0.0059    0.0021   -0.0310    0.0284   -0.0040
          20    0.0179   -0.0104    0.0110   -0.0121    0.0005    0.0162   -0.0182    0.0152
          21   -0.0258   -0.0023   -0.0058    0.0100   -0.0014    0.0098    0.0154    0.0126
          22    0.0063    0.0267    0.0186   -0.0137   -0.0469   -0.0036    0.0040   -0.0075
          23    0.0206   -0.0208    0.0075   -0.0122    0.0354   -0.0087   -0.0085    0.0146
          24   -0.0101   -0.0037    0.0088   -0.0044    0.0008   -0.0059   -0.0073   -0.0069
          25   -0.0073    0.0271    0.0157   -0.0073    0.0521   -0.0025   -0.0029   -0.0198
          26    0.0019   -0.0231    0.0059   -0.0097   -0.0343   -0.0136   -0.0184    0.0001
          27   -0.0334   -0.0032   -0.0053    0.0110   -0.0013    0.0071    0.0093    0.0040
          28    0.0003    0.0013    0.0086   -0.0056    0.0500    0.0115   -0.0176    0.0187
          29    0.0012   -0.0046    0.0086   -0.0090   -0.0332   -0.0153    0.0101   -0.0045
          30    0.0077   -0.0030    0.0152   -0.0131    0.0021   -0.0123   -0.0150   -0.0096
          31   -0.0070   -0.0247   -0.0033    0.0001   -0.0005   -0.0243    0.0134   -0.0234
          32   -0.0197    0.0117    0.0124   -0.0052    0.0013    0.0076   -0.0235    0.0017
          33    0.0001   -0.0035    0.0139   -0.0111    0.0016   -0.0130   -0.0185   -0.0158
          34   -0.0144    0.0075    0.0093   -0.0044   -0.0471    0.0108   -0.0217    0.0091
          35   -0.0184   -0.0106    0.0014    0.0003    0.0334   -0.0145    0.0039   -0.0184
          36   -0.0190   -0.0029    0.0016    0.0028   -0.0004    0.0007    0.0011   -0.0001
          37   -0.0187    0.0056   -0.0138    0.0099    0.0021   -0.0180    0.0251    0.0575
          38   -0.0206   -0.0130    0.0084    0.0062   -0.0035    0.0478    0.0426   -0.0099
          39   -0.0242   -0.0021   -0.0019    0.0022   -0.0006    0.0023    0.0073    0.0206
          40    0.0014   -0.0166   -0.0103   -0.0390   -0.0000    0.0230   -0.0043   -0.0188
          41    0.0078    0.0089   -0.0541    0.0366   -0.0050   -0.0131   -0.0208    0.0010
          42   -0.0037   -0.0007    0.0124   -0.0082    0.0019    0.0031    0.0022   -0.0028
          43    0.0087   -0.0210   -0.0150   -0.0353   -0.0010    0.0228   -0.0054   -0.0164
          44   -0.0244    0.0273   -0.0345    0.0216    0.0006   -0.0144   -0.0248   -0.0123
          45    0.0025   -0.0041    0.0081   -0.0049    0.0009    0.0029    0.0024   -0.0005
          46    0.0239   -0.0193   -0.0156    0.0111   -0.0008    0.0025    0.0364    0.0396
          47    0.0342   -0.0050   -0.0623    0.0468   -0.0074   -0.0128   -0.0208    0.0014
          48    0.0606   -0.0367   -0.0246    0.0191   -0.0073    0.0081    0.0005    0.0037
          49   -0.0265    0.0097    0.0098   -0.0090    0.0033   -0.0017    0.0427    0.0487
          50   -0.0257    0.0270   -0.0291    0.0193    0.0007   -0.0174   -0.0132    0.0026
          51    0.0722   -0.0431   -0.0303    0.0242   -0.0094    0.0088   -0.0011    0.0031
          52    0.0293    0.0289    0.0042    0.0510   -0.0003   -0.0003   -0.0164   -0.0221
          53    0.0304    0.0290    0.0054    0.0198   -0.0021    0.0609    0.0455   -0.0504
          54    0.0480    0.0598   -0.0066    0.0117    0.0041    0.0108    0.0162   -0.0183
          55   -0.0038   -0.0117    0.0093    0.0347   -0.0033   -0.0064   -0.0235   -0.0079
          56   -0.0246   -0.0336    0.0073   -0.0013   -0.0045    0.0417    0.0257    0.0110
          57    0.0585    0.0725   -0.0077    0.0161    0.0056    0.0126    0.0185   -0.0248
          58   -0.0066   -0.0064   -0.0554   -0.0324   -0.0022    0.0220   -0.0211   -0.0289
          59   -0.0118    0.0024    0.0665    0.0092    0.0033   -0.0083    0.0208    0.0189
          60   -0.0112    0.0058   -0.0097   -0.0035    0.0001    0.0009   -0.0040   -0.0038
          61    0.0114   -0.0267    0.0363   -0.0386    0.0019    0.0219    0.0285    0.0114
          62    0.0120   -0.0061    0.0639    0.0114    0.0028   -0.0078    0.0216    0.0193
          63    0.0152   -0.0031   -0.0145   -0.0001   -0.0005    0.0006   -0.0044   -0.0034
          64    0.0027   -0.0127   -0.0615   -0.0286   -0.0036    0.0239   -0.0221   -0.0282
          65    0.0234   -0.0099    0.0624    0.0133    0.0025   -0.0083    0.0218    0.0202
          66   -0.0187    0.0086   -0.0090   -0.0041    0.0003    0.0005   -0.0045   -0.0040
          67   -0.0076   -0.0323    0.0189    0.0536   -0.0071    0.0163   -0.0173   -0.0254
          68    0.0337    0.0700   -0.0314   -0.0481    0.0049   -0.0332    0.0043    0.0197
          69    0.0164    0.0176   -0.0042   -0.0078    0.0006   -0.0028    0.0027    0.0001
          70   -0.0073    0.0056   -0.0102    0.0079    0.0015   -0.0532   -0.0337    0.0250
          71   -0.0070    0.0285   -0.0252   -0.0444    0.0045   -0.0288    0.0034    0.0183
          72   -0.0410   -0.0459    0.0085    0.0024   -0.0012    0.0130    0.0048   -0.0086
          73    0.0209    0.0022    0.0181    0.0687   -0.0045    0.0297   -0.0067   -0.0271
          74   -0.0365    0.0014   -0.0234   -0.0477    0.0047   -0.0321    0.0021    0.0222
          75    0.0179    0.0176   -0.0048   -0.0111    0.0002   -0.0052    0.0015    0.0000
          76    0.0115    0.0486    0.0353   -0.0262   -0.1335    0.0088   -0.0192   -0.0211
          77    0.0364   -0.0367    0.0088   -0.0180    0.0982   -0.0320   -0.0126    0.0096
          78   -0.0037   -0.0038    0.0128   -0.0090    0.0013   -0.0105   -0.0138   -0.0114
          79    0.0032   -0.0018    0.0102   -0.0055    0.1333    0.0448   -0.0636    0.0646
          80    0.0036   -0.0021    0.0088   -0.0110   -0.0912   -0.0393    0.0423   -0.0344
          81    0.0278   -0.0017    0.0204   -0.0211    0.0031   -0.0145   -0.0135    0.0011
          82   -0.0077   -0.0624   -0.0208    0.0086   -0.0040   -0.0587    0.0527   -0.0577
          83   -0.0358    0.0378    0.0181   -0.0027    0.0025    0.0370   -0.0467    0.0237
          84    0.0114   -0.0034    0.0184   -0.0169    0.0025   -0.0168   -0.0213   -0.0144
          85   -0.0243    0.0122    0.0103   -0.0028   -0.1339    0.0490   -0.0604    0.0627
          86   -0.0329   -0.0140   -0.0107    0.0132    0.0923   -0.0283    0.0495   -0.0433
          87   -0.0255   -0.0030   -0.0017    0.0070   -0.0011    0.0046    0.0064    0.0037
          88   -0.0130    0.0449    0.0216   -0.0061    0.1360    0.0202   -0.0175   -0.0272
          89    0.0014   -0.0359    0.0009   -0.0090   -0.0931   -0.0292   -0.0090    0.0027
          90   -0.0509   -0.0043   -0.0089    0.0175   -0.0019    0.0083    0.0057   -0.0078


   Root No.      17        18        19        20        21        22        23        24

                17 A      18 A      19 A      20 A      21 A      22 A      23 A      24 A   

                 584.6     631.1     672.2     780.5     789.7     806.1     851.4     862.3
  
           1   -0.0176    0.0048   -0.0104   -0.0023   -0.0036    0.0027    0.0006    0.0010
           2   -0.0046    0.0024    0.0022   -0.0011   -0.0015   -0.0004   -0.0002    0.0004
           3    0.0612   -0.0005    0.0020   -0.0056   -0.0040    0.0150    0.0031    0.0213
           4   -0.0220    0.0085   -0.0148   -0.0065   -0.0112    0.0053    0.0014    0.0090
           5   -0.0025    0.0015   -0.0041   -0.0051   -0.0048    0.0015    0.0009    0.0059
           6    0.0021   -0.0021    0.0007   -0.0165   -0.0059   -0.0030    0.0018    0.0126
           7    0.0072   -0.0013    0.0011   -0.0004   -0.0012    0.0036   -0.0003   -0.0025
           8    0.0024    0.0046    0.0139   -0.0071    0.0020    0.0128    0.0003    0.0012
           9    0.0026   -0.0021   -0.0006   -0.0024   -0.0076    0.0208   -0.0018   -0.0156
          10    0.0034   -0.0011    0.0019    0.0000    0.0003   -0.0003   -0.0000   -0.0002
          11    0.0099   -0.0027    0.0022   -0.0021    0.0005   -0.0038   -0.0008   -0.0042
          12   -0.0059   -0.0001   -0.0015   -0.0171   -0.0084   -0.0116   -0.0024   -0.0108
          13    0.0044   -0.0016    0.0035    0.0003    0.0010   -0.0010   -0.0001   -0.0004
          14   -0.0039    0.0011   -0.0016   -0.0002   -0.0002   -0.0005   -0.0004   -0.0018
          15    0.0003   -0.0003   -0.0002   -0.0005   -0.0007   -0.0013   -0.0008   -0.0046
          16    0.0097   -0.0020    0.0013    0.0015    0.0002   -0.0015   -0.0003   -0.0026
          17   -0.0062    0.0015    0.0009   -0.0020    0.0002    0.0046    0.0002   -0.0002
          18   -0.0038   -0.0005    0.0012   -0.0009   -0.0007    0.0041   -0.0007   -0.0072
          19    0.0163    0.0176    0.0520   -0.0055    0.0302    0.0038    0.0006   -0.0032
          20    0.0209    0.0219   -0.0372    0.0121   -0.0159   -0.0094   -0.0004    0.0025
          21    0.0138   -0.0205   -0.0010    0.0079    0.0050   -0.0069   -0.0001   -0.0002
          22    0.0196    0.0021   -0.0098    0.0100   -0.0020   -0.0066   -0.0257   -0.0025
          23    0.0184    0.0054    0.0063    0.0066    0.0106   -0.0092    0.0169   -0.0040
          24   -0.0174   -0.0919    0.0009   -0.0006    0.0000   -0.0013   -0.0008   -0.0049
          25    0.0010    0.0499   -0.0106    0.0018   -0.0066   -0.0007    0.0225   -0.0032
          26   -0.0096    0.0742    0.0075   -0.0033    0.0035    0.0017   -0.0160    0.0003
          27   -0.0028    0.0120   -0.0011    0.0103    0.0070   -0.0126   -0.0012   -0.0085
          28    0.0038   -0.0546    0.0182    0.0134   -0.0031   -0.0124   -0.0235   -0.0067
          29    0.0162   -0.0809   -0.0123    0.0100    0.0161   -0.0150    0.0136   -0.0141
          30   -0.0103   -0.0104    0.0010   -0.0044   -0.0029    0.0048    0.0004    0.0029
          31   -0.0067   -0.0188   -0.0098    0.0007   -0.0214    0.0039    0.0009    0.0071
          32   -0.0219   -0.0246    0.0083   -0.0139    0.0058    0.0126    0.0010    0.0058
          33   -0.0211    0.0231    0.0010   -0.0127   -0.0087    0.0150    0.0016    0.0112
          34   -0.0157   -0.0042    0.0189    0.0003   -0.0132    0.0025    0.0238    0.0024
          35   -0.0114   -0.0080   -0.0124   -0.0088    0.0034    0.0078   -0.0157    0.0047
          36   -0.0007    0.0989   -0.0018    0.0153    0.0106   -0.0199   -0.0025   -0.0168
          37   -0.0283   -0.0010   -0.0326    0.0081   -0.0164    0.0102   -0.0010   -0.0011
          38   -0.0001   -0.0092    0.0156   -0.0040    0.0094   -0.0081    0.0021    0.0128
          39    0.0580   -0.0100    0.0007   -0.0023   -0.0024    0.0125    0.0037    0.0264
          40    0.0093   -0.0031    0.0086   -0.0403   -0.0138   -0.0360   -0.0093   -0.0510
          41    0.0137   -0.0021    0.0019   -0.0771   -0.0326   -0.0429   -0.0055   -0.0168
          42   -0.0133    0.0004   -0.0053    0.0800    0.0321    0.0471    0.0075    0.0297
          43    0.0033   -0.0029    0.0028    0.0478    0.0226    0.0331    0.0083    0.0424
          44   -0.0002   -0.0005   -0.0039    0.1006    0.0416    0.0568    0.0084    0.0288
          45   -0.0099   -0.0001   -0.0037    0.0431    0.0169    0.0259    0.0046    0.0188
          46   -0.0959    0.0104   -0.0368    0.0270   -0.0087    0.0007   -0.0061   -0.0288
          47   -0.0411   -0.0049   -0.0197    0.0878    0.0257    0.0376    0.0010   -0.0134
          48   -0.0442   -0.0041   -0.0149    0.0369    0.0079    0.0109   -0.0008   -0.0106
          49    0.0314    0.0142   -0.0019   -0.0485   -0.0227    0.0116    0.0071    0.0521
          50    0.0322    0.0025    0.0092   -0.0698   -0.0235   -0.0281   -0.0008    0.0152
          51   -0.0573   -0.0061   -0.0188    0.0668    0.0177    0.0225    0.0006   -0.0175
          52   -0.0034   -0.0076    0.0102    0.0041    0.0244   -0.0612    0.0068    0.0793
          53   -0.0677    0.0022    0.0317   -0.0010    0.0345   -0.0600    0.0049    0.0338
          54   -0.0358   -0.0049    0.0110    0.0015    0.0156   -0.0324    0.0021    0.0216
          55    0.0158   -0.0009   -0.0018    0.0001   -0.0136    0.0400   -0.0051   -0.0602
          56    0.0572    0.0106   -0.0013   -0.0149   -0.0294    0.0807   -0.0015   -0.0280
          57   -0.0483   -0.0075    0.0141    0.0037    0.0275   -0.0628    0.0035    0.0521
          58    0.0166   -0.0039    0.0081    0.0475    0.0260    0.0318    0.0088    0.0467
          59   -0.0135    0.0036   -0.0058    0.0059   -0.0004    0.0076    0.0018    0.0095
          60    0.0023   -0.0005    0.0004    0.0218    0.0100    0.0155    0.0038    0.0193
          61   -0.0157    0.0044   -0.0051   -0.0045   -0.0074    0.0047    0.0017    0.0110
          62   -0.0117    0.0037   -0.0053    0.0018   -0.0018    0.0054    0.0014    0.0082
          63    0.0051   -0.0004    0.0009    0.0208    0.0101    0.0158    0.0041    0.0214
          64    0.0123   -0.0055    0.0083   -0.0411   -0.0152   -0.0392   -0.0110   -0.0578
          65   -0.0110    0.0039   -0.0054   -0.0012   -0.0031    0.0037    0.0011    0.0069
          66    0.0020   -0.0006    0.0003    0.0249    0.0114    0.0175    0.0043    0.0214
          67    0.0071    0.0005    0.0120    0.0027    0.0241   -0.0578    0.0082    0.0848
          68   -0.0185   -0.0000   -0.0083    0.0035   -0.0007   -0.0088   -0.0004   -0.0017
          69   -0.0094   -0.0006    0.0005    0.0017    0.0054   -0.0164    0.0013    0.0156
          70   -0.0031   -0.0057   -0.0202    0.0142   -0.0034   -0.0298   -0.0010   -0.0040
          71   -0.0112    0.0002   -0.0069    0.0026   -0.0009   -0.0064    0.0000    0.0003
          72    0.0010    0.0006    0.0073   -0.0013    0.0102   -0.0196    0.0037    0.0342
          73    0.0243   -0.0009    0.0107   -0.0093   -0.0153    0.0643   -0.0063   -0.0686
          74   -0.0087    0.0000   -0.0086    0.0033   -0.0013   -0.0082   -0.0001    0.0017
          75   -0.0141   -0.0002    0.0013    0.0038    0.0135   -0.0404    0.0044    0.0465
          76    0.0186    0.0167   -0.1658   -0.0121    0.0128   -0.0087    0.1606   -0.0009
          77    0.0066    0.0366    0.1166    0.0131   -0.0055    0.0014   -0.1124   -0.0010
          78   -0.0210   -0.0791    0.0010   -0.0034   -0.0017    0.0015   -0.0001   -0.0038
          79   -0.0088   -0.0484   -0.0075   -0.0400    0.1225    0.0040    0.1523   -0.0258
          80    0.0316   -0.0771    0.0054    0.0518   -0.0686   -0.0315   -0.1098   -0.0040
          81    0.0198    0.0255   -0.0000    0.0140    0.0104   -0.0162   -0.0012   -0.0103
          82    0.0016    0.0204   -0.1138   -0.0587    0.1189    0.0278   -0.0029   -0.0085
          83   -0.0368    0.0380    0.0796    0.0277   -0.0922   -0.0054    0.0033    0.0143
          84   -0.0148   -0.0387    0.0017   -0.0128   -0.0084    0.0158    0.0018    0.0128
          85   -0.0293   -0.0197   -0.0056   -0.0437    0.1205    0.0144   -0.1549   -0.0051
          86    0.0050   -0.0361    0.0032    0.0422   -0.0757   -0.0267    0.1060   -0.0122
          87    0.0010    0.0870   -0.0023    0.0215    0.0154   -0.0282   -0.0039   -0.0239
          88    0.0029    0.0411   -0.1647   -0.0124    0.0110    0.0008   -0.1561    0.0163
          89   -0.0181    0.0711    0.1154    0.0048   -0.0099    0.0021    0.1089   -0.0132
          90   -0.0358   -0.0281   -0.0011    0.0033    0.0025   -0.0065   -0.0017   -0.0079


   Root No.      25        26        27        28        29        30        31        32

                25 A      26 A      27 A      28 A      29 A      30 A      31 A      32 A   

                 920.4     939.3     956.9     967.0     980.0    1019.7    1024.9    1029.6
  
           1   -0.0005   -0.0048   -0.0125   -0.0074   -0.0006    0.0011   -0.0047    0.0053
           2    0.0048    0.0126   -0.0161    0.0239    0.0013    0.0019    0.0014    0.0057
           3   -0.0192   -0.0005   -0.0005    0.0007   -0.0002   -0.0015    0.0043   -0.0001
           4   -0.0010    0.0028    0.0042   -0.0107   -0.0012   -0.0054    0.0154   -0.0111
           5    0.0030    0.0056    0.0277    0.0128    0.0005   -0.0007    0.0015   -0.0006
           6    0.0235    0.0018   -0.0047   -0.0030   -0.0004   -0.0065    0.0124   -0.0066
           7    0.0003   -0.0004   -0.0018   -0.0017   -0.0000    0.0002    0.0019    0.0020
           8   -0.0050   -0.0098    0.0047   -0.0092    0.0001    0.0018   -0.0002    0.0103
           9    0.0018    0.0009   -0.0002   -0.0002    0.0002    0.0084   -0.0034    0.0187
          10   -0.0005   -0.0007    0.0004   -0.0021   -0.0002   -0.0001   -0.0002   -0.0003
          11   -0.0000   -0.0032   -0.0134   -0.0078   -0.0003    0.0003   -0.0012   -0.0005
          12   -0.0052    0.0010    0.0034   -0.0010    0.0002    0.0064   -0.0109    0.0056
          13    0.0011    0.0035    0.0107    0.0111    0.0007    0.0005   -0.0013    0.0011
          14   -0.0014   -0.0040   -0.0282   -0.0146   -0.0009   -0.0016    0.0058   -0.0021
          15   -0.0129   -0.0006    0.0045    0.0061    0.0001   -0.0043    0.0073   -0.0033
          16    0.0033    0.0055   -0.0007    0.0127    0.0006    0.0010   -0.0020    0.0023
          17   -0.0040   -0.0111    0.0140   -0.0241   -0.0011   -0.0018   -0.0024   -0.0104
          18    0.0055   -0.0015   -0.0014    0.0034    0.0001   -0.0061    0.0025   -0.0114
          19   -0.0016   -0.0285   -0.0036    0.0104    0.0015   -0.0079   -0.0123    0.0057
          20   -0.0024    0.0210   -0.0030   -0.0024   -0.0008    0.0069   -0.0032   -0.0101
          21   -0.0038    0.0014   -0.0057    0.0051    0.0004    0.0012   -0.0116   -0.0062
          22   -0.0023    0.0291   -0.0002   -0.0047    0.0349    0.0156   -0.0038   -0.0138
          23    0.0003   -0.0203   -0.0017    0.0057   -0.0239   -0.0088   -0.0199   -0.0053
          24    0.0065   -0.0017    0.0073   -0.0065   -0.0006   -0.0026    0.0273    0.0176
          25    0.0000    0.0266    0.0049   -0.0078   -0.0369    0.0139    0.0235    0.0038
          26    0.0035   -0.0210    0.0054   -0.0023    0.0250   -0.0136    0.0198    0.0196
          27    0.0039   -0.0004    0.0000    0.0004    0.0001    0.0014   -0.0131   -0.0086
          28    0.0055   -0.0009    0.0068   -0.0068   -0.0378   -0.0234    0.0005    0.0118
          29    0.0072   -0.0041    0.0092   -0.0063    0.0257    0.0141    0.0188    0.0017
          30   -0.0016    0.0001   -0.0009    0.0007   -0.0000    0.0004   -0.0058   -0.0039
          31   -0.0013   -0.0282   -0.0041    0.0099    0.0020    0.0258    0.0033   -0.0100
          32   -0.0054    0.0218   -0.0041   -0.0011   -0.0011   -0.0166   -0.0139    0.0008
          33   -0.0073    0.0022   -0.0069    0.0056    0.0004    0.0013   -0.0113   -0.0064
          34   -0.0020    0.0047   -0.0018   -0.0019    0.0358   -0.0226   -0.0130    0.0041
          35   -0.0025   -0.0017   -0.0030    0.0048   -0.0246    0.0168   -0.0013   -0.0094
          36    0.0111   -0.0027    0.0089   -0.0069   -0.0004   -0.0013    0.0141    0.0087
          37   -0.0273    0.0045   -0.0029   -0.0331   -0.0009    0.0367   -0.0487    0.0417
          38    0.0012    0.0146   -0.0520    0.0691    0.0026   -0.0221    0.0231   -0.0168
          39   -0.0309    0.0041   -0.0163    0.0154    0.0004   -0.0008   -0.0016    0.0009
          40   -0.0731   -0.0137   -0.0329    0.0041   -0.0011   -0.0105    0.0147   -0.0032
          41    0.0303    0.0056    0.0113   -0.0185    0.0009    0.0231   -0.0391    0.0147
          42    0.0042   -0.0001   -0.0013    0.0076   -0.0006   -0.0106    0.0185   -0.0079
          43    0.0710    0.0037   -0.0198   -0.0278   -0.0006    0.0174   -0.0263    0.0163
          44   -0.0230   -0.0063   -0.0035    0.0174   -0.0013   -0.0325    0.0529   -0.0300
          45    0.0126    0.0011   -0.0017   -0.0016   -0.0005   -0.0001    0.0010    0.0002
          46   -0.0126    0.0072   -0.0154   -0.0385    0.0015    0.0387   -0.0541    0.0240
          47   -0.0881   -0.0029    0.0408    0.0367   -0.0003   -0.0119    0.0154   -0.0058
          48   -0.0199    0.0004   -0.0069   -0.0043    0.0000    0.0069   -0.0097    0.0055
          49    0.0200    0.0052   -0.0211    0.0046   -0.0022   -0.0552    0.1118   -0.0581
          50    0.0674    0.0083    0.0519    0.0018    0.0030    0.0148   -0.0331    0.0128
          51   -0.0483   -0.0018   -0.0155   -0.0001   -0.0021    0.0032   -0.0024    0.0035
          52   -0.0438   -0.0036    0.0170   -0.0341    0.0006    0.0137   -0.0012    0.0201
          53    0.0102   -0.0094   -0.0126    0.0215   -0.0011   -0.0336    0.0129   -0.0564
          54   -0.0014   -0.0007   -0.0042    0.0068    0.0001   -0.0069    0.0027   -0.0114
          55    0.0307   -0.0085    0.0136   -0.0074   -0.0022   -0.0243    0.0095   -0.0642
          56   -0.0156   -0.0006   -0.0044   -0.0107   -0.0002    0.0422   -0.0144    0.1057
          57   -0.0124    0.0003   -0.0050    0.0072    0.0021   -0.0055    0.0020   -0.0079
          58    0.0971    0.0022   -0.0630   -0.0478   -0.0010    0.0232   -0.0340    0.0179
          59    0.0053    0.0069    0.0441    0.0196    0.0012    0.0008   -0.0051    0.0006
          60    0.0299    0.0025   -0.0023   -0.0072    0.0000    0.0060   -0.0099    0.0046
          61   -0.0051    0.0280    0.1796    0.0991    0.0055    0.0025   -0.0192    0.0053
          62    0.0053    0.0070    0.0416    0.0192    0.0011    0.0012   -0.0050    0.0009
[...]
 EFF. MASS  10.9834

 VIBRATION   65   65A         ATOM PAIR      ENERGY CONTRIBUTION    RADIAL
 FREQ.      1783.31         C 10 -- C 11         +15.6% ( 54.8%)     87.8%
 T-DIPOLE    0.0496         C 11 -- C 12         +15.6% ( 54.8%)     87.4%
 TRAVEL      0.0565         C  7 -- C  9         +14.7% ( 53.2%)     89.0%
 RED. MASS   2.4511         C  7 -- C  8         +14.5% ( 53.0%)     88.4%
 EFF. MASS  11.8478

 VIBRATION   66   66A         ATOM PAIR      ENERGY CONTRIBUTION    RADIAL
 FREQ.      1802.86         C  9 -- C 12         +17.1% ( 57.5%)     99.9%
 T-DIPOLE    0.2150         C  8 -- C 10         +16.4% ( 56.5%)     99.9%
 TRAVEL      0.0562         C  7 -- C  9         +11.6% ( 47.4%)     44.7%
 RED. MASS   2.2954         C  7 -- C  8         +11.4% ( 47.0%)     44.8%
 EFF. MASS  11.8345

 VIBRATION   67   67A         ATOM PAIR      ENERGY CONTRIBUTION    RADIAL
 FREQ.      2844.96         C  1 -- H 13         +96.3% ( 99.8%)    100.0%
 T-DIPOLE    0.0529         C  1 -- C  2          +1.1% ( 10.6%)      8.1%
 TRAVEL      0.1278         C  1 -- C  3          +1.1% ( 10.6%)      8.0%
 RED. MASS   0.9217         C  1 -- C  7          +1.1% ( 10.5%)     10.1%
 EFF. MASS   1.4506

 VIBRATION   68   68A         ATOM PAIR      ENERGY CONTRIBUTION    RADIAL
 FREQ.      2939.64         C  2 -- H 17         +35.6% ( 62.2%)     96.4%
 T-DIPOLE    0.0367         C  2 -- H 16         +35.4% ( 61.9%)     96.4%
 TRAVEL      0.1216         C  4 -- H 14         +13.0% ( 37.5%)     96.3%
 RED. MASS   0.3109         C  4 -- H 15         +12.8% ( 37.2%)     96.2%
 EFF. MASS   1.5520

 VIBRATION   69   69A         ATOM PAIR      ENERGY CONTRIBUTION    RADIAL
 FREQ.      2947.35         C  3 -- H 19         +48.4% ( 72.3%)     96.5%
 T-DIPOLE    0.0186         C  3 -- H 18         +47.9% ( 71.9%)     96.5%
 TRAVEL      0.1217         C  3 -- C  6          +1.2% ( 11.2%)      0.0%
 RED. MASS   0.5043         C  1 -- C  3          +1.1% ( 11.1%)      0.0%
 EFF. MASS   1.5440

 VIBRATION   70   70A         ATOM PAIR      ENERGY CONTRIBUTION    RADIAL
 FREQ.      2954.51         C  4 -- H 14         +36.4% ( 62.4%)     96.7%
 T-DIPOLE    0.0295         C  4 -- H 15         +34.9% ( 61.2%)     96.4%
 TRAVEL      0.1220         C  2 -- H 16         +13.2% ( 37.6%)     96.8%
 RED. MASS   0.3109         C  2 -- H 17         +12.9% ( 37.2%)     96.7%
 EFF. MASS   1.5323

 VIBRATION   71   71A         ATOM PAIR      ENERGY CONTRIBUTION    RADIAL
 FREQ.      3021.98         C  2 -- H 17         +46.0% ( 66.8%)     97.8%
 T-DIPOLE    0.0513         C  2 -- H 16         +45.7% ( 66.6%)     97.7%
 TRAVEL      0.1323         C  3 -- H 18          +2.2% ( 14.8%)     98.0%
 RED. MASS   0.4187         C  3 -- H 19          +1.9% ( 13.7%)     97.3%
 EFF. MASS   1.2742

 VIBRATION   72   72A         ATOM PAIR      ENERGY CONTRIBUTION    RADIAL
 FREQ.      3026.49         C  3 -- H 19         +46.5% ( 67.2%)     97.7%
 T-DIPOLE    0.0424         C  3 -- H 18         +46.3% ( 67.1%)     97.7%
 TRAVEL      0.1322         C  2 -- H 17          +2.3% ( 14.9%)     98.1%
 RED. MASS   0.4293         C  2 -- H 16          +2.0% ( 13.9%)     97.4%
 EFF. MASS   1.2741

 VIBRATION   73   73A         ATOM PAIR      ENERGY CONTRIBUTION    RADIAL
 FREQ.      3031.46         C  4 -- H 15         +48.8% ( 68.8%)     97.8%
 T-DIPOLE    0.0478         C  4 -- H 14         +47.1% ( 67.6%)     97.6%
 TRAVEL      0.1322         C  2 -- H 16          +1.0% ( 10.1%)     97.5%
 RED. MASS   0.4577         C  2 -- H 17          +1.0% (  9.7%)     97.2%
 EFF. MASS   1.2734

 VIBRATION   74   74A         ATOM PAIR      ENERGY CONTRIBUTION    RADIAL
 FREQ.      3044.07         C  9 -- H 30         +82.3% ( 92.1%)    100.0%
 T-DIPOLE    0.2608         C 12 -- H 29          +9.6% ( 31.4%)     99.9%
 TRAVEL      0.1214         C  8 -- H 26          +3.3% ( 18.3%)    100.0%
 RED. MASS   0.6790         C  9 -- C 12          +1.4% ( 11.8%)      8.6%
 EFF. MASS   1.5035

 VIBRATION   75   75A         ATOM PAIR      ENERGY CONTRIBUTION    RADIAL
 FREQ.      3048.65         C  8 -- H 26         +76.6% ( 89.0%)    100.0%
 T-DIPOLE    0.2381         C 10 -- H 27         +15.9% ( 40.5%)     99.9%
 TRAVEL      0.1209         C  9 -- H 30          +2.2% ( 15.2%)    100.0%
 RED. MASS   0.6064         C  8 -- C 10          +1.3% ( 11.8%)      5.2%
 EFF. MASS   1.5123

 VIBRATION   76   76A         ATOM PAIR      ENERGY CONTRIBUTION    RADIAL
 FREQ.      3059.81         C 11 -- H 28         +50.1% ( 71.9%)    100.0%
 T-DIPOLE    0.1817         C 12 -- H 29         +21.4% ( 47.0%)     99.9%
 TRAVEL      0.1210         C 10 -- H 27         +13.4% ( 37.3%)     99.9%
 RED. MASS   0.3171         C  8 -- H 26          +7.3% ( 27.5%)    100.0%
 EFF. MASS   1.5057

 VIBRATION   77   77A         ATOM PAIR      ENERGY CONTRIBUTION    RADIAL
 FREQ.      3067.19         C 10 -- H 27         +43.0% ( 66.6%)    100.0%
 T-DIPOLE    0.5185         C 12 -- H 29         +42.9% ( 66.5%)    100.0%
 TRAVEL      0.1197         C  8 -- H 26          +6.7% ( 26.3%)     99.9%
 RED. MASS   0.3722         C  9 -- H 30          +3.8% ( 19.8%)     99.8%
 EFF. MASS   1.5356

 VIBRATION   78   78A         ATOM PAIR      ENERGY CONTRIBUTION    RADIAL
 FREQ.      3076.91         C  6 -- H 23         +50.5% ( 73.3%)     97.3%
 T-DIPOLE    0.0362         C  6 -- H 25         +47.2% ( 70.9%)     96.8%
 TRAVEL      0.1208         C  6 -- H 24          +1.1% ( 10.6%)      2.8%
 RED. MASS   0.5061         C  3 -- C  6          +1.0% ( 10.2%)      0.0%
 EFF. MASS   1.5021

 VIBRATION   79   79A         ATOM PAIR      ENERGY CONTRIBUTION    RADIAL
 FREQ.      3078.13         C  5 -- H 22         +50.5% ( 73.3%)     97.2%
 T-DIPOLE    0.0146         C  5 -- H 20         +47.3% ( 70.9%)     96.8%
 TRAVEL      0.1208         C  4 -- C  5          +1.0% ( 10.2%)      0.0%
 RED. MASS   0.5066         C  5 -- H 21          +1.0% ( 10.1%)      0.7%
 EFF. MASS   1.5010

 VIBRATION   80   80A         ATOM PAIR      ENERGY CONTRIBUTION    RADIAL
 FREQ.      3079.86         C 11 -- H 28         +45.2% ( 68.2%)    100.0%
 T-DIPOLE    0.3822         C 10 -- H 27         +24.4% ( 50.1%)    100.0%
 TRAVEL      0.1171         C 12 -- H 29         +22.0% ( 47.5%)    100.0%
 RED. MASS   0.3140         C  8 -- H 26          +2.8% ( 17.1%)     99.9%
 EFF. MASS   1.5971

 VIBRATION   81   81A         ATOM PAIR      ENERGY CONTRIBUTION    RADIAL
 FREQ.      3084.32         C  5 -- H 21         +61.5% ( 80.9%)     98.7%
 T-DIPOLE    0.0039         C  5 -- H 20         +19.8% ( 45.9%)     87.0%
 TRAVEL      0.1206         C  5 -- H 22         +17.1% ( 42.7%)     84.5%
 RED. MASS   0.4756         C  4 -- C  5          +1.0% ( 10.3%)      0.0%
 EFF. MASS   1.5030

 VIBRATION   82   82A         ATOM PAIR      ENERGY CONTRIBUTION    RADIAL
 FREQ.      3084.47         C  6 -- H 24         +61.3% ( 80.7%)     98.7%
 T-DIPOLE    0.0169         C  6 -- H 25         +20.8% ( 47.0%)     87.7%
 TRAVEL      0.1205         C  6 -- H 23         +16.5% ( 41.9%)     83.8%
 RED. MASS   0.4745         C  3 -- C  6          +1.0% ( 10.4%)      0.0%
 EFF. MASS   1.5044

 VIBRATION   83   83A         ATOM PAIR      ENERGY CONTRIBUTION    RADIAL
 FREQ.      3179.26         C  6 -- H 24         +37.1% ( 58.6%)     97.7%
 T-DIPOLE    0.0285         C  6 -- H 23         +31.9% ( 54.3%)     96.9%
 TRAVEL      0.1366         C  6 -- H 25         +30.7% ( 53.3%)     96.6%
 RED. MASS   0.3288         C  3 -- C  6          +0.3% (  5.1%)     99.5%
 EFF. MASS   1.1366

 VIBRATION   84   84A         ATOM PAIR      ENERGY CONTRIBUTION    RADIAL
 FREQ.      3181.12         C  5 -- H 21         +36.8% ( 58.4%)     97.7%
 T-DIPOLE    0.0142         C  5 -- H 20         +31.8% ( 54.2%)     96.9%
 TRAVEL      0.1366         C  5 -- H 22         +31.1% ( 53.7%)     96.7%
 RED. MASS   0.3285         C  4 -- C  5          +0.3% (  5.1%)     99.5%
 EFF. MASS   1.1368

      SYMMETRY NUMBER FOR POINT-GROUP C1  =  1


          SYSTEM IS A GROUND STATE



 InChI=1S/C12H18/c1-3-8-11(4-2)12-9-6-5-7-10-12/h5-7,9-11H,3-4,8H2,1-2H3


          MOLECULE IS NOT LINEAR

          THERE ARE 84 GENUINE VIBRATIONS IN THIS SYSTEM
          THIS THERMODYNAMICS CALCULATION IS LIMITED TO
          MOLECULES WHICH HAVE NO INTERNAL ROTATIONS




                    CALCULATED THERMODYNAMIC PROPERTIES
                                          *
   TEMP. (K)   PARTITION FUNCTION   H.O.F.    ENTHALPY  HEAT CAPACITY ENTROPY
                                   KCAL/MOL   CAL/MOLE    CAL/K/MOL  CAL/K/MOL


 298.00  VIB.     0.8937D+04                  6175.9455    42.1749    38.8042
         ROT.     0.1429D+07                   888.2813     2.9808    31.1446
         INT.     0.1277D+11                  7064.2268    45.1557    69.9489
         TRA.     0.1998D+28                  1480.4688     4.9680    41.1588
         TOT.                      -10.016    8544.6956    50.1237   111.1077

 200.00  VIB.     0.2901D+03                  2795.1533    27.3400    25.2435
         ROT.     0.7858D+06                   596.1620     2.9808    29.9560
         INT.     0.2279D+09                  3391.3152    30.3208    55.1994
         TRA.     0.1099D+28                   993.6033     4.9680    39.1777
         TOT.                      -14.176    4384.9185    35.2888    94.3771

 210.00  VIB.     0.4121D+03                  3075.2994    28.6959    26.6100
         ROT.     0.8454D+06                   625.9700     2.9808    30.1014
         INT.     0.3484D+09                  3701.2695    31.6767    56.7114
         TRA.     0.1182D+28                  1043.2834     4.9680    39.4201
         TOT.                      -13.816    4744.5529    36.6447    96.1315

 220.00  VIB.     0.5852D+03                  3369.2068    30.0923    27.9770
         ROT.     0.9065D+06                   655.7781     2.9808    30.2401
         INT.     0.5305D+09                  4024.9849    33.0732    58.2171
         TRA.     0.1268D+28                  1092.9636     4.9680    39.6512
         TOT.                      -13.443    5117.9485    38.0412    97.8683

 230.00  VIB.     0.8305D+03                  3677.2813    31.5292    29.3462
         ROT.     0.9690D+06                   685.5862     2.9808    30.3726
         INT.     0.8048D+09                  4362.8675    34.5100    59.7188
         TRA.     0.1355D+28                  1142.6437     4.9680    39.8720
         TOT.                      -13.055    5505.5112    39.4780    99.5908

 240.00  VIB.     0.1178D+04                  3999.9216    33.0052    30.7192
         ROT.     0.1033D+07                   715.3943     2.9808    30.4994
         INT.     0.1217D+10                  4715.3159    35.9860    61.2186
         TRA.     0.1444D+28                  1192.3239     4.9680    40.0835
         TOT.                      -12.653    5907.6398    40.9540   101.3021

 250.00  VIB.     0.1671D+04                  4337.5077    34.5179    32.0970
         ROT.     0.1098D+07                   745.2024     2.9808    30.6211
         INT.     0.1835D+10                  5082.7101    37.4987    62.7182
         TRA.     0.1536D+28                  1242.0041     4.9680    40.2863
         TOT.                      -12.236    6324.7142    42.4667   103.0044

 260.00  VIB.     0.2369D+04                  4690.3914    36.0641    33.4809
         ROT.     0.1165D+07                   775.0105     2.9808    30.7380
         INT.     0.2759D+10                  5465.4019    39.0449    64.2189
         TRA.     0.1629D+28                  1291.6842     4.9680    40.4811
         TOT.                      -11.804    6757.0862    44.0130   104.7000

 270.00  VIB.     0.3359D+04                  5058.8897    37.6401    34.8714
         ROT.     0.1233D+07                   804.8186     2.9808    30.8505
         INT.     0.4140D+10                  5863.7083    40.6209    65.7219
         TRA.     0.1724D+28                  1341.3644     4.9680    40.6686
         TOT.                      -11.356    7205.0727    45.5890   106.3906

 280.00  VIB.     0.4763D+04                  5443.2794    39.2417    36.2692
         ROT.     0.1302D+07                   834.6267     2.9808    30.9589
         INT.     0.6200D+10                  6277.9061    42.2225    67.2281
         TRA.     0.1820D+28                  1391.0445     4.9680    40.8493
         TOT.                      -10.892    7668.9507    47.1905   108.0774

 290.00  VIB.     0.6756D+04                  5843.7944    40.8645    37.6745
         ROT.     0.1372D+07                   864.4348     2.9808    31.0635
         INT.     0.9269D+10                  6708.2293    43.8453    68.7380
         TRA.     0.1919D+28                  1440.7247     4.9680    41.0236
         TOT.                      -10.412    8148.9540    48.8133   109.7616

 300.00  VIB.     0.9585D+04                  6260.6241    42.5039    39.0874
         ROT.     0.1444D+07                   894.2429     2.9808    31.1646
         INT.     0.1384D+11                  7154.8671    45.4847    70.2520
         TRA.     0.2019D+28                  1490.4049     4.9680    41.1921
         TOT.                       -9.916    8645.2719    50.4527   111.4441

 310.00  VIB.     0.1361D+05                  6693.9129    44.1555    40.5080
         ROT.     0.1516D+07                   924.0510     2.9808    31.2623
         INT.     0.2063D+11                  7617.9639    47.1363    71.7703
         TRA.     0.2120D+28                  1540.0850     4.9680    41.3550
         TOT.                       -9.403    9158.0489    52.1044   113.1253

 320.00  VIB.     0.1932D+05                  7143.7610    45.8151    41.9361
         ROT.     0.1590D+07                   953.8591     2.9808    31.3570
         INT.     0.3073D+11                  8097.6201    48.7959    73.2931
         TRA.     0.2224D+28                  1589.7652     4.9680    41.5127
         TOT.                       -8.874    9687.3853    53.7639   114.8058

 330.00  VIB.     0.2746D+05                  7610.2264    47.4783    43.3714
         ROT.     0.1665D+07                   983.6672     2.9808    31.4487
         INT.     0.4573D+11                  8593.8936    50.4591    74.8200
         TRA.     0.2329D+28                  1639.4454     4.9680    41.6656
         TOT.                       -8.328   10233.3390    55.4272   116.4856

 340.00  VIB.     0.3904D+05                  8093.3270    49.1415    44.8134
         ROT.     0.1742D+07                  1013.4753     2.9808    31.5377
         INT.     0.6800D+11                  9106.8023    52.1223    76.3511
         TRA.     0.2436D+28                  1689.1255     4.9680    41.8139
         TOT.                       -7.765   10795.9278    57.0903   118.1650

 350.00  VIB.     0.5555D+05                  8593.0431    50.8009    46.2619
         ROT.     0.1819D+07                  1043.2834     2.9808    31.6241
         INT.     0.1010D+12                  9636.3265    53.7817    77.8859
         TRA.     0.2544D+28                  1738.8057     4.9680    41.9579
         TOT.                       -7.186   11375.1322    58.7497   119.8438

 360.00  VIB.     0.7909D+05                  9109.3205    52.4532    47.7162
         ROT.     0.1898D+07                  1073.0915     2.9808    31.7080
         INT.     0.1501D+12                 10182.4120    55.4340    79.4242
         TRA.     0.2654D+28                  1788.4859     4.9680    42.0979
         TOT.                       -6.590   11970.8979    60.4020   121.5221

 370.00  VIB.     0.1127D+06                  9642.0740    54.0956    49.1757
         ROT.     0.1977D+07                  1102.8996     2.9808    31.7897
         INT.     0.2228D+12                 10744.9737    57.0764    80.9655
         TRA.     0.2765D+28                  1838.1660     4.9680    42.2340
         TOT.                       -5.978   12583.1397    62.0444   123.1994

 380.00  VIB.     0.1607D+06                 10191.1902    55.7253    50.6400
         ROT.     0.2058D+07                  1132.7077     2.9808    31.8692
         INT.     0.3307D+12                 11323.8979    58.7061    82.5093
         TRA.     0.2878D+28                  1887.8462     4.9680    42.3665
         TOT.                       -5.349   13211.7440    63.6741   124.8757

 390.00  VIB.     0.2293D+06                 10756.5305    57.3401    52.1085
         ROT.     0.2140D+07                  1162.5158     2.9808    31.9466
         INT.     0.4906D+12                 11919.0463    60.3209    84.0551
         TRA.     0.2992D+28                  1937.5263     4.9680    42.4955
         TOT.                       -4.704   13856.5727    65.2889   126.5506

 400.00  VIB.     0.3274D+06                 11337.9351    58.9378    53.5804
         ROT.     0.2222D+07                  1192.3239     2.9808    32.0221
         INT.     0.7277D+12                 12530.2590    61.9187    85.6025
         TRA.     0.3108D+28                  1987.2065     4.9680    42.6213
         TOT.                       -4.044   14517.4655    66.8867   128.2237

   *: NOTE: HEATS OF FORMATION ARE RELATIVE TO THE
            ELEMENTS IN THEIR STANDARD STATE AT 298K
              (=  Standard Enthalpy of Formation).

            Hvib:  Zero-point energy is not included.
                   frequencies of less than zero cm-1 are not included.
            Hrot = (3/2)RT
            Htra = (3/2)RT + pV = (5/2)RT

            Heat capacity is Cp, not Cv

          For more information, see: HTTP://OpenMOPAC.net/Manual/thermochemistry.html


           FORCE CONSTANT IN CARTESIAN COORDINATES (Millidynes/A)

    ATOM   CHEMICAL       X               Y               Z
   NUMBER   SYMBOL  FORCE CONSTANT  FORCE CONSTANT  FORCE CONSTANT

      1       C        8.085991        8.252649        8.605148
      2       C        8.076253        8.320312        8.238611
      3       C        8.469921        7.933647        8.283225
      4       C        8.542736        8.167921        8.184469
      5       C        8.327760        8.370111        8.199429
      6       C        8.273335        8.414158        8.202059
      7       C        6.090096        9.317386       12.202525
      8       C        5.600210        9.040108       12.213125
      9       C        5.573598        8.908493       12.358738
     10       C        5.569716        8.921821       12.249926
     11       C        5.611718        9.061760       12.276683
     12       C        5.666848        9.076718       12.164719
     13       H        1.104339        1.468312        3.412245
     14       H        1.206595        2.424598        2.750357
     15       H        1.142192        1.147906        4.117170
     16       H        1.210308        1.172032        3.998795
     17       H        1.186796        2.362278        2.836767
     18       H        0.852091        1.480290        4.053259
     19       H        1.733037        1.881288        2.776602
     20       H        1.240402        1.089955        4.450709
     21       H        1.307528        4.665986        0.824321
     22       H        1.326118        2.498654        2.951511
     23       H        0.908023        1.323894        4.546311
     24       H        1.189577        4.928894        0.673401
     25       H        1.925229        1.984946        2.840708
     26       H        0.664409        0.984245        4.575315
     27       H        1.893743        3.493291        0.895779
     28       H        1.084039        1.855225        3.349234
     29       H        0.661723        0.974617        4.641448
     30       H        1.868419        3.440282        0.915367

 **********************
 *                    *
 * JOB ENDED NORMALLY *
 *                    *
 **********************



 TOTAL JOB TIME:             4.86 SECONDS

 == MOPAC DONE ==
