 *******************************************************************************
 ** Site#: 14399        For non-commercial use only    Version 18.184L 64BITS **
 *******************************************************************************
 ** Cite this program as: MOPAC2016, Version: 18.184L, James J. P. Stewart,   **
 ** Stewart Computational Chemistry, web: HTTP://OpenMOPAC.net. Days left:  18**
 *******************************************************************************
 **                                                                           **
 **                                MOPAC2016                                  **
 **                                                                           **
 *******************************************************************************

                              PM3 CALCULATION RESULTS

 *******************************************************************************
 *  CALCULATION DONE:                                Sat Jun 15 10:15:37 2019  *
 *  PM3        - The PM3 Hamiltonian to be used
 *  PRECISE    - CRITERIA TO BE INCREASED BY 100 TIMES
 *  NOSYM      - POINT-GROUP SYMMETRY SET TO C1
 *  THREADS=1  - MULTI-THREADING NOT USED
 *  T=         - A TIME OF 172800.0 SECONDS REQUESTED
 *  DUMP=N     - RESTART FILE WRITTEN EVERY  7200.000 SECONDS
 *******************************************************************************
pm3  precise nosym THREADS=1
 InChI=1S/C10H10/c1-3-6-10-8-5-4-7-9(10)2/h4,7H,1-2,5,8H2

   ATOM   CHEMICAL          X               Y               Z
  NUMBER   SYMBOL      (ANGSTROMS)     (ANGSTROMS)     (ANGSTROMS)
 
     1       C         -0.72680000  *  -1.17160000  *  -0.77200000  *
     2       C         -1.80270000  *  -1.45950000  *   0.28360000  *
     3       C          0.16810000  *  -0.05300000  *  -0.30810000  *
     4       C         -0.46650000  *   1.10780000  *   0.37180000  *
     5       C         -2.51710000  *  -0.20000000  *   0.70550000  *
     6       C         -1.88130000  *   0.97540000  *   0.78640000  *
     7       C          0.18730000  *   2.25320000  *   0.60190000  *
     8       C          4.02390000  *  -0.32770000  *  -0.78290000  *
     9       C          1.46570000  *  -0.14540000  *  -0.46810000  *
    10       C          2.73460000  *  -0.23620000  *  -0.62440000  *
    11       H         -1.22120000  *  -0.86120000  *  -1.71800000  *
    12       H         -1.32890000  *  -1.91830000  *   1.17830000  *
    13       H         -0.14720000  *  -2.10000000  *  -0.97400000  *
    14       H         -2.53980000  *  -2.18260000  *  -0.12610000  *
    15       H         -3.55790000  *  -0.26110000  *   0.99800000  *
    16       H         -2.42290000  *   1.84090000  *   1.15000000  *
    17       H         -0.30310000  *   3.08280000  *   1.09630000  *
    18       H          1.21770000  *   2.38790000  *   0.29900000  *
    19       H          4.65860000  *   0.51570000  *  -0.54770000  *
    20       H          4.45970000  *  -1.24710000  *  -1.14940000  *
 


          CARTESIAN COORDINATES 

    NO.       ATOM           X           Y           Z

     1         C         -0.7268     -1.1716     -0.7720
     2         C         -1.8027     -1.4595      0.2836
     3         C          0.1681     -0.0530     -0.3081
     4         C         -0.4665      1.1078      0.3718
     5         C         -2.5171     -0.2000      0.7055
     6         C         -1.8813      0.9754      0.7864
     7         C          0.1873      2.2532      0.6019
     8         C          4.0239     -0.3277     -0.7829
     9         C          1.4657     -0.1454     -0.4681
    10         C          2.7346     -0.2362     -0.6244
    11         H         -1.2212     -0.8612     -1.7180
    12         H         -1.3289     -1.9183      1.1783
    13         H         -0.1472     -2.1000     -0.9740
    14         H         -2.5398     -2.1826     -0.1261
    15         H         -3.5579     -0.2611      0.9980
    16         H         -2.4229      1.8409      1.1500
    17         H         -0.3031      3.0828      1.0963
    18         H          1.2177      2.3879      0.2990
    19         H          4.6586      0.5157     -0.5477
    20         H          4.4597     -1.2471     -1.1494

  H: (PM3): J. J. P. STEWART, J. COMP. CHEM. 10, 209 (1989).
  C: (PM3): J. J. P. STEWART, J. COMP. CHEM. 10, 209 (1989).

           Empirical Formula: C10 H10  =    20 atoms



      MOLECULAR POINT GROUP   :   C1  


      RHF CALCULATION, NO. OF DOUBLY OCCUPIED LEVELS = 25


          Geometry optimization using EF

          DIAGONAL MATRIX USED AS START HESSIAN

 CYCLE:     1 TIME:   0.008 TIME LEFT:  2.00D  GRAD.:    80.402 HEAT:  102.6636
 CYCLE:     2 TIME:   0.012 TIME LEFT:  2.00D  GRAD.:    82.053 HEAT:  101.9959
 CYCLE:     3 TIME:   0.004 TIME LEFT:  2.00D  GRAD.:    46.593 HEAT:  101.3287
 CYCLE:     4 TIME:   0.004 TIME LEFT:  2.00D  GRAD.:    42.513 HEAT:  101.0430
 CYCLE:     5 TIME:   0.004 TIME LEFT:  2.00D  GRAD.:    40.717 HEAT:  100.9543
 CYCLE:     6 TIME:   0.004 TIME LEFT:  2.00D  GRAD.:    49.690 HEAT:  100.8950
 CYCLE:     7 TIME:   0.004 TIME LEFT:  2.00D  GRAD.:    41.390 HEAT:  100.7570
 CYCLE:     8 TIME:   0.008 TIME LEFT:  2.00D  GRAD.:    31.141 HEAT:  100.5729
 CYCLE:     9 TIME:   0.008 TIME LEFT:  2.00D  GRAD.:    16.711 HEAT:  100.3715
 CYCLE:    10 TIME:   0.004 TIME LEFT:  2.00D  GRAD.:    17.028 HEAT:  100.3475
 CYCLE:    11 TIME:   0.004 TIME LEFT:  2.00D  GRAD.:     8.243 HEAT:  100.2831
 CYCLE:    12 TIME:   0.004 TIME LEFT:  2.00D  GRAD.:    12.778 HEAT:  100.2645
 CYCLE:    13 TIME:   0.004 TIME LEFT:  2.00D  GRAD.:    12.434 HEAT:  100.2340
 CYCLE:    14 TIME:   0.008 TIME LEFT:  2.00D  GRAD.:    13.078 HEAT:  100.2198
 CYCLE:    15 TIME:   0.004 TIME LEFT:  2.00D  GRAD.:    15.439 HEAT:  100.2178
 CYCLE:    16 TIME:   0.008 TIME LEFT:  2.00D  GRAD.:    11.037 HEAT:  100.1896
 CYCLE:    17 TIME:   0.004 TIME LEFT:  2.00D  GRAD.:     7.462 HEAT:  100.1659
 CYCLE:    18 TIME:   0.004 TIME LEFT:  2.00D  GRAD.:     6.439 HEAT:  100.1481
 CYCLE:    19 TIME:   0.008 TIME LEFT:  2.00D  GRAD.:     6.263 HEAT:  100.1418
 CYCLE:    20 TIME:   0.004 TIME LEFT:  2.00D  GRAD.:     4.194 HEAT:  100.1280
 CYCLE:    21 TIME:   0.004 TIME LEFT:  2.00D  GRAD.:     4.859 HEAT:  100.1167
 CYCLE:    22 TIME:   0.004 TIME LEFT:  2.00D  GRAD.:     3.741 HEAT:  100.1021
 CYCLE:    23 TIME:   0.004 TIME LEFT:  2.00D  GRAD.:     3.621 HEAT:  100.0954
 CYCLE:    24 TIME:   0.004 TIME LEFT:  2.00D  GRAD.:     2.873 HEAT:  100.0907
 CYCLE:    25 TIME:   0.004 TIME LEFT:  2.00D  GRAD.:     1.858 HEAT:  100.0868
 CYCLE:    26 TIME:   0.004 TIME LEFT:  2.00D  GRAD.:     1.837 HEAT:  100.0829
 CYCLE:    27 TIME:   0.004 TIME LEFT:  2.00D  GRAD.:     4.204 HEAT:  100.0790
 CYCLE:    28 TIME:   0.004 TIME LEFT:  2.00D  GRAD.:     2.315 HEAT:  100.0723
 CYCLE:    29 TIME:   0.004 TIME LEFT:  2.00D  GRAD.:     1.725 HEAT:  100.0676
 CYCLE:    30 TIME:   0.004 TIME LEFT:  2.00D  GRAD.:     2.672 HEAT:  100.0613
 CYCLE:    31 TIME:   0.004 TIME LEFT:  2.00D  GRAD.:     2.864 HEAT:  100.0547
 CYCLE:    32 TIME:   0.004 TIME LEFT:  2.00D  GRAD.:     2.139 HEAT:  100.0460
 CYCLE:    33 TIME:   0.008 TIME LEFT:  2.00D  GRAD.:     1.641 HEAT:  100.0384
 CYCLE:    34 TIME:   0.004 TIME LEFT:  2.00D  GRAD.:     1.693 HEAT:  100.0339
 CYCLE:    35 TIME:   0.004 TIME LEFT:  2.00D  GRAD.:     1.435 HEAT:  100.0302
 CYCLE:    36 TIME:   0.004 TIME LEFT:  2.00D  GRAD.:     1.149 HEAT:  100.0266
 CYCLE:    37 TIME:   0.004 TIME LEFT:  2.00D  GRAD.:     1.014 HEAT:  100.0239
 CYCLE:    38 TIME:   0.004 TIME LEFT:  2.00D  GRAD.:     1.027 HEAT:  100.0215
 CYCLE:    39 TIME:   0.004 TIME LEFT:  2.00D  GRAD.:     0.983 HEAT:  100.0191
 CYCLE:    40 TIME:   0.004 TIME LEFT:  2.00D  GRAD.:     0.974 HEAT:  100.0173
 CYCLE:    41 TIME:   0.004 TIME LEFT:  2.00D  GRAD.:     0.715 HEAT:  100.0158
 CYCLE:    42 TIME:   0.008 TIME LEFT:  2.00D  GRAD.:     0.498 HEAT:  100.0149
 CYCLE:    43 TIME:   0.004 TIME LEFT:  2.00D  GRAD.:     0.415 HEAT:  100.0145
 CYCLE:    44 TIME:   0.004 TIME LEFT:  2.00D  GRAD.:     0.409 HEAT:  100.0141
 CYCLE:    45 TIME:   0.004 TIME LEFT:  2.00D  GRAD.:     0.329 HEAT:  100.0137
 CYCLE:    46 TIME:   0.004 TIME LEFT:  2.00D  GRAD.:     0.251 HEAT:  100.0135
 CYCLE:    47 TIME:   0.004 TIME LEFT:  2.00D  GRAD.:     0.255 HEAT:  100.0133
 CYCLE:    48 TIME:   0.004 TIME LEFT:  2.00D  GRAD.:     0.298 HEAT:  100.0131
 CYCLE:    49 TIME:   0.004 TIME LEFT:  2.00D  GRAD.:     0.342 HEAT:  100.0129
 CYCLE:    50 TIME:   0.004 TIME LEFT:  2.00D  GRAD.:     0.315 HEAT:  100.0126
 CYCLE:    51 TIME:   0.004 TIME LEFT:  2.00D  GRAD.:     0.355 HEAT:  100.0123
 CYCLE:    52 TIME:   0.004 TIME LEFT:  2.00D  GRAD.:     0.322 HEAT:  100.0120
 CYCLE:    53 TIME:   0.004 TIME LEFT:  2.00D  GRAD.:     0.682 HEAT:  100.0118
 CYCLE:    54 TIME:   0.004 TIME LEFT:  2.00D  GRAD.:     0.349 HEAT:  100.0112
 CYCLE:    55 TIME:   0.008 TIME LEFT:  2.00D  GRAD.:     0.277 HEAT:  100.0109
 CYCLE:    56 TIME:   0.004 TIME LEFT:  2.00D  GRAD.:     0.292 HEAT:  100.0101
 CYCLE:    57 TIME:   0.004 TIME LEFT:  2.00D  GRAD.:     0.336 HEAT:  100.0095
 CYCLE:    58 TIME:   0.004 TIME LEFT:  2.00D  GRAD.:     0.281 HEAT:  100.0091
 CYCLE:    59 TIME:   0.004 TIME LEFT:  2.00D  GRAD.:     0.250 HEAT:  100.0088
 CYCLE:    60 TIME:   0.004 TIME LEFT:  2.00D  GRAD.:     0.284 HEAT:  100.0084
 CYCLE:    61 TIME:   0.004 TIME LEFT:  2.00D  GRAD.:     0.273 HEAT:  100.0082
 CYCLE:    62 TIME:   0.004 TIME LEFT:  2.00D  GRAD.:     0.262 HEAT:  100.0079
 CYCLE:    63 TIME:   0.004 TIME LEFT:  2.00D  GRAD.:     0.197 HEAT:  100.0079
 CYCLE:    64 TIME:   0.008 TIME LEFT:  2.00D  GRAD.:     0.364 HEAT:  100.0078
 CYCLE:    65 TIME:   0.004 TIME LEFT:  2.00D  GRAD.:     0.141 HEAT:  100.0076
 CYCLE:    66 TIME:   0.004 TIME LEFT:  2.00D  GRAD.:     0.113 HEAT:  100.0076
 CYCLE:    67 TIME:   0.004 TIME LEFT:  2.00D  GRAD.:     0.114 HEAT:  100.0075
 CYCLE:    68 TIME:   0.004 TIME LEFT:  2.00D  GRAD.:     0.189 HEAT:  100.0074
 CYCLE:    69 TIME:   0.004 TIME LEFT:  2.00D  GRAD.:     0.144 HEAT:  100.0073
 CYCLE:    70 TIME:   0.004 TIME LEFT:  2.00D  GRAD.:     0.419 HEAT:  100.0073
 CYCLE:    71 TIME:   0.004 TIME LEFT:  2.00D  GRAD.:     0.171 HEAT:  100.0072
 CYCLE:    72 TIME:   0.004 TIME LEFT:  2.00D  GRAD.:     0.151 HEAT:  100.0071
 CYCLE:    73 TIME:   0.004 TIME LEFT:  2.00D  GRAD.:     0.188 HEAT:  100.0069
 CYCLE:    74 TIME:   0.004 TIME LEFT:  2.00D  GRAD.:     0.177 HEAT:  100.0069
 CYCLE:    75 TIME:   0.004 TIME LEFT:  2.00D  GRAD.:     0.199 HEAT:  100.0067
 CYCLE:    76 TIME:   0.004 TIME LEFT:  2.00D  GRAD.:     0.195 HEAT:  100.0066
 CYCLE:    77 TIME:   0.004 TIME LEFT:  2.00D  GRAD.:     0.738 HEAT:  100.0088
 CYCLE:    78 TIME:   0.008 TIME LEFT:  2.00D  GRAD.:     0.217 HEAT:  100.0060
 CYCLE:    79 TIME:   0.004 TIME LEFT:  2.00D  GRAD.:     0.232 HEAT:  100.0059
 CYCLE:    80 TIME:   0.004 TIME LEFT:  2.00D  GRAD.:     0.206 HEAT:  100.0057
 CYCLE:    81 TIME:   0.004 TIME LEFT:  2.00D  GRAD.:     0.201 HEAT:  100.0055
 CYCLE:    82 TIME:   0.004 TIME LEFT:  2.00D  GRAD.:     0.174 HEAT:  100.0054
 CYCLE:    83 TIME:   0.004 TIME LEFT:  2.00D  GRAD.:     0.224 HEAT:  100.0051
 CYCLE:    84 TIME:   0.004 TIME LEFT:  2.00D  GRAD.:     0.147 HEAT:  100.0050
 CYCLE:    85 TIME:   0.004 TIME LEFT:  2.00D  GRAD.:     0.097 HEAT:  100.0049
 CYCLE:    86 TIME:   0.004 TIME LEFT:  2.00D  GRAD.:     0.070 HEAT:  100.0049
 CYCLE:    87 TIME:   0.004 TIME LEFT:  2.00D  GRAD.:     0.042 HEAT:  100.0049

     GRADIENT =  0.04239  IS LESS THAN CUTOFF =  0.05000



 -------------------------------------------------------------------------------
 pm3  precise nosym THREADS=1
 InChI=1S/C10H10/c1-3-6-10-8-5-4-7-9(10)2/h4,7H,1-2,5,8H2



     GEOMETRY OPTIMISED USING EIGENVECTOR FOLLOWING (EF).     
     SCF FIELD WAS ACHIEVED                                   


                              PM3 CALCULATION
                                                       MOPAC2016 (Version: 18.184L)
                                                       Sat Jun 15 10:15:37 2019
                                                       No. of days remaining =  18




          FINAL HEAT OF FORMATION =        100.00485 KCAL/MOL =     418.42030 KJ/MOL


          TOTAL ENERGY            =      -1335.39432 EV
          ELECTRONIC ENERGY       =      -6783.11095 EV  POINT GROUP:     C1  
          CORE-CORE REPULSION     =       5447.71663 EV
          COSMO AREA              =        186.27 SQUARE ANGSTROMS
          COSMO VOLUME            =        183.31 CUBIC ANGSTROMS

          GRADIENT NORM           =          0.04239 = 0.00948 PER ATOM
          IONIZATION POTENTIAL    =          8.583120 EV
          HOMO LUMO ENERGIES (EV) =         -8.583 -0.574
          NO. OF FILLED LEVELS    =         25
          MOLECULAR WEIGHT        =        130.1890

          MOLECULAR DIMENSIONS (Angstroms)

            Atom       Atom       Distance
            H    19    H    15     8.37629
            H    17    H    13     5.56436
            H    11    H    12     2.94213


          SCF CALCULATIONS        =         94
 
          WALL-CLOCK TIME         =          0.398 SECONDS
          COMPUTATION TIME        =          0.369 SECONDS




   ATOM   CHEMICAL          X               Y               Z
  NUMBER   SYMBOL      (ANGSTROMS)     (ANGSTROMS)     (ANGSTROMS)
 
     1       C         -0.73492607  *  -1.14595203  *  -0.76705924  *
     2       C         -1.83877880  *  -1.46092441  *   0.23171276  *
     3       C          0.16272551  *  -0.05152452  *  -0.28211851  *
     4       C         -0.46857162  *   1.11017421  *   0.35182655  *
     5       C         -2.47575493  *  -0.23425084  *   0.77558236  *
     6       C         -1.84247380  *   0.94211166  *   0.82360259  *
     7       C          0.17214498  *   2.27760052  *   0.50478708  *
     8       C          4.00878896  *  -0.33023015  *  -0.74975094  *
     9       C          1.46841576  *  -0.13851832  *  -0.44325458  *
    10       C          2.71852572  *  -0.23266638  *  -0.59440534  *
    11       H         -1.17404783  *  -0.82045500  *  -1.73222416  *
    12       H         -1.43858815  *  -2.05122170  *   1.08101769  *
    13       H         -0.15466591  *  -2.06184400  *  -0.99151545  *
    14       H         -2.60228657  *  -2.10342151  *  -0.24897833  *
    15       H         -3.49730033  *  -0.33784004  *   1.15722913  *
    16       H         -2.33412197  *   1.83119219  *   1.23634588  *
    17       H         -0.28893607  *   3.14246000  *   0.97302130  *
    18       H          1.19479306  *   2.42994600  *   0.17060572  *
    19       H          4.69069796  *   0.44974437  *  -0.42348198  *
    20       H          4.47159702  *  -1.19677353  *  -1.21315719  *

                             CARTESIAN COORDINATES

   1    C       -0.734926067    -1.145952026    -0.767059243
   2    C       -1.838778800    -1.460924410     0.231712757
   3    C        0.162725508    -0.051524518    -0.282118510
   4    C       -0.468571617     1.110174213     0.351826547
   5    C       -2.475754928    -0.234250838     0.775582357
   6    C       -1.842473802     0.942111662     0.823602591
   7    C        0.172144982     2.277600524     0.504787078
   8    C        4.008788959    -0.330230147    -0.749750942
   9    C        1.468415757    -0.138518324    -0.443254583
  10    C        2.718525722    -0.232666383    -0.594405338
  11    H       -1.174047832    -0.820454998    -1.732224161
  12    H       -1.438588155    -2.051221704     1.081017687
  13    H       -0.154665915    -2.061844003    -0.991515453
  14    H       -2.602286572    -2.103421509    -0.248978326
  15    H       -3.497300327    -0.337840040     1.157229132
  16    H       -2.334121972     1.831192194     1.236345875
  17    H       -0.288936065     3.142460000     0.973021300
  18    H        1.194793061     2.429946003     0.170605717
  19    H        4.690697962     0.449744373    -0.423481979
  20    H        4.471597018    -1.196773529    -1.213157186


           Empirical Formula: C10 H10  =    20 atoms



      MOLECULAR POINT GROUP   :   C1  


                  EIGENVALUES  
 -40.25175 -33.83941 -32.46185 -30.47921 -26.33961 -24.51989 -21.95778 -20.61693
 -18.44716 -17.04782 -16.73652 -16.37273 -15.47712 -15.16628 -15.05083 -14.10579
 -13.76263 -13.18438 -12.84438 -12.56100 -11.86198 -11.65520  -9.98446  -9.49398
  -8.58312  -0.57440   0.42383   1.12192   2.06853   2.62395   3.01493   3.21054
   3.31104   3.46683   3.66339   3.74714   3.91835   3.98670   4.09835   4.27221
   4.53751   4.56815   4.78274   4.94307   5.13224   5.18145   5.44929   6.00667
   6.08494   6.96466


              NET ATOMIC CHARGES AND DIPOLE CONTRIBUTIONS

  ATOM NO.   TYPE          CHARGE      No. of ELECS.   s-Pop       p-Pop       
    1          C          -0.053562        4.0536     1.14666     2.90690
    2          C          -0.059363        4.0594     1.14566     2.91370
    3          C           0.051184        3.9488     1.14927     2.79955
    4          C          -0.044544        4.0445     1.16569     2.87885
    5          C          -0.131021        4.1310     1.19540     2.93562
    6          C          -0.108630        4.1086     1.18013     2.92850
    7          C          -0.129701        4.1297     1.18456     2.94514
    8          C          -0.078156        4.0782     1.14795     2.93021
    9          C          -0.153753        4.1538     1.16125     2.99250
   10          C          -0.092671        4.0927     1.16375     2.92892
   11          H           0.061889        0.9381     0.93811
   12          H           0.061773        0.9382     0.93823
   13          H           0.060311        0.9397     0.93969
   14          H           0.054919        0.9451     0.94508
   15          H           0.099306        0.9007     0.90069
   16          H           0.102883        0.8971     0.89712
   17          H           0.082944        0.9171     0.91706
   18          H           0.089563        0.9104     0.91044
   19          H           0.093311        0.9067     0.90669
   20          H           0.093318        0.9067     0.90668
 DIPOLE           X         Y         Z       TOTAL
 POINT-CHG.    -0.357    -0.270    -0.029     0.449
 HYBRID         0.052     0.040     0.020     0.069
 SUM           -0.305    -0.230    -0.009     0.382


          ATOMIC ORBITAL ELECTRON POPULATIONS

     Atom    s        px        py        pz   
    1  C   1.14666   0.96062   0.96822   0.97805
    2  C   1.14566   0.97231   0.95830   0.98310
    3  C   1.14927   0.89101   0.94601   0.96253
    4  C   1.16569   0.94335   0.94208   0.99342
    5  C   1.19540   0.98644   0.95449   0.99469
    6  C   1.18013   0.94270   0.97532   1.01048
    7  C   1.18456   0.99787   0.95793   0.98935
    8  C   1.14795   0.91148   1.00680   1.01192
    9  C   1.16125   0.92654   1.03386   1.03211
   10  C   1.16375   0.93114   0.99892   0.99886
   11  H   0.93811
   12  H   0.93823
   13  H   0.93969
   14  H   0.94508
   15  H   0.90069
   16  H   0.89712
   17  H   0.91706
   18  H   0.91044
   19  H   0.90669
   20  H   0.90668
 *******************************************************************************
 ** Site#: 14399        For non-commercial use only    Version 18.184L 64BITS **
 *******************************************************************************
 ** Cite this program as: MOPAC2016, Version: 18.184L, James J. P. Stewart,   **
 ** Stewart Computational Chemistry, web: HTTP://OpenMOPAC.net. Days left:  18**
 *******************************************************************************
 **                                                                           **
 **                                MOPAC2016                                  **
 **                                                                           **
 *******************************************************************************

                              PM3 CALCULATION RESULTS

 *******************************************************************************
 *  CALCULATION DONE:                                Sat Jun 15 10:15:37 2019  *
 *  PM3        - The PM3 Hamiltonian to be used
 *  OLDGEO     - PREVIOUS GEOMETRY TO BE USED
 *  PRECISE    - CRITERIA TO BE INCREASED BY 100 TIMES
 *  NOSYM      - POINT-GROUP SYMMETRY SET TO C1
 *  THREADS=1  - MULTI-THREADING NOT USED
 *  T=         - A TIME OF 172800.0 SECONDS REQUESTED
 *  DUMP=N     - RESTART FILE WRITTEN EVERY  7200.000 SECONDS
 *  THERMO     - THERMODYNAMIC QUANTITIES TO BE CALCULATED
 *******************************************************************************
oldgeo thermo nosym precise THREADS=1  pm3
 InChI=1S/C10H10/c1-3-6-10-8-5-4-7-9(10)2/h4,7H,1-2,5,8H2

   ATOM   CHEMICAL          X               Y               Z
  NUMBER   SYMBOL      (ANGSTROMS)     (ANGSTROMS)     (ANGSTROMS)
 
     1       C         -0.73492607  *  -1.14595203  *  -0.76705924  *
     2       C         -1.83877880  *  -1.46092441  *   0.23171276  *
     3       C          0.16272551  *  -0.05152452  *  -0.28211851  *
     4       C         -0.46857162  *   1.11017421  *   0.35182655  *
     5       C         -2.47575493  *  -0.23425084  *   0.77558236  *
     6       C         -1.84247380  *   0.94211166  *   0.82360259  *
     7       C          0.17214498  *   2.27760052  *   0.50478708  *
     8       C          4.00878896  *  -0.33023015  *  -0.74975094  *
     9       C          1.46841576  *  -0.13851832  *  -0.44325458  *
    10       C          2.71852572  *  -0.23266638  *  -0.59440534  *
    11       H         -1.17404783  *  -0.82045500  *  -1.73222416  *
    12       H         -1.43858815  *  -2.05122170  *   1.08101769  *
    13       H         -0.15466591  *  -2.06184400  *  -0.99151545  *
    14       H         -2.60228657  *  -2.10342151  *  -0.24897833  *
    15       H         -3.49730033  *  -0.33784004  *   1.15722913  *
    16       H         -2.33412197  *   1.83119219  *   1.23634588  *
    17       H         -0.28893607  *   3.14246000  *   0.97302130  *
    18       H          1.19479306  *   2.42994600  *   0.17060572  *
    19       H          4.69069796  *   0.44974437  *  -0.42348198  *
    20       H          4.47159702  *  -1.19677353  *  -1.21315719  *
 


          CARTESIAN COORDINATES 

    NO.       ATOM           X           Y           Z

     1         C         -0.7349     -1.1460     -0.7671
     2         C         -1.8388     -1.4609      0.2317
     3         C          0.1627     -0.0515     -0.2821
     4         C         -0.4686      1.1102      0.3518
     5         C         -2.4758     -0.2343      0.7756
     6         C         -1.8425      0.9421      0.8236
     7         C          0.1721      2.2776      0.5048
     8         C          4.0088     -0.3302     -0.7498
     9         C          1.4684     -0.1385     -0.4433
    10         C          2.7185     -0.2327     -0.5944
    11         H         -1.1740     -0.8205     -1.7322
    12         H         -1.4386     -2.0512      1.0810
    13         H         -0.1547     -2.0618     -0.9915
    14         H         -2.6023     -2.1034     -0.2490
    15         H         -3.4973     -0.3378      1.1572
    16         H         -2.3341      1.8312      1.2363
    17         H         -0.2889      3.1425      0.9730
    18         H          1.1948      2.4299      0.1706
    19         H          4.6907      0.4497     -0.4235
    20         H          4.4716     -1.1968     -1.2132

  H: (PM3): J. J. P. STEWART, J. COMP. CHEM. 10, 209 (1989).
  C: (PM3): J. J. P. STEWART, J. COMP. CHEM. 10, 209 (1989).

           Empirical Formula: C10 H10  =    20 atoms



      MOLECULAR POINT GROUP   :   C1  


      RHF CALCULATION, NO. OF DOUBLY OCCUPIED LEVELS = 25



          HEAT OF FORMATION =     100.004853 KCALS/MOLE


          CARTESIAN COORDINATE DERIVATIVES

   NUMBER  ATOM         X            Y            Z

     1       C      0.006882     0.008069    -0.008293
     2       C      0.000639     0.002099    -0.002284
     3       C      0.004612     0.001985     0.000046
     4       C      0.003997    -0.010543    -0.001239
     5       C      0.000612     0.003841    -0.001810
     6       C     -0.001215     0.000346    -0.002181
     7       C     -0.003856     0.012819    -0.002543
     8       C      0.005444    -0.000067     0.001051
     9       C     -0.016398     0.004631     0.003940
    10       C      0.003194    -0.010609     0.013618
    11       H     -0.015110     0.007293    -0.004076
    12       H     -0.000968    -0.007549    -0.007263
    13       H      0.003096    -0.002638    -0.000610
    14       H      0.001669     0.002590     0.000299
    15       H     -0.002824    -0.003479     0.001938
    16       H      0.001635    -0.009055     0.005418
    17       H     -0.002264     0.005729    -0.003282
    18       H     -0.008684     0.002497    -0.000465
    19       H      0.012193    -0.006544     0.015153
    20       H      0.007345    -0.001413    -0.007416
 


          GRADIENT NORM =   0.04936


          TIME FOR SCF CALCULATION =    0.00

          TIME FOR DERIVATIVES     =    0.00

          MOLECULAR WEIGHT =  130.19



          ROTATIONAL CONSTANTS IN CM(-1)

          A =    0.08770234   B =    0.02896192   C =    0.02247431



           PRINCIPAL MOMENTS OF INERTIA IN UNITS OF 10**(-40)*GRAM-CM**2

          A =      319.1793   B =      966.5374   C =     1245.5452


          ORIENTATION OF MOLECULE IN FORCE CALCULATION

    NO.       ATOM         X         Y         Z

     1          C       0.3607   -1.6103    0.0029
     2          C       1.8823   -1.6103    0.0029
     3          C      -0.1987   -0.2226    0.0029
     4          C       0.4349    0.7622    0.8854
     5          C       2.4475   -0.6370    0.9722
     6          C       1.7761    0.4465    1.3753
     7          C      -0.1712    1.9065    1.2319
     8          C      -3.2382    0.6567   -2.2503
     9          C      -1.2337    0.0798   -0.7558
    10          C      -2.2203    0.3636   -1.4910
    11          H      -0.0216   -2.1291    0.9057
    12          H       2.2717   -1.3632   -1.0057
    13          H      -0.0180   -2.1884   -0.8621
    14          H       2.2537   -2.6292    0.2284
    15          H       3.4605   -0.8377    1.3375
    16          H       2.2196    1.1527    2.0874
    17          H       0.2916    2.6405    1.8853
    18          H      -1.1640    2.1711    0.8783
    19          H      -3.6801    1.6488   -2.2667
    20          H      -3.6987   -0.0749   -2.9079


    FIRST DERIVATIVES WILL BE USED IN THE CALCULATION OF SECOND DERIVATIVES

          ESTIMATED TIME TO COMPLETE CALCULATION =        1.88 SECONDS

    FOR POINT-GROUP C1   THERE ARE   1 UNIQUE SYMMETRY FUNCTIONS.

 STEP:   1 TIME =     0.02 SECS, INTEGRAL =      0.02 TIME LEFT: 172799.97
 STEP:   2 TIME =     0.02 SECS, INTEGRAL =      0.04 TIME LEFT: 172799.95
 STEP:   3 TIME =     0.02 SECS, INTEGRAL =      0.06 TIME LEFT: 172799.93
 STEP:   4 TIME =     0.02 SECS, INTEGRAL =      0.07 TIME LEFT: 172799.92
 STEP:   5 TIME =     0.02 SECS, INTEGRAL =      0.09 TIME LEFT: 172799.90
 STEP:   6 TIME =     0.02 SECS, INTEGRAL =      0.11 TIME LEFT: 172799.88
 STEP:   7 TIME =     0.02 SECS, INTEGRAL =      0.13 TIME LEFT: 172799.86
 STEP:   8 TIME =     0.02 SECS, INTEGRAL =      0.15 TIME LEFT: 172799.84
 STEP:   9 TIME =     0.02 SECS, INTEGRAL =      0.17 TIME LEFT: 172799.82
 STEP:  10 TIME =     0.02 SECS, INTEGRAL =      0.19 TIME LEFT: 172799.80
 STEP:  11 TIME =     0.02 SECS, INTEGRAL =      0.20 TIME LEFT: 172799.79
 STEP:  12 TIME =     0.02 SECS, INTEGRAL =      0.22 TIME LEFT: 172799.77
 STEP:  13 TIME =     0.02 SECS, INTEGRAL =      0.24 TIME LEFT: 172799.75
 STEP:  14 TIME =     0.02 SECS, INTEGRAL =      0.26 TIME LEFT: 172799.73
 STEP:  15 TIME =     0.02 SECS, INTEGRAL =      0.28 TIME LEFT: 172799.71
 STEP:  16 TIME =     0.02 SECS, INTEGRAL =      0.30 TIME LEFT: 172799.70
 STEP:  17 TIME =     0.02 SECS, INTEGRAL =      0.32 TIME LEFT: 172799.68
 STEP:  18 TIME =     0.02 SECS, INTEGRAL =      0.33 TIME LEFT: 172799.66
 STEP:  19 TIME =     0.02 SECS, INTEGRAL =      0.35 TIME LEFT: 172799.64
 STEP:  20 TIME =     0.02 SECS, INTEGRAL =      0.37 TIME LEFT: 172799.62
 STEP:  21 TIME =     0.02 SECS, INTEGRAL =      0.39 TIME LEFT: 172799.60
 STEP:  22 TIME =     0.02 SECS, INTEGRAL =      0.41 TIME LEFT: 172799.59
 STEP:  23 TIME =     0.02 SECS, INTEGRAL =      0.42 TIME LEFT: 172799.57
 STEP:  24 TIME =     0.02 SECS, INTEGRAL =      0.44 TIME LEFT: 172799.55
 STEP:  25 TIME =     0.02 SECS, INTEGRAL =      0.46 TIME LEFT: 172799.53
 STEP:  26 TIME =     0.02 SECS, INTEGRAL =      0.48 TIME LEFT: 172799.51
 STEP:  27 TIME =     0.02 SECS, INTEGRAL =      0.50 TIME LEFT: 172799.49
 STEP:  28 TIME =     0.02 SECS, INTEGRAL =      0.52 TIME LEFT: 172799.47
 STEP:  29 TIME =     0.02 SECS, INTEGRAL =      0.54 TIME LEFT: 172799.46
 STEP:  30 TIME =     0.02 SECS, INTEGRAL =      0.55 TIME LEFT: 172799.44
 STEP:  31 TIME =     0.02 SECS, INTEGRAL =      0.57 TIME LEFT: 172799.42
 STEP:  32 TIME =     0.02 SECS, INTEGRAL =      0.59 TIME LEFT: 172799.40
 STEP:  33 TIME =     0.02 SECS, INTEGRAL =      0.61 TIME LEFT: 172799.38
 STEP:  34 TIME =     0.02 SECS, INTEGRAL =      0.63 TIME LEFT: 172799.36
 STEP:  35 TIME =     0.02 SECS, INTEGRAL =      0.65 TIME LEFT: 172799.34
 STEP:  36 TIME =     0.02 SECS, INTEGRAL =      0.67 TIME LEFT: 172799.32
 STEP:  37 TIME =     0.02 SECS, INTEGRAL =      0.68 TIME LEFT: 172799.31
 STEP:  38 TIME =     0.02 SECS, INTEGRAL =      0.70 TIME LEFT: 172799.29
 STEP:  39 TIME =     0.02 SECS, INTEGRAL =      0.72 TIME LEFT: 172799.27
 STEP:  40 TIME =     0.02 SECS, INTEGRAL =      0.74 TIME LEFT: 172799.25
 STEP:  41 TIME =     0.02 SECS, INTEGRAL =      0.76 TIME LEFT: 172799.23
 STEP:  42 TIME =     0.02 SECS, INTEGRAL =      0.78 TIME LEFT: 172799.21
 STEP:  43 TIME =     0.02 SECS, INTEGRAL =      0.80 TIME LEFT: 172799.20
 STEP:  44 TIME =     0.02 SECS, INTEGRAL =      0.82 TIME LEFT: 172799.18
 STEP:  45 TIME =     0.02 SECS, INTEGRAL =      0.84 TIME LEFT: 172799.16
 STEP:  46 TIME =     0.02 SECS, INTEGRAL =      0.86 TIME LEFT: 172799.14
 STEP:  47 TIME =     0.02 SECS, INTEGRAL =      0.88 TIME LEFT: 172799.12
 STEP:  48 TIME =     0.02 SECS, INTEGRAL =      0.89 TIME LEFT: 172799.10
 STEP:  49 TIME =     0.02 SECS, INTEGRAL =      0.91 TIME LEFT: 172799.08
 STEP:  50 TIME =     0.02 SECS, INTEGRAL =      0.93 TIME LEFT: 172799.06
 STEP:  51 TIME =     0.02 SECS, INTEGRAL =      0.95 TIME LEFT: 172799.04
 STEP:  52 TIME =     0.02 SECS, INTEGRAL =      0.97 TIME LEFT: 172799.02
 STEP:  53 TIME =     0.02 SECS, INTEGRAL =      0.98 TIME LEFT: 172799.01
 STEP:  54 TIME =     0.02 SECS, INTEGRAL =      1.00 TIME LEFT: 172798.99
 STEP:  55 TIME =     0.02 SECS, INTEGRAL =      1.02 TIME LEFT: 172798.97
 STEP:  56 TIME =     0.02 SECS, INTEGRAL =      1.04 TIME LEFT: 172798.96
 STEP:  57 TIME =     0.02 SECS, INTEGRAL =      1.06 TIME LEFT: 172798.93
 STEP:  58 TIME =     0.02 SECS, INTEGRAL =      1.08 TIME LEFT: 172798.91
 STEP:  59 TIME =     0.02 SECS, INTEGRAL =      1.10 TIME LEFT: 172798.89
 STEP:  60 TIME =     0.02 SECS, INTEGRAL =      1.12 TIME LEFT: 172798.88

(To convert to Hartree/Bohr^2, multiply by (10^(-21) x N x a0^2)/(4.184 x 627.51) =  0.0642)


           FORCE MATRIX IN MILLIDYNES/ANGSTROM


                  C  1       C  2       C  3       C  4       C  5       C  6
 ------------------------------------------------------------------------------
     C    1  14.603205
     C    2   4.124229  14.724062
     C    3   4.571937   0.682672  18.561873
     C    4   0.633041   0.103970   5.010436  18.904187
     C    5   0.695789   5.027655   0.067659   1.028916  18.107288
     C    6   0.065148   0.854684   0.707428   5.332738  10.453204  18.562209
     C    7   0.048362   0.009941   0.978291  10.145937   0.098834   1.034351
     C    8   0.027608   0.003711   0.310211   0.064892   0.001702   0.004570
     C    9   0.918631   0.042631  10.155741   1.116721   0.009536   0.053990
     C   10   0.094168   0.012180   1.355452   0.203237   0.004076   0.014037
     H   11   4.415160   0.446864   0.410249   0.013582   0.009933   0.004795
     H   12   0.445046   4.415163   0.009491   0.015335   0.407976   0.028909
     H   13   4.498340   0.428247   0.452724   0.043565   0.050479   0.003923
     H   14   0.427295   4.471889   0.048528   0.008105   0.435319   0.046673
     H   15   0.041062   0.426572   0.004549   0.122437   4.840685   0.440099
     H   16   0.005500   0.117985   0.039373   0.441205   0.441760   4.799191
     H   17   0.009342   0.003934   0.118923   0.471063   0.007410   0.088179
     H   18   0.004599   0.005187   0.085193   0.473657   0.010425   0.121374
     H   19   0.043794   0.004539   0.009284   0.045700   0.001280   0.001940
     H   20   0.044415   0.004911   0.010659   0.042639   0.000933   0.001823


                  C  7       C  8       C  9       C 10       H 11       H 12
 ------------------------------------------------------------------------------
     C    7  17.753897
     C    8   0.021509  17.797584
     C    9   0.146181   1.355892  24.720748
     C   10   0.065127  11.063565  11.866313  24.724165
     H   11   0.001905   0.003059   0.030339   0.011159   5.004605
     H   12   0.002435   0.000610   0.002296   0.000900   0.044711   5.012329
     H   13   0.007635   0.001636   0.051280   0.006732   0.559370   0.034268
     H   14   0.001095   0.000577   0.008564   0.001357   0.035041   0.567232
     H   15   0.009507   0.000613   0.003159   0.001222   0.001476   0.015568
     H   16   0.045710   0.000412   0.007747   0.001038   0.000560   0.015739
     H   17   5.091952   0.000468   0.008870   0.003948   0.000979   0.000759
     H   18   5.087549   0.001966   0.017486   0.008583   0.000641   0.000455
     H   19   0.003071   5.046227   0.039811   0.472902   0.005662   0.000302
     H   20   0.003409   5.046856   0.042090   0.472954   0.005953   0.000231


                  H 13       H 14       H 15       H 16       H 17       H 18
 ------------------------------------------------------------------------------
     H   13   5.099167
     H   14   0.025973   5.066895
     H   15   0.006686   0.036399   5.210336
     H   16   0.001037   0.011548   0.066347   5.172168
     H   17   0.001759   0.000340   0.005184   0.028509   5.473084
     H   18   0.000862   0.000304   0.008405   0.002006   0.400331   5.459964
     H   19   0.000909   0.000760   0.000176   0.000798   0.002095   0.001580
     H   20   0.001087   0.000639   0.000196   0.000545   0.001513   0.001669


                  H 19       H 20
 ------------------------------
     H   19   5.413499
     H   20   0.400457   5.413997


          HEAT OF FORMATION =     100.004853 KCALS/MOLE

          ZERO POINT ENERGY     103.222 KCAL/MOL


           NORMAL COORDINATE ANALYSIS (Total motion = 1 Angstrom)


   Root No.       1         2         3         4         5         6         7         8

                 1 A       2 A       3 A       4 A       5 A       6 A       7 A       8 A   

                  60.0      95.8     126.5     194.2     297.4     315.6     355.7     399.5
  
           1   -0.0207    0.0149   -0.0041    0.0089   -0.0055    0.0006   -0.0169    0.0028
           2   -0.0035   -0.0233    0.0128    0.0050   -0.0131   -0.0077   -0.0077   -0.0235
           3    0.0388    0.0160   -0.0220   -0.0499   -0.0145    0.0112   -0.0252   -0.0063
           4   -0.0206    0.0153   -0.0046    0.0090   -0.0050    0.0009   -0.0228    0.0058
           5   -0.0060   -0.0128   -0.0320   -0.0168   -0.0146    0.0063    0.0011    0.0155
           6   -0.0076    0.0280    0.0406    0.0223    0.0026   -0.0090   -0.0176    0.0079
           7   -0.0117    0.0026    0.0166   -0.0084   -0.0029    0.0106    0.0096   -0.0298
           8    0.0002   -0.0293    0.0212   -0.0016   -0.0133   -0.0055    0.0009   -0.0319
           9    0.0214   -0.0075   -0.0275    0.0108    0.0231   -0.0090    0.0289    0.0185
          10   -0.0034   -0.0130    0.0085    0.0027   -0.0192    0.0167    0.0030   -0.0183
          11    0.0004   -0.0100    0.0079    0.0019   -0.0151    0.0013    0.0229   -0.0159
          12    0.0152   -0.0169   -0.0073   -0.0027    0.0331   -0.0229    0.0066   -0.0030
          13    0.0102    0.0079    0.0008    0.0043    0.0022   -0.0050   -0.0337   -0.0056
          14    0.0150    0.0222   -0.0048    0.0039    0.0223   -0.0201   -0.0169    0.0042
          15   -0.0464   -0.0029    0.0089    0.0020   -0.0382    0.0236    0.0091    0.0235
          16    0.0188   -0.0034    0.0135    0.0091   -0.0149    0.0144    0.0099   -0.0019
          17    0.0163    0.0229    0.0132    0.0128   -0.0085    0.0076    0.0225    0.0213
          18   -0.0349   -0.0239   -0.0193   -0.0165    0.0173   -0.0152   -0.0200   -0.0255
          19   -0.0136   -0.0376   -0.0120    0.0053   -0.0113   -0.0346   -0.0241    0.0369
          20   -0.0163   -0.0216   -0.0162    0.0035    0.0088   -0.0274    0.0128    0.0067
          21    0.0514   -0.0212    0.0366   -0.0010   -0.0312   -0.0191   -0.0041    0.0185
          22    0.0298    0.0048   -0.0289    0.0269    0.0066    0.0073    0.0237   -0.0138
          23   -0.0048    0.0649   -0.0217    0.0056   -0.0194   -0.0162   -0.0032   -0.0046
          24   -0.0356    0.0260    0.0164   -0.0347    0.0141   -0.0058    0.0269    0.0007
          25   -0.0014    0.0041    0.0198   -0.0449    0.0231    0.0001    0.0265   -0.0033
          26    0.0022   -0.0324    0.0268   -0.0083    0.0225    0.0205   -0.0032   -0.0127
          27    0.0089   -0.0107   -0.0299    0.0562    0.0041    0.0167    0.0118   -0.0126
          28    0.0130    0.0048    0.0020   -0.0290    0.0288   -0.0022    0.0359    0.0150
          29   -0.0004    0.0092    0.0082   -0.0053    0.0408    0.0576   -0.0341    0.0373
          30   -0.0115    0.0044   -0.0134    0.0362    0.0061    0.0349   -0.0057   -0.0203
          31    0.0046    0.0116   -0.0548   -0.0385   -0.0198    0.0171   -0.0314    0.0046
          32    0.0204   -0.0130    0.0129   -0.0541   -0.0462    0.0126   -0.0577   -0.0691
          33    0.0631    0.0206   -0.0431   -0.1038   -0.0400    0.0299   -0.0609   -0.0326
          34   -0.0512    0.0207    0.0432    0.0600    0.0067   -0.0175   -0.0225    0.0013
          35   -0.0296   -0.0456   -0.0970   -0.0659   -0.0736    0.0624    0.0466    0.0648
          36   -0.0251    0.0221    0.0430    0.0297   -0.0072   -0.0026   -0.0071    0.0174
          37   -0.0488    0.0259    0.0177    0.0503    0.0055   -0.0123   -0.0128    0.0343
          38   -0.0233   -0.0386    0.0295    0.0610    0.0190   -0.0268    0.0443   -0.0035
          39    0.0644    0.0215   -0.0429   -0.1064   -0.0412    0.0303   -0.0631   -0.0340
          40   -0.0150    0.0197   -0.0465   -0.0223   -0.0121    0.0181   -0.0115    0.0320
          41   -0.0012   -0.0030   -0.0330   -0.0164   -0.0045    0.0009   -0.0033    0.0171
          42    0.0047    0.0656    0.1069    0.0782    0.0629   -0.0650   -0.0586   -0.0309
          43    0.0261    0.0143    0.0016    0.0067    0.0314   -0.0264   -0.0513   -0.0155
          44    0.0278    0.0469   -0.0007    0.0128    0.0623   -0.0527   -0.0532    0.0011
          45   -0.0834   -0.0071    0.0097    0.0012   -0.0959    0.0642    0.0384    0.0484
          46    0.0422   -0.0066    0.0272    0.0182   -0.0123    0.0136    0.0391    0.0065
          47    0.0284    0.0472    0.0301    0.0278   -0.0147    0.0170    0.0313    0.0558
          48   -0.0615   -0.0460   -0.0444   -0.0368    0.0215   -0.0246   -0.0475   -0.0641
          49   -0.0068   -0.0514   -0.0221    0.0142   -0.0170   -0.0732   -0.0342    0.1151
          50   -0.0176   -0.0067   -0.0293    0.0090    0.0332   -0.0052    0.0437   -0.0030
          51    0.0480   -0.0284    0.0585   -0.0134   -0.0552   -0.0180   -0.0325   -0.0238
          52   -0.0296   -0.0457   -0.0204   -0.0009    0.0020   -0.0494   -0.0416    0.0234
          53   -0.0298   -0.0469   -0.0247   -0.0007    0.0072   -0.0793   -0.0297    0.0446
          54    0.0867   -0.0177    0.0540    0.0133   -0.0712   -0.0190    0.0120    0.0892
          55    0.0351    0.0393   -0.0539    0.0356   -0.0510   -0.0382    0.0485   -0.0598
          56   -0.0028    0.0810   -0.0328    0.0089   -0.0459   -0.0387    0.0088   -0.0257
          57   -0.0579    0.0615    0.0229   -0.0646   -0.0026   -0.0905    0.0726   -0.0093
          58    0.0391   -0.0303   -0.0307    0.0681    0.0446    0.0620   -0.0119    0.0040
          59   -0.0113    0.1006   -0.0377    0.0098   -0.0612   -0.0852    0.0278   -0.0387
          60   -0.0351    0.0111    0.0355   -0.0683    0.0334    0.0314    0.0184    0.0251


   Root No.       9        10        11        12        13        14        15        16

                 9 A      10 A      11 A      12 A      13 A      14 A      15 A      16 A   

                 445.7     502.6     525.3     581.5     610.4     628.2     691.9     723.6
  
           1   -0.0222    0.0237    0.0230    0.0134    0.0035   -0.0047   -0.0052    0.0107
           2    0.0082    0.0220    0.0163   -0.0035   -0.0314    0.0037   -0.0125   -0.0263
           3   -0.0030    0.0119    0.0040    0.0024    0.0026    0.0001    0.0198   -0.0019
           4   -0.0174    0.0258    0.0284    0.0172    0.0125   -0.0035    0.0066    0.0137
           5    0.0317   -0.0196   -0.0161   -0.0087   -0.0030    0.0047    0.0022   -0.0148
           6    0.0194   -0.0073   -0.0086   -0.0019   -0.0008   -0.0015    0.0141   -0.0251
           7   -0.0262   -0.0156   -0.0184   -0.0024    0.0047   -0.0060   -0.0304   -0.0116
           8   -0.0004    0.0092    0.0052   -0.0028   -0.0220   -0.0006   -0.0109   -0.0137
           9    0.0170    0.0176    0.0230    0.0000   -0.0156    0.0086    0.0392    0.0240
          10    0.0284   -0.0123   -0.0059   -0.0385   -0.0044    0.0146    0.0092    0.0252
          11   -0.0373    0.0040    0.0131   -0.0299   -0.0113    0.0109    0.0312    0.0091
          12    0.0216    0.0189    0.0028    0.0545   -0.0425   -0.0164   -0.0386    0.0115
          13    0.0386    0.0084    0.0096   -0.0029   -0.0164    0.0059    0.0366   -0.0347
          14    0.0052   -0.0260   -0.0163   -0.0146    0.0187    0.0079   -0.0045    0.0115
          15    0.0152    0.0056   -0.0014    0.0133   -0.0029   -0.0090   -0.0042   -0.0109
          16    0.0456    0.0026   -0.0054   -0.0028   -0.0302    0.0004   -0.0064    0.0287
          17    0.0074   -0.0156   -0.0189    0.0009    0.0065   -0.0053   -0.0247    0.0381
          18    0.0172   -0.0228   -0.0118   -0.0250   -0.0057    0.0162   -0.0174    0.0242
          19    0.0000   -0.0153   -0.0170   -0.0010    0.0116   -0.0004   -0.0116    0.0068
          20   -0.0403    0.0119    0.0100    0.0093   -0.0176   -0.0032    0.0120    0.0008
          21   -0.0288   -0.0073    0.0012   -0.0051   -0.0022    0.0013    0.0033    0.0043
          22   -0.0215   -0.0116   -0.0120    0.0027    0.0068    0.0001   -0.0014   -0.0218
          23    0.0055    0.0009    0.0009    0.0042   -0.0087    0.0020    0.0005    0.0063
          24   -0.0088   -0.0039    0.0006   -0.0148    0.0055   -0.0027   -0.0038   -0.0169
          25   -0.0156   -0.0126   -0.0190    0.0480   -0.0061    0.0135    0.0229    0.0044
          26    0.0294    0.0099    0.0051    0.0590    0.1022   -0.0071    0.0213    0.0070
          27    0.0043    0.0082    0.0183   -0.0479    0.0558   -0.0223   -0.0243   -0.0148
          28   -0.0028    0.0047    0.0171   -0.0557    0.0152   -0.0120   -0.0155   -0.0202
          29   -0.0160    0.0038    0.0064   -0.0335   -0.0300   -0.0006   -0.0073    0.0019
          30   -0.0375   -0.0218   -0.0336    0.0515   -0.0180    0.0133    0.0138   -0.0057
          31   -0.0402    0.0478    0.0429    0.0286    0.0289   -0.0072   -0.0332    0.0689
          32   -0.0277    0.0410   -0.0019    0.0049    0.0008   -0.0077   -0.1222   -0.0430
          33   -0.0320    0.0341    0.0020    0.0135    0.0325   -0.0076   -0.0579    0.0140
          34   -0.0282    0.0389    0.0467    0.0177    0.0097    0.0013   -0.0335    0.0430
          35    0.0591   -0.0249   -0.0391    0.0395   -0.0187   -0.0432    0.0327   -0.0957
          36    0.0211   -0.0031   -0.0065    0.0093   -0.0048   -0.0103    0.0052   -0.0317
          37    0.0114    0.0006    0.0159    0.0101   -0.0068   -0.0015    0.0491   -0.0201
          38    0.0303    0.0075    0.0279   -0.0143   -0.0683    0.0124    0.0667   -0.0321
          39   -0.0332    0.0329   -0.0002    0.0124    0.0342   -0.0076   -0.0596    0.0163
          40   -0.0188    0.0019    0.0053    0.0281    0.0390   -0.0176    0.0277    0.0189
          41    0.0248   -0.0296   -0.0219   -0.0140    0.0125    0.0083    0.0022    0.0030
          42   -0.0117   -0.0111    0.0071   -0.0467    0.0269    0.0421   -0.0246    0.0602
          43    0.0514   -0.0023   -0.0006    0.0052   -0.0289   -0.0113    0.0306   -0.0785
          44   -0.0068   -0.0271   -0.0143    0.0121    0.0289   -0.0224   -0.0003   -0.0653
          45   -0.0278    0.0354    0.0287    0.0054    0.0362    0.0225    0.0150    0.0707
          46    0.0453    0.0205   -0.0072    0.0490   -0.0732   -0.0506   -0.0512    0.0315
          47    0.0364   -0.0064   -0.0330    0.0661   -0.0110   -0.0715   -0.0691   -0.0076
          48   -0.0122   -0.0428    0.0036   -0.1215    0.0387    0.1133    0.0544    0.0680
          49   -0.0347   -0.0111   -0.0210    0.0491    0.0684    0.0939   -0.0701   -0.0557
          50    0.0103    0.0507    0.0311    0.0521   -0.0444    0.1169   -0.0462   -0.0018
          51   -0.0634   -0.0550   -0.0203   -0.0883   -0.0108   -0.2008    0.1101    0.0505
          52   -0.0062   -0.0289   -0.0300    0.0013   -0.0076   -0.1157    0.0057    0.0251
          53   -0.0964   -0.0204   -0.0169    0.0202    0.0062   -0.1406    0.0317   -0.0142
          54   -0.0566    0.0043    0.0157   -0.0031    0.0739    0.2231   -0.0329   -0.0602
          55    0.0025   -0.1286    0.1174    0.1082    0.0353   -0.0022   -0.0056   -0.0279
          56    0.0175   -0.0483    0.0563    0.0504    0.0064    0.0007   -0.0009    0.0045
          57    0.0244    0.1472   -0.1424   -0.1021    0.0843   -0.0136    0.0097   -0.0222
          58   -0.0653    0.0884   -0.1741   -0.0358   -0.0311    0.0180    0.0234   -0.0199
          59    0.0321    0.0522   -0.0563    0.0162    0.0462    0.0011    0.0187    0.0165
          60   -0.0073   -0.1311    0.1776   -0.0007   -0.0266   -0.0146   -0.0413   -0.0309


   Root No.      17        18        19        20        21        22        23        24

                17 A      18 A      19 A      20 A      21 A      22 A      23 A      24 A   

                 752.0     827.1     885.3     934.6     946.2     949.0     979.5     993.6
  
           1   -0.0034   -0.0134    0.0198   -0.0024    0.0058   -0.0003    0.0004   -0.0233
           2    0.0427   -0.0236    0.0341   -0.0024    0.0013    0.0087    0.0001    0.0007
           3   -0.0056    0.0019    0.0465   -0.0038    0.0170   -0.0269    0.0001   -0.0194
           4   -0.0068   -0.0047    0.0090    0.0022   -0.0021    0.0024   -0.0004    0.0200
           5    0.0258    0.0055   -0.0312   -0.0031    0.0035   -0.0305    0.0007   -0.0365
           6   -0.0123    0.0101    0.0080    0.0014   -0.0118    0.0155   -0.0001   -0.0035
           7   -0.0262    0.0255    0.0094   -0.0014    0.0099   -0.0150   -0.0012   -0.0101
           8   -0.0020    0.0032    0.0204    0.0009    0.0001   -0.0035   -0.0006    0.0060
           9    0.0191   -0.0296   -0.0008    0.0015   -0.0026    0.0138    0.0015    0.0093
          10   -0.0085   -0.0232    0.0048    0.0006   -0.0085   -0.0019    0.0002    0.0014
          11   -0.0260   -0.0067   -0.0233   -0.0002    0.0028   -0.0016    0.0002   -0.0015
          12   -0.0103    0.0375    0.0027   -0.0002   -0.0036    0.0014   -0.0004   -0.0013
          13    0.0030    0.0392   -0.0402    0.0008    0.0089   -0.0036   -0.0013    0.0293
          14    0.0055    0.0116    0.0113    0.0010   -0.0055   -0.0011   -0.0014    0.0261
          15   -0.0002   -0.0159   -0.0260    0.0010   -0.0003    0.0060    0.0014   -0.0073
          16   -0.0065    0.0169   -0.0101   -0.0010    0.0223    0.0241    0.0010   -0.0095
          17    0.0028    0.0068    0.0170    0.0011    0.0019    0.0292    0.0011   -0.0022
          18   -0.0219   -0.0325   -0.0054   -0.0024    0.0296   -0.0109   -0.0018    0.0277
          19    0.0085   -0.0114    0.0150    0.0010   -0.0432   -0.0139   -0.0006    0.0066
          20   -0.0257    0.0163   -0.0311   -0.0002   -0.0034   -0.0052   -0.0007    0.0053
          21   -0.0100    0.0085   -0.0075    0.0004   -0.0266   -0.0069    0.0008   -0.0149
          22    0.0201   -0.0035   -0.0019   -0.0007   -0.0046    0.0022    0.0616    0.0046
          23   -0.0050    0.0007    0.0015    0.0786    0.0030   -0.0027    0.0287   -0.0012
          24    0.0149   -0.0028   -0.0013    0.0321   -0.0030    0.0022   -0.0716    0.0013
          25    0.0128   -0.0091   -0.0019    0.0002   -0.0000    0.0020    0.0035   -0.0002
          26   -0.0038   -0.0021   -0.0037    0.0158    0.0018   -0.0013    0.0020   -0.0041
          27   -0.0108    0.0115    0.0012    0.0056    0.0031   -0.0050   -0.0038   -0.0046
          28    0.0090    0.0009   -0.0005    0.0002   -0.0017    0.0008   -0.0221    0.0007
          29   -0.0046    0.0016    0.0006   -0.0714   -0.0012    0.0012   -0.0114    0.0007
          30    0.0152   -0.0052   -0.0013   -0.0274   -0.0024    0.0021    0.0252    0.0023
          31    0.0286   -0.0667   -0.0797    0.0024    0.0011    0.0133    0.0065   -0.0552
          32    0.0655   -0.0160   -0.0583    0.0078   -0.0556    0.0954   -0.0036    0.0682
          33    0.0229   -0.0173   -0.0534    0.0043   -0.0185    0.0301    0.0006    0.0054
          34    0.0511   -0.0643   -0.0749    0.0025   -0.0183    0.0250    0.0057   -0.0563
          35   -0.0869   -0.0003    0.0482    0.0077   -0.0522    0.0899    0.0007    0.0013
          36   -0.0146   -0.0143   -0.0085    0.0041   -0.0316    0.0520    0.0024   -0.0246
          37   -0.0308    0.0208    0.0807   -0.0100    0.0185   -0.0469   -0.0008   -0.1011
          38    0.0269   -0.0300    0.1581   -0.0105    0.0464   -0.0408    0.0010    0.0038
          39    0.0182   -0.0103   -0.0654    0.0054   -0.0203    0.0287    0.0001    0.0125
          40   -0.0897    0.0227    0.0718    0.0081   -0.0216    0.0008   -0.0038    0.0579
          41    0.0162    0.0158   -0.0272   -0.0026    0.0015   -0.0557   -0.0003   -0.0381
          42    0.0896    0.0067   -0.0865   -0.0071    0.0182   -0.1010    0.0012   -0.0815
          43   -0.0507   -0.0605   -0.0638    0.0025    0.0011    0.0345    0.0039   -0.0292
          44   -0.0646   -0.1271    0.0148    0.0109   -0.0768    0.0447    0.0038    0.0148
          45    0.1082    0.1860    0.0366    0.0018   -0.0139   -0.0740   -0.0100    0.1485
          46   -0.0518   -0.0633   -0.0279   -0.0102    0.0869   -0.0565   -0.0040   -0.0024
          47   -0.0118   -0.0970   -0.0165   -0.0038    0.0228   -0.0864   -0.0067    0.1018
          48    0.0205    0.1202    0.0386    0.0083   -0.0306    0.1550    0.0090   -0.0768
          49    0.0237    0.0059    0.0392   -0.0028    0.1455    0.0504    0.0021   -0.0215
          50   -0.0688    0.0422   -0.0323    0.0015   -0.1396   -0.0495    0.0009   -0.0382
          51    0.0274   -0.0317   -0.0255    0.0010   -0.0001   -0.0005   -0.0030    0.0544
          52    0.0330    0.0173    0.0229    0.0014   -0.0359    0.0032    0.0021   -0.0311
          53    0.0240    0.0550   -0.0322   -0.0038    0.2018    0.0783    0.0029   -0.0279
          54   -0.0383   -0.0451   -0.0258   -0.0036    0.1172    0.0113   -0.0040    0.0672
          55    0.0307   -0.0049   -0.0080   -0.2577   -0.0160    0.0161   -0.2572    0.0069
          56   -0.0015    0.0003   -0.0011   -0.0478   -0.0019    0.0034   -0.1076   -0.0004
          57    0.0102   -0.0020   -0.0033   -0.2493   -0.0097    0.0024    0.2838    0.0111
          58    0.0308   -0.0134   -0.0004    0.2715   -0.0022    0.0005   -0.2415    0.0005
          59   -0.0135    0.0002   -0.0009   -0.1985    0.0011    0.0012   -0.1143   -0.0051
          60    0.0182    0.0043   -0.0000    0.1388   -0.0034   -0.0002    0.2995    0.0092


   Root No.      25        26        27        28        29        30        31        32

                25 A      26 A      27 A      28 A      29 A      30 A      31 A      32 A   

                1014.3    1031.9    1067.3    1081.7    1109.8    1133.9    1165.0    1202.0
  
           1    0.0240   -0.0121   -0.0013   -0.0284   -0.0314    0.0138   -0.0012    0.0131
           2    0.0061   -0.0046   -0.0029   -0.0071   -0.0139   -0.0027    0.0010    0.0080
           3   -0.0063    0.0130    0.0052   -0.0071    0.0316   -0.0104   -0.0018    0.0023
           4   -0.0155    0.0047   -0.0140    0.0181    0.0314   -0.0148   -0.0072    0.0106
           5    0.0100    0.0032   -0.0048    0.0149    0.0065    0.0104    0.0000    0.0073
           6    0.0245   -0.0185    0.0175    0.0146   -0.0345   -0.0008    0.0006    0.0063
           7   -0.0077    0.0185    0.0157    0.0049   -0.0053    0.0371   -0.0128    0.0047
           8   -0.0103    0.0085    0.0020    0.0228   -0.0059   -0.0084    0.0056   -0.0485
           9    0.0004   -0.0090   -0.0047    0.0102   -0.0068    0.0366   -0.0128   -0.0110
          10   -0.0060   -0.0114    0.0004    0.0126    0.0005    0.0178    0.0055   -0.0222
          11   -0.0040   -0.0146   -0.0001    0.0017    0.0012    0.0055    0.0033   -0.0024
          12    0.0124    0.0219   -0.0021    0.0088    0.0017    0.0068    0.0057   -0.0156
          13   -0.0139    0.0021    0.0094   -0.0184   -0.0028   -0.0011   -0.0019    0.0016
          14    0.0000   -0.0089    0.0185   -0.0059    0.0004    0.0016    0.0026    0.0091
          15   -0.0290    0.0277   -0.0275   -0.0150   -0.0023    0.0001    0.0017    0.0085
          16    0.0021    0.0044   -0.0111   -0.0054    0.0056   -0.0177    0.0030   -0.0020
          17   -0.0076    0.0133   -0.0068   -0.0201    0.0050   -0.0111   -0.0019    0.0078
          18    0.0012   -0.0213    0.0071   -0.0168    0.0052   -0.0151   -0.0006    0.0044
          19    0.0148    0.0179    0.0012   -0.0062   -0.0011   -0.0037   -0.0024    0.0062
          20    0.0205    0.0156   -0.0022   -0.0113    0.0031   -0.0092   -0.0011    0.0092
          21   -0.0296   -0.0309    0.0017   -0.0103    0.0009   -0.0052   -0.0023    0.0092
          22    0.0018   -0.0046   -0.0052   -0.0023    0.0035   -0.0266    0.0080   -0.0024
          23    0.0000    0.0011    0.0015    0.0005   -0.0010    0.0077   -0.0024    0.0006
          24    0.0007   -0.0031   -0.0037   -0.0018    0.0026   -0.0199    0.0060   -0.0018
          25    0.0003   -0.0004    0.0020    0.0012   -0.0034    0.0256   -0.0098    0.0047
          26    0.0039   -0.0034   -0.0012   -0.0076    0.0009   -0.0082    0.0023    0.0055
          27   -0.0003    0.0040    0.0040   -0.0011   -0.0011    0.0173   -0.0069    0.0055
          28    0.0001   -0.0008   -0.0009   -0.0004    0.0004   -0.0004   -0.0013    0.0015
          29   -0.0010    0.0009    0.0003    0.0015   -0.0003    0.0003    0.0005   -0.0019
          30    0.0003   -0.0014   -0.0011    0.0002    0.0001   -0.0000   -0.0010    0.0006
          31   -0.0217    0.0397    0.1610    0.0025   -0.2485   -0.0559    0.0822   -0.0671
          32    0.0713   -0.0852   -0.1153   -0.0009    0.0545    0.0785   -0.0649    0.0727
          33    0.0120   -0.0113    0.0121    0.0091   -0.0217    0.0076   -0.0032    0.0043
          34    0.0003    0.0214    0.1664    0.0913    0.2521   -0.0353   -0.0572   -0.0460
          35    0.0673   -0.0501    0.1121    0.0753    0.0219   -0.0006   -0.0285   -0.0096
          36    0.0434   -0.0238    0.1172    0.0601    0.0545   -0.0109   -0.0257   -0.0189
          37    0.1294   -0.0841   -0.0917   -0.1076    0.0912    0.0210    0.0674   -0.1599
          38   -0.0795    0.0742    0.0583    0.0160   -0.0302   -0.0312   -0.0551    0.1518
          39    0.0062   -0.0094    0.0043    0.0150   -0.0115    0.0053    0.0040   -0.0178
          40   -0.0054   -0.0248   -0.1394    0.1959   -0.1080   -0.0921   -0.0866   -0.0416
          41    0.0099   -0.0009   -0.0708    0.1053   -0.0451   -0.0174   -0.0378   -0.0145
          42    0.0060    0.0144   -0.0721    0.1156   -0.0362   -0.0082   -0.0396   -0.0143
          43   -0.0415    0.0412   -0.0337   -0.0242    0.0005   -0.0067   -0.0092    0.0060
          44   -0.0981    0.0767   -0.0621    0.0572    0.0524    0.1124    0.2078   -0.0289
          45   -0.0064   -0.0343    0.0458    0.0383    0.0176    0.0701    0.1302   -0.0206
          46    0.0684   -0.0777    0.0015    0.1045    0.0312   -0.0271    0.1473    0.1965
          47   -0.0424   -0.0173    0.0195   -0.0955   -0.0120   -0.0021   -0.1029   -0.1295
          48   -0.0081    0.0612   -0.0274   -0.0142    0.0070   -0.0188    0.0096    0.0144
          49   -0.0703   -0.0581    0.0059    0.0461   -0.0060    0.0417    0.0119   -0.0355
          50   -0.0627   -0.0651    0.0046   -0.0503    0.0061   -0.0409   -0.0116    0.0387
          51    0.1238    0.1136   -0.0097   -0.0048    0.0014   -0.0020   -0.0017    0.0044
          52   -0.0637   -0.0563    0.0024   -0.0045   -0.0017    0.0023   -0.0030    0.0042
          53   -0.0722   -0.0713   -0.0066    0.0140    0.0054    0.0115   -0.0022   -0.0295
          54    0.1213    0.1136   -0.0044    0.0083    0.0036   -0.0015   -0.0003   -0.0182
          55    0.0035   -0.0099   -0.0155   -0.0067    0.0097   -0.1034    0.0423   -0.0225
          56    0.0006   -0.0007   -0.0023   -0.0011    0.0012   -0.0215    0.0109   -0.0074
          57    0.0002   -0.0085   -0.0103   -0.0043    0.0117   -0.0957    0.0404   -0.0231
          58   -0.0000   -0.0095   -0.0114   -0.0065    0.0122   -0.1025    0.0421   -0.0233
          59   -0.0047    0.0069    0.0103    0.0056   -0.0079    0.0806   -0.0350    0.0202
          60    0.0075   -0.0070   -0.0105   -0.0051    0.0053   -0.0573    0.0224   -0.0110


   Root No.      33        34        35        36        37        38        39        40

                33 A      34 A      35 A      36 A      37 A      38 A      39 A      40 A   

                1274.2    1293.0    1341.4    1366.5    1397.7    1403.7    1412.9    1514.8
  
           1    0.0159   -0.0263   -0.0036    0.0227    0.0287    0.0043    0.0689    0.0007
           2    0.0054    0.0227   -0.0003   -0.0017    0.0321   -0.0298   -0.0619    0.0312
           3    0.0050    0.0025   -0.0046    0.0004    0.0003   -0.0014    0.0053    0.0077
           4   -0.0222   -0.0019    0.0305    0.0226   -0.0332    0.0196   -0.0607   -0.0171
           5   -0.0019   -0.0102    0.0158   -0.0010    0.0113    0.0396   -0.0136   -0.0254
           6   -0.0055   -0.0040    0.0180   -0.0019    0.0112    0.0378   -0.0240   -0.0218
           7   -0.0002   -0.0141    0.0027   -0.0181    0.0030   -0.0199   -0.0280   -0.0283
           8   -0.0292   -0.0045    0.0164    0.0098   -0.0159    0.0022    0.0646   -0.0770
           9   -0.0090   -0.0166    0.0086   -0.0100   -0.0012   -0.0161    0.0051   -0.0489
          10    0.0065   -0.0127    0.0211   -0.0024   -0.0064    0.0157    0.0006    0.1150
          11   -0.0064   -0.0098   -0.0164    0.0035    0.0008    0.0092   -0.0071    0.0386
          12   -0.0010   -0.0112    0.0017    0.0018   -0.0034    0.0143   -0.0024    0.0807
          13   -0.0048    0.0029   -0.0145   -0.0086    0.0009   -0.0220    0.0214    0.0086
          14   -0.0171   -0.0028    0.0072   -0.0098   -0.0060   -0.0153    0.0197    0.0388
          15   -0.0159   -0.0004   -0.0009   -0.0103   -0.0052   -0.0213    0.0220    0.0307
          16    0.0252    0.0118   -0.0155    0.0132    0.0094    0.0154   -0.0174   -0.0634
          17   -0.0088    0.0046   -0.0032   -0.0025   -0.0034   -0.0139    0.0066   -0.0037
          18    0.0076    0.0089   -0.0110    0.0048    0.0031   -0.0016   -0.0048   -0.0345
          19   -0.0031    0.0036    0.0084   -0.0034   -0.0017   -0.0083    0.0078   -0.0161
          20    0.0052    0.0018   -0.0218    0.0051    0.0058    0.0074   -0.0179    0.0011
          21    0.0019    0.0027   -0.0078    0.0009    0.0025   -0.0004   -0.0066   -0.0080
          22   -0.0031    0.0232   -0.0033    0.0172   -0.0039    0.0187    0.0242    0.0248
          23    0.0008   -0.0067    0.0010   -0.0049    0.0011   -0.0054   -0.0067   -0.0074
          24   -0.0023    0.0173   -0.0024    0.0128   -0.0029    0.0139    0.0181    0.0184
          25   -0.0015    0.0016    0.0012   -0.0089    0.0027   -0.0122   -0.0162   -0.0218
          26    0.0038    0.0001   -0.0031    0.0029    0.0017    0.0031    0.0025    0.0080
          27   -0.0003    0.0019   -0.0002   -0.0068    0.0024   -0.0092   -0.0138   -0.0157
          28   -0.0029    0.0149   -0.0010    0.0036   -0.0004    0.0016    0.0016   -0.0051
          29    0.0001   -0.0044    0.0007   -0.0010   -0.0002   -0.0005    0.0004    0.0006
          30   -0.0024    0.0110   -0.0006    0.0027   -0.0004    0.0011    0.0014   -0.0043
          31   -0.0037    0.0647   -0.0303   -0.0769   -0.1057    0.0112   -0.0676   -0.0074
          32    0.0483   -0.0361   -0.0485   -0.0759   -0.1191    0.0651    0.0618   -0.0242
          33    0.0186    0.0059   -0.0373   -0.0731   -0.1227    0.0479    0.0147   -0.0236
          34    0.0166    0.0298   -0.0455   -0.0877    0.0988    0.0042    0.0766    0.0131
          35    0.0635   -0.0153   -0.0345    0.1255   -0.1276   -0.1282   -0.0166    0.0284
          36    0.0287    0.0049   -0.0249   -0.0009    0.0132   -0.0205    0.0249    0.0057
          37   -0.0236    0.0778   -0.0464   -0.0994   -0.1060   -0.0396   -0.0495   -0.0085
          38    0.0839   -0.0279   -0.0593   -0.0556   -0.1123    0.0862    0.0620    0.0229
          39   -0.0269   -0.0079    0.0476    0.0779    0.1364   -0.0519   -0.0231    0.0129
          40    0.0242    0.0682   -0.0593   -0.1089    0.1139   -0.0171    0.0346    0.0331
          41    0.0363    0.0112   -0.0322   -0.0096    0.0210   -0.0217    0.0209    0.0057
          42    0.0709   -0.0124   -0.0458    0.1208   -0.1289   -0.1325   -0.0066    0.0260
          43   -0.0133    0.0025   -0.0120   -0.0095   -0.0028   -0.0258    0.0210    0.0124
          44    0.1143    0.0204   -0.0436    0.0180    0.0336    0.0293   -0.0049   -0.0734
          45    0.0761    0.0157   -0.0394    0.0061    0.0248    0.0060    0.0120   -0.0447
          46   -0.0777    0.0267    0.0157   -0.0336   -0.0108   -0.0716    0.0607   -0.0262
          47    0.0626   -0.0058   -0.0279    0.0306    0.0104    0.0457   -0.0491   -0.0302
          48    0.0025    0.0108   -0.0100    0.0025    0.0024   -0.0068    0.0012   -0.0351
          49   -0.0905   -0.0657   -0.1667    0.0365    0.0154    0.0454   -0.0502    0.0544
          50    0.0724    0.0539    0.1103   -0.0243   -0.0071   -0.0313    0.0251   -0.0470
          51   -0.0044   -0.0039   -0.0230    0.0040    0.0043    0.0050   -0.0140    0.0020
          52   -0.0002    0.0033    0.0157   -0.0052   -0.0028   -0.0094    0.0097   -0.0110
          53    0.1057    0.0417    0.1844   -0.0342   -0.0208   -0.0188    0.0444    0.0531
          54    0.0583    0.0260    0.1117   -0.0208   -0.0136   -0.0140    0.0320    0.0256
          55    0.0260   -0.1255    0.0084   -0.0336    0.0061   -0.0256   -0.0305   -0.0137
          56    0.0129   -0.0696    0.0061   -0.0276    0.0056   -0.0258   -0.0321   -0.0270
          57    0.0256   -0.1286    0.0098   -0.0386    0.0059   -0.0305   -0.0385   -0.0204
          58    0.0245   -0.1203    0.0089   -0.0328    0.0045   -0.0243   -0.0299   -0.0130
          59   -0.0276    0.1403   -0.0111    0.0467   -0.0087    0.0401    0.0494    0.0346
          60    0.0119   -0.0545    0.0030   -0.0108    0.0021   -0.0067   -0.0063    0.0007


   Root No.      41        42        43        44        45        46        47        48

                41 A      42 A      43 A      44 A      45 A      46 A      47 A      48 A   

                1834.7    1878.6    1903.9    2367.3    2943.7    2955.0    3026.6    3033.6
  
           1   -0.0027   -0.0013   -0.0122   -0.0001   -0.0020    0.0020    0.0091   -0.0142
           2   -0.0010    0.0017    0.0139    0.0003   -0.0018    0.0015    0.0126   -0.0212
           3   -0.0025    0.0008   -0.0042   -0.0008    0.0266   -0.0343    0.0023   -0.0059
           4    0.0028   -0.0035   -0.0012   -0.0012    0.0018    0.0009    0.0149    0.0080
           5    0.0123   -0.0196    0.0003    0.0009    0.0232    0.0187   -0.0171   -0.0107
           6    0.0095   -0.0146   -0.0010   -0.0000   -0.0253   -0.0193   -0.0131   -0.0068
           7    0.0016   -0.0105    0.1401    0.0814    0.0005   -0.0002   -0.0003    0.0000
           8   -0.0245   -0.0088   -0.0366   -0.0253   -0.0003    0.0002    0.0003   -0.0003
           9   -0.0098   -0.0140    0.1023    0.0583    0.0002   -0.0002   -0.0000   -0.0000
          10   -0.0750   -0.0680   -0.0209   -0.0013    0.0000   -0.0000    0.0001   -0.0000
          11    0.1609    0.0919   -0.0071    0.0056   -0.0002    0.0001   -0.0002    0.0002
          12    0.0526    0.0182   -0.0162    0.0028    0.0000    0.0000   -0.0000    0.0001
          13    0.0409   -0.0628   -0.0077    0.0001    0.0006    0.0006   -0.0036   -0.0036
          14   -0.0860    0.1425    0.0154   -0.0002   -0.0004   -0.0002    0.0005    0.0008
          15   -0.0384    0.0656    0.0066   -0.0001    0.0000    0.0000   -0.0014   -0.0013
          16   -0.0406    0.1194    0.0134   -0.0014   -0.0001   -0.0000    0.0001    0.0005
          17    0.0635   -0.1381   -0.0168   -0.0004    0.0001    0.0001    0.0002    0.0006
          18    0.0241   -0.0323   -0.0044   -0.0012   -0.0001   -0.0001    0.0002    0.0007
          19    0.0714    0.0308    0.0028    0.0024   -0.0000    0.0000   -0.0000    0.0000
          20   -0.1324   -0.0616   -0.0010   -0.0040    0.0000   -0.0000    0.0000   -0.0000
          21   -0.0395   -0.0198    0.0015   -0.0007    0.0000   -0.0000   -0.0000   -0.0000
          22    0.0071   -0.0093    0.1086   -0.0747   -0.0000    0.0000   -0.0000    0.0000
          23   -0.0021    0.0026   -0.0312    0.0215    0.0000   -0.0000    0.0000   -0.0000
          24    0.0053   -0.0070    0.0810   -0.0557   -0.0000    0.0000   -0.0000    0.0000
          25   -0.0050    0.0107   -0.1087   -0.2246   -0.0005    0.0005    0.0001   -0.0001
          26    0.0035   -0.0014    0.0318    0.0650    0.0002   -0.0003    0.0001   -0.0001
          27   -0.0019    0.0092   -0.0802   -0.1669   -0.0003    0.0002    0.0001   -0.0000
          28   -0.0078    0.0089   -0.1178    0.2255    0.0002   -0.0002   -0.0001    0.0001
          29    0.0019   -0.0028    0.0339   -0.0649   -0.0001    0.0001    0.0000   -0.0000
          30   -0.0060    0.0066   -0.0877    0.1682    0.0002   -0.0001   -0.0000    0.0001
          31    0.0002    0.0006    0.0032   -0.0024    0.0813   -0.1060   -0.0461    0.0721
          32    0.0012   -0.0025    0.0102   -0.0001    0.1133   -0.1392   -0.0620    0.0952
          33    0.0002   -0.0012    0.0054    0.0100   -0.1977    0.2421    0.1275   -0.2002
          34    0.0032   -0.0043    0.0000    0.0006   -0.1017   -0.0799   -0.0840   -0.0461
          35   -0.0012    0.0007   -0.0007    0.0000   -0.0642   -0.0469   -0.0763   -0.0426
          36    0.0043   -0.0049   -0.0008   -0.0005    0.2664    0.1967    0.2383    0.1295
          37   -0.0079    0.0081    0.0260    0.0089   -0.0569    0.0791   -0.0570    0.1060
          38   -0.0003   -0.0013   -0.0260   -0.0052   -0.0874    0.1202   -0.0917    0.1607
          39   -0.0032   -0.0032    0.0084    0.0042   -0.1229    0.1687   -0.1539    0.2692
          40    0.0082   -0.0110   -0.0020   -0.0018    0.0797    0.0673   -0.0933   -0.0598
          41    0.0133   -0.0213    0.0015    0.0027   -0.2123   -0.1765    0.2812    0.1693
          42    0.0117   -0.0196   -0.0036   -0.0005    0.0424    0.0351   -0.0798   -0.0481
          43    0.0530   -0.0799   -0.0103   -0.0000   -0.0074   -0.0046    0.0395    0.0431
          44    0.0110   -0.0126   -0.0003   -0.0003    0.0028    0.0022   -0.0089   -0.0089
          45    0.0335   -0.0515   -0.0053    0.0002   -0.0029   -0.0017    0.0129    0.0150
          46    0.0113   -0.0827   -0.0079   -0.0028    0.0001    0.0004   -0.0008   -0.0048
          47    0.0481   -0.0226   -0.0075   -0.0015   -0.0000    0.0005   -0.0005   -0.0068
          48    0.0355   -0.0593   -0.0088   -0.0022   -0.0006    0.0001   -0.0009   -0.0072
          49   -0.0828   -0.0411   -0.0100   -0.0031    0.0001   -0.0001    0.0002   -0.0000
          50   -0.0428   -0.0233    0.0064   -0.0015    0.0002   -0.0001    0.0002   -0.0001
          51   -0.0659   -0.0336    0.0017   -0.0017    0.0001   -0.0000    0.0002   -0.0000
          52    0.1015    0.0429    0.0040    0.0058   -0.0002    0.0002   -0.0004    0.0004
          53    0.0175    0.0040   -0.0003    0.0006    0.0001   -0.0000    0.0001   -0.0001
          54    0.0608    0.0231   -0.0007    0.0026   -0.0001    0.0000   -0.0001    0.0001
          55    0.0017   -0.0007    0.0192   -0.0382   -0.0002    0.0001    0.0002   -0.0003
          56   -0.0059    0.0088   -0.0991    0.0754    0.0001   -0.0000   -0.0003    0.0005
          57   -0.0023    0.0013   -0.0195   -0.0054    0.0001   -0.0001   -0.0001    0.0001
          58    0.0003   -0.0022    0.0214   -0.0400   -0.0000   -0.0001    0.0001   -0.0002
          59    0.0053   -0.0079    0.0874   -0.0531   -0.0001    0.0000    0.0002   -0.0004
          60    0.0037   -0.0035    0.0500   -0.0530   -0.0002    0.0001    0.0002   -0.0004


   Root No.      49        50        51        52        53        54

                49 A      50 A      51 A      52 A      53 A      54 A   

                3041.6    3065.0    3119.8    3130.3    3133.3    3140.3
  
           1   -0.0009    0.0008    0.0000   -0.0000    0.0000    0.0000
           2   -0.0012    0.0010    0.0001    0.0000    0.0001   -0.0000
           3   -0.0004    0.0006   -0.0000    0.0000    0.0001    0.0000
           4    0.0016   -0.0025    0.0000    0.0000    0.0000   -0.0000
           5   -0.0021    0.0038    0.0000    0.0000    0.0000   -0.0000
           6   -0.0009    0.0015    0.0000   -0.0000   -0.0000    0.0000
           7    0.0004    0.0003    0.0004   -0.0000   -0.0002   -0.0001
           8    0.0000   -0.0000   -0.0001   -0.0000    0.0000    0.0006
           9    0.0003    0.0002    0.0003   -0.0000   -0.0001    0.0003
          10    0.0002    0.0006    0.0000    0.0000    0.0026   -0.0012
          11   -0.0002   -0.0007   -0.0001   -0.0000   -0.0050    0.0012
          12   -0.0000   -0.0001   -0.0001   -0.0000   -0.0015    0.0001
          13    0.0213   -0.0431   -0.0001   -0.0000   -0.0003    0.0000
          14   -0.0029    0.0123    0.0000    0.0000    0.0003    0.0001
          15    0.0086   -0.0130   -0.0000   -0.0000    0.0000    0.0000
          16   -0.0178   -0.0070   -0.0000   -0.0000    0.0001    0.0005
          17   -0.0302   -0.0196   -0.0001   -0.0000   -0.0009   -0.0003
          18   -0.0298   -0.0171   -0.0000   -0.0000   -0.0005    0.0001
          19   -0.0001   -0.0000   -0.0005   -0.0001   -0.0334   -0.0462
          20   -0.0003   -0.0000    0.0005    0.0001    0.0351   -0.0269
          21   -0.0002   -0.0001    0.0001    0.0000    0.0031   -0.0387
          22   -0.0000   -0.0000    0.0364   -0.0009   -0.0005   -0.0000
          23    0.0000    0.0000   -0.0109   -0.0608    0.0003   -0.0000
          24    0.0000   -0.0000    0.0271   -0.0228   -0.0003   -0.0000
          25   -0.0001   -0.0001    0.0000   -0.0000    0.0002    0.0001
          26    0.0000    0.0000   -0.0000   -0.0002    0.0000    0.0001
          27   -0.0001   -0.0000    0.0000   -0.0001    0.0002    0.0001
          28    0.0000    0.0000   -0.0059    0.0000   -0.0000   -0.0000
          29   -0.0000   -0.0000    0.0017   -0.0004    0.0000    0.0000
          30    0.0000    0.0000   -0.0044   -0.0001    0.0000    0.0000
          31    0.0038   -0.0021   -0.0003    0.0000    0.0000   -0.0000
          32    0.0049   -0.0026   -0.0003   -0.0000    0.0001   -0.0001
          33   -0.0104    0.0059    0.0008   -0.0000    0.0001    0.0001
          34   -0.0071    0.0094    0.0001   -0.0000   -0.0002    0.0001
          35   -0.0073    0.0103    0.0001   -0.0000   -0.0001    0.0001
          36    0.0225   -0.0301   -0.0002    0.0000    0.0003   -0.0002
          37    0.0059   -0.0046   -0.0003    0.0000   -0.0002   -0.0000
          38    0.0088   -0.0069   -0.0005    0.0000   -0.0003   -0.0001
          39    0.0149   -0.0114   -0.0008   -0.0000   -0.0005   -0.0001
          40   -0.0113    0.0159    0.0000   -0.0000   -0.0000    0.0000
          41    0.0371   -0.0534   -0.0001    0.0000    0.0000   -0.0001
          42   -0.0087    0.0118    0.0000    0.0000   -0.0000    0.0000
          43   -0.2638    0.4794    0.0008    0.0001    0.0014   -0.0001
          44    0.0484   -0.0940   -0.0001   -0.0000   -0.0003    0.0000
          45   -0.0978    0.1735    0.0003    0.0000    0.0004   -0.0001
          46    0.2202    0.1122    0.0002    0.0001    0.0034    0.0005
          47    0.3413    0.1808    0.0004    0.0001    0.0058   -0.0027
          48    0.3477    0.1818    0.0004    0.0001    0.0057   -0.0015
          49    0.0010    0.0010   -0.0022   -0.0004   -0.1578    0.2448
          50    0.0041    0.0029   -0.0031   -0.0005   -0.2267    0.3968
          51    0.0028    0.0022   -0.0028   -0.0005   -0.2092    0.3505
          52   -0.0047   -0.0039    0.0069    0.0010    0.5235    0.3133
          53    0.0013    0.0011   -0.0017   -0.0002   -0.1318   -0.0930
          54   -0.0016   -0.0014    0.0025    0.0004    0.1897    0.1055
          55    0.0000    0.0003   -0.1812   -0.1927    0.0029   -0.0001
          56   -0.0001   -0.0007    0.4302    0.4210   -0.0069    0.0002
          57    0.0000   -0.0000    0.0015   -0.0116   -0.0001   -0.0000
          58   -0.0000    0.0002   -0.1873    0.2029    0.0022    0.0000
          59   -0.0000    0.0004   -0.3196    0.3113    0.0039   -0.0000
          60   -0.0000    0.0003   -0.2751    0.2859    0.0033   -0.0000


           MASS-WEIGHTED COORDINATE ANALYSIS (NORMAL COORDINATES)


   Root No.       1         2         3         4         5         6         7         8

                 1 A       2 A       3 A       4 A       5 A       6 A       7 A       8 A   

                  60.0      95.8     126.5     194.2     297.4     315.6     355.7     399.5
  
           1   -0.1566    0.1106   -0.0321    0.0642   -0.0442    0.0051   -0.1371    0.0236
           2   -0.0264   -0.1733    0.1007    0.0363   -0.1057   -0.0617   -0.0622   -0.1953
           3    0.2931    0.1195   -0.1728   -0.3598   -0.1173    0.0900   -0.2038   -0.0524
           4   -0.1560    0.1143   -0.0359    0.0652   -0.0400    0.0075   -0.1847    0.0481
           5   -0.0451   -0.0955   -0.2518   -0.1212   -0.1176    0.0503    0.0088    0.1288
           6   -0.0573    0.2088    0.3192    0.1607    0.0211   -0.0718   -0.1424    0.0653
           7   -0.0887    0.0195    0.1309   -0.0604   -0.0235    0.0848    0.0773   -0.2477
           8    0.0012   -0.2184    0.1670   -0.0118   -0.1075   -0.0441    0.0070   -0.2650
           9    0.1618   -0.0562   -0.2159    0.0779    0.1866   -0.0717    0.2341    0.1536
          10   -0.0255   -0.0972    0.0666    0.0192   -0.1548    0.1334    0.0239   -0.1521
          11    0.0032   -0.0745    0.0620    0.0138   -0.1216    0.0100    0.1854   -0.1320
          12    0.1153   -0.1256   -0.0575   -0.0192    0.2670   -0.1832    0.0536   -0.0253
          13    0.0771    0.0585    0.0060    0.0311    0.0178   -0.0400   -0.2732   -0.0468
          14    0.1137    0.1654   -0.0379    0.0279    0.1798   -0.1606   -0.1371    0.0345
          15   -0.3510   -0.0215    0.0702    0.0146   -0.3084    0.1884    0.0733    0.1956
          16    0.1422   -0.0256    0.1064    0.0656   -0.1201    0.1153    0.0798   -0.0156
          17    0.1229    0.1706    0.1037    0.0921   -0.0688    0.0612    0.1825    0.1770
          18   -0.2641   -0.1780   -0.1516   -0.1189    0.1394   -0.1219   -0.1617   -0.2121
          19   -0.1027   -0.2804   -0.0946    0.0385   -0.0912   -0.2767   -0.1953    0.3066
          20   -0.1230   -0.1613   -0.1274    0.0250    0.0713   -0.2194    0.1037    0.0560
          21    0.3888   -0.1581    0.2880   -0.0070   -0.2519   -0.1530   -0.0336    0.1535
          22    0.2252    0.0355   -0.2272    0.1939    0.0529    0.0584    0.1920   -0.1150
          23   -0.0362    0.4836   -0.1705    0.0404   -0.1565   -0.1294   -0.0262   -0.0386
          24   -0.2696    0.1937    0.1289   -0.2503    0.1139   -0.0461    0.2181    0.0059
          25   -0.0106    0.0303    0.1557   -0.3238    0.1861    0.0007    0.2147   -0.0276
          26    0.0170   -0.2413    0.2107   -0.0597    0.1819    0.1640   -0.0256   -0.1055
          27    0.0675   -0.0797   -0.2353    0.4050    0.0333    0.1333    0.0957   -0.1049
          28    0.0982    0.0359    0.0158   -0.2093    0.2320   -0.0175    0.2907    0.1246
          29   -0.0027    0.0685    0.0642   -0.0382    0.3289    0.4606   -0.2762    0.3099
          30   -0.0870    0.0326   -0.1053    0.2609    0.0489    0.2790   -0.0461   -0.1691
          31    0.0102    0.0250   -0.1248   -0.0805   -0.0464    0.0396   -0.0736    0.0112
          32    0.0446   -0.0281    0.0293   -0.1129   -0.1081    0.0292   -0.1353   -0.1665
          33    0.1382    0.0444   -0.0982   -0.2168   -0.0934    0.0693   -0.1428   -0.0785
          34   -0.1121    0.0447    0.0985    0.1254    0.0156   -0.0405   -0.0529    0.0032
          35   -0.0648   -0.0983   -0.2209   -0.1376   -0.1720    0.1446    0.1093    0.1560
          36   -0.0550    0.0476    0.0979    0.0621   -0.0168   -0.0061   -0.0168    0.0420
          37   -0.1070    0.0559    0.0402    0.1051    0.0128   -0.0285   -0.0300    0.0827
          38   -0.0511   -0.0832    0.0672    0.1274    0.0444   -0.0620    0.1039   -0.0085
          39    0.1411    0.0464   -0.0978   -0.2221   -0.0964    0.0703   -0.1481   -0.0817
          40   -0.0328    0.0425   -0.1059   -0.0465   -0.0282    0.0420   -0.0271    0.0771
          41   -0.0026   -0.0065   -0.0752   -0.0343   -0.0105    0.0020   -0.0078    0.0412
          42    0.0104    0.1415    0.2435    0.1634    0.1471   -0.1506   -0.1375   -0.0744
          43    0.0571    0.0309    0.0036    0.0141    0.0733   -0.0611   -0.1204   -0.0373
          44    0.0610    0.1012   -0.0016    0.0267    0.1457   -0.1221   -0.1247    0.0026
          45   -0.1828   -0.0153    0.0221    0.0025   -0.2242    0.1488    0.0901    0.1164
          46    0.0925   -0.0143    0.0620    0.0380   -0.0288    0.0316    0.0918    0.0157
          47    0.0622    0.1018    0.0687    0.0581   -0.0344    0.0393    0.0735    0.1344
          48   -0.1348   -0.0992   -0.1012   -0.0769    0.0502   -0.0569   -0.1115   -0.1543
          49   -0.0148   -0.1109   -0.0504    0.0296   -0.0398   -0.1695   -0.0802    0.2770
          50   -0.0385   -0.0145   -0.0668    0.0187    0.0777   -0.0121    0.1026   -0.0073
[...]

 VIBRATION   33   33A         ATOM PAIR      ENERGY CONTRIBUTION    RADIAL
 FREQ.      1274.17         C  5 -- H 15         +14.7% ( 46.1%)      0.5%
 T-DIPOLE    0.0418         C  6 -- H 16         +11.7% ( 41.1%)      1.3%
 TRAVEL      0.1132         C  1 -- C  3          +7.0% ( 31.7%)     41.0%
 RED. MASS   0.3161         C  5 -- C  6          +6.8% ( 31.3%)      0.1%
 EFF. MASS   4.1306

 VIBRATION   34   34A         ATOM PAIR      ENERGY CONTRIBUTION    RADIAL
 FREQ.      1293.05         C  8 -- H 20         +19.0% ( 52.3%)      2.4%
 T-DIPOLE    0.1638         C  8 -- H 19         +18.9% ( 52.3%)      2.4%
 TRAVEL      0.1146         C  1 -- H 13          +8.8% ( 35.7%)      0.3%
 RED. MASS   0.3530         C  1 -- H 11          +8.0% ( 34.0%)      0.0%
 EFF. MASS   3.9713

 VIBRATION   35   35A         ATOM PAIR      ENERGY CONTRIBUTION    RADIAL
 FREQ.      1341.37         C  7 -- H 18         +20.1% ( 52.0%)      1.1%
 T-DIPOLE    0.1093         C  7 -- H 17         +17.5% ( 48.6%)      2.7%
 TRAVEL      0.1145         C  2 -- H 14          +9.3% ( 35.4%)      0.0%
 RED. MASS   0.3805         C  2 -- H 12          +7.9% ( 32.7%)      0.1%
 EFF. MASS   3.8375

 VIBRATION   36   36A         ATOM PAIR      ENERGY CONTRIBUTION    RADIAL
 FREQ.      1366.49         C  2 -- H 14         +14.5% ( 42.0%)      1.9%
 T-DIPOLE    0.0266         C  2 -- H 12         +12.6% ( 39.2%)      2.7%
 TRAVEL      0.1202         C  1 -- H 13         +11.3% ( 37.2%)      1.8%
 RED. MASS   0.2294         C  1 -- H 11          +9.9% ( 34.8%)      1.9%
 EFF. MASS   3.4132

 VIBRATION   37   37A         ATOM PAIR      ENERGY CONTRIBUTION    RADIAL
 FREQ.      1397.67         C  1 -- H 13         +19.8% ( 48.4%)      6.0%
 T-DIPOLE    0.1383         C  1 -- H 11         +19.3% ( 47.8%)      5.4%
 TRAVEL      0.1188         C  2 -- H 14         +14.4% ( 41.3%)      4.3%
 RED. MASS   0.4057         C  1 -- C  2         +13.1% ( 39.4%)     87.5%
 EFF. MASS   3.4155         C  2 -- H 12         +13.1% ( 39.3%)      5.0%

 VIBRATION   38   38A         ATOM PAIR      ENERGY CONTRIBUTION    RADIAL
 FREQ.      1403.73         C  2 -- C  5         +15.9% ( 55.5%)     99.1%
 T-DIPOLE    0.1270         C  2 -- H 14         +12.9% ( 50.0%)      4.0%
 TRAVEL      0.0823         C  2 -- H 12         +12.6% ( 49.4%)      3.2%
 RED. MASS   0.9539         C  1 -- C  2         +10.8% ( 45.8%)      3.5%
 EFF. MASS   7.0961

 VIBRATION   39   39A         ATOM PAIR      ENERGY CONTRIBUTION    RADIAL
 FREQ.      1412.91         C  1 -- C  3         +20.0% ( 70.5%)     92.9%
 T-DIPOLE    0.1868         C  1 -- C  2         +15.9% ( 62.8%)     84.0%
 TRAVEL      0.0681         C  1 -- H 11         +10.0% ( 49.8%)      0.4%
 RED. MASS   2.2862         C  1 -- H 13          +9.9% ( 49.5%)      0.1%
 EFF. MASS  10.3056

 VIBRATION   40   40A         ATOM PAIR      ENERGY CONTRIBUTION    RADIAL
 FREQ.      1514.81         C  3 -- C  4         +26.3% ( 76.7%)     93.4%
 T-DIPOLE    0.3813         C  4 -- C  6         +22.9% ( 71.5%)     79.5%
 TRAVEL      0.0623         C  4 -- C  7         +14.4% ( 56.7%)      0.1%
 RED. MASS   3.4018         C  1 -- C  3          +7.4% ( 40.8%)     50.8%
 EFF. MASS  11.4832

 VIBRATION   41   41A         ATOM PAIR      ENERGY CONTRIBUTION    RADIAL
 FREQ.      1834.74         C  4 -- C  7         +35.3% ( 88.0%)     99.9%
 T-DIPOLE    0.4722         C  4 -- C  6         +13.7% ( 55.0%)     16.2%
 TRAVEL      0.0555         C  3 -- C  4         +13.5% ( 54.5%)     37.7%
 RED. MASS   3.6367         C  5 -- C  6         +10.1% ( 47.1%)     99.5%
 EFF. MASS  11.9128

 VIBRATION   42   42A         ATOM PAIR      ENERGY CONTRIBUTION    RADIAL
 FREQ.      1878.63         C  5 -- C  6         +33.5% ( 85.8%)     99.9%
 T-DIPOLE    0.2495         C  4 -- C  6         +18.0% ( 62.9%)     46.2%
 TRAVEL      0.0550         C  6 -- H 16         +11.2% ( 49.7%)      3.5%
 RED. MASS   3.6451         C  2 -- C  5          +9.8% ( 46.4%)     51.0%
 EFF. MASS  11.8804

 VIBRATION   43   43A         ATOM PAIR      ENERGY CONTRIBUTION    RADIAL
 FREQ.      1903.85         C  3 -- C  9         +29.2% ( 76.8%)    100.0%
 T-DIPOLE    0.5656         C  8 -- C 10         +26.3% ( 72.9%)    100.0%
 TRAVEL      0.0545         C  9 -- C 10         +10.8% ( 46.7%)     99.5%
 RED. MASS   2.8940         C  3 -- C  4         +10.5% ( 46.1%)     35.9%
 EFF. MASS  11.9428         C  1 -- C  3         +10.2% ( 45.4%)     29.0%

 VIBRATION   44   44A         ATOM PAIR      ENERGY CONTRIBUTION    RADIAL
 FREQ.      2367.29         C  9 -- C 10         +49.3% ( 90.3%)    100.0%
 T-DIPOLE    1.5260         C  8 -- C 10         +22.9% ( 61.5%)    100.0%
 TRAVEL      0.0488         C  3 -- C  9         +22.8% ( 61.4%)    100.0%
 RED. MASS   4.7944         C  1 -- C  3          +1.4% ( 15.0%)     27.2%
 EFF. MASS  11.9635

 VIBRATION   45   45A         ATOM PAIR      ENERGY CONTRIBUTION    RADIAL
 FREQ.      2943.68         C  2 -- H 12         +36.8% ( 63.1%)     97.4%
 T-DIPOLE    0.0392         C  1 -- H 11         +25.0% ( 52.0%)     97.9%
 TRAVEL      0.1218         C  2 -- H 14         +23.9% ( 50.8%)     95.1%
 RED. MASS   0.2912         C  1 -- H 13         +11.9% ( 35.9%)     93.6%
 EFF. MASS   1.5438

 VIBRATION   46   46A         ATOM PAIR      ENERGY CONTRIBUTION    RADIAL
 FREQ.      2955.05         C  1 -- H 11         +38.5% ( 64.2%)     97.7%
 T-DIPOLE    0.0874         C  1 -- H 13         +22.3% ( 48.9%)     94.7%
 TRAVEL      0.1221         C  2 -- H 12         +20.6% ( 46.9%)     97.2%
 RED. MASS   0.2884         C  2 -- H 14         +16.5% ( 42.0%)     96.0%
 EFF. MASS   1.5314

 VIBRATION   47   47A         ATOM PAIR      ENERGY CONTRIBUTION    RADIAL
 FREQ.      3026.61         C  2 -- H 14         +41.9% ( 63.9%)     98.5%
 T-DIPOLE    0.0652         C  2 -- H 12         +30.4% ( 54.4%)     96.6%
 TRAVEL      0.1317         C  1 -- H 13         +15.9% ( 39.3%)     98.8%
 RED. MASS   0.2999         C  1 -- H 11          +9.7% ( 30.7%)     95.6%
 EFF. MASS   1.2842

 VIBRATION   48   48A         ATOM PAIR      ENERGY CONTRIBUTION    RADIAL
 FREQ.      3033.63         C  1 -- H 13         +49.5% ( 69.4%)     99.1%
 T-DIPOLE    0.1095         C  1 -- H 11         +23.6% ( 47.9%)     94.5%
 TRAVEL      0.1316         C  2 -- H 14         +15.5% ( 38.8%)     98.8%
 RED. MASS   0.3256         C  2 -- H 12          +9.0% ( 29.6%)     95.7%
 EFF. MASS   1.2833

 VIBRATION   49   49A         ATOM PAIR      ENERGY CONTRIBUTION    RADIAL
 FREQ.      3041.59         C  6 -- H 16         +75.4% ( 88.1%)    100.0%
 T-DIPOLE    0.3022         C  5 -- H 15         +21.4% ( 47.0%)     99.9%
 TRAVEL      0.1227         C  5 -- C  6          +1.2% ( 11.1%)      5.3%
 RED. MASS   0.6020         C  4 -- C  6          +1.1% ( 10.5%)     18.9%
 EFF. MASS   1.4728

 VIBRATION   50   50A         ATOM PAIR      ENERGY CONTRIBUTION    RADIAL
 FREQ.      3065.02         C  5 -- H 15         +73.8% ( 87.1%)    100.0%
 T-DIPOLE    0.3412         C  6 -- H 16         +21.6% ( 47.1%)     99.8%
 TRAVEL      0.1182         C  5 -- C  6          +1.9% ( 14.1%)     87.5%
 RED. MASS   0.5886         C  2 -- C  5          +1.2% ( 11.0%)     19.3%
 EFF. MASS   1.5759

 VIBRATION   51   51A         ATOM PAIR      ENERGY CONTRIBUTION    RADIAL
 FREQ.      3119.83         C  8 -- H 19         +49.7% ( 70.6%)     95.3%
 T-DIPOLE    0.4889         C  8 -- H 20         +48.6% ( 69.8%)     95.1%
 TRAVEL      0.1245         C  8 -- C 10          +1.6% ( 12.7%)    100.0%
 RED. MASS   0.4855
 EFF. MASS   1.3937

 VIBRATION   52   52A         ATOM PAIR      ENERGY CONTRIBUTION    RADIAL
 FREQ.      3130.26         C  8 -- H 20         +50.0% ( 72.3%)     97.2%
 T-DIPOLE    0.2305         C  8 -- H 19         +48.8% ( 71.5%)     97.1%
 TRAVEL      0.1161         C  8 -- C 10          +1.2% ( 11.3%)      0.0%
 RED. MASS   0.5343
 EFF. MASS   1.5982

 VIBRATION   53   53A         ATOM PAIR      ENERGY CONTRIBUTION    RADIAL
 FREQ.      3133.33         C  7 -- H 18         +72.6% ( 85.3%)     98.2%
 T-DIPOLE    0.3156         C  7 -- H 17         +25.9% ( 51.0%)     86.8%
 TRAVEL      0.1244         C  4 -- C  7          +1.4% ( 12.0%)     91.4%
 RED. MASS   0.5825
 EFF. MASS   1.3914

 VIBRATION   54   54A         ATOM PAIR      ENERGY CONTRIBUTION    RADIAL
 FREQ.      3140.30         C  7 -- H 17         +71.7% ( 86.6%)     99.0%
 T-DIPOLE    0.2262         C  7 -- H 18         +27.0% ( 53.2%)     92.6%
 TRAVEL      0.1160         C  4 -- C  7          +1.3% ( 11.8%)      4.3%
 RED. MASS   0.6264
 EFF. MASS   1.5955

      SYMMETRY NUMBER FOR POINT-GROUP C1  =  1


          SYSTEM IS A GROUND STATE



 InChI=1S/C10H10/c1-3-6-10-8-5-4-7-9(10)2/h4,7H,1-2,5,8H2


          MOLECULE IS NOT LINEAR

          THERE ARE 54 GENUINE VIBRATIONS IN THIS SYSTEM
          THIS THERMODYNAMICS CALCULATION IS LIMITED TO
          MOLECULES WHICH HAVE NO INTERNAL ROTATIONS




                    CALCULATED THERMODYNAMIC PROPERTIES
                                          *
   TEMP. (K)   PARTITION FUNCTION   H.O.F.    ENTHALPY  HEAT CAPACITY ENTROPY
                                   KCAL/MOL   CAL/MOLE    CAL/K/MOL  CAL/K/MOL


 298.00  VIB.     0.1846D+03                  4010.7293    29.7812    23.8283
         ROT.     0.6993D+06                   888.2813     2.9808    29.7242
         INT.     0.1291D+09                  4899.0106    32.7620    53.5525
         TRA.     0.1436D+28                  1480.4688     4.9680    40.5022
         TOT.                      100.005    6379.4794    37.7300    94.0547

 200.00  VIB.     0.2172D+02                  1657.8761    18.3050    14.4063
         ROT.     0.3845D+06                   596.1620     2.9808    28.5356
         INT.     0.8350D+07                  2254.0381    21.2858    42.9418
         TRA.     0.7896D+27                   993.6033     4.9680    38.5210
         TOT.                       96.873    3247.6413    26.2538    81.4629

 210.00  VIB.     0.2678D+02                  1846.6036    19.4430    15.3269
         ROT.     0.4137D+06                   625.9700     2.9808    28.6810
         INT.     0.1108D+08                  2472.5736    22.4238    44.0079
         TRA.     0.8496D+27                  1043.2834     4.9680    38.7634
         TOT.                       97.141    3515.8570    27.3918    82.7713

 220.00  VIB.     0.3310D+02                  2046.7817    20.5948    16.2579
         ROT.     0.4436D+06                   655.7781     2.9808    28.8197
         INT.     0.1468D+08                  2702.5598    23.5756    45.0775
         TRA.     0.9110D+27                  1092.9636     4.9680    38.9945
         TOT.                       97.421    3795.5234    28.5436    84.0721

 230.00  VIB.     0.4099D+02                  2258.5376    21.7581    17.1990
         ROT.     0.4741D+06                   685.5862     2.9808    28.9522
         INT.     0.1944D+08                  2944.1238    24.7389    46.1511
         TRA.     0.9738D+27                  1142.6437     4.9680    39.2154
         TOT.                       97.712    4086.7676    29.7070    85.3665

 240.00  VIB.     0.5087D+02                  2481.9749    22.9306    18.1498
         ROT.     0.5054D+06                   715.3943     2.9808    29.0790
         INT.     0.2571D+08                  3197.3692    25.9114    47.2288
         TRA.     0.1038D+28                  1192.3239     4.9680    39.4268
         TOT.                       98.015    4389.6931    30.8794    86.6556

 250.00  VIB.     0.6325D+02                  2717.1720    24.1097    19.1097
         ROT.     0.5373D+06                   745.2024     2.9808    29.2007
         INT.     0.3398D+08                  3462.3745    27.0905    48.3104
         TRA.     0.1103D+28                  1242.0041     4.9680    39.6296
         TOT.                       98.330    4704.3785    32.0585    87.9400

 260.00  VIB.     0.7879D+02                  2964.1821    25.2928    20.0784
         ROT.     0.5699D+06                   775.0105     2.9808    29.3176
         INT.     0.4490D+08                  3739.1926    28.2736    49.3960
         TRA.     0.1170D+28                  1291.6842     4.9680    39.8245
         TOT.                       98.656    5030.8769    33.2416    89.2204

 270.00  VIB.     0.9833D+02                  3223.0324    26.4773    21.0551
         ROT.     0.6031D+06                   804.8186     2.9808    29.4301
         INT.     0.5930D+08                  4027.8510    29.4581    50.4852
         TRA.     0.1239D+28                  1341.3644     4.9680    40.0120
         TOT.                       98.995    5369.2154    34.4261    90.4972

 280.00  VIB.     0.1229D+03                  3493.7250    27.6608    22.0394
         ROT.     0.6369D+06                   834.6267     2.9808    29.5385
         INT.     0.7830D+08                  4328.3518    30.6417    51.5780
         TRA.     0.1308D+28                  1391.0445     4.9680    40.1926
         TOT.                       99.345    5719.3963    35.6097    91.7706

 290.00  VIB.     0.1540D+03                  3776.2379    28.8410    23.0307
         ROT.     0.6713D+06                   864.4348     2.9808    29.6431
         INT.     0.1034D+09                  4640.6728    31.8218    52.6738
         TRA.     0.1379D+28                  1440.7247     4.9680    40.3670
         TOT.                       99.707    6081.3975    36.7898    93.0408

 300.00  VIB.     0.1932D+03                  4070.5260    30.0155    24.0283
         ROT.     0.7063D+06                   894.2429     2.9808    29.7442
         INT.     0.1364D+09                  4964.7689    32.9963    53.7724
         TRA.     0.1451D+28                  1490.4049     4.9680    40.5354
         TOT.                      100.081    6455.1738    37.9643    94.3078

 310.00  VIB.     0.2427D+03                  4376.5227    31.1824    25.0315
         ROT.     0.7419D+06                   924.0510     2.9808    29.8419
         INT.     0.1801D+09                  5300.5737    34.1632    54.8734
         TRA.     0.1524D+28                  1540.0850     4.9680    40.6983
         TOT.                      100.466    6840.6587    39.1312    95.5717

 320.00  VIB.     0.3055D+03                  4694.1419    32.3397    26.0398
         ROT.     0.7781D+06                   953.8591     2.9808    29.9365
         INT.     0.2377D+09                  5648.0010    35.3205    55.9764
         TRA.     0.1598D+28                  1589.7652     4.9680    40.8560
         TOT.                      100.863    7237.7662    40.2885    96.8324

 330.00  VIB.     0.3850D+03                  5023.2797    33.4858    27.0525
         ROT.     0.8149D+06                   983.6672     2.9808    30.0283
         INT.     0.3138D+09                  6006.9469    36.4667    57.0808
         TRA.     0.1674D+28                  1639.4454     4.9680    41.0089
         TOT.                      101.272    7646.3923    41.4347    98.0897

 340.00  VIB.     0.4860D+03                  5363.8163    34.6193    28.0691
         ROT.     0.8522D+06                  1013.4753     2.9808    30.1173
         INT.     0.4141D+09                  6377.2916    37.6001    58.1863
         TRA.     0.1750D+28                  1689.1255     4.9680    41.1572
         TOT.                      101.692    8066.4172    42.5681    99.3435

 350.00  VIB.     0.6142D+03                  5715.6181    35.7387    29.0888
         ROT.     0.8901D+06                  1043.2834     2.9808    30.2037
         INT.     0.5467D+09                  6758.9015    38.7195    59.2924
         TRA.     0.1828D+28                  1738.8057     4.9680    41.3012
         TOT.                      102.123    8497.7072    43.6875   100.5936

 360.00  VIB.     0.7772D+03                  6078.5394    36.8430    30.1111
         ROT.     0.9285D+06                  1073.0915     2.9808    30.2876
         INT.     0.7216D+09                  7151.6310    39.8238    60.3987
         TRA.     0.1907D+28                  1788.4859     4.9680    41.4412
         TOT.                      102.565    8940.1168    44.7918   101.8399

 370.00  VIB.     0.9847D+03                  6452.4244    37.9313    31.1354
         ROT.     0.9674D+06                  1102.8996     2.9808    30.3693
         INT.     0.9526D+09                  7555.3240    40.9121    61.5047
         TRA.     0.1987D+28                  1838.1660     4.9680    41.5773
         TOT.                      103.019    9393.4900    45.8801   103.0820

 380.00  VIB.     0.1249D+04                  6837.1085    39.0027    32.1612
         ROT.     0.1007D+07                  1132.7077     2.9808    30.4488
         INT.     0.1258D+10                  7969.8162    41.9835    62.6100
         TRA.     0.2068D+28                  1887.8462     4.9680    41.7098
         TOT.                      103.483    9857.6624    46.9515   104.3198

 390.00  VIB.     0.1586D+04                  7232.4207    40.0568    33.1880
         ROT.     0.1047D+07                  1162.5158     2.9808    30.5262
         INT.     0.1660D+10                  8394.9365    43.0376    63.7142
         TRA.     0.2150D+28                  1937.5263     4.9680    41.8388
         TOT.                      103.958   10332.4628    48.0056   105.5531

 400.00  VIB.     0.2015D+04                  7638.1843    41.0929    34.2153
         ROT.     0.1087D+07                  1192.3239     2.9808    30.6017
         INT.     0.2192D+10                  8830.5082    44.0737    64.8170
         TRA.     0.2233D+28                  1987.2065     4.9680    41.9646
         TOT.                      104.443   10817.7147    49.0418   106.7816

   *: NOTE: HEATS OF FORMATION ARE RELATIVE TO THE
            ELEMENTS IN THEIR STANDARD STATE AT 298K
              (=  Standard Enthalpy of Formation).

            Hvib:  Zero-point energy is not included.
                   frequencies of less than zero cm-1 are not included.
            Hrot = (3/2)RT
            Htra = (3/2)RT + pV = (5/2)RT

            Heat capacity is Cp, not Cv

          For more information, see: HTTP://OpenMOPAC.net/Manual/thermochemistry.html


           FORCE CONSTANT IN CARTESIAN COORDINATES (Millidynes/A)

    ATOM   CHEMICAL       X               Y               Z
   NUMBER   SYMBOL  FORCE CONSTANT  FORCE CONSTANT  FORCE CONSTANT

      1       C        8.308664        8.742859        8.207096
      2       C        8.322161        8.890702        8.241298
      3       C       10.904141        9.243731        7.754636
      4       C       10.317731       12.452470        5.774382
      5       C       10.189496       11.176826        5.815449
      6       C       10.157514       11.547593        6.021011
      7       C        9.267818       11.947580        5.064537
      8       C       10.187753        8.385390        7.291116
      9       C       15.587602        3.085246        9.296515
     10       C       15.584919        2.773141        9.316655
     11       H        1.167709        1.507055        3.576145
     12       H        1.183150        0.905102        4.166308
     13       H        1.201703        1.814415        3.416186
     14       H        1.181233        4.301286        0.881189
     15       H        4.447053        0.798537        1.013301
     16       H        1.446481        2.439921        2.359977
     17       H        1.507633        2.777979        2.176387
     18       H        4.574266        0.904703        0.963655
     19       H        1.266652        4.574231        0.434345
     20       H        1.330177        2.772544        2.176211

 **********************
 *                    *
 * JOB ENDED NORMALLY *
 *                    *
 **********************



 TOTAL JOB TIME:             1.96 SECONDS

 == MOPAC DONE ==
