 *******************************************************************************
 ** Site#: 14399        For non-commercial use only    Version 18.184L 64BITS **
 *******************************************************************************
 ** Cite this program as: MOPAC2016, Version: 18.184L, James J. P. Stewart,   **
 ** Stewart Computational Chemistry, web: HTTP://OpenMOPAC.net. Days left:  18**
 *******************************************************************************
 **                                                                           **
 **                                MOPAC2016                                  **
 **                                                                           **
 *******************************************************************************

                              PM3 CALCULATION RESULTS

 *******************************************************************************
 *  CALCULATION DONE:                                Sat Jun 15 10:10:35 2019  *
 *  PM3        - The PM3 Hamiltonian to be used
 *  PRECISE    - CRITERIA TO BE INCREASED BY 100 TIMES
 *  NOSYM      - POINT-GROUP SYMMETRY SET TO C1
 *  THREADS=1  - MULTI-THREADING NOT USED
 *  T=         - A TIME OF 172800.0 SECONDS REQUESTED
 *  DUMP=N     - RESTART FILE WRITTEN EVERY  7200.000 SECONDS
 *******************************************************************************
pm3  precise nosym THREADS=1
 InChI=1S/C12H18/c1-11-7-3-6-10-12(11)8-4-2-5-9-12/h2,4-5,8,11H,3,6-7,9-10H2,1H3

   ATOM   CHEMICAL          X               Y               Z
  NUMBER   SYMBOL      (ANGSTROMS)     (ANGSTROMS)     (ANGSTROMS)
 
     1       C         -0.22260000  *  -0.09500000  *  -0.52510000  *
     2       C          0.63990000  *   0.92680000  *   0.30540000  *
     3       C          0.73780000  *  -0.98780000  *  -1.36400000  *
     4       C          1.75730000  *   0.24070000  *   1.12660000  *
     5       C          2.63920000  *  -0.65260000  *   0.25090000  *
     6       C          1.79990000  *  -1.68320000  *  -0.50400000  *
     7       C         -1.12060000  *  -1.01520000  *   0.37900000  *
     8       C         -0.19280000  *   1.83390000  *   1.22860000  *
     9       C         -1.07940000  *   0.68120000  *  -1.52060000  *
    10       C         -2.46770000  *  -0.43000000  *   0.70420000  *
    11       C         -2.38150000  *   0.91010000  *  -1.32700000  *
    12       C         -3.07040000  *   0.41640000  *  -0.12850000  *
    13       H          1.15040000  *   1.60290000  *  -0.41900000  *
    14       H          2.40400000  *   1.01850000  *   1.58890000  *
    15       H          1.33100000  *  -0.35970000  *   1.95770000  *
    16       H          3.37810000  *  -1.18010000  *   0.89190000  *
    17       H          3.20290000  *  -0.02500000  *  -0.47430000  *
    18       H          2.46670000  *  -2.28060000  *  -1.16260000  *
    19       H          1.32100000  *  -2.38390000  *   0.21350000  *
    20       H          1.26550000  *  -0.36960000  *  -2.12560000  *
    21       H          0.16260000  *  -1.75810000  *  -1.92380000  *
    22       H         -0.61130000  *  -1.27520000  *   1.32750000  *
    23       H         -1.32110000  *  -1.97960000  *  -0.13630000  *
    24       H         -0.68220000  *   1.24550000  *   2.03230000  *
    25       H          0.46440000  *   2.59090000  *   1.70740000  *
    26       H         -0.96510000  *   2.38340000  *   0.65260000  *
    27       H         -0.60630000  *   1.12960000  *  -2.38670000  *
    28       H         -2.99520000  *  -0.77760000  *   1.58350000  *
    29       H         -2.92990000  *   1.51470000  *  -2.03810000  *
    30       H         -4.07460000  *   0.75870000  *   0.08560000  *
 


          CARTESIAN COORDINATES 

    NO.       ATOM           X           Y           Z

     1         C         -0.2226     -0.0950     -0.5251
     2         C          0.6399      0.9268      0.3054
     3         C          0.7378     -0.9878     -1.3640
     4         C          1.7573      0.2407      1.1266
     5         C          2.6392     -0.6526      0.2509
     6         C          1.7999     -1.6832     -0.5040
     7         C         -1.1206     -1.0152      0.3790
     8         C         -0.1928      1.8339      1.2286
     9         C         -1.0794      0.6812     -1.5206
    10         C         -2.4677     -0.4300      0.7042
    11         C         -2.3815      0.9101     -1.3270
    12         C         -3.0704      0.4164     -0.1285
    13         H          1.1504      1.6029     -0.4190
    14         H          2.4040      1.0185      1.5889
    15         H          1.3310     -0.3597      1.9577
    16         H          3.3781     -1.1801      0.8919
    17         H          3.2029     -0.0250     -0.4743
    18         H          2.4667     -2.2806     -1.1626
    19         H          1.3210     -2.3839      0.2135
    20         H          1.2655     -0.3696     -2.1256
    21         H          0.1626     -1.7581     -1.9238
    22         H         -0.6113     -1.2752      1.3275
    23         H         -1.3211     -1.9796     -0.1363
    24         H         -0.6822      1.2455      2.0323
    25         H          0.4644      2.5909      1.7074
    26         H         -0.9651      2.3834      0.6526
    27         H         -0.6063      1.1296     -2.3867
    28         H         -2.9952     -0.7776      1.5835
    29         H         -2.9299      1.5147     -2.0381
    30         H         -4.0746      0.7587      0.0856

  H: (PM3): J. J. P. STEWART, J. COMP. CHEM. 10, 209 (1989).
  C: (PM3): J. J. P. STEWART, J. COMP. CHEM. 10, 209 (1989).

           Empirical Formula: C12 H18  =    30 atoms



      MOLECULAR POINT GROUP   :   C1  


      RHF CALCULATION, NO. OF DOUBLY OCCUPIED LEVELS = 33


          Geometry optimization using EF

          DIAGONAL MATRIX USED AS START HESSIAN

 CYCLE:     1 TIME:   0.012 TIME LEFT:  2.00D  GRAD.:    66.623 HEAT:  4.602817
 CYCLE:     2 TIME:   0.020 TIME LEFT:  2.00D  GRAD.:    46.491 HEAT:  3.246957
 CYCLE:     3 TIME:   0.008 TIME LEFT:  2.00D  GRAD.:    60.750 HEAT:  2.834412
 CYCLE:     4 TIME:   0.008 TIME LEFT:  2.00D  GRAD.:    53.011 HEAT:  2.492769
 CYCLE:     5 TIME:   0.008 TIME LEFT:  2.00D  GRAD.:    51.986 HEAT:  2.399650
 CYCLE:     6 TIME:   0.008 TIME LEFT:  2.00D  GRAD.:    42.502 HEAT:  2.007107
 CYCLE:     7 TIME:   0.016 TIME LEFT:  2.00D  GRAD.:    22.729 HEAT:  1.565631
 CYCLE:     8 TIME:   0.012 TIME LEFT:  2.00D  GRAD.:    13.821 HEAT:  1.419868
 CYCLE:     9 TIME:   0.008 TIME LEFT:  2.00D  GRAD.:    18.487 HEAT:  1.339834
 CYCLE:    10 TIME:   0.008 TIME LEFT:  2.00D  GRAD.:    22.059 HEAT:  1.249593
 CYCLE:    11 TIME:   0.016 TIME LEFT:  2.00D  GRAD.:    16.924 HEAT:  1.170671
 CYCLE:    12 TIME:   0.008 TIME LEFT:  2.00D  GRAD.:    14.486 HEAT:  1.134785
 CYCLE:    13 TIME:   0.008 TIME LEFT:  2.00D  GRAD.:    18.111 HEAT:  1.123646
 CYCLE:    14 TIME:   0.008 TIME LEFT:  2.00D  GRAD.:    15.206 HEAT:  1.087815
 CYCLE:    15 TIME:   0.008 TIME LEFT:  2.00D  GRAD.:    14.492 HEAT:  1.068968
 CYCLE:    16 TIME:   0.008 TIME LEFT:  2.00D  GRAD.:    16.438 HEAT:  1.054375
 CYCLE:    17 TIME:   0.008 TIME LEFT:  2.00D  GRAD.:    14.611 HEAT:  1.026547
 CYCLE:    18 TIME:   0.008 TIME LEFT:  2.00D  GRAD.:    16.936 HEAT:  1.025016
 CYCLE:    19 TIME:   0.008 TIME LEFT:  2.00D  GRAD.:    15.123 HEAT: 0.9938373
 CYCLE:    20 TIME:   0.008 TIME LEFT:  2.00D  GRAD.:    14.404 HEAT: 0.9695965
 CYCLE:    21 TIME:   0.008 TIME LEFT:  2.00D  GRAD.:     9.458 HEAT: 0.9134126
 CYCLE:    22 TIME:   0.012 TIME LEFT:  2.00D  GRAD.:    10.126 HEAT: 0.8972784
 CYCLE:    23 TIME:   0.008 TIME LEFT:  2.00D  GRAD.:     8.872 HEAT: 0.8744737
 CYCLE:    24 TIME:   0.008 TIME LEFT:  2.00D  GRAD.:     7.584 HEAT: 0.8458216
 CYCLE:    25 TIME:   0.008 TIME LEFT:  2.00D  GRAD.:     5.199 HEAT: 0.8057414
 CYCLE:    26 TIME:   0.008 TIME LEFT:  2.00D  GRAD.:     6.907 HEAT: 0.7642282
 CYCLE:    27 TIME:   0.008 TIME LEFT:  2.00D  GRAD.:     6.904 HEAT: 0.7010814
 CYCLE:    28 TIME:   0.008 TIME LEFT:  2.00D  GRAD.:     8.270 HEAT: 0.6032182
 CYCLE:    29 TIME:   0.008 TIME LEFT:  2.00D  GRAD.:    10.518 HEAT: 0.5202146
 CYCLE:    30 TIME:   0.016 TIME LEFT:  2.00D  GRAD.:     8.563 HEAT: 0.4792815
 CYCLE:    31 TIME:   0.008 TIME LEFT:  2.00D  GRAD.:     7.567 HEAT: 0.4598408
 CYCLE:    32 TIME:   0.008 TIME LEFT:  2.00D  GRAD.:     5.638 HEAT: 0.4320169
 CYCLE:    33 TIME:   0.008 TIME LEFT:  2.00D  GRAD.:     5.663 HEAT: 0.4019411
 CYCLE:    34 TIME:   0.008 TIME LEFT:  2.00D  GRAD.:     6.822 HEAT: 0.3507274
 CYCLE:    35 TIME:   0.008 TIME LEFT:  2.00D  GRAD.:     7.290 HEAT: 0.3119579
 CYCLE:    36 TIME:   0.008 TIME LEFT:  2.00D  GRAD.:     5.713 HEAT: 0.2957904
 CYCLE:    37 TIME:   0.004 TIME LEFT:  2.00D  GRAD.:     4.745 HEAT: 0.2767461
 CYCLE:    38 TIME:   0.012 TIME LEFT:  2.00D  GRAD.:     3.653 HEAT: 0.2605357
 CYCLE:    39 TIME:   0.008 TIME LEFT:  2.00D  GRAD.:     4.404 HEAT: 0.2327229
 CYCLE:    40 TIME:   0.008 TIME LEFT:  2.00D  GRAD.:     4.872 HEAT: 0.1915075
 CYCLE:    41 TIME:   0.008 TIME LEFT:  2.00D  GRAD.:     5.343 HEAT: 0.1750354
 CYCLE:    42 TIME:   0.004 TIME LEFT:  2.00D  GRAD.:     4.874 HEAT: 0.1559998
 CYCLE:    43 TIME:   0.012 TIME LEFT:  2.00D  GRAD.:     4.031 HEAT: 0.1353543
 CYCLE:    44 TIME:   0.004 TIME LEFT:  2.00D  GRAD.:     3.407 HEAT: 0.1193529
 CYCLE:    45 TIME:   0.008 TIME LEFT:  2.00D  GRAD.:     3.243 HEAT: 0.1060592
 CYCLE:    46 TIME:   0.008 TIME LEFT:  2.00D  GRAD.:     3.469 HEAT: 0.9327025E-01
 CYCLE:    47 TIME:   0.008 TIME LEFT:  2.00D  GRAD.:     3.284 HEAT: 0.8568184E-01
 CYCLE:    48 TIME:   0.012 TIME LEFT:  2.00D  GRAD.:     2.336 HEAT: 0.7799295E-01
 CYCLE:    49 TIME:   0.004 TIME LEFT:  2.00D  GRAD.:     2.116 HEAT: 0.7285153E-01
 CYCLE:    50 TIME:   0.008 TIME LEFT:  2.00D  GRAD.:     1.818 HEAT: 0.6644928E-01
 CYCLE:    51 TIME:   0.008 TIME LEFT:  2.00D  GRAD.:     1.582 HEAT: 0.6172324E-01
 CYCLE:    52 TIME:   0.008 TIME LEFT:  2.00D  GRAD.:     1.220 HEAT: 0.5862206E-01
 CYCLE:    53 TIME:   0.008 TIME LEFT:  2.00D  GRAD.:     1.130 HEAT: 0.5580919E-01
 CYCLE:    54 TIME:   0.008 TIME LEFT:  2.00D  GRAD.:     1.459 HEAT: 0.5366962E-01
 CYCLE:    55 TIME:   0.008 TIME LEFT:  2.00D  GRAD.:     1.293 HEAT: 0.5106079E-01
 CYCLE:    56 TIME:   0.008 TIME LEFT:  2.00D  GRAD.:     1.035 HEAT: 0.4809044E-01
 CYCLE:    57 TIME:   0.008 TIME LEFT:  2.00D  GRAD.:     0.893 HEAT: 0.4494820E-01
 CYCLE:    58 TIME:   0.008 TIME LEFT:  2.00D  GRAD.:     0.972 HEAT: 0.4287285E-01
 CYCLE:    59 TIME:   0.008 TIME LEFT:  2.00D  GRAD.:     0.987 HEAT: 0.4021520E-01
 CYCLE:    60 TIME:   0.008 TIME LEFT:  2.00D  GRAD.:     1.053 HEAT: 0.3799746E-01
 CYCLE:    61 TIME:   0.008 TIME LEFT:  2.00D  GRAD.:     1.071 HEAT: 0.3572872E-01
 CYCLE:    62 TIME:   0.008 TIME LEFT:  2.00D  GRAD.:     1.097 HEAT: 0.3311654E-01
 CYCLE:    63 TIME:   0.008 TIME LEFT:  2.00D  GRAD.:     1.089 HEAT: 0.3008146E-01
 CYCLE:    64 TIME:   0.008 TIME LEFT:  2.00D  GRAD.:     0.951 HEAT: 0.2734335E-01
 CYCLE:    65 TIME:   0.008 TIME LEFT:  2.00D  GRAD.:     0.725 HEAT: 0.2529114E-01
 CYCLE:    66 TIME:   0.008 TIME LEFT:  2.00D  GRAD.:     0.625 HEAT: 0.2401858E-01
 CYCLE:    67 TIME:   0.008 TIME LEFT:  2.00D  GRAD.:     0.571 HEAT: 0.2306610E-01
 CYCLE:    68 TIME:   0.008 TIME LEFT:  2.00D  GRAD.:     0.518 HEAT: 0.2223775E-01
 CYCLE:    69 TIME:   0.008 TIME LEFT:  2.00D  GRAD.:     0.473 HEAT: 0.2152238E-01
 CYCLE:    70 TIME:   0.008 TIME LEFT:  2.00D  GRAD.:     0.469 HEAT: 0.2084837E-01
 CYCLE:    71 TIME:   0.008 TIME LEFT:  2.00D  GRAD.:     0.431 HEAT: 0.2033681E-01
 CYCLE:    72 TIME:   0.008 TIME LEFT:  2.00D  GRAD.:     0.388 HEAT: 0.1987402E-01
 CYCLE:    73 TIME:   0.008 TIME LEFT:  2.00D  GRAD.:     0.353 HEAT: 0.1954523E-01
 CYCLE:    74 TIME:   0.008 TIME LEFT:  2.00D  GRAD.:     0.344 HEAT: 0.1921563E-01
 CYCLE:    75 TIME:   0.008 TIME LEFT:  2.00D  GRAD.:     0.343 HEAT: 0.1891612E-01
 CYCLE:    76 TIME:   0.008 TIME LEFT:  2.00D  GRAD.:     0.334 HEAT: 0.1857758E-01
 CYCLE:    77 TIME:   0.008 TIME LEFT:  2.00D  GRAD.:     0.316 HEAT: 0.1828716E-01
 CYCLE:    78 TIME:   0.008 TIME LEFT:  2.00D  GRAD.:     0.320 HEAT: 0.1799010E-01
 CYCLE:    79 TIME:   0.008 TIME LEFT:  2.00D  GRAD.:     0.319 HEAT: 0.1775446E-01
 CYCLE:    80 TIME:   0.008 TIME LEFT:  2.00D  GRAD.:     0.317 HEAT: 0.1747964E-01
 CYCLE:    81 TIME:   0.008 TIME LEFT:  2.00D  GRAD.:     0.308 HEAT: 0.1724683E-01
 CYCLE:    82 TIME:   0.008 TIME LEFT:  2.00D  GRAD.:     0.299 HEAT: 0.1700134E-01
 CYCLE:    83 TIME:   0.008 TIME LEFT:  2.00D  GRAD.:     0.270 HEAT: 0.1681396E-01
 CYCLE:    84 TIME:   0.008 TIME LEFT:  2.00D  GRAD.:     0.230 HEAT: 0.1662249E-01
 CYCLE:    85 TIME:   0.008 TIME LEFT:  2.00D  GRAD.:     0.187 HEAT: 0.1653443E-01
 CYCLE:    86 TIME:   0.008 TIME LEFT:  2.00D  GRAD.:     0.198 HEAT: 0.1639984E-01
 CYCLE:    87 TIME:   0.008 TIME LEFT:  2.00D  GRAD.:     0.148 HEAT: 0.1634118E-01
 CYCLE:    88 TIME:   0.008 TIME LEFT:  2.00D  GRAD.:     0.097 HEAT: 0.1627102E-01
 CYCLE:    89 TIME:   0.008 TIME LEFT:  2.00D  GRAD.:     0.094 HEAT: 0.1624409E-01
 CYCLE:    90 TIME:   0.008 TIME LEFT:  2.00D  GRAD.:     0.089 HEAT: 0.1620597E-01
 CYCLE:    91 TIME:   0.008 TIME LEFT:  2.00D  GRAD.:     0.077 HEAT: 0.1618704E-01
 CYCLE:    92 TIME:   0.008 TIME LEFT:  2.00D  GRAD.:     0.085 HEAT: 0.1616037E-01
 CYCLE:    93 TIME:   0.008 TIME LEFT:  2.00D  GRAD.:     0.059 HEAT: 0.1614828E-01
 CYCLE:    94 TIME:   0.008 TIME LEFT:  2.00D  GRAD.:     0.047 HEAT: 0.1613767E-01

     GRADIENT =  0.04690  IS LESS THAN CUTOFF =  0.05000



 -------------------------------------------------------------------------------
 pm3  precise nosym THREADS=1
 InChI=1S/C12H18/c1-11-7-3-6-10-12(11)8-4-2-5-9-12/h2,4-5,8,11H,3,6-7,9-10H2,1H3



     GEOMETRY OPTIMISED USING EIGENVECTOR FOLLOWING (EF).     
     SCF FIELD WAS ACHIEVED                                   


                              PM3 CALCULATION
                                                       MOPAC2016 (Version: 18.184L)
                                                       Sat Jun 15 10:10:36 2019
                                                       No. of days remaining =  18




          FINAL HEAT OF FORMATION =          0.01614 KCAL/MOL =       0.06752 KJ/MOL


          TOTAL ENERGY            =      -1699.67251 EV
          ELECTRONIC ENERGY       =     -11314.81384 EV  POINT GROUP:     C1  
          CORE-CORE REPULSION     =       9615.14133 EV
          COSMO AREA              =        200.10 SQUARE ANGSTROMS
          COSMO VOLUME            =        224.39 CUBIC ANGSTROMS

          GRADIENT NORM           =          0.04690 = 0.00856 PER ATOM
          IONIZATION POTENTIAL    =          8.935965 EV
          HOMO LUMO ENERGIES (EV) =         -8.936  0.317
          NO. OF FILLED LEVELS    =         33
          MOLECULAR WEIGHT        =        162.2742

          MOLECULAR DIMENSIONS (Angstroms)

            Atom       Atom       Distance
            H    30    H    16     7.72223
            H    21    H    25     5.60991
            H    27    H    28     4.79498


          SCF CALCULATIONS        =        102
 
          WALL-CLOCK TIME         =          0.785 SECONDS
          COMPUTATION TIME        =          0.750 SECONDS




   ATOM   CHEMICAL          X               Y               Z
  NUMBER   SYMBOL      (ANGSTROMS)     (ANGSTROMS)     (ANGSTROMS)
 
     1       C         -0.21701845  *  -0.05894981  *  -0.50797549  *
     2       C          0.67760306  *   0.94080616  *   0.27950058  *
     3       C          0.71154157  *  -0.95106687  *  -1.36423246  *
     4       C          1.68912210  *   0.18046609  *   1.13793565  *
     5       C          2.59016294  *  -0.68883014  *   0.27801897  *
     6       C          1.76541091  *  -1.67062477  *  -0.53766182  *
     7       C         -1.04860054  *  -0.94725468  *   0.43942270  *
     8       C         -0.12282230  *   1.89970767  *   1.14346995  *
     9       C         -1.07710489  *   0.73227431  *  -1.45605506  *
    10       C         -2.45124407  *  -0.51830911  *   0.66483651  *
    11       C         -2.39266494  *   0.90848941  *  -1.28696249  *
    12       C         -3.08535006  *   0.33148544  *  -0.15165147  *
    13       H          1.23932506  *   1.54516515  *  -0.47689519  *
    14       H          2.29385009  *   0.89094136  *   1.73296990  *
    15       H          1.13624528  *  -0.45000017  *   1.87154398  *
    16       H          3.31266622  *  -1.23483225  *   0.91447235  *
    17       H          3.19990297  *  -0.05365494  *  -0.39525314  *
    18       H          2.42466708  *  -2.25967233  *  -1.20418146  *
    19       H          1.28349020  *  -2.40811453  *   0.13600795  *
    20       H          1.21449120  *  -0.32753616  *  -2.13200263  *
    21       H          0.10445626  *  -1.68730788  *  -1.92711507  *
    22       H         -0.51745746  *  -1.02272391  *   1.41756461  *
    23       H         -1.09607307  *  -1.98651231  *   0.04911843  *
    24       H         -0.67600497  *   1.37462749  *   1.93458956  *
    25       H          0.53176369  *   2.63454315  *   1.63001660  *
    26       H         -0.85858144  *   2.45245326  *   0.54347087  *
    27       H         -0.55716107  *   1.19086784  *  -2.30611398  *
    28       H         -2.96129411  *  -0.96309211  *   1.52636864  *
    29       H         -2.98363988  *   1.49847389  *  -1.99512532  *
    30       H         -4.12952289  *   0.61666435  *   0.00968436  *

                             CARTESIAN COORDINATES

   1    C       -0.217018453    -0.058949810    -0.507975490
   2    C        0.677603064     0.940806159     0.279500578
   3    C        0.711541575    -0.951066872    -1.364232456
   4    C        1.689122103     0.180466089     1.137935646
   5    C        2.590162941    -0.688830137     0.278018972
   6    C        1.765410908    -1.670624767    -0.537661824
   7    C       -1.048600535    -0.947254683     0.439422697
   8    C       -0.122822295     1.899707666     1.143469955
   9    C       -1.077104886     0.732274311    -1.456055059
  10    C       -2.451244073    -0.518309109     0.664836509
  11    C       -2.392664935     0.908489411    -1.286962492
  12    C       -3.085350056     0.331485441    -0.151651471
  13    H        1.239325062     1.545165153    -0.476895185
  14    H        2.293850087     0.890941364     1.732969899
  15    H        1.136245283    -0.450000171     1.871543983
  16    H        3.312666221    -1.234832245     0.914472346
  17    H        3.199902966    -0.053654940    -0.395253143
  18    H        2.424667076    -2.259672333    -1.204181460
  19    H        1.283490198    -2.408114526     0.136007955
  20    H        1.214491199    -0.327536158    -2.132002625
  21    H        0.104456262    -1.687307881    -1.927115072
  22    H       -0.517457461    -1.022723909     1.417564606
  23    H       -1.096073070    -1.986512314     0.049118434
  24    H       -0.676004970     1.374627494     1.934589559
  25    H        0.531763691     2.634543152     1.630016597
  26    H       -0.858581440     2.452453261     0.543470867
  27    H       -0.557161068     1.190867839    -2.306113982
  28    H       -2.961294113    -0.963092107     1.526368641
  29    H       -2.983639883     1.498473892    -1.995125323
  30    H       -4.129522888     0.616664347     0.009684361


           Empirical Formula: C12 H18  =    30 atoms



      MOLECULAR POINT GROUP   :   C1  


                  EIGENVALUES  
 -43.34762 -36.77980 -32.98292 -30.82789 -29.99296 -26.55170 -24.23325 -22.15121
 -21.05697 -20.29032 -19.00730 -17.67221 -16.79326 -16.12919 -15.68791 -15.35587
 -14.96741 -14.77487 -14.35262 -13.87011 -13.69466 -13.40117 -13.30020 -12.70119
 -12.53393 -12.40302 -11.89652 -11.71194 -11.63277 -11.33564 -11.22099 -11.06163
  -8.93597   0.31734   2.11928   3.25622   3.33403   3.46245   3.52384   3.62002
   3.70816   3.71384   3.74562   3.85221   3.90386   4.04938   4.09886   4.11419
   4.22654   4.34659   4.39171   4.44887   4.49565   4.66973   4.68064   4.84424
   4.93598   4.97155   5.07232   5.12631   5.24290   5.24723   5.32690   5.48854
   6.05603   6.27843


              NET ATOMIC CHARGES AND DIPOLE CONTRIBUTIONS

  ATOM NO.   TYPE          CHARGE      No. of ELECS.   s-Pop       p-Pop       
    1          C           0.002200        3.9978     1.18132     2.81648
    2          C          -0.069974        4.0700     1.18135     2.88863
    3          C          -0.096445        4.0964     1.16881     2.92764
    4          C          -0.107310        4.1073     1.16561     2.94170
    5          C          -0.095169        4.0952     1.15962     2.93554
    6          C          -0.099677        4.0997     1.16033     2.93935
    7          C          -0.074080        4.0741     1.15404     2.92004
    8          C          -0.121664        4.1217     1.14243     2.97924
    9          C          -0.133438        4.1334     1.20090     2.93254
   10          C          -0.126055        4.1261     1.19505     2.93100
   11          C          -0.105551        4.1056     1.17814     2.92741
   12          C          -0.121978        4.1220     1.17830     2.94368
   13          H           0.064575        0.9354     0.93543
   14          H           0.053699        0.9463     0.94630
   15          H           0.057762        0.9422     0.94224
   16          H           0.047809        0.9522     0.95219
   17          H           0.050212        0.9498     0.94979
   18          H           0.048707        0.9513     0.95129
   19          H           0.051234        0.9488     0.94877
   20          H           0.052284        0.9477     0.94772
   21          H           0.054401        0.9456     0.94560
   22          H           0.071110        0.9289     0.92889
   23          H           0.063736        0.9363     0.93626
   24          H           0.044978        0.9550     0.95502
   25          H           0.038736        0.9613     0.96126
   26          H           0.049485        0.9505     0.95051
   27          H           0.100899        0.8991     0.89910
   28          H           0.097021        0.9030     0.90298
   29          H           0.100308        0.8997     0.89969
   30          H           0.102184        0.8978     0.89782
 DIPOLE           X         Y         Z       TOTAL
 POINT-CHG.     0.342    -0.229     0.156     0.440
 HYBRID        -0.028    -0.000    -0.020     0.035
 SUM            0.313    -0.229     0.137     0.412


          ATOMIC ORBITAL ELECTRON POPULATIONS

     Atom    s        px        py        pz   
    1  C   1.18132   0.93708   0.94095   0.93844
    2  C   1.18135   0.95867   0.95735   0.97261
    3  C   1.16881   0.97009   0.98780   0.96975
    4  C   1.16561   0.97553   0.99036   0.97581
    5  C   1.15962   0.96936   0.98001   0.98618
    6  C   1.16033   0.97676   0.97297   0.98962
    7  C   1.15404   0.93749   0.98315   0.99940
    8  C   1.14243   0.99837   0.98519   0.99568
    9  C   1.20090   0.95861   0.98959   0.98435
   10  C   1.19505   0.96425   0.98428   0.98248
   11  C   1.17814   0.95429   0.99866   0.97446
   12  C   1.17830   0.98281   0.99537   0.96550
   13  H   0.93543
   14  H   0.94630
   15  H   0.94224
   16  H   0.95219
   17  H   0.94979
   18  H   0.95129
   19  H   0.94877
   20  H   0.94772
   21  H   0.94560
   22  H   0.92889
   23  H   0.93626
   24  H   0.95502
   25  H   0.96126
   26  H   0.95051
   27  H   0.89910
   28  H   0.90298
   29  H   0.89969
   30  H   0.89782
 *******************************************************************************
 ** Site#: 14399        For non-commercial use only    Version 18.184L 64BITS **
 *******************************************************************************
 ** Cite this program as: MOPAC2016, Version: 18.184L, James J. P. Stewart,   **
 ** Stewart Computational Chemistry, web: HTTP://OpenMOPAC.net. Days left:  18**
 *******************************************************************************
 **                                                                           **
 **                                MOPAC2016                                  **
 **                                                                           **
 *******************************************************************************

                              PM3 CALCULATION RESULTS

 *******************************************************************************
 *  CALCULATION DONE:                                Sat Jun 15 10:10:36 2019  *
 *  PM3        - The PM3 Hamiltonian to be used
 *  OLDGEO     - PREVIOUS GEOMETRY TO BE USED
 *  PRECISE    - CRITERIA TO BE INCREASED BY 100 TIMES
 *  NOSYM      - POINT-GROUP SYMMETRY SET TO C1
 *  THREADS=1  - MULTI-THREADING NOT USED
 *  T=         - A TIME OF 172800.0 SECONDS REQUESTED
 *  DUMP=N     - RESTART FILE WRITTEN EVERY  7200.000 SECONDS
 *  THERMO     - THERMODYNAMIC QUANTITIES TO BE CALCULATED
 *******************************************************************************
oldgeo thermo nosym precise THREADS=1  pm3
 InChI=1S/C12H18/c1-11-7-3-6-10-12(11)8-4-2-5-9-12/h2,4-5,8,11H,3,6-7,9-10H2,1H3

   ATOM   CHEMICAL          X               Y               Z
  NUMBER   SYMBOL      (ANGSTROMS)     (ANGSTROMS)     (ANGSTROMS)
 
     1       C         -0.21701845  *  -0.05894981  *  -0.50797549  *
     2       C          0.67760306  *   0.94080616  *   0.27950058  *
     3       C          0.71154157  *  -0.95106687  *  -1.36423246  *
     4       C          1.68912210  *   0.18046609  *   1.13793565  *
     5       C          2.59016294  *  -0.68883014  *   0.27801897  *
     6       C          1.76541091  *  -1.67062477  *  -0.53766182  *
     7       C         -1.04860054  *  -0.94725468  *   0.43942270  *
     8       C         -0.12282230  *   1.89970767  *   1.14346995  *
     9       C         -1.07710489  *   0.73227431  *  -1.45605506  *
    10       C         -2.45124407  *  -0.51830911  *   0.66483651  *
    11       C         -2.39266494  *   0.90848941  *  -1.28696249  *
    12       C         -3.08535006  *   0.33148544  *  -0.15165147  *
    13       H          1.23932506  *   1.54516515  *  -0.47689519  *
    14       H          2.29385009  *   0.89094136  *   1.73296990  *
    15       H          1.13624528  *  -0.45000017  *   1.87154398  *
    16       H          3.31266622  *  -1.23483225  *   0.91447235  *
    17       H          3.19990297  *  -0.05365494  *  -0.39525314  *
    18       H          2.42466708  *  -2.25967233  *  -1.20418146  *
    19       H          1.28349020  *  -2.40811453  *   0.13600795  *
    20       H          1.21449120  *  -0.32753616  *  -2.13200263  *
    21       H          0.10445626  *  -1.68730788  *  -1.92711507  *
    22       H         -0.51745746  *  -1.02272391  *   1.41756461  *
    23       H         -1.09607307  *  -1.98651231  *   0.04911843  *
    24       H         -0.67600497  *   1.37462749  *   1.93458956  *
    25       H          0.53176369  *   2.63454315  *   1.63001660  *
    26       H         -0.85858144  *   2.45245326  *   0.54347087  *
    27       H         -0.55716107  *   1.19086784  *  -2.30611398  *
    28       H         -2.96129411  *  -0.96309211  *   1.52636864  *
    29       H         -2.98363988  *   1.49847389  *  -1.99512532  *
    30       H         -4.12952289  *   0.61666435  *   0.00968436  *
 


          CARTESIAN COORDINATES 

    NO.       ATOM           X           Y           Z

     1         C         -0.2170     -0.0589     -0.5080
     2         C          0.6776      0.9408      0.2795
     3         C          0.7115     -0.9511     -1.3642
     4         C          1.6891      0.1805      1.1379
     5         C          2.5902     -0.6888      0.2780
     6         C          1.7654     -1.6706     -0.5377
     7         C         -1.0486     -0.9473      0.4394
     8         C         -0.1228      1.8997      1.1435
     9         C         -1.0771      0.7323     -1.4561
    10         C         -2.4512     -0.5183      0.6648
    11         C         -2.3927      0.9085     -1.2870
    12         C         -3.0854      0.3315     -0.1517
    13         H          1.2393      1.5452     -0.4769
    14         H          2.2939      0.8909      1.7330
    15         H          1.1362     -0.4500      1.8715
    16         H          3.3127     -1.2348      0.9145
    17         H          3.1999     -0.0537     -0.3953
    18         H          2.4247     -2.2597     -1.2042
    19         H          1.2835     -2.4081      0.1360
    20         H          1.2145     -0.3275     -2.1320
    21         H          0.1045     -1.6873     -1.9271
    22         H         -0.5175     -1.0227      1.4176
    23         H         -1.0961     -1.9865      0.0491
    24         H         -0.6760      1.3746      1.9346
    25         H          0.5318      2.6345      1.6300
    26         H         -0.8586      2.4525      0.5435
    27         H         -0.5572      1.1909     -2.3061
    28         H         -2.9613     -0.9631      1.5264
    29         H         -2.9836      1.4985     -1.9951
    30         H         -4.1295      0.6167      0.0097

  H: (PM3): J. J. P. STEWART, J. COMP. CHEM. 10, 209 (1989).
  C: (PM3): J. J. P. STEWART, J. COMP. CHEM. 10, 209 (1989).

           Empirical Formula: C12 H18  =    30 atoms



      MOLECULAR POINT GROUP   :   C1  


      RHF CALCULATION, NO. OF DOUBLY OCCUPIED LEVELS = 33



          HEAT OF FORMATION =       0.016138 KCALS/MOLE


          CARTESIAN COORDINATE DERIVATIVES

   NUMBER  ATOM         X            Y            Z

     1       C      0.003223     0.005499     0.001620
     2       C      0.002912     0.004388    -0.002390
     3       C      0.000766     0.002142     0.000030
     4       C     -0.001509     0.001996    -0.002983
     5       C      0.000969     0.002723    -0.000464
     6       C      0.001873     0.002802     0.001977
     7       C      0.009437    -0.001448     0.007100
     8       C     -0.000272     0.001054    -0.001773
     9       C     -0.005971     0.002905    -0.002099
    10       C     -0.000383     0.002175     0.000436
    11       C      0.004251     0.002196    -0.003953
    12       C      0.004851    -0.003294     0.001542
    13       H      0.001551     0.001346    -0.001836
    14       H     -0.006625    -0.004602    -0.002125
    15       H     -0.009406    -0.006466    -0.001273
    16       H      0.006301     0.009841     0.001662
    17       H      0.003848    -0.001254     0.001859
    18       H     -0.002491     0.000552    -0.004243
    19       H     -0.000688    -0.005674     0.001987
    20       H      0.003271     0.004641    -0.000023
    21       H      0.006806     0.001116     0.006946
    22       H      0.005250    -0.001273    -0.000037
    23       H     -0.000660    -0.007575     0.003435
    24       H     -0.017409    -0.008787    -0.002655
    25       H      0.006155     0.010195    -0.001779
    26       H      0.006028    -0.001770     0.001653
    27       H     -0.009767    -0.004949     0.001308
    28       H      0.000138    -0.001815    -0.000037
    29       H     -0.015381    -0.002855    -0.005671
    30       H      0.002933    -0.003809     0.001788
 


          GRADIENT NORM =   0.04533


          TIME FOR SCF CALCULATION =    0.00

          TIME FOR DERIVATIVES     =    0.01

          MOLECULAR WEIGHT =  162.27



          ROTATIONAL CONSTANTS IN CM(-1)

          A =    0.05520000   B =    0.02548245   C =    0.02302838



           PRINCIPAL MOMENTS OF INERTIA IN UNITS OF 10**(-40)*GRAM-CM**2

          A =      507.1155   B =     1098.5117   C =     1215.5775


          ORIENTATION OF MOLECULE IN FORCE CALCULATION

    NO.       ATOM         X         Y         Z

     1          C      -0.2643    0.1886    0.2688
     2          C       1.2913    0.1886    0.2688
     3          C      -0.7371    1.6609    0.2688
     4          C       1.8189    0.9574   -0.9431
     5          C       1.3431    2.3997   -0.9235
     6          C      -0.1750    2.4613   -0.8952
     7          C      -0.8338   -0.5315   -0.9702
     8          C       1.8846   -1.2092    0.2981
     9          C      -0.7304   -0.4315    1.5584
    10          C      -1.2507   -1.9409   -0.7657
    11          C      -1.2881   -1.6454    1.6343
    12          C      -1.4826   -2.4554    0.4477
    13          H       1.6199    0.7221    1.1964
    14          H       2.9245    0.9173   -0.9677
    15          H       1.4672    0.4512   -1.8711
    16          H       1.7299    2.9403   -1.8086
    17          H       1.7612    2.9252   -0.0417
    18          H      -0.5119    3.5135   -0.8221
    19          H      -0.5851    2.0808   -1.8528
    20          H      -0.4358    2.1436    1.2215
    21          H      -1.8443    1.6960    0.2525
    22          H      -0.0818   -0.4781   -1.7925
    23          H      -1.7266    0.0086   -1.3522
    24          H       1.6295   -1.7819   -0.6044
    25          H       2.9796   -1.1729    0.3678
    26          H       1.5130   -1.7785    1.1610
    27          H      -0.5669    0.1653    2.4640
    28          H      -1.3938   -2.5401   -1.6717
    29          H      -1.6073   -2.0663    2.5934
    30          H      -1.8181   -3.4883    0.5826


    FIRST DERIVATIVES WILL BE USED IN THE CALCULATION OF SECOND DERIVATIVES

          ESTIMATED TIME TO COMPLETE CALCULATION =        4.22 SECONDS

    FOR POINT-GROUP C1   THERE ARE   1 UNIQUE SYMMETRY FUNCTIONS.

 STEP:   1 TIME =     0.04 SECS, INTEGRAL =      0.04 TIME LEFT: 172799.95
 STEP:   2 TIME =     0.04 SECS, INTEGRAL =      0.07 TIME LEFT: 172799.92
 STEP:   3 TIME =     0.04 SECS, INTEGRAL =      0.11 TIME LEFT: 172799.88
 STEP:   4 TIME =     0.04 SECS, INTEGRAL =      0.14 TIME LEFT: 172799.85
 STEP:   5 TIME =     0.04 SECS, INTEGRAL =      0.18 TIME LEFT: 172799.81
 STEP:   6 TIME =     0.04 SECS, INTEGRAL =      0.21 TIME LEFT: 172799.78
 STEP:   7 TIME =     0.04 SECS, INTEGRAL =      0.25 TIME LEFT: 172799.74
 STEP:   8 TIME =     0.04 SECS, INTEGRAL =      0.28 TIME LEFT: 172799.71
 STEP:   9 TIME =     0.04 SECS, INTEGRAL =      0.32 TIME LEFT: 172799.67
 STEP:  10 TIME =     0.04 SECS, INTEGRAL =      0.35 TIME LEFT: 172799.64
 STEP:  11 TIME =     0.04 SECS, INTEGRAL =      0.39 TIME LEFT: 172799.60
 STEP:  12 TIME =     0.04 SECS, INTEGRAL =      0.42 TIME LEFT: 172799.57
 STEP:  13 TIME =     0.04 SECS, INTEGRAL =      0.46 TIME LEFT: 172799.53
 STEP:  14 TIME =     0.04 SECS, INTEGRAL =      0.49 TIME LEFT: 172799.50
 STEP:  15 TIME =     0.04 SECS, INTEGRAL =      0.53 TIME LEFT: 172799.46
 STEP:  16 TIME =     0.04 SECS, INTEGRAL =      0.56 TIME LEFT: 172799.43
 STEP:  17 TIME =     0.04 SECS, INTEGRAL =      0.60 TIME LEFT: 172799.39
 STEP:  18 TIME =     0.03 SECS, INTEGRAL =      0.63 TIME LEFT: 172799.36
 STEP:  19 TIME =     0.03 SECS, INTEGRAL =      0.66 TIME LEFT: 172799.33
 STEP:  20 TIME =     0.03 SECS, INTEGRAL =      0.69 TIME LEFT: 172799.30
 STEP:  21 TIME =     0.04 SECS, INTEGRAL =      0.73 TIME LEFT: 172799.26
 STEP:  22 TIME =     0.04 SECS, INTEGRAL =      0.76 TIME LEFT: 172799.23
 STEP:  23 TIME =     0.04 SECS, INTEGRAL =      0.80 TIME LEFT: 172799.19
 STEP:  24 TIME =     0.04 SECS, INTEGRAL =      0.83 TIME LEFT: 172799.16
 STEP:  25 TIME =     0.04 SECS, INTEGRAL =      0.87 TIME LEFT: 172799.12
 STEP:  26 TIME =     0.04 SECS, INTEGRAL =      0.90 TIME LEFT: 172799.09
 STEP:  27 TIME =     0.04 SECS, INTEGRAL =      0.94 TIME LEFT: 172799.05
 STEP:  28 TIME =     0.04 SECS, INTEGRAL =      0.97 TIME LEFT: 172799.02
 STEP:  29 TIME =     0.04 SECS, INTEGRAL =      1.01 TIME LEFT: 172798.98
 STEP:  30 TIME =     0.04 SECS, INTEGRAL =      1.04 TIME LEFT: 172798.95
 STEP:  31 TIME =     0.04 SECS, INTEGRAL =      1.08 TIME LEFT: 172798.91
 STEP:  32 TIME =     0.04 SECS, INTEGRAL =      1.12 TIME LEFT: 172798.87
 STEP:  33 TIME =     0.04 SECS, INTEGRAL =      1.15 TIME LEFT: 172798.84
 STEP:  34 TIME =     0.04 SECS, INTEGRAL =      1.19 TIME LEFT: 172798.80
 STEP:  35 TIME =     0.03 SECS, INTEGRAL =      1.22 TIME LEFT: 172798.77
 STEP:  36 TIME =     0.04 SECS, INTEGRAL =      1.25 TIME LEFT: 172798.73
 STEP:  37 TIME =     0.04 SECS, INTEGRAL =      1.29 TIME LEFT: 172798.70
 STEP:  38 TIME =     0.04 SECS, INTEGRAL =      1.32 TIME LEFT: 172798.66
 STEP:  39 TIME =     0.04 SECS, INTEGRAL =      1.36 TIME LEFT: 172798.63
 STEP:  40 TIME =     0.03 SECS, INTEGRAL =      1.39 TIME LEFT: 172798.60
 STEP:  41 TIME =     0.04 SECS, INTEGRAL =      1.43 TIME LEFT: 172798.56
 STEP:  42 TIME =     0.04 SECS, INTEGRAL =      1.46 TIME LEFT: 172798.53
 STEP:  43 TIME =     0.04 SECS, INTEGRAL =      1.50 TIME LEFT: 172798.49
 STEP:  44 TIME =     0.04 SECS, INTEGRAL =      1.53 TIME LEFT: 172798.46
 STEP:  45 TIME =     0.04 SECS, INTEGRAL =      1.57 TIME LEFT: 172798.42
 STEP:  46 TIME =     0.04 SECS, INTEGRAL =      1.61 TIME LEFT: 172798.38
 STEP:  47 TIME =     0.04 SECS, INTEGRAL =      1.64 TIME LEFT: 172798.35
 STEP:  48 TIME =     0.04 SECS, INTEGRAL =      1.68 TIME LEFT: 172798.31
 STEP:  49 TIME =     0.04 SECS, INTEGRAL =      1.71 TIME LEFT: 172798.28
 STEP:  50 TIME =     0.04 SECS, INTEGRAL =      1.75 TIME LEFT: 172798.24
 STEP:  51 TIME =     0.04 SECS, INTEGRAL =      1.79 TIME LEFT: 172798.20
 STEP:  52 TIME =     0.04 SECS, INTEGRAL =      1.82 TIME LEFT: 172798.16
 STEP:  53 TIME =     0.04 SECS, INTEGRAL =      1.86 TIME LEFT: 172798.13
 STEP:  54 TIME =     0.04 SECS, INTEGRAL =      1.89 TIME LEFT: 172798.09
 STEP:  55 TIME =     0.04 SECS, INTEGRAL =      1.93 TIME LEFT: 172798.06
 STEP:  56 TIME =     0.04 SECS, INTEGRAL =      1.97 TIME LEFT: 172798.02
 STEP:  57 TIME =     0.04 SECS, INTEGRAL =      2.00 TIME LEFT: 172797.98
 STEP:  58 TIME =     0.04 SECS, INTEGRAL =      2.04 TIME LEFT: 172797.95
 STEP:  59 TIME =     0.04 SECS, INTEGRAL =      2.07 TIME LEFT: 172797.91
 STEP:  60 TIME =     0.04 SECS, INTEGRAL =      2.11 TIME LEFT: 172797.88
 STEP:  61 TIME =     0.04 SECS, INTEGRAL =      2.14 TIME LEFT: 172797.84
 STEP:  62 TIME =     0.04 SECS, INTEGRAL =      2.18 TIME LEFT: 172797.81
 STEP:  63 TIME =     0.04 SECS, INTEGRAL =      2.22 TIME LEFT: 172797.77
 STEP:  64 TIME =     0.04 SECS, INTEGRAL =      2.25 TIME LEFT: 172797.73
 STEP:  65 TIME =     0.04 SECS, INTEGRAL =      2.29 TIME LEFT: 172797.70
 STEP:  66 TIME =     0.04 SECS, INTEGRAL =      2.33 TIME LEFT: 172797.66
 STEP:  67 TIME =     0.04 SECS, INTEGRAL =      2.36 TIME LEFT: 172797.62
 STEP:  68 TIME =     0.04 SECS, INTEGRAL =      2.40 TIME LEFT: 172797.59
 STEP:  69 TIME =     0.04 SECS, INTEGRAL =      2.43 TIME LEFT: 172797.55
 STEP:  70 TIME =     0.04 SECS, INTEGRAL =      2.47 TIME LEFT: 172797.52
 STEP:  71 TIME =     0.04 SECS, INTEGRAL =      2.50 TIME LEFT: 172797.48
 STEP:  72 TIME =     0.04 SECS, INTEGRAL =      2.54 TIME LEFT: 172797.45
 STEP:  73 TIME =     0.04 SECS, INTEGRAL =      2.57 TIME LEFT: 172797.41
 STEP:  74 TIME =     0.04 SECS, INTEGRAL =      2.61 TIME LEFT: 172797.38
 STEP:  75 TIME =     0.04 SECS, INTEGRAL =      2.64 TIME LEFT: 172797.34
 STEP:  76 TIME =     0.04 SECS, INTEGRAL =      2.68 TIME LEFT: 172797.31
 STEP:  77 TIME =     0.04 SECS, INTEGRAL =      2.71 TIME LEFT: 172797.27
 STEP:  78 TIME =     0.04 SECS, INTEGRAL =      2.75 TIME LEFT: 172797.24
 STEP:  79 TIME =     0.04 SECS, INTEGRAL =      2.79 TIME LEFT: 172797.20
 STEP:  80 TIME =     0.04 SECS, INTEGRAL =      2.82 TIME LEFT: 172797.17
 STEP:  81 TIME =     0.03 SECS, INTEGRAL =      2.85 TIME LEFT: 172797.14
 STEP:  82 TIME =     0.04 SECS, INTEGRAL =      2.89 TIME LEFT: 172797.10
 STEP:  83 TIME =     0.04 SECS, INTEGRAL =      2.92 TIME LEFT: 172797.07
 STEP:  84 TIME =     0.04 SECS, INTEGRAL =      2.96 TIME LEFT: 172797.03
 STEP:  85 TIME =     0.04 SECS, INTEGRAL =      2.99 TIME LEFT: 172797.00
 STEP:  86 TIME =     0.04 SECS, INTEGRAL =      3.03 TIME LEFT: 172796.96
 STEP:  87 TIME =     0.04 SECS, INTEGRAL =      3.06 TIME LEFT: 172796.93
 STEP:  88 TIME =     0.04 SECS, INTEGRAL =      3.10 TIME LEFT: 172796.89
 STEP:  89 TIME =     0.04 SECS, INTEGRAL =      3.13 TIME LEFT: 172796.86
 STEP:  90 TIME =     0.04 SECS, INTEGRAL =      3.17 TIME LEFT: 172796.82

(To convert to Hartree/Bohr^2, multiply by (10^(-21) x N x a0^2)/(4.184 x 627.51) =  0.0642)


           FORCE MATRIX IN MILLIDYNES/ANGSTROM


                  C  1       C  2       C  3       C  4       C  5       C  6
 ------------------------------------------------------------------------------
     C    1  14.109841
     C    2   3.064853  14.138438
     C    3   3.365724   0.636705  14.220551
     C    4   0.611365   3.872211   0.061483  14.359217
     C    5   0.049999   0.651713   0.665497   4.221308  14.440785
     C    6   0.583216   0.055881   4.167621   0.682995   4.200586  14.377048
     C    7   3.506481   0.550642   0.610796   0.080551   0.008961   0.055188
     C    8   0.557488   4.220256   0.050629   0.667222   0.054340   0.002494
     C    9   4.370237   0.680343   0.727011   0.048455   0.003154   0.050910
     C   10   0.591690   0.020925   0.043526   0.003259   0.001330   0.003513
     C   11   0.764261   0.040407   0.044854   0.007647   0.001246   0.008665
     C   12   0.110063   0.019591   0.012005   0.002768   0.000750   0.002000
     H   13   0.428792   4.160801   0.036167   0.427394   0.031575   0.005913
     H   14   0.047812   0.441613   0.002783   4.501484   0.434474   0.050865
     H   15   0.024021   0.448786   0.005417   4.255594   0.444336   0.022413
     H   16   0.003904   0.049585   0.051094   0.434226   4.493893   0.435623
     H   17   0.005032   0.023203   0.017991   0.445414   4.444733   0.444990
     H   18   0.048384   0.003531   0.433588   0.051144   0.434718   4.487100
     H   19   0.014265   0.004559   0.445540   0.019366   0.443753   4.419698
     H   20   0.441346   0.026098   4.408872   0.005041   0.019916   0.440313
     H   21   0.441740   0.045857   4.467826   0.003129   0.050646   0.434489
     H   22   0.441705   0.071434   0.015243   0.111972   0.004203   0.008372
     H   23   0.447238   0.039564   0.088958   0.003601   0.001267   0.015986
     H   24   0.013378   0.468738   0.001337   0.024003   0.001637   0.000573
     H   25   0.048279   0.456191   0.008688   0.029325   0.001863   0.000942
     H   26   0.023295   0.456595   0.002014   0.049801   0.009274   0.000900
     H   27   0.432930   0.018042   0.048990   0.001833   0.000737   0.002116
     H   28   0.043619   0.003645   0.007259   0.000785   0.000492   0.000981
     H   29   0.116575   0.017097   0.014497   0.002822   0.000301   0.002660
     H   30   0.004546   0.000773   0.000565   0.000494   0.000363   0.000457


                  C  7       C  8       C  9       C 10       C 11       C 12
 ------------------------------------------------------------------------------
     C    7  14.491507
     C    8   0.048020  14.365145
     C    9   0.602840   0.059348  18.055366
     C   10   5.025312   0.021235   0.160964  18.078335
     C   11   0.124102   0.027514  10.350800   1.157289  18.450819
     C   12   0.867990   0.013560   1.126091  10.332601   5.712533  18.476380
     H   13   0.043382   0.415744   0.044661   0.002654   0.002321   0.001596
     H   14   0.006356   0.038393   0.008664   0.001427   0.001809   0.001118
     H   15   0.084147   0.024857   0.001879   0.002168   0.000825   0.001389
     H   16   0.000502   0.009509   0.001174   0.000409   0.000342   0.000309
     H   17   0.000375   0.001704   0.000429   0.000789   0.000465   0.000359
     H   18   0.003283   0.000766   0.009120   0.000596   0.002033   0.000678
     H   19   0.020438   0.000440   0.001122   0.001100   0.000534   0.000904
     H   20   0.043651   0.001411   0.062375   0.006721   0.002565   0.000900
     H   21   0.034990   0.008704   0.022192   0.001825   0.002191   0.001416
     H   22   4.205913   0.014005   0.040005   0.433291   0.010864   0.044747
     H   23   4.339077   0.002617   0.013919   0.399331   0.017416   0.035306
     H   24   0.017269   4.698183   0.003019   0.008642   0.002439   0.002766
     H   25   0.002798   4.734658   0.003566   0.001693   0.000967   0.000951
     H   26   0.003104   4.716422   0.023015   0.002671   0.012935   0.004036
     H   27   0.040404   0.002402   4.784349   0.013377   0.441064   0.125816
     H   28   0.425316   0.001144   0.011840   4.831730   0.124536   0.443861
     H   29   0.003744   0.000742   0.442788   0.047125   4.852240   0.432713
     H   30   0.117572   0.000439   0.047088   0.446521   0.433591   4.869019


                  H 13       H 14       H 15       H 16       H 17       H 18
 ------------------------------------------------------------------------------
     H   13   4.649450
     H   14   0.025638   5.109093
     H   15   0.043539   0.540036   4.916400
     H   16   0.002031   0.031576   0.028987   5.111823
     H   17   0.021618   0.029464   0.045089   0.565201   5.063308
     H   18   0.000312   0.008312   0.002114   0.029470   0.031612   5.104773
     H   19   0.000731   0.001902   0.013853   0.032312   0.045535   0.566995
     H   20   0.025288   0.000261   0.000722   0.001917   0.011504   0.033966
     H   21   0.001778   0.000295   0.000359   0.008264   0.001745   0.032034
     H   22   0.002870   0.003430   0.122302   0.000740   0.000806   0.000737
     H   23   0.006434   0.000349   0.001385   0.000393   0.000385   0.000743
     H   24   0.045301   0.002067   0.017815   0.000426   0.000439   0.000251
     H   25   0.032926   0.026205   0.001605   0.000441   0.000289   0.000281
     H   26   0.029985   0.001822   0.001492   0.001805   0.000399   0.000252
     H   27   0.016990   0.000494   0.000784   0.000434   0.000244   0.000489
     H   28   0.000884   0.000183   0.000422   0.000127   0.000145   0.000196
     H   29   0.000636   0.000587   0.000188   0.000183   0.000121   0.000524
     H   30   0.000260   0.000152   0.000290   0.000124   0.000091   0.000127


                  H 19       H 20       H 21       H 22       H 23       H 24
 ------------------------------------------------------------------------------
     H   19   5.044431
     H   20   0.045263   5.032073
     H   21   0.031306   0.564669   5.087269
     H   22   0.013279   0.002058   0.001423   4.883767
     H   23   0.026055   0.002553   0.028405   0.561467   4.937800
     H   24   0.000159   0.000458   0.000320   0.026053   0.000694   5.441460
     H   25   0.000108   0.000363   0.001693   0.000922   0.000276   0.567225
     H   26   0.000159   0.000338   0.000519   0.001031   0.000447   0.573420
     H   27   0.000753   0.028694   0.002972   0.006799   0.004865   0.000537
     H   28   0.000271   0.001469   0.000455   0.036222   0.022729   0.001051
     H   29   0.000143   0.000492   0.000385   0.000885   0.000810   0.000206
     H   30   0.000208   0.000269   0.000286   0.013053   0.016443   0.000477


                  H 25       H 26       H 27       H 28       H 29       H 30
 ------------------------------------------------------------------------------
     H   25   5.467808
     H   26   0.559115   5.445726
     H   27   0.000397   0.001734   5.166283
     H   28   0.000501   0.000467   0.009214   5.207369
     H   29   0.000292   0.001091   0.067094   0.007360   5.217531
     H   30   0.000153   0.000667   0.007248   0.064154   0.031560   5.238552


          HEAT OF FORMATION =       0.016138 KCALS/MOLE

          ZERO POINT ENERGY     169.235 KCAL/MOL


           NORMAL COORDINATE ANALYSIS (Total motion = 1 Angstrom)


   Root No.       1         2         3         4         5         6         7         8

                 1 A       2 A       3 A       4 A       5 A       6 A       7 A       8 A   

                  86.8     129.8     179.4     190.8     201.7     278.9     303.4     340.6
  
           1   -0.0153    0.0008   -0.0117    0.0025   -0.0015   -0.0040    0.0088    0.0006
           2    0.0123    0.0033    0.0028    0.0011   -0.0060   -0.0036    0.0026   -0.0015
           3    0.0019    0.0100   -0.0105    0.0076   -0.0090    0.0046   -0.0002   -0.0027
           4   -0.0154    0.0008   -0.0106    0.0023   -0.0021   -0.0009    0.0075    0.0021
           5   -0.0084    0.0072    0.0036   -0.0025    0.0030   -0.0004   -0.0066   -0.0225
           6   -0.0006    0.0080   -0.0001    0.0036   -0.0150   -0.0014   -0.0115    0.0066
           7    0.0018    0.0122   -0.0123    0.0089   -0.0002    0.0136   -0.0138   -0.0122
           8    0.0172    0.0067    0.0025    0.0029   -0.0039    0.0046   -0.0062   -0.0058
           9   -0.0002    0.0213   -0.0189    0.0117    0.0009   -0.0023   -0.0002    0.0014
          10   -0.0068   -0.0058   -0.0012    0.0027   -0.0179   -0.0016   -0.0109   -0.0086
          11   -0.0134   -0.0164   -0.0043   -0.0000   -0.0092    0.0021   -0.0119   -0.0192
          12   -0.0001   -0.0101    0.0010    0.0047   -0.0301   -0.0015   -0.0214    0.0055
          13    0.0109   -0.0076    0.0130   -0.0081    0.0128    0.0106   -0.0118   -0.0156
          14   -0.0077   -0.0163    0.0000   -0.0035    0.0001    0.0047   -0.0109   -0.0223
          15    0.0012   -0.0375    0.0131   -0.0153    0.0024    0.0177    0.0286    0.0055
          16    0.0116   -0.0068    0.0128   -0.0082    0.0143    0.0095   -0.0135   -0.0141
          17    0.0096   -0.0049    0.0084   -0.0095    0.0289   -0.0192   -0.0174    0.0008
          18   -0.0007    0.0035   -0.0043   -0.0045    0.0306   -0.0228   -0.0063    0.0103
          19   -0.0249   -0.0062   -0.0133    0.0016   -0.0053   -0.0345    0.0006    0.0118
          20    0.0149    0.0188   -0.0011    0.0064   -0.0137    0.0089    0.0146    0.0085
          21    0.0054    0.0038   -0.0075    0.0055   -0.0027    0.0122   -0.0032   -0.0138
          22   -0.0345    0.0064   -0.0063    0.0029    0.0194    0.0390   -0.0061    0.0368
          23   -0.0168    0.0111    0.0065   -0.0032    0.0142    0.0178   -0.0114   -0.0115
          24   -0.0069    0.0437    0.0234   -0.0118    0.0148   -0.0047    0.0203   -0.0081
          25   -0.0219    0.0008    0.0110   -0.0055   -0.0076   -0.0133    0.0265   -0.0227
          26    0.0142   -0.0116   -0.0022    0.0010    0.0003   -0.0042    0.0037    0.0258
          27    0.0008    0.0023   -0.0051    0.0048   -0.0073    0.0012    0.0046   -0.0007
          28    0.0337   -0.0035   -0.0398    0.0080    0.0109   -0.0129    0.0196   -0.0156
          29   -0.0038    0.0158    0.0077    0.0040   -0.0186    0.0004    0.0114    0.0206
          30    0.0001   -0.0154   -0.0012   -0.0003    0.0045    0.0003   -0.0073   -0.0047
          31    0.0127    0.0049    0.0489   -0.0096   -0.0209   -0.0122    0.0008    0.0046
          32   -0.0020   -0.0147   -0.0189    0.0024    0.0068   -0.0056    0.0158    0.0155
          33   -0.0004   -0.0123    0.0040   -0.0004   -0.0010   -0.0021   -0.0027    0.0028
          34    0.0533    0.0036    0.0092    0.0017   -0.0037    0.0013   -0.0006    0.0283
          35   -0.0132   -0.0012   -0.0063    0.0022   -0.0078   -0.0103    0.0217    0.0135
          36   -0.0000   -0.0214    0.0022   -0.0023    0.0063   -0.0015   -0.0069    0.0005
          37   -0.0069    0.0004   -0.0212    0.0032   -0.0049   -0.0089    0.0176   -0.0006
          38   -0.0154    0.0302    0.0130   -0.0101    0.0236    0.0036    0.0056   -0.0264
          39    0.0002   -0.0048   -0.0012    0.0073   -0.0253   -0.0003   -0.0214    0.0095
          40   -0.0074   -0.0056   -0.0019    0.0031   -0.0196   -0.0025   -0.0122   -0.0078
          41   -0.0272   -0.0138   -0.0181    0.0074   -0.0342   -0.0096   -0.0186   -0.0080
          42   -0.0009   -0.0128   -0.0008    0.0147   -0.0635   -0.0143   -0.0491    0.0023
          43   -0.0139   -0.0050   -0.0097    0.0140   -0.0540   -0.0201   -0.0337   -0.0021
          44   -0.0073   -0.0341    0.0025   -0.0083    0.0058    0.0122    0.0061   -0.0221
          45   -0.0008   -0.0004    0.0004    0.0046   -0.0245   -0.0004   -0.0221    0.0047
          46    0.0184   -0.0307    0.0273   -0.0178    0.0063    0.0347    0.0110   -0.0145
          47   -0.0112   -0.0417    0.0083   -0.0164    0.0085    0.0264    0.0320   -0.0245
          48    0.0024   -0.0633    0.0245   -0.0275    0.0046    0.0420    0.0655    0.0045
          49    0.0160    0.0185    0.0070   -0.0049    0.0409   -0.0174   -0.0377   -0.0104
          50   -0.0138    0.0071   -0.0142    0.0138   -0.0238   -0.0145   -0.0514   -0.0249
          51    0.0024   -0.0638    0.0245   -0.0273    0.0034    0.0426    0.0656    0.0049
          52    0.0233    0.0051    0.0184   -0.0121    0.0388   -0.0156   -0.0244    0.0037
          53    0.0134   -0.0012    0.0099   -0.0100    0.0336   -0.0247   -0.0196    0.0055
          54   -0.0025    0.0065   -0.0004   -0.0153    0.0779   -0.0659   -0.0293    0.0286
          55    0.0078   -0.0349    0.0240   -0.0155   -0.0059    0.0378    0.0070   -0.0262
          56    0.0122   -0.0051    0.0185   -0.0233    0.0755   -0.0610   -0.0357    0.0229
          57   -0.0001    0.0156   -0.0131    0.0041    0.0208   -0.0185   -0.0079    0.0069
          58    0.0070    0.0388   -0.0354    0.0304   -0.0186    0.0355   -0.0242   -0.0223
          59    0.0147    0.0058    0.0007    0.0063   -0.0217    0.0125    0.0046   -0.0048
          60   -0.0005    0.0133   -0.0108    0.0032    0.0161   -0.0133   -0.0027    0.0044
          61    0.0022    0.0122   -0.0120    0.0088   -0.0001    0.0141   -0.0144   -0.0129
          62    0.0301    0.0172    0.0019    0.0084   -0.0044    0.0205   -0.0223   -0.0195
          63   -0.0009    0.0471   -0.0447    0.0334   -0.0185    0.0149   -0.0041   -0.0031
          64   -0.0478   -0.0125   -0.0012   -0.0004   -0.0150   -0.0571   -0.0159    0.0334
          65    0.0531    0.0258   -0.0244    0.0125   -0.0094    0.0345    0.0320   -0.0262
          66   -0.0130   -0.0010    0.0016    0.0042   -0.0105   -0.0065   -0.0164    0.0034
          67   -0.0539   -0.0092    0.0025   -0.0020   -0.0129   -0.0553   -0.0146    0.0389
          68   -0.0094    0.0233    0.0125    0.0045   -0.0208    0.0031    0.0052    0.0288
          69    0.0397    0.0174   -0.0252    0.0113    0.0055    0.0520    0.0178   -0.0478
          70   -0.0517   -0.0065    0.0588    0.1566    0.0669    0.0479    0.0092    0.0421
          71   -0.0117   -0.0171    0.0164    0.0689    0.0072    0.0115   -0.0210   -0.0149
          72   -0.0055    0.0654   -0.0009   -0.1008    0.0061   -0.0030    0.0225   -0.0073
          73   -0.0335    0.0073   -0.0113   -0.0089    0.0159    0.0390   -0.0077    0.0374
          74   -0.0325    0.0170    0.0123   -0.0021    0.0343    0.0531   -0.0209    0.0217
          75   -0.0166    0.0262    0.0985    0.1718    0.0603   -0.0155    0.0471   -0.0250
          76   -0.0352    0.0215   -0.0615   -0.1369   -0.0063    0.0665   -0.0331    0.0678
          77   -0.0128    0.0370   -0.0065   -0.0761    0.0115    0.0066    0.0049   -0.0266
          78   -0.0045    0.0674   -0.0085   -0.1198    0.0019   -0.0010    0.0200   -0.0056
          79   -0.0536   -0.0015    0.0126   -0.0112   -0.0079   -0.0261    0.0571   -0.0654
          80    0.0259   -0.0214    0.0010    0.0004    0.0037   -0.0021   -0.0071    0.0510
          81   -0.0014    0.0090   -0.0075    0.0062   -0.0094    0.0019    0.0061   -0.0096
          82    0.0599   -0.0071   -0.0933    0.0183    0.0331   -0.0075    0.0431   -0.0534
          83   -0.0084    0.0288    0.0214    0.0042   -0.0301    0.0056    0.0035    0.0252
          84   -0.0008   -0.0234   -0.0021   -0.0020    0.0086   -0.0038   -0.0056   -0.0020
          85    0.0102    0.0074    0.0938   -0.0205   -0.0376   -0.0228   -0.0052   -0.0086
          86   -0.0063   -0.0273   -0.0354    0.0033    0.0207   -0.0033    0.0145    0.0170
          87   -0.0032   -0.0170    0.0118   -0.0037   -0.0004   -0.0046   -0.0054   -0.0012
          88    0.0968    0.0072    0.0070    0.0054    0.0027    0.0223   -0.0059    0.0541
          89   -0.0272   -0.0039   -0.0056    0.0007   -0.0089   -0.0172    0.0233    0.0053
          90    0.0005   -0.0335    0.0023   -0.0052    0.0139   -0.0028   -0.0079    0.0021


   Root No.       9        10        11        12        13        14        15        16

                 9 A      10 A      11 A      12 A      13 A      14 A      15 A      16 A   

                 361.4     389.0     432.9     455.8     517.9     531.3     548.3     591.0
  
           1    0.0031   -0.0021    0.0161    0.0262   -0.0060   -0.0182   -0.0084   -0.0151
           2   -0.0019    0.0100   -0.0064   -0.0019   -0.0058   -0.0224    0.0185    0.0093
           3   -0.0100    0.0283    0.0098    0.0114   -0.0024    0.0008   -0.0005    0.0190
           4    0.0030   -0.0015    0.0173    0.0257   -0.0154   -0.0231   -0.0056   -0.0144
           5   -0.0006    0.0132    0.0153   -0.0171    0.0074   -0.0222   -0.0055   -0.0224
           6   -0.0128    0.0068   -0.0108    0.0163    0.0261   -0.0236   -0.0170   -0.0233
           7    0.0298   -0.0063   -0.0138    0.0159    0.0099    0.0108   -0.0097   -0.0147
           8    0.0067    0.0108   -0.0213    0.0023    0.0009   -0.0168    0.0310    0.0182
           9    0.0204   -0.0030   -0.0032   -0.0318   -0.0007   -0.0130    0.0009    0.0110
          10   -0.0058   -0.0218    0.0221   -0.0244   -0.0301   -0.0113    0.0204   -0.0029
          11    0.0105   -0.0116    0.0107    0.0100   -0.0087    0.0167   -0.0083    0.0111
          12   -0.0131   -0.0222   -0.0153    0.0087    0.0175   -0.0022   -0.0047   -0.0019
          13   -0.0060    0.0095    0.0074   -0.0146    0.0050    0.0084   -0.0106    0.0084
          14    0.0138   -0.0050    0.0058    0.0203   -0.0008    0.0276   -0.0183    0.0195
          15    0.0121    0.0018   -0.0054   -0.0040    0.0006   -0.0099    0.0050   -0.0061
          16   -0.0071    0.0095    0.0060   -0.0119    0.0055    0.0092   -0.0104    0.0083
          17   -0.0042   -0.0039   -0.0159    0.0382    0.0011    0.0022    0.0209   -0.0018
          18   -0.0020   -0.0108    0.0100   -0.0252   -0.0066   -0.0081   -0.0114    0.0065
          19    0.0137    0.0363   -0.0045    0.0004    0.0005    0.0043    0.0039   -0.0000
          20   -0.0134    0.0002    0.0061    0.0006   -0.0085    0.0205    0.0061   -0.0181
          21   -0.0102    0.0171    0.0105    0.0227   -0.0130   -0.0230    0.0071    0.0201
          22   -0.0141   -0.0064   -0.0150    0.0073   -0.0081    0.0041    0.0055    0.0111
          23   -0.0058    0.0120    0.0045   -0.0327    0.0128   -0.0138   -0.0026   -0.0217
          24    0.0135   -0.0160    0.0019    0.0134   -0.0061    0.0079   -0.0010    0.0051
          25   -0.0149   -0.0195    0.0003    0.0020    0.0370   -0.0070    0.0139    0.0094
          26    0.0084   -0.0070   -0.0056   -0.0049   -0.0088   -0.0250   -0.0208    0.0174
          27   -0.0125    0.0174    0.0075    0.0023    0.0077    0.0210   -0.0080    0.0271
          28   -0.0132    0.0069   -0.0257   -0.0089   -0.0120    0.0140   -0.0027   -0.0072
          29   -0.0063    0.0095    0.0122    0.0003   -0.0041    0.0306    0.0060   -0.0227
          30    0.0021    0.0021    0.0008    0.0004   -0.0108    0.0098    0.0167   -0.0223
          31    0.0006    0.0007   -0.0240   -0.0042   -0.0170   -0.0156   -0.0187    0.0052
          32    0.0024   -0.0195    0.0044   -0.0048    0.0171   -0.0210   -0.0082    0.0169
          33   -0.0018    0.0018   -0.0015   -0.0088   -0.0046    0.0382   -0.0009   -0.0204
          34    0.0105   -0.0051    0.0278    0.0001    0.0219    0.0087    0.0026    0.0025
          35   -0.0095   -0.0051   -0.0116   -0.0136    0.0030    0.0214   -0.0213   -0.0001
          36    0.0053   -0.0071    0.0005   -0.0045   -0.0021    0.0065    0.0063   -0.0133
          37    0.0074    0.0202    0.0230    0.0400   -0.0201   -0.0299   -0.0041   -0.0039
          38    0.0028    0.0189    0.0227   -0.0274    0.0043   -0.0221   -0.0055   -0.0278
          39   -0.0159   -0.0055   -0.0174    0.0162    0.0295   -0.0201   -0.0165   -0.0231
          40   -0.0066   -0.0237    0.0221   -0.0258   -0.0320   -0.0110    0.0236   -0.0024
          41    0.0078   -0.0419    0.0152    0.0110   -0.0384    0.0096    0.0252    0.0090
          42   -0.0244   -0.0624   -0.0129   -0.0332   -0.0130    0.0229    0.0461    0.0221
          43   -0.0152   -0.0573    0.0226   -0.0560   -0.0622    0.0071    0.0725    0.0146
          44    0.0230   -0.0004    0.0083    0.0128   -0.0090    0.0372   -0.0180    0.0271
          45   -0.0161   -0.0150   -0.0139    0.0185    0.0283   -0.0198   -0.0174   -0.0167
          46    0.0028    0.0245   -0.0141    0.0106    0.0164    0.0046    0.0152   -0.0140
          47    0.0369    0.0116    0.0152    0.0094   -0.0223    0.0162    0.0049    0.0002
          48    0.0307    0.0188   -0.0093    0.0003   -0.0075   -0.0192    0.0312   -0.0289
          49   -0.0211    0.0071    0.0125   -0.0255    0.0105    0.0122   -0.0322    0.0270
          50   -0.0046   -0.0312    0.0093    0.0205    0.0066    0.0405   -0.0438    0.0425
          51    0.0306    0.0186   -0.0102    0.0010   -0.0070   -0.0202    0.0322   -0.0301
          52   -0.0292    0.0082   -0.0027   -0.0099    0.0016   -0.0135    0.0234   -0.0127
          53   -0.0101   -0.0032   -0.0190    0.0368   -0.0001   -0.0059    0.0323   -0.0058
          54   -0.0260   -0.0308    0.0153    0.0137   -0.0124    0.0050   -0.0100   -0.0420
          55   -0.0005    0.0211    0.0129   -0.0175    0.0096    0.0207   -0.0252    0.0278
          56   -0.0357   -0.0177   -0.0124    0.0738   -0.0048    0.0078    0.0351   -0.0496
          57    0.0078   -0.0106    0.0051   -0.0360   -0.0061   -0.0154   -0.0096    0.0156
          58    0.0971   -0.0261   -0.0675    0.0044    0.0337    0.0168    0.0075   -0.0423
          59   -0.0039    0.0263   -0.0107    0.0156   -0.0038   -0.0223    0.0317    0.0247
          60    0.0058   -0.0054    0.0074   -0.0352   -0.0054   -0.0122   -0.0052    0.0152
          61    0.0306   -0.0061   -0.0151    0.0149    0.0110    0.0113   -0.0088   -0.0145
          62    0.0318    0.0069   -0.0488   -0.0221    0.0171   -0.0024    0.0391    0.0194
          63    0.0842   -0.0260   -0.0499   -0.0336    0.0175   -0.0146    0.0160   -0.0223
          64    0.0341    0.0596   -0.0016   -0.0224    0.0173    0.0278    0.0327    0.0284
          65   -0.0496   -0.0334   -0.0052    0.0095   -0.0406    0.0078   -0.0250   -0.0236
          66    0.0055    0.0360    0.0116    0.0037    0.0003   -0.0041    0.0293    0.0449
          67    0.0382    0.0625    0.0064   -0.0096    0.0255    0.0237    0.0278    0.0150
          68    0.0032    0.0110    0.0248    0.0071    0.0116    0.0280    0.0138   -0.0166
          69   -0.0418   -0.0295    0.0106    0.0534   -0.0407   -0.0576   -0.0353   -0.0102
          70   -0.0144   -0.0130   -0.0265   -0.0014   -0.0143    0.0297    0.0211    0.0409
          71   -0.0212    0.0257    0.0050   -0.0267    0.0356   -0.0487   -0.0207   -0.0603
          72    0.0236   -0.0233    0.0046    0.0123   -0.0196    0.0239    0.0065    0.0225
          73   -0.0146   -0.0056   -0.0150    0.0073   -0.0074    0.0026    0.0050    0.0098
          74   -0.0207    0.0077   -0.0293   -0.0562    0.0206    0.0168    0.0158    0.0121
          75    0.0232   -0.0246    0.0105    0.0184   -0.0205    0.0208    0.0047    0.0183
          76   -0.0315   -0.0017   -0.0408   -0.0093    0.0086    0.0103    0.0114    0.0200
          77    0.0177   -0.0011    0.0226   -0.0262   -0.0153    0.0044    0.0046   -0.0036
          78    0.0223   -0.0230    0.0034    0.0111   -0.0181    0.0231    0.0061    0.0213
          79   -0.0452   -0.0455   -0.0256   -0.0175    0.1033    0.0204    0.0534    0.0253
          80    0.0247   -0.0111    0.0011   -0.0066   -0.0331   -0.0207   -0.0454   -0.0052
          81   -0.0176    0.0243    0.0076    0.0066    0.0118    0.0128    0.0010    0.0389
          82   -0.0406   -0.0064   -0.0563   -0.0225   -0.0140    0.0368    0.0109   -0.0117
          83   -0.0038    0.0269    0.0281    0.0189   -0.0131    0.0107    0.0109   -0.0125
          84    0.0046   -0.0077   -0.0049   -0.0096   -0.0045    0.0189    0.0110   -0.0280
          85   -0.0076    0.0084   -0.0914   -0.0250   -0.0646   -0.0145   -0.0397   -0.0014
          86    0.0135   -0.0372    0.0272    0.0022    0.0332   -0.0417    0.0097    0.0013
          87    0.0003   -0.0032   -0.0139   -0.0124   -0.0135    0.0293    0.0001   -0.0290
          88    0.0207   -0.0279    0.0887    0.0041    0.0840    0.0292    0.0414    0.0048
          89   -0.0119    0.0001   -0.0312   -0.0149   -0.0152    0.0099   -0.0347    0.0027
          90    0.0123   -0.0246    0.0008   -0.0058    0.0135   -0.0289   -0.0015    0.0140


   Root No.      17        18        19        20        21        22        23        24

                17 A      18 A      19 A      20 A      21 A      22 A      23 A      24 A   

                 616.2     734.0     766.5     812.7     835.7     869.4     894.7     924.7
  
           1   -0.0046   -0.0061   -0.0066   -0.0010   -0.0212    0.0086   -0.0008    0.0066
           2   -0.0168    0.0020   -0.0001    0.0008    0.0053   -0.0025    0.0013    0.0077
           3    0.0149    0.0046   -0.0004   -0.0030   -0.0008   -0.0035   -0.0021    0.0032
           4   -0.0109    0.0240    0.0253   -0.0033    0.0091   -0.0013   -0.0109    0.0006
           5    0.0061    0.0067    0.0072   -0.0020    0.0026   -0.0008   -0.0019   -0.0015
           6   -0.0090    0.0104    0.0103   -0.0009    0.0019   -0.0176    0.0095   -0.0135
           7    0.0190   -0.0019   -0.0175    0.0011   -0.0239   -0.0122   -0.0226    0.0138
           8   -0.0164   -0.0000    0.0293   -0.0032   -0.0095    0.0031    0.0023    0.0096
           9   -0.0145   -0.0006    0.0102   -0.0022   -0.0106   -0.0114    0.0099    0.0138
          10    0.0137    0.0122    0.0157   -0.0007    0.0170    0.0052    0.0005    0.0000
          11   -0.0035    0.0034    0.0004    0.0002    0.0071   -0.0054    0.0077    0.0122
          12   -0.0069   -0.0058   -0.0053   -0.0029    0.0026    0.0098   -0.0039    0.0206
          13   -0.0082   -0.0007    0.0003   -0.0001    0.0105    0.0009    0.0143   -0.0038
          14   -0.0135    0.0010   -0.0007    0.0009    0.0033   -0.0102    0.0130   -0.0104
          15    0.0021   -0.0018   -0.0017   -0.0003    0.0041    0.0275   -0.0250   -0.0012
          16   -0.0066   -0.0023   -0.0038    0.0006   -0.0047   -0.0078    0.0024    0.0039
          17    0.0104   -0.0004    0.0164   -0.0028   -0.0166    0.0079   -0.0152   -0.0208
          18   -0.0113   -0.0006   -0.0025    0.0025   -0.0054   -0.0007   -0.0053   -0.0111
          19   -0.0014   -0.0170   -0.0046    0.0269   -0.0098    0.0183    0.0224   -0.0038
          20   -0.0129   -0.0014   -0.0147   -0.0078    0.0059   -0.0084   -0.0087   -0.0008
          21    0.0084   -0.0059   -0.0313    0.0087    0.0047    0.0130    0.0109   -0.0021
          22   -0.0088    0.0069    0.0101   -0.0002    0.0061   -0.0041   -0.0018   -0.0034
          23    0.0170   -0.0053   -0.0080   -0.0005   -0.0067    0.0093   -0.0118    0.0073
          24   -0.0034    0.0016    0.0029    0.0003    0.0009   -0.0070    0.0058   -0.0123
          25   -0.0019   -0.0185   -0.0029   -0.0327    0.0008    0.0024    0.0072   -0.0016
          26    0.0097    0.0072   -0.0171    0.0102    0.0046   -0.0061   -0.0078   -0.0039
          27    0.0378    0.0073    0.0153   -0.0136    0.0053   -0.0041   -0.0164   -0.0058
          28   -0.0038   -0.0163    0.0006    0.0109    0.0108   -0.0089   -0.0093    0.0007
          29   -0.0127   -0.0052   -0.0200    0.0007    0.0029    0.0025    0.0009   -0.0064
          30   -0.0234   -0.0090   -0.0231    0.0011    0.0071   -0.0070   -0.0070   -0.0056
          31    0.0041   -0.0084   -0.0083   -0.0338    0.0015   -0.0012    0.0041   -0.0043
          32    0.0049    0.0013   -0.0158    0.0117    0.0030   -0.0045   -0.0022   -0.0018
          33    0.0024    0.0029    0.0337    0.0003   -0.0084    0.0100    0.0078    0.0057
          34    0.0053   -0.0135    0.0161    0.0191    0.0065   -0.0078   -0.0103    0.0042
          35    0.0158    0.0089    0.0234   -0.0010   -0.0102    0.0129    0.0148    0.0056
          36   -0.0107   -0.0029    0.0006    0.0023   -0.0002   -0.0027   -0.0007    0.0005
          37   -0.0117    0.0318    0.0278    0.0020    0.0069    0.0028   -0.0197    0.0064
          38    0.0154    0.0065    0.0091    0.0002   -0.0065    0.0015   -0.0136   -0.0337
          39   -0.0129    0.0061    0.0062   -0.0039    0.0065   -0.0193    0.0188    0.0043
          40    0.0167    0.0111    0.0146   -0.0003    0.0126    0.0037   -0.0008   -0.0034
          41    0.0233    0.0051    0.0025    0.0026   -0.0365   -0.0329   -0.0149   -0.0208
          42    0.0459   -0.0439   -0.0471    0.0081   -0.0732   -0.0171    0.0028   -0.0374
          43    0.0627   -0.0157   -0.0145    0.0089   -0.0563   -0.0261   -0.0049   -0.0646
          44   -0.0137   -0.0036   -0.0073    0.0042    0.0314    0.0266    0.0087    0.0362
          45   -0.0178    0.0081    0.0097   -0.0082    0.0148    0.0020   -0.0017    0.0291
          46    0.0239   -0.0039    0.0004   -0.0042   -0.0105   -0.0408    0.0522    0.0303
          47    0.0226    0.0136    0.0030    0.0051   -0.0064   -0.0941    0.0777   -0.0295
          48    0.0397    0.0046    0.0004    0.0005   -0.0118   -0.0443    0.0326    0.0025
          49   -0.0384   -0.0065    0.0005    0.0019    0.0101    0.0515   -0.0335   -0.0646
          50   -0.0494   -0.0043   -0.0044   -0.0013    0.0323    0.0636   -0.0362    0.0222
          51    0.0404    0.0043    0.0002    0.0002   -0.0139   -0.0440    0.0296    0.0090
          52    0.0230    0.0023    0.0057   -0.0028    0.0246   -0.0094    0.0390    0.0762
          53    0.0162    0.0008    0.0230   -0.0042   -0.0110    0.0088   -0.0064   -0.0002
          54    0.0616    0.0091   -0.0579    0.0060    0.0682   -0.0258    0.0487    0.0483
          55   -0.0351   -0.0072    0.0004    0.0000   -0.0173    0.0260   -0.0397   -0.0735
          56    0.0806    0.0098   -0.0246   -0.0033    0.0610   -0.0006    0.0351    0.0434
          57   -0.0245   -0.0022    0.0113    0.0030   -0.0285   -0.0124   -0.0047   -0.0016
          58    0.0622    0.0034   -0.0170    0.0058    0.0846    0.0498    0.0139   -0.0588
          59   -0.0163    0.0005    0.0269   -0.0132   -0.0172    0.0020   -0.0013    0.0385
          60   -0.0264   -0.0023    0.0102    0.0015   -0.0379   -0.0295    0.0015    0.0207
          61    0.0197   -0.0018   -0.0164    0.0010   -0.0219   -0.0112   -0.0220    0.0126
          62   -0.0006    0.0050    0.0429    0.0013    0.0503    0.0159    0.0290   -0.0227
          63    0.0267    0.0038    0.0069    0.0016    0.0854    0.0507    0.0467   -0.0525
          64    0.0019    0.0206   -0.0270   -0.0286    0.0181   -0.0144   -0.0151   -0.0009
          65    0.0155   -0.0424    0.0233    0.0531   -0.0115    0.0153    0.0341   -0.0155
          66    0.0130    0.0248   -0.0470   -0.0356    0.0280   -0.0141   -0.0185    0.0003
          67   -0.0045    0.0227   -0.0319   -0.0305    0.0081   -0.0050   -0.0123    0.0033
          68   -0.0094    0.0256   -0.0345   -0.0413    0.0014   -0.0089   -0.0197    0.0040
          69    0.0202   -0.0564    0.0051    0.0906   -0.0430    0.0652    0.0746   -0.0104
          70   -0.0056   -0.0153   -0.0190    0.0029   -0.0006    0.0106    0.0107    0.0265
          71    0.0130    0.0124    0.0171   -0.0009   -0.0050   -0.0228    0.0002   -0.0605
          72   -0.0019   -0.0040   -0.0056   -0.0002    0.0016    0.0102   -0.0054    0.0246
          73   -0.0091    0.0080    0.0113   -0.0004    0.0066   -0.0054   -0.0015   -0.0060
          74    0.0229   -0.0450   -0.0556    0.0070   -0.0232    0.0182    0.0241    0.0210
          75   -0.0019   -0.0031   -0.0029    0.0007    0.0005    0.0109   -0.0070    0.0250
          76   -0.0081   -0.0100   -0.0098    0.0038   -0.0006   -0.0161    0.0322   -0.0279
          77    0.0196   -0.0048   -0.0100   -0.0029   -0.0037    0.0432   -0.0482    0.0742
          78   -0.0014   -0.0052   -0.0069    0.0002    0.0002    0.0108   -0.0044    0.0232
          79   -0.0147    0.0612   -0.0201    0.2073    0.0229   -0.0331   -0.0367   -0.0036
          80    0.0129   -0.0318   -0.0002   -0.0906   -0.0091    0.0196    0.0247   -0.0059
          81    0.0375    0.0187    0.0070    0.0097    0.0103   -0.0149   -0.0298   -0.0041
          82   -0.0192    0.1373   -0.0900   -0.1744   -0.0298    0.0251    0.0141   -0.0108
          83   -0.0097   -0.0617   -0.0332    0.0634    0.0270   -0.0024   -0.0041   -0.0138
          84   -0.0227    0.0041   -0.0007   -0.0110   -0.0025   -0.0090   -0.0071    0.0009
          85   -0.0070    0.1247   -0.0641    0.1594   -0.0236    0.0066   -0.0082    0.0117
          86   -0.0221   -0.0674   -0.0223   -0.0695    0.0125   -0.0115    0.0193   -0.0081
          87   -0.0127    0.0173    0.0132    0.0287   -0.0127    0.0096    0.0129    0.0085
          88   -0.0067    0.1315   -0.0427    0.0061   -0.0663    0.0785    0.0909   -0.0095
          89    0.0208   -0.0362    0.0409    0.0028    0.0125   -0.0150   -0.0164    0.0104
          90    0.0002    0.0127   -0.0050   -0.0019   -0.0076   -0.0046    0.0078    0.0036


   Root No.      25        26        27        28        29        30        31        32

                25 A      26 A      27 A      28 A      29 A      30 A      31 A      32 A   

                 933.6     944.5     965.9     979.5     990.4    1004.0    1014.2    1047.3
  
           1   -0.0067    0.0061    0.0071    0.0031   -0.0175    0.0037   -0.0079    0.0088
           2   -0.0012   -0.0009   -0.0100   -0.0015   -0.0040    0.0026   -0.0186   -0.0137
           3   -0.0068   -0.0036   -0.0020    0.0002   -0.0086   -0.0020   -0.0106   -0.0023
           4    0.0062   -0.0134    0.0026   -0.0007    0.0028    0.0056   -0.0044    0.0093
           5    0.0036   -0.0066    0.0028   -0.0010    0.0007    0.0018   -0.0024   -0.0010
           6    0.0024    0.0040   -0.0063   -0.0013    0.0008    0.0090   -0.0056   -0.0030
           7    0.0016    0.0122   -0.0200   -0.0033    0.0093   -0.0068    0.0003   -0.0149
           8   -0.0032   -0.0030   -0.0112   -0.0006   -0.0042   -0.0010    0.0044   -0.0095
           9   -0.0072    0.0037    0.0133    0.0018   -0.0052   -0.0107   -0.0002    0.0085
          10   -0.0149    0.0392   -0.0036    0.0013    0.0095    0.0001    0.0056   -0.0082
          11    0.0002   -0.0073   -0.0096   -0.0006    0.0002    0.0055    0.0076    0.0152
          12   -0.0025   -0.0033    0.0134    0.0020    0.0059    0.0007    0.0027   -0.0008
          13   -0.0060    0.0047    0.0222    0.0035   -0.0069   -0.0073   -0.0088    0.0004
          14   -0.0016    0.0067    0.0083    0.0009   -0.0032   -0.0036   -0.0071   -0.0114
          15    0.0008   -0.0021   -0.0183   -0.0028   -0.0080   -0.0073   -0.0020   -0.0002
          16    0.0084   -0.0199   -0.0138   -0.0026    0.0005    0.0091    0.0059    0.0090
          17   -0.0038    0.0184    0.0221    0.0017    0.0085    0.0011    0.0027    0.0096
          18    0.0063   -0.0018   -0.0058   -0.0005    0.0079    0.0099    0.0019   -0.0062
          19   -0.0214   -0.0067   -0.0050    0.0181    0.0004    0.0019    0.0113   -0.0096
          20   -0.0051   -0.0010    0.0015   -0.0046   -0.0051   -0.0016   -0.0066    0.0031
          21    0.0533    0.0127    0.0029   -0.0024    0.0103   -0.0034    0.0075    0.0018
          22    0.0044   -0.0184    0.0080   -0.0003    0.0060   -0.0136    0.0080   -0.0137
          23   -0.0002   -0.0019    0.0073    0.0021    0.0032   -0.0006    0.0005   -0.0014
          24   -0.0013    0.0069   -0.0138   -0.0040   -0.0075   -0.0109    0.0065    0.0076
          25   -0.0032   -0.0011    0.0023   -0.0367   -0.0053    0.0058    0.0108   -0.0085
          26   -0.0138   -0.0023    0.0007    0.0170    0.0064   -0.0023    0.0004    0.0061
          27   -0.0439   -0.0050    0.0017   -0.0031    0.0031    0.0055    0.0086    0.0019
          28    0.0028    0.0011    0.0014   -0.0332    0.0154   -0.0063   -0.0132    0.0112
          29   -0.0069   -0.0010    0.0022    0.0090    0.0064    0.0040    0.0139   -0.0030
          30   -0.0233   -0.0043    0.0019   -0.0027    0.0054    0.0019    0.0052    0.0006
          31   -0.0045   -0.0034   -0.0077    0.0298    0.0165   -0.0085   -0.0115    0.0070
          32   -0.0049   -0.0000    0.0058   -0.0138   -0.0050    0.0027    0.0086   -0.0013
          33    0.0257    0.0044   -0.0041    0.0061   -0.0002   -0.0023   -0.0046    0.0008
          34    0.0243    0.0079    0.0066    0.0158   -0.0207    0.0088    0.0138   -0.0082
          35    0.0323    0.0058   -0.0027   -0.0059    0.0067   -0.0028   -0.0092   -0.0003
          36   -0.0052   -0.0015   -0.0001    0.0012   -0.0043    0.0004   -0.0014   -0.0014
          37    0.0042   -0.0450   -0.0019    0.0109   -0.0262    0.0243   -0.0611    0.0376
          38    0.0088   -0.0127   -0.0094   -0.0074   -0.0236   -0.0651    0.0177    0.0058
          39   -0.0003    0.0184    0.0033   -0.0013    0.0245    0.0413    0.0021   -0.0168
          40   -0.0120    0.0332   -0.0038    0.0010    0.0075    0.0009    0.0037   -0.0056
          41    0.0420   -0.0758   -0.0619   -0.0135   -0.0050    0.0628    0.0005    0.0835
          42    0.0347   -0.0952    0.0426    0.0038   -0.0464   -0.0417   -0.0298   -0.0173
          43    0.0295   -0.0509   -0.0030   -0.0035   -0.0278   -0.0072   -0.0258   -0.0009
          44   -0.0278    0.0156   -0.0275    0.0027   -0.0222   -0.0575    0.0297    0.0232
          45   -0.0025    0.0156    0.0227    0.0019    0.0307    0.0377    0.0011   -0.0081
          46   -0.0160   -0.0027    0.1132    0.0165   -0.0018   -0.0382   -0.0001    0.0720
          47    0.0062    0.0154    0.0034    0.0003    0.0198    0.0422   -0.0093   -0.0695
          48    0.0010    0.0009    0.0203    0.0028    0.0094    0.0073    0.0004   -0.0061
          49    0.0121   -0.0105   -0.0050   -0.0041   -0.0227    0.0226   -0.0431   -0.0286
          50   -0.0163    0.0143   -0.0282   -0.0019   -0.0250   -0.0531    0.0081    0.0134
          51    0.0016   -0.0012    0.0171    0.0025    0.0128    0.0090    0.0056   -0.0003
          52   -0.0015   -0.0631   -0.0448   -0.0026   -0.0189    0.0035    0.0546    0.0925
          53   -0.0072    0.0062    0.0131    0.0018    0.0042    0.0005    0.0214    0.0398
          54    0.0060   -0.0301   -0.0476   -0.0057   -0.0268   -0.0135   -0.0405   -0.0761
          55    0.0265   -0.0220   -0.0022   -0.0070   -0.0072    0.0369   -0.0334   -0.0082
          56   -0.0092   -0.0192   -0.0201   -0.0033   -0.0381   -0.0216   -0.0246   -0.0157
          57    0.0002    0.0131    0.0066    0.0034    0.0283    0.0062    0.0287    0.0114
          58    0.0136   -0.0310    0.0024   -0.0019   -0.0038    0.0315   -0.0078    0.0055
          59   -0.0207    0.0031   -0.0260   -0.0079   -0.0510   -0.0249   -0.0446   -0.0494
          60   -0.0016    0.0131    0.0138    0.0049    0.0224   -0.0101    0.0267    0.0219
          61    0.0028    0.0093   -0.0221   -0.0039    0.0105   -0.0047    0.0030   -0.0144
          62    0.0272   -0.0670   -0.0522   -0.0067    0.0315    0.0447    0.0643   -0.0108
          63   -0.0120   -0.0127    0.0716    0.0102   -0.0406    0.0060   -0.0357    0.0425
[...]
 FREQ.      1850.86         C 10 -- C 12         +27.5% ( 78.0%)     99.3%
 T-DIPOLE    0.3759         C 11 -- C 12         +16.6% ( 60.6%)     97.6%
 TRAVEL      0.0552         C  9 -- C 11         +16.3% ( 60.2%)     98.1%
 RED. MASS   3.0445         C 12 -- H 30          +8.8% ( 44.2%)      2.3%
 EFF. MASS  11.9445

 VIBRATION   66   66A         ATOM PAIR      ENERGY CONTRIBUTION    RADIAL
 FREQ.      1865.45         C  9 -- C 11         +28.2% ( 77.7%)     99.8%
 T-DIPOLE    0.3832         C 10 -- C 12         +16.6% ( 59.6%)     98.7%
 TRAVEL      0.0554         C 11 -- C 12         +12.4% ( 51.5%)      2.0%
 RED. MASS   2.8764         C  1 -- C  9          +9.5% ( 45.2%)     52.4%
 EFF. MASS  11.7829

 VIBRATION   67   67A         ATOM PAIR      ENERGY CONTRIBUTION    RADIAL
 FREQ.      2860.13         C  2 -- H 13         +96.0% ( 99.6%)    100.0%
 T-DIPOLE    0.0277         C  2 -- C  4          +1.1% ( 10.4%)      8.7%
 TRAVEL      0.1278         C  2 -- C  8          +1.0% ( 10.3%)      8.7%
 RED. MASS   0.9148         C  1 -- C  2          +1.0% ( 10.3%)      7.3%
 EFF. MASS   1.4429

 VIBRATION   68   68A         ATOM PAIR      ENERGY CONTRIBUTION    RADIAL
 FREQ.      2895.55         C  7 -- H 22         +60.7% ( 80.9%)     97.9%
 T-DIPOLE    0.1324         C  7 -- H 23         +30.1% ( 57.0%)     93.8%
 TRAVEL      0.1235         C  4 -- H 15          +5.8% ( 24.9%)     98.8%
 RED. MASS   0.4970         C  7 -- C 10          +1.1% ( 10.7%)      1.0%
 EFF. MASS   1.5265

 VIBRATION   69   69A         ATOM PAIR      ENERGY CONTRIBUTION    RADIAL
 FREQ.      2924.36         C  4 -- H 15         +73.7% ( 88.4%)     99.1%
 T-DIPOLE    0.0281         C  4 -- H 14         +14.6% ( 39.3%)     87.3%
 TRAVEL      0.1238         C  7 -- H 23          +4.5% ( 21.9%)     97.4%
 RED. MASS   0.5938         C  7 -- H 22          +2.8% ( 17.1%)     95.3%
 EFF. MASS   1.5053

 VIBRATION   70   70A         ATOM PAIR      ENERGY CONTRIBUTION    RADIAL
 FREQ.      2946.43         C  3 -- H 20         +38.3% ( 64.4%)     97.7%
 T-DIPOLE    0.0113         C  6 -- H 19         +22.3% ( 49.1%)     97.8%
 TRAVEL      0.1215         C  3 -- H 21         +21.9% ( 48.6%)     94.5%
 RED. MASS   0.2802         C  6 -- H 18         +11.6% ( 35.4%)     94.0%
 EFF. MASS   1.5499

 VIBRATION   71   71A         ATOM PAIR      ENERGY CONTRIBUTION    RADIAL
 FREQ.      2954.56         C  6 -- H 19         +23.4% ( 50.2%)     97.6%
 T-DIPOLE    0.0179         C  3 -- H 20         +19.4% ( 45.8%)     97.4%
 TRAVEL      0.1219         C  5 -- H 17         +15.3% ( 40.6%)     97.6%
 RED. MASS   0.1819         C  6 -- H 18         +14.8% ( 39.9%)     95.0%
 EFF. MASS   1.5365         C  3 -- H 21         +14.6% ( 39.6%)     95.7%

 VIBRATION   72   72A         ATOM PAIR      ENERGY CONTRIBUTION    RADIAL
 FREQ.      2963.36         C  5 -- H 17         +38.9% ( 64.6%)     97.4%
 T-DIPOLE    0.0102         C  5 -- H 16         +29.1% ( 55.8%)     95.7%
 TRAVEL      0.1217         C  6 -- H 19         +14.0% ( 38.8%)     97.3%
 RED. MASS   0.2907         C  6 -- H 18         +11.3% ( 34.8%)     96.0%
 EFF. MASS   1.5362

 VIBRATION   73   73A         ATOM PAIR      ENERGY CONTRIBUTION    RADIAL
 FREQ.      2983.92         C  7 -- H 23         +64.6% ( 79.3%)     99.1%
 T-DIPOLE    0.1404         C  7 -- H 22         +32.5% ( 56.3%)     95.3%
 TRAVEL      0.1328         C  7 -- C 10          +0.6% (  7.8%)     18.9%
 RED. MASS   0.5132         C  1 -- C  7          +0.6% (  7.8%)     26.5%
 EFF. MASS   1.2822

 VIBRATION   74   74A         ATOM PAIR      ENERGY CONTRIBUTION    RADIAL
 FREQ.      3020.50         C  4 -- H 14         +80.6% ( 89.2%)     99.8%
 T-DIPOLE    0.0313         C  4 -- H 15         +13.8% ( 37.0%)     82.7%
 TRAVEL      0.1303         C  5 -- H 17          +2.0% ( 14.0%)     97.7%
 RED. MASS   0.6391         C  5 -- H 16          +1.8% ( 13.3%)     97.5%
 EFF. MASS   1.3150

 VIBRATION   75   75A         ATOM PAIR      ENERGY CONTRIBUTION    RADIAL
 FREQ.      3028.12         C  3 -- H 21         +48.3% ( 68.6%)     98.7%
 T-DIPOLE    0.0347         C  3 -- H 20         +30.9% ( 54.8%)     96.0%
 TRAVEL      0.1320         C  6 -- H 18          +9.8% ( 30.9%)     98.3%
 RED. MASS   0.3408         C  6 -- H 19          +8.2% ( 28.2%)     96.9%
 EFF. MASS   1.2775

 VIBRATION   76   76A         ATOM PAIR      ENERGY CONTRIBUTION    RADIAL
 FREQ.      3035.47         C  6 -- H 18         +33.2% ( 56.8%)     98.8%
 T-DIPOLE    0.0387         C  6 -- H 19         +20.2% ( 44.3%)     95.8%
 TRAVEL      0.1320         C  5 -- H 16         +14.8% ( 37.9%)     98.3%
 RED. MASS   0.2004         C  5 -- H 17         +11.9% ( 34.0%)     96.8%
 EFF. MASS   1.2748         C  3 -- H 21         +11.3% ( 33.1%)     99.0%

 VIBRATION   77   77A         ATOM PAIR      ENERGY CONTRIBUTION    RADIAL
 FREQ.      3040.03         C  9 -- H 27         +80.8% ( 91.2%)    100.0%
 T-DIPOLE    0.2730         C 11 -- H 29         +16.0% ( 40.5%)     99.9%
 TRAVEL      0.1226         C  9 -- C 11          +1.2% ( 11.1%)      8.3%
 RED. MASS   0.6657         C  1 -- C  9          +1.1% ( 10.7%)     15.6%
 EFF. MASS   1.4746

 VIBRATION   78   78A         ATOM PAIR      ENERGY CONTRIBUTION    RADIAL
 FREQ.      3041.78         C  5 -- H 16         +41.8% ( 63.7%)     98.7%
 T-DIPOLE    0.0194         C  5 -- H 17         +25.1% ( 49.4%)     95.7%
 TRAVEL      0.1315         C  6 -- H 18         +18.5% ( 42.4%)     99.0%
 RED. MASS   0.2763         C  6 -- H 19          +8.8% ( 29.2%)     94.5%
 EFF. MASS   1.2824

 VIBRATION   79   79A         ATOM PAIR      ENERGY CONTRIBUTION    RADIAL
 FREQ.      3052.47         C 10 -- H 28         +68.2% ( 83.8%)    100.0%
 T-DIPOLE    0.2459         C 12 -- H 30         +27.3% ( 53.1%)    100.0%
 TRAVEL      0.1226         C 10 -- C 12          +1.1% ( 10.8%)      3.1%
 RED. MASS   0.5289         C 11 -- H 29          +1.0% ( 10.1%)     99.8%
 EFF. MASS   1.4689

 VIBRATION   80   80A         ATOM PAIR      ENERGY CONTRIBUTION    RADIAL
 FREQ.      3064.38         C 11 -- H 29         +62.3% ( 80.2%)    100.0%
 T-DIPOLE    0.3304         C  9 -- H 27         +12.6% ( 36.1%)     99.7%
 TRAVEL      0.1185         C 10 -- H 28         +11.2% ( 34.1%)     99.9%
 RED. MASS   0.4265         C 12 -- H 30         +10.3% ( 32.6%)     99.8%
 EFF. MASS   1.5671

 VIBRATION   81   81A         ATOM PAIR      ENERGY CONTRIBUTION    RADIAL
 FREQ.      3071.50         C  8 -- H 24         +58.5% ( 78.9%)     98.2%
 T-DIPOLE    0.0422         C  8 -- H 26         +37.5% ( 63.2%)     94.9%
 TRAVEL      0.1208         C  8 -- H 25          +2.9% ( 17.6%)     35.1%
 RED. MASS   0.5128         C  2 -- C  8          +1.0% ( 10.4%)      0.0%
 EFF. MASS   1.5049

 VIBRATION   82   82A         ATOM PAIR      ENERGY CONTRIBUTION    RADIAL
 FREQ.      3077.77         C 12 -- H 30         +59.2% ( 78.0%)    100.0%
 T-DIPOLE    0.3712         C 11 -- H 29         +17.5% ( 42.5%)    100.0%
 TRAVEL      0.1170         C 10 -- H 28         +17.2% ( 42.0%)     99.8%
 RED. MASS   0.4116         C  9 -- H 27          +2.4% ( 15.6%)     99.6%
 EFF. MASS   1.5993

 VIBRATION   83   83A         ATOM PAIR      ENERGY CONTRIBUTION    RADIAL
 FREQ.      3080.14         C  8 -- H 25         +60.8% ( 80.4%)     98.6%
 T-DIPOLE    0.0276         C  8 -- H 26         +29.2% ( 55.8%)     92.3%
 TRAVEL      0.1204         C  8 -- H 24          +8.9% ( 30.8%)     70.4%
 RED. MASS   0.4932         C  2 -- C  8          +1.0% ( 10.5%)      0.0%
 EFF. MASS   1.5094

 VIBRATION   84   84A         ATOM PAIR      ENERGY CONTRIBUTION    RADIAL
 FREQ.      3172.13         C  8 -- H 25         +35.9% ( 57.7%)     97.4%
 T-DIPOLE    0.0428         C  8 -- H 26         +32.3% ( 54.7%)     96.9%
 TRAVEL      0.1368         C  8 -- H 24         +31.5% ( 54.0%)     96.8%
 RED. MASS   0.3279         C  2 -- C  8          +0.3% (  5.0%)     99.7%
 EFF. MASS   1.1351

      SYMMETRY NUMBER FOR POINT-GROUP C1  =  1


          SYSTEM IS A GROUND STATE



 InChI=1S/C12H18/c1-11-7-3-6-10-12(11)8-4-2-5-9-12/h2,4-5,8,11H,3,6-7,9-10H2,1H3


          MOLECULE IS NOT LINEAR

          THERE ARE 84 GENUINE VIBRATIONS IN THIS SYSTEM
          THIS THERMODYNAMICS CALCULATION IS LIMITED TO
          MOLECULES WHICH HAVE NO INTERNAL ROTATIONS




                    CALCULATED THERMODYNAMIC PROPERTIES
                                          *
   TEMP. (K)   PARTITION FUNCTION   H.O.F.    ENTHALPY  HEAT CAPACITY ENTROPY
                                   KCAL/MOL   CAL/MOLE    CAL/K/MOL  CAL/K/MOL


 298.00  VIB.     0.2185D+03                  4891.0417    38.8578    27.1177
         ROT.     0.9283D+06                   888.2813     2.9808    30.2872
         INT.     0.2028D+09                  5779.3230    41.8386    57.4049
         TRA.     0.1998D+28                  1480.4688     4.9680    41.1588
         TOT.                        0.016    7259.7919    46.8066    98.5637

 200.00  VIB.     0.1726D+02                  1900.5903    22.6464    15.1635
         ROT.     0.5104D+06                   596.1620     2.9808    29.0986
         INT.     0.8811D+07                  2496.7523    25.6272    44.2621
         TRA.     0.1099D+28                   993.6033     4.9680    39.1777
         TOT.                       -3.753    3490.3555    30.5952    83.4398

 210.00  VIB.     0.2197D+02                  2134.5565    24.1533    16.3048
         ROT.     0.5492D+06                   625.9700     2.9808    29.2440
         INT.     0.1207D+08                  2760.5265    27.1341    45.5487
         TRA.     0.1182D+28                  1043.2834     4.9680    39.4201
         TOT.                       -3.440    3803.8099    32.1022    84.9688

 220.00  VIB.     0.2809D+02                  2383.7874    25.6993    17.4639
         ROT.     0.5888D+06                   655.7781     2.9808    29.3827
         INT.     0.1654D+08                  3039.5655    28.6802    46.8466
         TRA.     0.1268D+28                  1092.9636     4.9680    39.6512
         TOT.                       -3.111    4132.5291    33.6482    86.4978

 230.00  VIB.     0.3607D+02                  2648.6718    27.2838    18.6411
         ROT.     0.6294D+06                   685.5862     2.9808    29.5152
         INT.     0.2270D+08                  3334.2581    30.2646    48.1563
         TRA.     0.1355D+28                  1142.6437     4.9680    39.8720
         TOT.                       -2.767    4476.9018    35.2327    88.0283

 240.00  VIB.     0.4650D+02                  2929.5867    28.9051    19.8364
         ROT.     0.6709D+06                   715.3943     2.9808    29.6420
         INT.     0.3120D+08                  3644.9811    31.8859    49.4784
         TRA.     0.1444D+28                  1192.3239     4.9680    40.0835
         TOT.                       -2.406    4837.3050    36.8539    89.5619

 250.00  VIB.     0.6018D+02                  3226.8867    30.5603    21.0498
         ROT.     0.7133D+06                   745.2024     2.9808    29.7637
         INT.     0.4293D+08                  3972.0892    33.5412    50.8135
         TRA.     0.1536D+28                  1242.0041     4.9680    40.2863
         TOT.                       -2.030    5214.0932    38.5092    91.0998

 260.00  VIB.     0.7818D+02                  3540.8957    32.2462    22.2812
         ROT.     0.7565D+06                   775.0105     2.9808    29.8806
         INT.     0.5915D+08                  4315.9063    35.2271    52.1618
         TRA.     0.1629D+28                  1291.6842     4.9680    40.4811
         TOT.                       -1.636    5607.5905    40.1951    92.6429

 270.00  VIB.     0.1020D+03                  3871.9004    33.9588    23.5302
         ROT.     0.8006D+06                   804.8186     2.9808    29.9931
         INT.     0.8162D+08                  4676.7190    36.9396    53.5233
         TRA.     0.1724D+28                  1341.3644     4.9680    40.6686
         TOT.                       -1.226    6018.0834    41.9076    94.1919

 280.00  VIB.     0.1334D+03                  4220.1454    35.6936    24.7965
         ROT.     0.8455D+06                   834.6267     2.9808    30.1015
         INT.     0.1128D+09                  5054.7721    38.6744    54.8980
         TRA.     0.1820D+28                  1391.0445     4.9680    40.8493
         TOT.                       -0.798    6445.8167    43.6424    95.7473

 290.00  VIB.     0.1753D+03                  4585.8310    37.4461    26.0795
         ROT.     0.8912D+06                   864.4348     2.9808    30.2061
         INT.     0.1562D+09                  5450.2658    40.4269    56.2857
         TRA.     0.1919D+28                  1440.7247     4.9680    41.0236
         TOT.                       -0.353    6890.9905    45.3949    97.3093

 300.00  VIB.     0.2310D+03                  4969.1112    39.2117    27.3788
         ROT.     0.9377D+06                   894.2429     2.9808    30.3072
         INT.     0.2166D+09                  5863.3541    42.1926    57.6859
         TRA.     0.2019D+28                  1490.4049     4.9680    41.1921
         TOT.                        0.110    7353.7590    47.1606    98.8780

 310.00  VIB.     0.3055D+03                  5370.0943    40.9859    28.6934
         ROT.     0.9849D+06                   924.0510     2.9808    30.4049
         INT.     0.3009D+09                  6294.1453    43.9667    59.0983
         TRA.     0.2120D+28                  1540.0850     4.9680    41.3550
         TOT.                        0.591    7834.2303    48.9348   100.4533

 320.00  VIB.     0.4053D+03                  5788.8436    42.7643    30.0227
         ROT.     0.1033D+07                   953.8591     2.9808    30.4995
         INT.     0.4187D+09                  6742.7027    45.7451    60.5223
         TRA.     0.2224D+28                  1589.7652     4.9680    41.5127
         TOT.                        1.089    8332.4679    50.7131   102.0350

 330.00  VIB.     0.5396D+03                  6225.3794    44.5426    31.3659
         ROT.     0.1082D+07                   983.6672     2.9808    30.5913
         INT.     0.5837D+09                  7209.0466    47.5234    61.9572
         TRA.     0.2329D+28                  1639.4454     4.9680    41.6656
         TOT.                        1.605    8848.4920    52.4914   103.6227

 340.00  VIB.     0.7206D+03                  6679.6816    46.3169    32.7220
         ROT.     0.1131D+07                  1013.4753     2.9808    30.6803
         INT.     0.8152D+09                  7693.1569    49.2977    63.4022
         TRA.     0.2436D+28                  1689.1255     4.9680    41.8139
         TOT.                        2.139    9382.2825    54.2657   105.2161

 350.00  VIB.     0.9652D+03                  7151.6925    48.0837    34.0901
         ROT.     0.1182D+07                  1043.2834     2.9808    30.7667
         INT.     0.1140D+10                  8194.9759    51.0645    64.8568
         TRA.     0.2544D+28                  1738.8057     4.9680    41.9579
         TOT.                        2.690    9933.7816    56.0326   106.8147

 360.00  VIB.     0.1297D+04                  7641.3200    49.8397    35.4693
         ROT.     0.1233D+07                  1073.0915     2.9808    30.8506
         INT.     0.1598D+10                  8714.4116    52.8205    66.3199
         TRA.     0.2654D+28                  1788.4859     4.9680    42.0979
         TOT.                        3.259   10502.8974    57.7886   108.4178

 370.00  VIB.     0.1747D+04                  8148.4412    51.5820    36.8587
         ROT.     0.1284D+07                  1102.8996     2.9808    30.9323
         INT.     0.2244D+10                  9251.3408    54.5628    67.7910
         TRA.     0.2765D+28                  1838.1660     4.9680    42.2340
         TOT.                        3.846   11089.5068    59.5308   110.0249

 380.00  VIB.     0.2360D+04                  8672.9054    53.3079    38.2572
         ROT.     0.1337D+07                  1132.7077     2.9808    31.0118
         INT.     0.3155D+10                  9805.6131    56.2887    69.2690
         TRA.     0.2878D+28                  1887.8462     4.9680    42.3665
         TOT.                        4.450   11693.4593    61.2568   111.6355

 390.00  VIB.     0.3198D+04                  9214.5378    55.0153    39.6640
         ROT.     0.1390D+07                  1162.5158     2.9808    31.0892
         INT.     0.4444D+10                 10377.0536    57.9961    70.7533
         TRA.     0.2992D+28                  1937.5263     4.9680    42.4955
         TOT.                        5.071   12314.5800    62.9641   113.2488

 400.00  VIB.     0.4343D+04                  9773.1426    56.7021    41.0782
         ROT.     0.1444D+07                  1192.3239     2.9808    31.1647
         INT.     0.6269D+10                 10965.4665    59.6829    72.2429
         TRA.     0.3108D+28                  1987.2065     4.9680    42.6213
         TOT.                        5.709   12952.6730    64.6509   114.8642

   *: NOTE: HEATS OF FORMATION ARE RELATIVE TO THE
            ELEMENTS IN THEIR STANDARD STATE AT 298K
              (=  Standard Enthalpy of Formation).

            Hvib:  Zero-point energy is not included.
                   frequencies of less than zero cm-1 are not included.
            Hrot = (3/2)RT
            Htra = (3/2)RT + pV = (5/2)RT

            Heat capacity is Cp, not Cv

          For more information, see: HTTP://OpenMOPAC.net/Manual/thermochemistry.html


           FORCE CONSTANT IN CARTESIAN COORDINATES (Millidynes/A)

    ATOM   CHEMICAL       X               Y               Z
   NUMBER   SYMBOL  FORCE CONSTANT  FORCE CONSTANT  FORCE CONSTANT

      1       C        7.364024        8.154062        8.811065
      2       C        7.480571        8.608350        8.347672
      3       C        8.597145        7.633315        8.363989
      4       C        8.766264        8.231999        7.841180
      5       C        8.185291        8.389002        8.418312
      6       C        8.172926        8.559766        8.151617
      7       C        8.110481        8.969001        7.938877
      8       C        8.422791        8.165457        8.287751
      9       C        4.896756       13.185892        9.032896
     10       C        3.147365        9.537314       14.396245
     11       C        4.466961       12.844422       10.423447
     12       C        3.182916       10.508367       14.075178
     13       H        1.099550        1.597981        3.342794
     14       H        5.003332        0.745268        0.698940
     15       H        1.247065        1.586507        3.538413
     16       H        1.217564        1.681279        3.548363
     17       H        1.296794        1.625799        3.481166
     18       H        1.094604        4.603526        0.742626
     19       H        1.279613        1.277144        3.845161
     20       H        1.062407        1.569298        3.778150
     21       H        4.976287        0.738050        0.715274
     22       H        2.728548        0.746391        2.864965
     23       H        3.452246        1.662328        1.120084
     24       H        0.953946        1.912322        3.893265
     25       H        5.344806        0.748452        0.684485
     26       H        1.241128        1.894233        3.614398
     27       H        0.513321        1.965359        3.755483
     28       H        0.459473        2.059034        3.735277
     29       H        0.791235        1.337000        4.131763
     30       H        0.801337        4.658104        0.821077

 **********************
 *                    *
 * JOB ENDED NORMALLY *
 *                    *
 **********************



 TOTAL JOB TIME:             4.81 SECONDS

 == MOPAC DONE ==
