 *******************************************************************************
 ** Site#: 14399        For non-commercial use only    Version 18.184L 64BITS **
 *******************************************************************************
 ** Cite this program as: MOPAC2016, Version: 18.184L, James J. P. Stewart,   **
 ** Stewart Computational Chemistry, web: HTTP://OpenMOPAC.net. Days left:  18**
 *******************************************************************************
 **                                                                           **
 **                                MOPAC2016                                  **
 **                                                                           **
 *******************************************************************************

                              PM3 CALCULATION RESULTS

 *******************************************************************************
 *  CALCULATION DONE:                                Sat Jun 15 10:15:39 2019  *
 *  PM3        - The PM3 Hamiltonian to be used
 *  PRECISE    - CRITERIA TO BE INCREASED BY 100 TIMES
 *  NOSYM      - POINT-GROUP SYMMETRY SET TO C1
 *  THREADS=1  - MULTI-THREADING NOT USED
 *  T=         - A TIME OF 172800.0 SECONDS REQUESTED
 *  DUMP=N     - RESTART FILE WRITTEN EVERY  7200.000 SECONDS
 *******************************************************************************
pm3  precise nosym THREADS=1
 InChI=1S/C10H10/c1-3-6-10-8-5-4-7-9(10)2/h5,8H,1-2,4,7H2

   ATOM   CHEMICAL          X               Y               Z
  NUMBER   SYMBOL      (ANGSTROMS)     (ANGSTROMS)     (ANGSTROMS)
 
     1       C         -1.91490000  *  -0.88970000  *   0.03470000  *
     2       C         -2.49640000  *   0.48650000  *  -0.31790000  *
     3       C         -0.49090000  *  -0.75020000  *   0.51590000  *
     4       C          0.37570000  *   0.22060000  *  -0.20510000  *
     5       C         -1.58620000  *   1.25430000  *  -1.24320000  *
     6       C         -0.25440000  *   1.15930000  *  -1.15430000  *
     7       C         -0.05210000  *  -1.48060000  *   1.54980000  *
     8       C          4.24360000  *   0.27450000  *   0.23930000  *
     9       C          1.67670000  *   0.23900000  *  -0.05590000  *
    10       C          2.95000000  *   0.25690000  *   0.09020000  *
    11       H         -2.56050000  *  -1.37420000  *   0.80000000  *
    12       H         -3.48880000  *   0.35720000  *  -0.80000000  *
    13       H         -1.92050000  *  -1.52920000  *  -0.87460000  *
    14       H         -2.63880000  *   1.07650000  *   0.61330000  *
    15       H         -2.02290000  *   1.93650000  *  -1.96180000  *
    16       H          0.36330000  *   1.77280000  *  -1.80030000  *
    17       H         -0.70630000  *  -2.18300000  *   2.05080000  *
    18       H          0.96220000  *  -1.39070000  *   1.91670000  *
    19       H          4.85170000  *   0.91030000  *  -0.38950000  *
    20       H          4.70940000  *  -0.34670000  *   0.99200000  *
 


          CARTESIAN COORDINATES 

    NO.       ATOM           X           Y           Z

     1         C         -1.9149     -0.8897      0.0347
     2         C         -2.4964      0.4865     -0.3179
     3         C         -0.4909     -0.7502      0.5159
     4         C          0.3757      0.2206     -0.2051
     5         C         -1.5862      1.2543     -1.2432
     6         C         -0.2544      1.1593     -1.1543
     7         C         -0.0521     -1.4806      1.5498
     8         C          4.2436      0.2745      0.2393
     9         C          1.6767      0.2390     -0.0559
    10         C          2.9500      0.2569      0.0902
    11         H         -2.5605     -1.3742      0.8000
    12         H         -3.4888      0.3572     -0.8000
    13         H         -1.9205     -1.5292     -0.8746
    14         H         -2.6388      1.0765      0.6133
    15         H         -2.0229      1.9365     -1.9618
    16         H          0.3633      1.7728     -1.8003
    17         H         -0.7063     -2.1830      2.0508
    18         H          0.9622     -1.3907      1.9167
    19         H          4.8517      0.9103     -0.3895
    20         H          4.7094     -0.3467      0.9920

  H: (PM3): J. J. P. STEWART, J. COMP. CHEM. 10, 209 (1989).
  C: (PM3): J. J. P. STEWART, J. COMP. CHEM. 10, 209 (1989).

           Empirical Formula: C10 H10  =    20 atoms



      MOLECULAR POINT GROUP   :   C1  


      RHF CALCULATION, NO. OF DOUBLY OCCUPIED LEVELS = 25


          Geometry optimization using EF

          DIAGONAL MATRIX USED AS START HESSIAN

 CYCLE:     1 TIME:   0.008 TIME LEFT:  2.00D  GRAD.:    89.095 HEAT:  102.4863
 CYCLE:     2 TIME:   0.012 TIME LEFT:  2.00D  GRAD.:   111.829 HEAT:  102.1829
 CYCLE:     3 TIME:   0.004 TIME LEFT:  2.00D  GRAD.:    63.077 HEAT:  101.3057
 CYCLE:     4 TIME:   0.004 TIME LEFT:  2.00D  GRAD.:    59.134 HEAT:  101.0305
 CYCLE:     5 TIME:   0.008 TIME LEFT:  2.00D  GRAD.:    30.107 HEAT:  100.5485
 CYCLE:     6 TIME:   0.008 TIME LEFT:  2.00D  GRAD.:    27.315 HEAT:  100.4602
 CYCLE:     7 TIME:   0.004 TIME LEFT:  2.00D  GRAD.:    15.368 HEAT:  100.3375
 CYCLE:     8 TIME:   0.004 TIME LEFT:  2.00D  GRAD.:    20.956 HEAT:  100.2623
 CYCLE:     9 TIME:   0.008 TIME LEFT:  2.00D  GRAD.:    16.991 HEAT:  100.1970
 CYCLE:    10 TIME:   0.004 TIME LEFT:  2.00D  GRAD.:    27.199 HEAT:  100.1910
 CYCLE:    11 TIME:   0.004 TIME LEFT:  2.00D  GRAD.:    18.056 HEAT:  100.1067
 CYCLE:    12 TIME:   0.008 TIME LEFT:  2.00D  GRAD.:    20.795 HEAT:  100.0779
 CYCLE:    13 TIME:   0.004 TIME LEFT:  2.00D  GRAD.:    10.892 HEAT:  100.0220
 CYCLE:    14 TIME:   0.008 TIME LEFT:  2.00D  GRAD.:    15.260 HEAT:  100.0156
 CYCLE:    15 TIME:   0.004 TIME LEFT:  2.00D  GRAD.:     5.211 HEAT:  99.97334
 CYCLE:    16 TIME:   0.012 TIME LEFT:  2.00D  GRAD.:     5.467 HEAT:  99.96491
 CYCLE:    17 TIME:   0.004 TIME LEFT:  2.00D  GRAD.:     3.061 HEAT:  99.95133
 CYCLE:    18 TIME:   0.004 TIME LEFT:  2.00D  GRAD.:     3.525 HEAT:  99.93759
 CYCLE:    19 TIME:   0.004 TIME LEFT:  2.00D  GRAD.:     4.661 HEAT:  99.91480
 CYCLE:    20 TIME:   0.004 TIME LEFT:  2.00D  GRAD.:     7.662 HEAT:  99.89069
 CYCLE:    21 TIME:   0.004 TIME LEFT:  2.00D  GRAD.:    10.198 HEAT:  99.88327
 CYCLE:    22 TIME:   0.004 TIME LEFT:  2.00D  GRAD.:     6.282 HEAT:  99.87052
 CYCLE:    23 TIME:   0.008 TIME LEFT:  2.00D  GRAD.:     3.085 HEAT:  99.85991
 CYCLE:    24 TIME:   0.004 TIME LEFT:  2.00D  GRAD.:     3.960 HEAT:  99.85768
 CYCLE:    25 TIME:   0.004 TIME LEFT:  2.00D  GRAD.:     2.392 HEAT:  99.85356
 CYCLE:    26 TIME:   0.004 TIME LEFT:  2.00D  GRAD.:     1.519 HEAT:  99.84983
 CYCLE:    27 TIME:   0.004 TIME LEFT:  2.00D  GRAD.:     1.345 HEAT:  99.84534
 CYCLE:    28 TIME:   0.004 TIME LEFT:  2.00D  GRAD.:     1.933 HEAT:  99.83995
 CYCLE:    29 TIME:   0.004 TIME LEFT:  2.00D  GRAD.:     1.713 HEAT:  99.83635
 CYCLE:    30 TIME:   0.004 TIME LEFT:  2.00D  GRAD.:     1.472 HEAT:  99.83189
 CYCLE:    31 TIME:   0.004 TIME LEFT:  2.00D  GRAD.:     1.768 HEAT:  99.82537
 CYCLE:    32 TIME:   0.004 TIME LEFT:  2.00D  GRAD.:     1.896 HEAT:  99.82397
 CYCLE:    33 TIME:   0.004 TIME LEFT:  2.00D  GRAD.:     0.964 HEAT:  99.82216
 CYCLE:    34 TIME:   0.008 TIME LEFT:  2.00D  GRAD.:     0.708 HEAT:  99.82102
 CYCLE:    35 TIME:   0.004 TIME LEFT:  2.00D  GRAD.:     0.754 HEAT:  99.81999
 CYCLE:    36 TIME:   0.004 TIME LEFT:  2.00D  GRAD.:     0.639 HEAT:  99.81918
 CYCLE:    37 TIME:   0.004 TIME LEFT:  2.00D  GRAD.:     0.708 HEAT:  99.81839
 CYCLE:    38 TIME:   0.004 TIME LEFT:  2.00D  GRAD.:     0.787 HEAT:  99.81719
 CYCLE:    39 TIME:   0.004 TIME LEFT:  2.00D  GRAD.:     0.933 HEAT:  99.81508
 CYCLE:    40 TIME:   0.004 TIME LEFT:  2.00D  GRAD.:     0.943 HEAT:  99.81349
 CYCLE:    41 TIME:   0.004 TIME LEFT:  2.00D  GRAD.:     0.999 HEAT:  99.81102
 CYCLE:    42 TIME:   0.004 TIME LEFT:  2.00D  GRAD.:     1.073 HEAT:  99.80849
 CYCLE:    43 TIME:   0.008 TIME LEFT:  2.00D  GRAD.:     1.154 HEAT:  99.80621
 CYCLE:    44 TIME:   0.004 TIME LEFT:  2.00D  GRAD.:     0.910 HEAT:  99.80453
 CYCLE:    45 TIME:   0.004 TIME LEFT:  2.00D  GRAD.:     0.651 HEAT:  99.80332
 CYCLE:    46 TIME:   0.004 TIME LEFT:  2.00D  GRAD.:     0.620 HEAT:  99.80215
 CYCLE:    47 TIME:   0.004 TIME LEFT:  2.00D  GRAD.:     0.586 HEAT:  99.80127
 CYCLE:    48 TIME:   0.004 TIME LEFT:  2.00D  GRAD.:     0.618 HEAT:  99.80034
 CYCLE:    49 TIME:   0.004 TIME LEFT:  2.00D  GRAD.:     0.722 HEAT:  99.79910
 CYCLE:    50 TIME:   0.004 TIME LEFT:  2.00D  GRAD.:     0.878 HEAT:  99.79717
 CYCLE:    51 TIME:   0.004 TIME LEFT:  2.00D  GRAD.:     0.858 HEAT:  99.79515
 CYCLE:    52 TIME:   0.008 TIME LEFT:  2.00D  GRAD.:     0.758 HEAT:  99.79240
 CYCLE:    53 TIME:   0.004 TIME LEFT:  2.00D  GRAD.:     0.628 HEAT:  99.79144
 CYCLE:    54 TIME:   0.004 TIME LEFT:  2.00D  GRAD.:     2.153 HEAT:  99.79107
 CYCLE:    55 TIME:   0.004 TIME LEFT:  2.00D  GRAD.:     0.934 HEAT:  99.78762
 CYCLE:    56 TIME:   0.004 TIME LEFT:  2.00D  GRAD.:     0.595 HEAT:  99.78512
 CYCLE:    57 TIME:   0.004 TIME LEFT:  2.00D  GRAD.:     0.855 HEAT:  99.78005
 CYCLE:    58 TIME:   0.004 TIME LEFT:  2.00D  GRAD.:     1.301 HEAT:  99.77319
 CYCLE:    59 TIME:   0.004 TIME LEFT:  2.00D  GRAD.:     1.438 HEAT:  99.76811
 CYCLE:    60 TIME:   0.008 TIME LEFT:  2.00D  GRAD.:     0.905 HEAT:  99.76620
 CYCLE:    61 TIME:   0.004 TIME LEFT:  2.00D  GRAD.:     1.087 HEAT:  99.76378
 CYCLE:    62 TIME:   0.004 TIME LEFT:  2.00D  GRAD.:     0.902 HEAT:  99.76190
 CYCLE:    63 TIME:   0.004 TIME LEFT:  2.00D  GRAD.:     0.778 HEAT:  99.76000
 CYCLE:    64 TIME:   0.004 TIME LEFT:  2.00D  GRAD.:     0.707 HEAT:  99.75864
 CYCLE:    65 TIME:   0.004 TIME LEFT:  2.00D  GRAD.:     0.615 HEAT:  99.75727
 CYCLE:    66 TIME:   0.004 TIME LEFT:  2.00D  GRAD.:     0.501 HEAT:  99.75655
 CYCLE:    67 TIME:   0.004 TIME LEFT:  2.00D  GRAD.:     0.369 HEAT:  99.75602
 CYCLE:    68 TIME:   0.004 TIME LEFT:  2.00D  GRAD.:     0.267 HEAT:  99.75579
 CYCLE:    69 TIME:   0.004 TIME LEFT:  2.00D  GRAD.:     0.247 HEAT:  99.75564
 CYCLE:    70 TIME:   0.008 TIME LEFT:  2.00D  GRAD.:     0.193 HEAT:  99.75552
 CYCLE:    71 TIME:   0.004 TIME LEFT:  2.00D  GRAD.:     0.166 HEAT:  99.75542
 CYCLE:    72 TIME:   0.004 TIME LEFT:  2.00D  GRAD.:     0.133 HEAT:  99.75536
 CYCLE:    73 TIME:   0.004 TIME LEFT:  2.00D  GRAD.:     0.142 HEAT:  99.75528
 CYCLE:    74 TIME:   0.004 TIME LEFT:  2.00D  GRAD.:     0.117 HEAT:  99.75525
 CYCLE:    75 TIME:   0.004 TIME LEFT:  2.00D  GRAD.:     0.086 HEAT:  99.75524
 CYCLE:    76 TIME:   0.004 TIME LEFT:  2.00D  GRAD.:     0.036 HEAT:  99.75522

     GRADIENT =  0.03608  IS LESS THAN CUTOFF =  0.05000



 -------------------------------------------------------------------------------
 pm3  precise nosym THREADS=1
 InChI=1S/C10H10/c1-3-6-10-8-5-4-7-9(10)2/h5,8H,1-2,4,7H2



     GEOMETRY OPTIMISED USING EIGENVECTOR FOLLOWING (EF).     
     SCF FIELD WAS ACHIEVED                                   


                              PM3 CALCULATION
                                                       MOPAC2016 (Version: 18.184L)
                                                       Sat Jun 15 10:15:39 2019
                                                       No. of days remaining =  18




          FINAL HEAT OF FORMATION =         99.75522 KCAL/MOL =     417.37584 KJ/MOL


          TOTAL ENERGY            =      -1335.40514 EV
          ELECTRONIC ENERGY       =      -6775.38755 EV  POINT GROUP:     C1  
          CORE-CORE REPULSION     =       5439.98241 EV
          COSMO AREA              =        186.28 SQUARE ANGSTROMS
          COSMO VOLUME            =        183.28 CUBIC ANGSTROMS

          GRADIENT NORM           =          0.03608 = 0.00807 PER ATOM
          IONIZATION POTENTIAL    =          8.396013 EV
          HOMO LUMO ENERGIES (EV) =         -8.396 -0.786
          NO. OF FILLED LEVELS    =         25
          MOLECULAR WEIGHT        =        130.1890

          MOLECULAR DIMENSIONS (Angstroms)

            Atom       Atom       Distance
            H    20    H    12     8.41934
            H    17    H    16     5.57985
            H    14    H    13     2.86615


          SCF CALCULATIONS        =         86
 
          WALL-CLOCK TIME         =          0.367 SECONDS
          COMPUTATION TIME        =          0.340 SECONDS




   ATOM   CHEMICAL          X               Y               Z
  NUMBER   SYMBOL      (ANGSTROMS)     (ANGSTROMS)     (ANGSTROMS)
 
     1       C         -1.86068748  *  -0.91057836  *  -0.02252858  *
     2       C         -2.51819209  *   0.40556519  *  -0.41139503  *
     3       C         -0.48745913  *  -0.71086370  *   0.53711716  *
     4       C          0.37059126  *   0.23197841  *  -0.18851216  *
     5       C         -1.60121214  *   1.29357696  *  -1.17073108  *
     6       C         -0.26996146  *   1.20667821  *  -1.06673698  *
     7       C         -0.07170316  *  -1.36496527  *   1.62598297  *
     8       C          4.24179009  *   0.20545842  *   0.17312504  *
     9       C          1.68678031  *   0.22196036  *  -0.05829268  *
    10       C          2.94307129  *   0.21385273  *   0.05544634  *
    11       H         -2.50422120  *  -1.45389326  *   0.69736035  *
    12       H         -3.43001785  *   0.20470002  *  -1.00728582  *
    13       H         -1.77544804  *  -1.57005914  *  -0.90994851  *
    14       H         -2.86132101  *   0.95124579  *   0.49111232  *
    15       H         -2.06557211  *   2.04575835  *  -1.81768956  *
    16       H          0.38897335  *   1.87609305  *  -1.63120913  *
    17       H         -0.70466435  *  -2.05822761  *   2.17244581  *
    18       H          0.92884206  *  -1.24558080  *   2.03267874  *
    19       H          4.87517120  *   0.90566242  *  -0.36390395  *
    20       H          4.75948021  *  -0.50236193  *   0.81408442  *

                             CARTESIAN COORDINATES

   1    C       -1.860687481    -0.910578356    -0.022528575
   2    C       -2.518192090     0.405565192    -0.411395027
   3    C       -0.487459131    -0.710863697     0.537117161
   4    C        0.370591260     0.231978414    -0.188512158
   5    C       -1.601212137     1.293576958    -1.170731078
   6    C       -0.269961455     1.206678212    -1.066736983
   7    C       -0.071703156    -1.364965270     1.625982967
   8    C        4.241790091     0.205458425     0.173125041
   9    C        1.686780306     0.221960359    -0.058292681
  10    C        2.943071288     0.213852729     0.055446343
  11    H       -2.504221202    -1.453893257     0.697360354
  12    H       -3.430017846     0.204700017    -1.007285819
  13    H       -1.775448044    -1.570059144    -0.909948512
  14    H       -2.861321006     0.951245786     0.491112317
  15    H       -2.065572113     2.045758346    -1.817689556
  16    H        0.388973348     1.876093051    -1.631209133
  17    H       -0.704664348    -2.058227611     2.172445815
  18    H        0.928842061    -1.245580797     2.032678735
  19    H        4.875171201     0.905662419    -0.363903950
  20    H        4.759480208    -0.502361931     0.814084416


           Empirical Formula: C10 H10  =    20 atoms



      MOLECULAR POINT GROUP   :   C1  


                  EIGENVALUES  
 -40.27448 -33.97159 -32.15957 -30.60801 -26.33131 -24.46716 -22.37176 -20.19501
 -18.41693 -17.06106 -16.76270 -16.39569 -15.64523 -15.13984 -14.84196 -14.21224
 -13.75040 -13.44876 -13.00751 -12.18612 -12.01748 -11.09126 -10.03334  -9.98984
  -8.39601  -0.78644   0.94867   1.12694   1.60562   2.62476   3.14668   3.23563
   3.34584   3.39804   3.70540   3.78823   3.88549   4.00344   4.11110   4.26687
   4.48566   4.57725   4.71566   4.93325   5.04702   5.36222   5.56658   5.94906
   6.03190   6.96731


              NET ATOMIC CHARGES AND DIPOLE CONTRIBUTIONS

  ATOM NO.   TYPE          CHARGE      No. of ELECS.   s-Pop       p-Pop       
    1          C          -0.053112        4.0531     1.14724     2.90587
    2          C          -0.061028        4.0610     1.14596     2.91507
    3          C          -0.077171        4.0772     1.18195     2.89522
    4          C           0.081066        3.9189     1.13253     2.78641
    5          C          -0.124117        4.1241     1.19595     2.92817
    6          C          -0.109869        4.1099     1.17902     2.93085
    7          C          -0.146294        4.1463     1.18325     2.96305
    8          C          -0.071453        4.0715     1.14817     2.92329
    9          C          -0.135974        4.1360     1.16230     2.97367
   10          C          -0.099203        4.0992     1.16407     2.93513
   11          H           0.055047        0.9450     0.94495
   12          H           0.054835        0.9452     0.94516
   13          H           0.059617        0.9404     0.94038
   14          H           0.061365        0.9386     0.93864
   15          H           0.099370        0.9006     0.90063
   16          H           0.107526        0.8925     0.89247
   17          H           0.083309        0.9167     0.91669
   18          H           0.090118        0.9099     0.90988
   19          H           0.093070        0.9069     0.90693
   20          H           0.092899        0.9071     0.90710
 DIPOLE           X         Y         Z       TOTAL
 POINT-CHG.    -0.554    -0.035    -0.033     0.556
 HYBRID         0.078    -0.000     0.005     0.078
 SUM           -0.476    -0.036    -0.028     0.478


          ATOMIC ORBITAL ELECTRON POPULATIONS

     Atom    s        px        py        pz   
    1  C   1.14724   0.93398   0.96512   1.00677
    2  C   1.14596   0.96797   0.95206   0.99504
    3  C   1.18195   0.95386   0.97418   0.96718
    4  C   1.13253   0.88124   0.94716   0.95801
    5  C   1.19595   0.95558   0.98649   0.98609
    6  C   1.17902   0.95384   0.98536   0.99165
    7  C   1.18325   1.00982   0.98763   0.96560
    8  C   1.14817   0.91001   1.00655   1.00672
    9  C   1.16230   0.92460   1.02490   1.02417
   10  C   1.16407   0.93129   1.00252   1.00133
   11  H   0.94495
   12  H   0.94516
   13  H   0.94038
   14  H   0.93864
   15  H   0.90063
   16  H   0.89247
   17  H   0.91669
   18  H   0.90988
   19  H   0.90693
   20  H   0.90710
 *******************************************************************************
 ** Site#: 14399        For non-commercial use only    Version 18.184L 64BITS **
 *******************************************************************************
 ** Cite this program as: MOPAC2016, Version: 18.184L, James J. P. Stewart,   **
 ** Stewart Computational Chemistry, web: HTTP://OpenMOPAC.net. Days left:  18**
 *******************************************************************************
 **                                                                           **
 **                                MOPAC2016                                  **
 **                                                                           **
 *******************************************************************************

                              PM3 CALCULATION RESULTS

 *******************************************************************************
 *  CALCULATION DONE:                                Sat Jun 15 10:15:39 2019  *
 *  PM3        - The PM3 Hamiltonian to be used
 *  OLDGEO     - PREVIOUS GEOMETRY TO BE USED
 *  PRECISE    - CRITERIA TO BE INCREASED BY 100 TIMES
 *  NOSYM      - POINT-GROUP SYMMETRY SET TO C1
 *  THREADS=1  - MULTI-THREADING NOT USED
 *  T=         - A TIME OF 172800.0 SECONDS REQUESTED
 *  DUMP=N     - RESTART FILE WRITTEN EVERY  7200.000 SECONDS
 *  THERMO     - THERMODYNAMIC QUANTITIES TO BE CALCULATED
 *******************************************************************************
oldgeo thermo nosym precise THREADS=1  pm3
 InChI=1S/C10H10/c1-3-6-10-8-5-4-7-9(10)2/h5,8H,1-2,4,7H2

   ATOM   CHEMICAL          X               Y               Z
  NUMBER   SYMBOL      (ANGSTROMS)     (ANGSTROMS)     (ANGSTROMS)
 
     1       C         -1.86068748  *  -0.91057836  *  -0.02252858  *
     2       C         -2.51819209  *   0.40556519  *  -0.41139503  *
     3       C         -0.48745913  *  -0.71086370  *   0.53711716  *
     4       C          0.37059126  *   0.23197841  *  -0.18851216  *
     5       C         -1.60121214  *   1.29357696  *  -1.17073108  *
     6       C         -0.26996146  *   1.20667821  *  -1.06673698  *
     7       C         -0.07170316  *  -1.36496527  *   1.62598297  *
     8       C          4.24179009  *   0.20545842  *   0.17312504  *
     9       C          1.68678031  *   0.22196036  *  -0.05829268  *
    10       C          2.94307129  *   0.21385273  *   0.05544634  *
    11       H         -2.50422120  *  -1.45389326  *   0.69736035  *
    12       H         -3.43001785  *   0.20470002  *  -1.00728582  *
    13       H         -1.77544804  *  -1.57005914  *  -0.90994851  *
    14       H         -2.86132101  *   0.95124579  *   0.49111232  *
    15       H         -2.06557211  *   2.04575835  *  -1.81768956  *
    16       H          0.38897335  *   1.87609305  *  -1.63120913  *
    17       H         -0.70466435  *  -2.05822761  *   2.17244581  *
    18       H          0.92884206  *  -1.24558080  *   2.03267874  *
    19       H          4.87517120  *   0.90566242  *  -0.36390395  *
    20       H          4.75948021  *  -0.50236193  *   0.81408442  *
 


          CARTESIAN COORDINATES 

    NO.       ATOM           X           Y           Z

     1         C         -1.8607     -0.9106     -0.0225
     2         C         -2.5182      0.4056     -0.4114
     3         C         -0.4875     -0.7109      0.5371
     4         C          0.3706      0.2320     -0.1885
     5         C         -1.6012      1.2936     -1.1707
     6         C         -0.2700      1.2067     -1.0667
     7         C         -0.0717     -1.3650      1.6260
     8         C          4.2418      0.2055      0.1731
     9         C          1.6868      0.2220     -0.0583
    10         C          2.9431      0.2139      0.0554
    11         H         -2.5042     -1.4539      0.6974
    12         H         -3.4300      0.2047     -1.0073
    13         H         -1.7754     -1.5701     -0.9099
    14         H         -2.8613      0.9512      0.4911
    15         H         -2.0656      2.0458     -1.8177
    16         H          0.3890      1.8761     -1.6312
    17         H         -0.7047     -2.0582      2.1724
    18         H          0.9288     -1.2456      2.0327
    19         H          4.8752      0.9057     -0.3639
    20         H          4.7595     -0.5024      0.8141

  H: (PM3): J. J. P. STEWART, J. COMP. CHEM. 10, 209 (1989).
  C: (PM3): J. J. P. STEWART, J. COMP. CHEM. 10, 209 (1989).

           Empirical Formula: C10 H10  =    20 atoms



      MOLECULAR POINT GROUP   :   C1  


      RHF CALCULATION, NO. OF DOUBLY OCCUPIED LEVELS = 25



          HEAT OF FORMATION =      99.755221 KCALS/MOLE


          CARTESIAN COORDINATE DERIVATIVES

   NUMBER  ATOM         X            Y            Z

     1       C     -0.005376    -0.001048    -0.004864
     2       C      0.000241     0.001696    -0.002762
     3       C      0.003570     0.000603    -0.000425
     4       C      0.015324    -0.008843    -0.003741
     5       C      0.000924    -0.000597    -0.000511
     6       C     -0.001118    -0.004655    -0.001407
     7       C     -0.002397     0.007385     0.003571
     8       C      0.000436    -0.000838    -0.005564
     9       C     -0.009504     0.003532    -0.001576
    10       C      0.004780    -0.022494    -0.001669
    11       H     -0.003102    -0.004397     0.000101
    12       H      0.001371     0.009653     0.002042
    13       H     -0.007010     0.008499     0.002303
    14       H      0.002174     0.000543     0.002087
    15       H      0.000124     0.005948     0.003016
    16       H     -0.004828     0.005840     0.001824
    17       H      0.004174    -0.007074     0.000984
    18       H     -0.007185     0.007319     0.006982
    19       H      0.003236    -0.004488    -0.003354
    20       H      0.004165     0.003416     0.002963
 


          GRADIENT NORM =   0.04294


          TIME FOR SCF CALCULATION =    0.00

          TIME FOR DERIVATIVES     =    0.00

          MOLECULAR WEIGHT =  130.19



          ROTATIONAL CONSTANTS IN CM(-1)

          A =    0.09318262   B =    0.02811981   C =    0.02211993



           PRINCIPAL MOMENTS OF INERTIA IN UNITS OF 10**(-40)*GRAM-CM**2

          A =      300.4077   B =      995.4823   C =     1265.5003


          ORIENTATION OF MOLECULE IN FORCE CALCULATION

    NO.       ATOM         X         Y         Z

     1          C       0.0421   -2.1622   -0.7414
     2          C       1.5639   -2.1622   -0.7414
     3          C      -0.5215   -0.7761   -0.7414
     4          C       0.1086    0.1731    0.1825
     5          C       2.1297   -1.2022    0.2406
     6          C       1.4528   -0.1291    0.6657
     7          C      -1.5451   -0.4350   -1.5302
     8          C      -1.6793    3.4236    1.3466
     9          C      -0.5020    1.2799    0.5717
    10          C      -1.0809    2.3340    0.9528
    11          H      -0.3337   -2.7402   -1.6087
    12          H       1.9364   -3.1836   -0.5299
    13          H      -0.3383   -2.6857    0.1591
    14          H       1.9534   -1.9007   -1.7463
    15          H       3.1462   -1.4018    0.5968
    16          H       1.8913    0.5706    1.3862
    17          H      -2.0109   -1.1307   -2.2223
    18          H      -1.9781    0.5616   -1.5272
    19          H      -1.2102    4.1259    2.0296
    20          H      -2.6790    3.6868    1.0131


    FIRST DERIVATIVES WILL BE USED IN THE CALCULATION OF SECOND DERIVATIVES

          ESTIMATED TIME TO COMPLETE CALCULATION =        1.88 SECONDS

    FOR POINT-GROUP C1   THERE ARE   1 UNIQUE SYMMETRY FUNCTIONS.

 STEP:   1 TIME =     0.02 SECS, INTEGRAL =      0.02 TIME LEFT: 172799.97
 STEP:   2 TIME =     0.02 SECS, INTEGRAL =      0.04 TIME LEFT: 172799.95
 STEP:   3 TIME =     0.02 SECS, INTEGRAL =      0.05 TIME LEFT: 172799.94
 STEP:   4 TIME =     0.02 SECS, INTEGRAL =      0.07 TIME LEFT: 172799.92
 STEP:   5 TIME =     0.02 SECS, INTEGRAL =      0.09 TIME LEFT: 172799.90
 STEP:   6 TIME =     0.02 SECS, INTEGRAL =      0.11 TIME LEFT: 172799.88
 STEP:   7 TIME =     0.02 SECS, INTEGRAL =      0.13 TIME LEFT: 172799.86
 STEP:   8 TIME =     0.02 SECS, INTEGRAL =      0.15 TIME LEFT: 172799.84
 STEP:   9 TIME =     0.02 SECS, INTEGRAL =      0.16 TIME LEFT: 172799.83
 STEP:  10 TIME =     0.02 SECS, INTEGRAL =      0.18 TIME LEFT: 172799.81
 STEP:  11 TIME =     0.02 SECS, INTEGRAL =      0.20 TIME LEFT: 172799.79
 STEP:  12 TIME =     0.02 SECS, INTEGRAL =      0.22 TIME LEFT: 172799.77
 STEP:  13 TIME =     0.02 SECS, INTEGRAL =      0.24 TIME LEFT: 172799.75
 STEP:  14 TIME =     0.02 SECS, INTEGRAL =      0.26 TIME LEFT: 172799.73
 STEP:  15 TIME =     0.02 SECS, INTEGRAL =      0.28 TIME LEFT: 172799.71
 STEP:  16 TIME =     0.02 SECS, INTEGRAL =      0.30 TIME LEFT: 172799.70
 STEP:  17 TIME =     0.02 SECS, INTEGRAL =      0.32 TIME LEFT: 172799.68
 STEP:  18 TIME =     0.02 SECS, INTEGRAL =      0.34 TIME LEFT: 172799.66
 STEP:  19 TIME =     0.02 SECS, INTEGRAL =      0.36 TIME LEFT: 172799.64
 STEP:  20 TIME =     0.02 SECS, INTEGRAL =      0.37 TIME LEFT: 172799.62
 STEP:  21 TIME =     0.02 SECS, INTEGRAL =      0.39 TIME LEFT: 172799.60
 STEP:  22 TIME =     0.02 SECS, INTEGRAL =      0.41 TIME LEFT: 172799.58
 STEP:  23 TIME =     0.02 SECS, INTEGRAL =      0.43 TIME LEFT: 172799.56
 STEP:  24 TIME =     0.02 SECS, INTEGRAL =      0.45 TIME LEFT: 172799.54
 STEP:  25 TIME =     0.02 SECS, INTEGRAL =      0.47 TIME LEFT: 172799.52
 STEP:  26 TIME =     0.02 SECS, INTEGRAL =      0.48 TIME LEFT: 172799.51
 STEP:  27 TIME =     0.02 SECS, INTEGRAL =      0.50 TIME LEFT: 172799.49
 STEP:  28 TIME =     0.02 SECS, INTEGRAL =      0.52 TIME LEFT: 172799.47
 STEP:  29 TIME =     0.02 SECS, INTEGRAL =      0.54 TIME LEFT: 172799.45
 STEP:  30 TIME =     0.02 SECS, INTEGRAL =      0.56 TIME LEFT: 172799.43
 STEP:  31 TIME =     0.02 SECS, INTEGRAL =      0.58 TIME LEFT: 172799.41
 STEP:  32 TIME =     0.02 SECS, INTEGRAL =      0.60 TIME LEFT: 172799.39
 STEP:  33 TIME =     0.02 SECS, INTEGRAL =      0.61 TIME LEFT: 172799.38
 STEP:  34 TIME =     0.02 SECS, INTEGRAL =      0.63 TIME LEFT: 172799.36
 STEP:  35 TIME =     0.02 SECS, INTEGRAL =      0.65 TIME LEFT: 172799.34
 STEP:  36 TIME =     0.02 SECS, INTEGRAL =      0.67 TIME LEFT: 172799.32
 STEP:  37 TIME =     0.02 SECS, INTEGRAL =      0.69 TIME LEFT: 172799.30
 STEP:  38 TIME =     0.02 SECS, INTEGRAL =      0.71 TIME LEFT: 172799.28
 STEP:  39 TIME =     0.02 SECS, INTEGRAL =      0.73 TIME LEFT: 172799.27
 STEP:  40 TIME =     0.02 SECS, INTEGRAL =      0.75 TIME LEFT: 172799.25
 STEP:  41 TIME =     0.02 SECS, INTEGRAL =      0.77 TIME LEFT: 172799.23
 STEP:  42 TIME =     0.02 SECS, INTEGRAL =      0.79 TIME LEFT: 172799.21
 STEP:  43 TIME =     0.02 SECS, INTEGRAL =      0.80 TIME LEFT: 172799.19
 STEP:  44 TIME =     0.02 SECS, INTEGRAL =      0.82 TIME LEFT: 172799.18
 STEP:  45 TIME =     0.02 SECS, INTEGRAL =      0.84 TIME LEFT: 172799.16
 STEP:  46 TIME =     0.02 SECS, INTEGRAL =      0.86 TIME LEFT: 172799.14
 STEP:  47 TIME =     0.02 SECS, INTEGRAL =      0.88 TIME LEFT: 172799.12
 STEP:  48 TIME =     0.02 SECS, INTEGRAL =      0.89 TIME LEFT: 172799.10
 STEP:  49 TIME =     0.02 SECS, INTEGRAL =      0.91 TIME LEFT: 172799.08
 STEP:  50 TIME =     0.02 SECS, INTEGRAL =      0.93 TIME LEFT: 172799.06
 STEP:  51 TIME =     0.02 SECS, INTEGRAL =      0.95 TIME LEFT: 172799.04
 STEP:  52 TIME =     0.02 SECS, INTEGRAL =      0.96 TIME LEFT: 172799.03
 STEP:  53 TIME =     0.02 SECS, INTEGRAL =      0.98 TIME LEFT: 172799.01
 STEP:  54 TIME =     0.02 SECS, INTEGRAL =      1.00 TIME LEFT: 172798.99
 STEP:  55 TIME =     0.02 SECS, INTEGRAL =      1.02 TIME LEFT: 172798.97
 STEP:  56 TIME =     0.02 SECS, INTEGRAL =      1.04 TIME LEFT: 172798.95
 STEP:  57 TIME =     0.02 SECS, INTEGRAL =      1.06 TIME LEFT: 172798.93
 STEP:  58 TIME =     0.02 SECS, INTEGRAL =      1.08 TIME LEFT: 172798.91
 STEP:  59 TIME =     0.02 SECS, INTEGRAL =      1.10 TIME LEFT: 172798.89
 STEP:  60 TIME =     0.02 SECS, INTEGRAL =      1.12 TIME LEFT: 172798.87

(To convert to Hartree/Bohr^2, multiply by (10^(-21) x N x a0^2)/(4.184 x 627.51) =  0.0642)


           FORCE MATRIX IN MILLIDYNES/ANGSTROM


                  C  1       C  2       C  3       C  4       C  5       C  6
 ------------------------------------------------------------------------------
     C    1  14.686446
     C    2   4.127178  14.717067
     C    3   4.669252   0.675334  18.577837
     C    4   0.653708   0.102912   5.005097  18.882774
     C    5   0.695969   5.019574   0.064722   1.103639  18.033218
     C    6   0.066163   0.856696   0.699052   5.247599  10.340104  18.424821
     C    7   0.810699   0.043788  10.411263   0.984001   0.008808   0.054485
     C    8   0.004130   0.003122   0.062580   0.333917   0.027652   0.074731
     C    9   0.049046   0.016086   1.091104   9.848180   0.164247   1.250888
     C   10   0.011410   0.008863   0.195363   1.400684   0.076858   0.211766
     H   11   4.464701   0.429527   0.450994   0.044004   0.050883   0.004139
     H   12   0.428129   4.470594   0.049673   0.009045   0.435332   0.046726
     H   13   4.427909   0.446853   0.415282   0.014744   0.010304   0.005035
     H   14   0.444968   4.411515   0.008704   0.016388   0.407477   0.029559
     H   15   0.041461   0.426590   0.005308   0.118819   4.840441   0.439979
     H   16   0.005282   0.117063   0.040470   0.445526   0.440268   4.834107
     H   17   0.084472   0.008987   0.473003   0.121236   0.001459   0.010182
     H   18   0.122466   0.015804   0.475336   0.087247   0.002022   0.005021
     H   19   0.001157   0.002066   0.040788   0.009994   0.003546   0.044092
     H   20   0.001765   0.002426   0.044731   0.009426   0.003534   0.043044


                  C  7       C  8       C  9       C 10       H 11       H 12
 ------------------------------------------------------------------------------
     C    7  17.883567
     C    8   0.021404  17.755928
     C    9   0.140324   1.399556  24.555106
     C   10   0.064449  10.982544  11.837235  24.624265
     H   11   0.055818   0.000388   0.007797   0.001550   5.071437
     H   12   0.008391   0.000511   0.002023   0.001100   0.026467   5.066713
     H   13   0.030494   0.000336   0.002672   0.001064   0.560345   0.034996
     H   14   0.001515   0.000953   0.004564   0.001940   0.034016   0.567270
     H   15   0.002175   0.001020   0.008158   0.005850   0.006790   0.036292
     H   16   0.007576   0.001608   0.035120   0.006013   0.001029   0.011527
     H   17   5.088876   0.000959   0.009597   0.003737   0.030011   0.001590
     H   18   5.084857   0.001912   0.016444   0.008157   0.003170   0.002596
     H   19   0.003514   5.046935   0.041666   0.473582   0.000212   0.000181
     H   20   0.003785   5.046427   0.037654   0.474024   0.000319   0.000252


                  H 13       H 14       H 15       H 16       H 17       H 18
 ------------------------------------------------------------------------------
     H   13   5.015635
     H   14   0.044895   5.010064
     H   15   0.001502   0.015615   5.209847
     H   16   0.000523   0.015612   0.065383   5.200891
     H   17   0.010666   0.000506   0.000391   0.001705   5.472063
     H   18   0.016017   0.000467   0.000373   0.001179   0.403573   5.461305
     H   19   0.000324   0.000340   0.003163   0.000822   0.001117   0.001572
     H   20   0.000235   0.000328   0.003067   0.000491   0.001719   0.001438


                  H 19       H 20
 ------------------------------
     H   19   5.413417
     H   20   0.399116   5.412883


          HEAT OF FORMATION =      99.755221 KCALS/MOLE

          ZERO POINT ENERGY     103.242 KCAL/MOL


           NORMAL COORDINATE ANALYSIS (Total motion = 1 Angstrom)


   Root No.       1         2         3         4         5         6         7         8

                 1 A       2 A       3 A       4 A       5 A       6 A       7 A       8 A   

                  61.5      96.9     137.9     177.9     304.7     311.8     372.2     391.2
  
           1    0.0208    0.0160   -0.0064    0.0049   -0.0000    0.0035   -0.0131   -0.0063
           2    0.0035   -0.0116   -0.0094    0.0039    0.0142   -0.0040   -0.0007   -0.0300
           3   -0.0383   -0.0021    0.0340   -0.0349    0.0085   -0.0155    0.0136   -0.0167
           4    0.0207    0.0161   -0.0060    0.0051   -0.0016    0.0025   -0.0066   -0.0070
           5    0.0294    0.0112    0.0181   -0.0254    0.0129   -0.0126    0.0344    0.0110
           6   -0.0319    0.0148   -0.0305    0.0300   -0.0048    0.0024    0.0250   -0.0043
           7   -0.0062   -0.0071   -0.0041    0.0022    0.0035   -0.0093   -0.0269   -0.0090
           8   -0.0074   -0.0204   -0.0085    0.0024    0.0167   -0.0057   -0.0114   -0.0296
           9    0.0097   -0.0179    0.0135   -0.0054   -0.0275    0.0053   -0.0196    0.0323
          10   -0.0090   -0.0310   -0.0160   -0.0080    0.0147   -0.0226   -0.0066   -0.0066
          11   -0.0139   -0.0042   -0.0153   -0.0079    0.0185   -0.0025   -0.0347   -0.0042
          12    0.0181   -0.0193    0.0295    0.0112   -0.0347    0.0142   -0.0152    0.0063
          13   -0.0027   -0.0097    0.0046    0.0081   -0.0094   -0.0030    0.0141   -0.0208
          14   -0.0042    0.0257    0.0127    0.0143   -0.0225    0.0128    0.0381   -0.0086
          15    0.0144    0.0151   -0.0300   -0.0124    0.0342   -0.0218    0.0106    0.0239
          16   -0.0176   -0.0314   -0.0056    0.0075    0.0106   -0.0210   -0.0095    0.0118
          17   -0.0225    0.0182   -0.0078    0.0163    0.0119   -0.0105    0.0168    0.0322
          18    0.0369   -0.0016    0.0072   -0.0203   -0.0217    0.0062    0.0147   -0.0291
          19   -0.0307   -0.0042    0.0359   -0.0051   -0.0217    0.0020   -0.0235    0.0260
          20   -0.0108   -0.0445    0.0043    0.0131   -0.0274   -0.0344    0.0407    0.0090
          21    0.0395   -0.0319   -0.0317    0.0079   -0.0139   -0.0221   -0.0036    0.0046
          22    0.0171    0.0610    0.0141    0.0144    0.0008   -0.0281    0.0155   -0.0044
          23    0.0194    0.0221    0.0212    0.0181    0.0058    0.0047   -0.0421    0.0004
          24   -0.0337    0.0478   -0.0268   -0.0251   -0.0219   -0.0002   -0.0169    0.0013
          25   -0.0022   -0.0334   -0.0198   -0.0236    0.0026    0.0247    0.0108   -0.0042
          26   -0.0055   -0.0045   -0.0207   -0.0259   -0.0125    0.0259   -0.0328    0.0014
          27    0.0060   -0.0222    0.0372    0.0388    0.0325    0.0133   -0.0174   -0.0031
          28    0.0068    0.0064   -0.0084   -0.0139    0.0106    0.0629    0.0538    0.0144
          29    0.0060    0.0068   -0.0064   -0.0149   -0.0164    0.0416   -0.0243    0.0098
          30   -0.0124    0.0071    0.0152    0.0231    0.0548    0.0327    0.0046    0.0029
          31    0.0348    0.0350   -0.0375    0.0368   -0.0103    0.0172    0.0050    0.0182
          32    0.0283   -0.0235   -0.0385    0.0389   -0.0151    0.0131   -0.0275    0.0156
          33   -0.0610   -0.0025    0.0673   -0.0725    0.0327   -0.0337    0.0248   -0.0587
          34    0.0371    0.0290    0.0245   -0.0287    0.0033   -0.0077    0.0063    0.0256
          35    0.0262    0.0181    0.0224   -0.0222    0.0036   -0.0073    0.0404    0.0111
          36   -0.0766    0.0253   -0.0651    0.1083   -0.0616    0.0494    0.0299   -0.0654
          37    0.0270    0.0143    0.0380   -0.0413    0.0096   -0.0096   -0.0099   -0.0112
          38   -0.0365   -0.0118    0.0143   -0.0258    0.0464   -0.0256    0.0158   -0.0930
          39   -0.0589   -0.0029    0.0662   -0.0714    0.0315   -0.0336    0.0245   -0.0566
          40    0.0212    0.0237   -0.0531    0.0520   -0.0102    0.0197   -0.0170   -0.0159
          41    0.0818    0.0109    0.0467   -0.0993    0.0684   -0.0572    0.0342    0.0828
          42   -0.0181    0.0177   -0.0412    0.0288    0.0061   -0.0023    0.0210    0.0097
          43   -0.0088   -0.0112    0.0166    0.0214   -0.0383    0.0126    0.0261   -0.0375
          44   -0.0111    0.0436    0.0241    0.0400   -0.0647    0.0433    0.0586   -0.0348
          45    0.0276    0.0293   -0.0583   -0.0347    0.0919   -0.0483   -0.0141    0.0567
          46   -0.0361   -0.0503   -0.0042    0.0208    0.0098   -0.0213   -0.0427    0.0375
          47   -0.0431    0.0298   -0.0161    0.0381    0.0194   -0.0178    0.0380    0.0701
          48    0.0681   -0.0012    0.0142   -0.0493   -0.0283    0.0141    0.0144   -0.0815
          49   -0.0313    0.0149    0.0564   -0.0038   -0.0247    0.0429   -0.0628    0.0273
          50   -0.0047   -0.0585    0.0092    0.0267   -0.0637   -0.0511    0.0773    0.0376
          51    0.0337   -0.0309   -0.0504   -0.0065    0.0237   -0.0339   -0.0126   -0.0243
          52   -0.0518   -0.0206    0.0511   -0.0132   -0.0432   -0.0279    0.0212    0.0608
          53   -0.0199   -0.0517    0.0109    0.0096   -0.0374   -0.0482    0.0611    0.0245
          54    0.0717   -0.0456   -0.0538    0.0352   -0.0402   -0.0395    0.0256    0.0057
          55    0.0182    0.1109    0.0247    0.0308   -0.0280   -0.1300   -0.0357   -0.0033
          56    0.0210   -0.0127    0.0320    0.0324    0.0493    0.0588   -0.0159    0.0394
          57   -0.0360    0.0494   -0.0451   -0.0509   -0.0474    0.0129   -0.0101   -0.0398
          58    0.0252    0.0622    0.0238    0.0239    0.0107   -0.0344    0.0149   -0.0301
          59    0.0296    0.0716    0.0348    0.0333   -0.0205   -0.0907   -0.0917   -0.0503
          60   -0.0499    0.0834   -0.0451   -0.0413   -0.0733   -0.0596   -0.0552    0.0380


   Root No.       9        10        11        12        13        14        15        16

                 9 A      10 A      11 A      12 A      13 A      14 A      15 A      16 A   

                 448.4     507.1     529.5     571.4     616.3     623.2     681.1     706.7
  
           1    0.0285    0.0194    0.0052    0.0118    0.0011   -0.0006   -0.0168    0.0094
           2   -0.0195    0.0280    0.0034    0.0005   -0.0301   -0.0195   -0.0291    0.0097
           3    0.0168    0.0104    0.0036    0.0090   -0.0027   -0.0046   -0.0004   -0.0092
           4    0.0315    0.0242    0.0050    0.0256    0.0074   -0.0092   -0.0136    0.0037
           5   -0.0279   -0.0051   -0.0008    0.0022   -0.0001   -0.0028    0.0077   -0.0091
           6   -0.0126    0.0020    0.0007    0.0091    0.0017   -0.0043    0.0284   -0.0051
           7    0.0180   -0.0297   -0.0053   -0.0659    0.0026    0.0223    0.0172    0.0211
           8   -0.0173    0.0096    0.0006   -0.0206   -0.0157   -0.0079   -0.0079    0.0134
           9   -0.0170   -0.0038   -0.0025    0.0373   -0.0209   -0.0226   -0.0382   -0.0225
          10   -0.0172   -0.0224   -0.0124   -0.0119   -0.0014   -0.0063   -0.0013   -0.0252
          11    0.0088   -0.0184   -0.0121   -0.0002    0.0078   -0.0039   -0.0059   -0.0296
          12   -0.0221    0.0188    0.0167   -0.0163   -0.0263    0.0003   -0.0015    0.0492
          13   -0.0108    0.0188    0.0027    0.0305   -0.0108   -0.0389    0.0452   -0.0259
          14   -0.0106   -0.0211   -0.0114   -0.0061    0.0144    0.0162   -0.0088   -0.0067
          15   -0.0048    0.0153    0.0109    0.0055   -0.0027   -0.0023    0.0099    0.0096
          16   -0.0267   -0.0001    0.0087   -0.0123   -0.0195   -0.0149    0.0102   -0.0084
          17   -0.0128   -0.0155    0.0071   -0.0242    0.0042    0.0236   -0.0250    0.0052
          18   -0.0181   -0.0276   -0.0247   -0.0222   -0.0028    0.0053    0.0025    0.0069
          19    0.0045   -0.0213   -0.0066   -0.0152   -0.0051    0.0046   -0.0078   -0.0007
          20    0.0362    0.0112    0.0007    0.0141    0.0034   -0.0039   -0.0012    0.0002
          21    0.0253   -0.0185   -0.0012   -0.0202   -0.0033    0.0056   -0.0055    0.0009
          22   -0.0092   -0.0044   -0.0034   -0.0005   -0.0088    0.0024   -0.0140    0.0027
          23    0.0168   -0.0029   -0.0015    0.0109    0.0021   -0.0080    0.0257   -0.0041
          24    0.0024    0.0060    0.0071   -0.0083    0.0038   -0.0063    0.0089   -0.0035
          25   -0.0290    0.0029   -0.0071    0.0660    0.0431    0.0585   -0.0024    0.0225
          26    0.0057   -0.0068   -0.0097    0.0480   -0.0013    0.0195    0.0107    0.0200
          27   -0.0157    0.0262    0.0205   -0.0210    0.0793    0.0210   -0.0003   -0.0265
          28    0.0092    0.0076    0.0108   -0.0474   -0.0068   -0.0157   -0.0114   -0.0077
          29    0.0149    0.0180    0.0188   -0.0354    0.0167   -0.0168    0.0173   -0.0143
          30    0.0282   -0.0338   -0.0290    0.0440   -0.0390   -0.0021    0.0086    0.0144
          31   -0.0067    0.0086    0.0020    0.0444    0.0158   -0.0264    0.0302   -0.0162
          32   -0.0590   -0.0037   -0.0070    0.0291   -0.0320   -0.0624   -0.0306   -0.0225
          33    0.0606    0.0377    0.0123   -0.0245   -0.0076    0.0363   -0.0212    0.0250
          34    0.0417   -0.0010    0.0080    0.0184    0.0349    0.0161    0.0337    0.0048
          35   -0.0227   -0.0172   -0.0063   -0.0014    0.0127    0.0094    0.0059   -0.0141
          36   -0.0041   -0.0119   -0.0338    0.0059    0.0149    0.0098   -0.0771   -0.0331
          37    0.0630    0.0401    0.0114    0.0270    0.0058    0.0072   -0.0714    0.0231
          38    0.0283    0.0596    0.0139   -0.0622   -0.0431    0.0377   -0.0288    0.0586
          39    0.0601    0.0386    0.0125   -0.0219   -0.0091    0.0334   -0.0246    0.0257
          40    0.0288    0.0377    0.0021    0.0302    0.0023   -0.0104   -0.0736    0.0234
          41   -0.0346    0.0010    0.0332    0.0015   -0.0019   -0.0033    0.1165    0.0272
          42   -0.0146    0.0091    0.0078    0.0109   -0.0005   -0.0047    0.0308    0.0112
          43   -0.0217    0.0113    0.0022    0.0288   -0.0171   -0.0403    0.0909    0.0146
          44    0.0018   -0.0151   -0.0082    0.0156    0.0229    0.0198    0.0433    0.0573
          45    0.0339    0.0395    0.0134    0.0219    0.0196    0.0028   -0.0910   -0.0707
          46   -0.0346    0.0106    0.0388   -0.0305   -0.0470   -0.0089    0.0193    0.0719
          47   -0.0244    0.0133    0.0514   -0.0180   -0.0146    0.0341    0.0066    0.1036
          48   -0.0017   -0.0613   -0.0858   -0.0162    0.0328   -0.0081   -0.0338   -0.1374
          49   -0.0521    0.0319    0.0134   -0.0040   -0.1591    0.1123   -0.0280   -0.0968
          50    0.0906    0.0306    0.0111    0.0421   -0.0211    0.0670    0.0283   -0.0576
          51    0.0117   -0.0741   -0.0251   -0.0556    0.1260   -0.1372   -0.0210    0.1232
          52    0.0473   -0.0629   -0.0271    0.0427    0.1358   -0.1270   -0.0293    0.0534
          53    0.0566   -0.0067   -0.0081    0.0402    0.0655   -0.0610   -0.0098    0.0234
          54    0.0942    0.0208    0.0235   -0.0581   -0.1020    0.1910    0.0699   -0.0804
          55   -0.0474    0.0483   -0.1147    0.0233    0.0271    0.0439   -0.0113    0.0225
          56    0.0411    0.0420   -0.1489   -0.0259   -0.0321   -0.0252    0.0417    0.0091
          57    0.0031   -0.0759    0.2353    0.0144    0.0159   -0.0164   -0.0080   -0.0309
          58   -0.0046   -0.0648    0.0939    0.0491   -0.0213    0.0061   -0.0214    0.0029
          59   -0.0092   -0.0689    0.1262    0.1077    0.0266    0.0263    0.0246   -0.0011
          60   -0.0342    0.1359   -0.1850   -0.0791    0.0628    0.0128    0.0273   -0.0010


   Root No.      17        18        19        20        21        22        23        24

                17 A      18 A      19 A      20 A      21 A      22 A      23 A      24 A   

                 787.2     831.9     878.1     930.0     935.0     953.2     978.9     998.9
  
           1   -0.0078   -0.0104   -0.0083   -0.0206   -0.0003    0.0037   -0.0001   -0.0155
           2   -0.0222    0.0102    0.0169   -0.0330   -0.0000    0.0179    0.0010    0.0071
           3   -0.0226    0.0105   -0.0250   -0.0351   -0.0011   -0.0261   -0.0011   -0.0180
           4   -0.0012   -0.0122   -0.0242    0.0085    0.0007   -0.0058    0.0001    0.0114
           5    0.0120    0.0186    0.0484   -0.0046   -0.0025   -0.0200   -0.0017   -0.0288
           6   -0.0151    0.0106   -0.0085    0.0035    0.0002    0.0183    0.0009   -0.0016
           7   -0.0141    0.0333    0.0114   -0.0011   -0.0008   -0.0042    0.0003    0.0018
           8   -0.0188    0.0086   -0.0195    0.0090    0.0003   -0.0080   -0.0002    0.0013
           9   -0.0182   -0.0124    0.0137    0.0102    0.0011    0.0091   -0.0001    0.0049
          10    0.0056   -0.0337   -0.0040   -0.0001   -0.0000   -0.0038   -0.0009    0.0037
          11   -0.0190   -0.0246    0.0027    0.0006   -0.0003   -0.0026   -0.0011    0.0047
          12    0.0245    0.0298   -0.0234   -0.0035   -0.0006    0.0080    0.0019   -0.0061
          13    0.0150    0.0293    0.0181    0.0172    0.0012   -0.0071    0.0008    0.0264
          14    0.0050    0.0125   -0.0122    0.0037   -0.0004   -0.0026    0.0012    0.0236
          15    0.0014   -0.0160    0.0221    0.0125    0.0006    0.0047   -0.0013   -0.0091
          16    0.0441   -0.0155   -0.0219   -0.0075    0.0026    0.0134   -0.0001   -0.0122
          17    0.0206   -0.0057   -0.0283   -0.0017    0.0018    0.0239    0.0003   -0.0066
          18    0.0177   -0.0512   -0.0112   -0.0143    0.0010   -0.0231    0.0005    0.0254
          19   -0.0180    0.0207    0.0263    0.0019   -0.0006    0.0011   -0.0006   -0.0105
          20   -0.0027   -0.0040   -0.0202    0.0390    0.0022   -0.0192   -0.0014   -0.0193
          21   -0.0165    0.0129    0.0173    0.0220    0.0011    0.0040    0.0007    0.0160
          22   -0.0107    0.0018   -0.0027    0.0016   -0.0702    0.0011    0.0387   -0.0001
          23    0.0205   -0.0056    0.0029    0.0001   -0.0208   -0.0018    0.0492   -0.0015
          24    0.0076   -0.0023    0.0002    0.0005   -0.0476    0.0004   -0.0776    0.0007
          25   -0.0001    0.0119    0.0018   -0.0005   -0.0150    0.0017    0.0023   -0.0006
          26    0.0065    0.0100   -0.0017    0.0001   -0.0047    0.0019    0.0029   -0.0006
          27   -0.0099   -0.0094    0.0069    0.0005   -0.0101   -0.0011   -0.0042    0.0024
          28   -0.0080   -0.0010   -0.0004   -0.0009    0.0636   -0.0004   -0.0140    0.0005
          29    0.0110   -0.0059    0.0022   -0.0006    0.0195   -0.0010   -0.0177    0.0001
          30    0.0083    0.0026   -0.0005   -0.0010    0.0433   -0.0004    0.0278   -0.0009
          31   -0.0394    0.0228   -0.0595   -0.0735   -0.0032   -0.0369   -0.0011   -0.0742
          32   -0.0978    0.0373   -0.0367   -0.1196   -0.0020   -0.0309   -0.0013    0.0046
          33    0.0433   -0.0237    0.0342    0.0473    0.0015    0.0263    0.0009    0.0089
          34   -0.0334   -0.0191   -0.1367    0.0341    0.0002   -0.0289    0.0008    0.0309
          35    0.0176    0.0193    0.0286    0.0047   -0.0042   -0.0489   -0.0026   -0.0350
          36    0.0815    0.0192    0.1009   -0.0001   -0.0068   -0.0885   -0.0055   -0.0746
          37    0.0492   -0.0792    0.0487    0.0330    0.0014    0.0068   -0.0041   -0.0675
          38    0.0348    0.0045    0.0753    0.0430    0.0028    0.1114    0.0075    0.0843
          39    0.0371   -0.0232    0.0366    0.0340    0.0013    0.0311    0.0010    0.0046
          40    0.0391   -0.0570    0.0714    0.0308    0.0007    0.0309   -0.0028   -0.0633
          41   -0.0851   -0.0014   -0.0545    0.0219    0.0029    0.0956    0.0038    0.0035
          42   -0.0219   -0.0116    0.0053    0.0201    0.0015    0.0612    0.0011   -0.0231
          43   -0.0351   -0.0648    0.0485    0.0259    0.0031    0.0304   -0.0024   -0.0282
          44   -0.1112   -0.0981    0.0184    0.0521   -0.0004    0.0509   -0.0023    0.0003
          45    0.0829    0.1886   -0.0487    0.0156   -0.0045   -0.0734    0.0059    0.1329
          46    0.0338   -0.1008   -0.0137   -0.0572    0.0003   -0.0741   -0.0002   -0.0033
          47   -0.0126   -0.0741    0.0471   -0.0073   -0.0039   -0.0994    0.0013    0.1003
          48    0.0567    0.0663   -0.0905    0.0218    0.0080    0.1501   -0.0004   -0.0815
          49   -0.0602   -0.0116    0.0066    0.1567    0.0097   -0.0222   -0.0001    0.0366
          50    0.0273   -0.0372    0.0155   -0.1175   -0.0058    0.0389    0.0028    0.0476
          51   -0.0185    0.0690   -0.0019    0.0698    0.0019   -0.0364   -0.0037   -0.0816
          52    0.0184    0.0037    0.0849   -0.1297   -0.0063    0.0934    0.0069    0.1048
          53    0.0143   -0.0126    0.0045   -0.0220   -0.0005    0.0215    0.0019    0.0311
          54   -0.0029    0.0279    0.0551   -0.1513   -0.0101    0.0125   -0.0011   -0.0409
          55   -0.0210    0.0114   -0.0003   -0.0054    0.2679   -0.0001   -0.1569    0.0044
          56    0.0292   -0.0091   -0.0010    0.0021   -0.2557   -0.0011   -0.2024    0.0018
          57    0.0072   -0.0057    0.0031    0.0029   -0.0276    0.0002    0.3155   -0.0059
          58   -0.0081    0.0064   -0.0035    0.0014   -0.0480    0.0043   -0.1560    0.0015
          59    0.0313    0.0022    0.0087   -0.0063    0.3240   -0.0014   -0.1963   -0.0005
          60    0.0049   -0.0088    0.0068   -0.0041    0.1793   -0.0089    0.3127   -0.0029


   Root No.      25        26        27        28        29        30        31        32

                25 A      26 A      27 A      28 A      29 A      30 A      31 A      32 A   

                1012.6    1037.9    1071.3    1074.1    1109.9    1138.7    1162.2    1203.4
  
           1    0.0253   -0.0104   -0.0212   -0.0184    0.0305   -0.0060    0.0061    0.0052
           2    0.0005   -0.0052   -0.0084   -0.0134    0.0085    0.0219    0.0090    0.0033
           3    0.0021    0.0198   -0.0132    0.0072   -0.0296    0.0019   -0.0028    0.0015
           4   -0.0156    0.0085    0.0188    0.0003   -0.0301    0.0051   -0.0126    0.0160
           5    0.0208    0.0038    0.0136    0.0032   -0.0083   -0.0007    0.0034    0.0031
           6    0.0202   -0.0290    0.0031    0.0121    0.0307    0.0107    0.0043    0.0040
           7    0.0063    0.0187   -0.0040    0.0141    0.0010    0.0007   -0.0006    0.0014
           8   -0.0031    0.0104    0.0144    0.0175    0.0089   -0.0102   -0.0085   -0.0289
           9   -0.0120   -0.0202    0.0096   -0.0126    0.0020    0.0003   -0.0044   -0.0092
          10    0.0008   -0.0064    0.0051   -0.0010   -0.0071    0.0122    0.0174   -0.0333
          11   -0.0023   -0.0098    0.0208    0.0108    0.0092   -0.0402   -0.0144   -0.0011
          12   -0.0001    0.0083    0.0170    0.0107    0.0025   -0.0190   -0.0006   -0.0197
          13   -0.0206    0.0017   -0.0101    0.0045    0.0087   -0.0177   -0.0095    0.0076
          14   -0.0056   -0.0145   -0.0118    0.0092   -0.0002   -0.0030    0.0032    0.0125
          15   -0.0236    0.0371    0.0049   -0.0182    0.0054   -0.0121   -0.0023    0.0146
          16   -0.0009    0.0086   -0.0027   -0.0069   -0.0033    0.0052   -0.0007   -0.0039
          17   -0.0118    0.0158   -0.0133   -0.0099   -0.0020   -0.0042   -0.0062    0.0132
          18   -0.0026   -0.0143   -0.0171   -0.0028   -0.0020   -0.0010   -0.0055    0.0075
          19   -0.0239   -0.0236   -0.0004   -0.0138   -0.0018    0.0065   -0.0003    0.0045
          20   -0.0004   -0.0092   -0.0135   -0.0093   -0.0014    0.0015    0.0026    0.0096
          21    0.0314    0.0215   -0.0095    0.0032   -0.0027    0.0050    0.0005    0.0078
          22   -0.0014   -0.0008    0.0066    0.0042    0.0038   -0.0130   -0.0056    0.0014
          23    0.0022    0.0018   -0.0122   -0.0077   -0.0068    0.0236    0.0103   -0.0026
          24    0.0011    0.0004   -0.0045   -0.0028   -0.0025    0.0085    0.0037   -0.0009
          25    0.0003    0.0027   -0.0089   -0.0043   -0.0033    0.0139    0.0055    0.0025
          26   -0.0010    0.0011    0.0064    0.0048    0.0055   -0.0225   -0.0125    0.0064
          27   -0.0008   -0.0020   -0.0007   -0.0000    0.0017   -0.0073   -0.0052    0.0057
          28   -0.0004   -0.0007    0.0023    0.0012    0.0004   -0.0001    0.0010   -0.0021
          29    0.0008    0.0001   -0.0022   -0.0015   -0.0007   -0.0004   -0.0014    0.0016
          30    0.0002    0.0005   -0.0002   -0.0003   -0.0002   -0.0003   -0.0004   -0.0001
          31    0.1430   -0.0459   -0.0408   -0.1231   -0.0708   -0.1218    0.0234   -0.1268
          32   -0.0708    0.0729   -0.0341    0.0567    0.0112    0.1173   -0.0042    0.1030
          33   -0.0002   -0.0192    0.0139    0.0064    0.0120   -0.0088   -0.0021   -0.0087
          34    0.0147    0.0028    0.1898   -0.0311    0.0806    0.1472   -0.0874   -0.0376
          35    0.0379    0.0131    0.1008   -0.0113    0.0297    0.0652   -0.0284   -0.0243
          36    0.0488    0.0308    0.1110   -0.0033    0.0214    0.0674   -0.0261   -0.0343
          37   -0.0266   -0.0084   -0.0662    0.1395    0.2491    0.0105    0.0697   -0.0533
          38    0.0436   -0.0814    0.0532   -0.1385   -0.0717    0.0238   -0.0274    0.0395
          39    0.0050   -0.0246    0.0025    0.0033    0.0172    0.0084    0.0036   -0.0027
          40   -0.0096   -0.0376   -0.0225    0.1715   -0.2416    0.0223   -0.0706   -0.0389
          41    0.0413   -0.1021   -0.0039    0.0908   -0.0310    0.0509   -0.0121   -0.0283
          42    0.0272   -0.0737   -0.0163    0.1036   -0.0575    0.0319   -0.0216   -0.0257
          43   -0.0338    0.0528    0.0035   -0.0203    0.0074   -0.0200   -0.0213    0.0157
          44   -0.0842    0.0862    0.0789   -0.0161   -0.0686   -0.0339    0.2474   -0.0803
          45   -0.0301   -0.0523    0.0206    0.0397   -0.0284   -0.0231    0.1601   -0.0541
          46    0.0746   -0.0797    0.0958    0.0519   -0.0247   -0.0380    0.1331    0.2089
          47   -0.0449    0.0019   -0.0901   -0.0341    0.0122    0.0222   -0.0983   -0.1294
          48   -0.0194    0.0546   -0.0045   -0.0164   -0.0031   -0.0020    0.0018    0.0148
          49    0.1221    0.0721   -0.0540    0.0022   -0.0161    0.0261    0.0108    0.0354
          50    0.0202    0.0407    0.0323    0.0394    0.0105   -0.0221   -0.0080   -0.0282
          51   -0.0875   -0.0939   -0.0184   -0.0574   -0.0052    0.0151    0.0033    0.0238
          52    0.0789    0.0684    0.0322    0.0270    0.0060   -0.0038   -0.0078   -0.0237
          53    0.0438    0.0313    0.0018    0.0097    0.0027   -0.0044   -0.0011   -0.0040
          54   -0.1353   -0.0880    0.0401   -0.0202   -0.0026   -0.0006   -0.0056   -0.0264
          55   -0.0030   -0.0032    0.0286    0.0193    0.0208   -0.0909   -0.0521    0.0273
          56    0.0061    0.0038   -0.0303   -0.0177   -0.0199    0.0839    0.0461   -0.0226
          57   -0.0014    0.0003   -0.0037   -0.0047   -0.0026    0.0080    0.0033   -0.0003
          58   -0.0013   -0.0016    0.0074    0.0036    0.0039   -0.0140   -0.0060    0.0016
          59    0.0053    0.0032   -0.0344   -0.0240   -0.0251    0.1071    0.0596   -0.0305
          60    0.0026    0.0034   -0.0190   -0.0104   -0.0135    0.0610    0.0349   -0.0191


   Root No.      33        34        35        36        37        38        39        40

                33 A      34 A      35 A      36 A      37 A      38 A      39 A      40 A   

                1281.0    1295.2    1351.9    1359.6    1390.2    1400.1    1433.9    1502.8
  
           1    0.0179    0.0319   -0.0269   -0.0246   -0.0140   -0.0439    0.0327    0.0158
           2    0.0014   -0.0251    0.0141    0.0169    0.0377   -0.0233   -0.0269   -0.0590
           3    0.0044   -0.0018    0.0014   -0.0048   -0.0000   -0.0016    0.0037   -0.0075
           4   -0.0170    0.0015   -0.0260    0.0351    0.0160    0.0477   -0.0432    0.0128
           5   -0.0004    0.0118   -0.0122    0.0204   -0.0269   -0.0049   -0.0340    0.0263
           6   -0.0040    0.0049   -0.0099    0.0268   -0.0228   -0.0028   -0.0394    0.0211
           7    0.0007    0.0106    0.0129    0.0060    0.0072    0.0008   -0.0026    0.0058
           8   -0.0259   -0.0010   -0.0122    0.0038   -0.0030    0.0028    0.0486    0.1163
           9   -0.0068    0.0135    0.0041    0.0063    0.0041   -0.0015    0.0218    0.0491
          10    0.0039    0.0140   -0.0166    0.0294   -0.0218    0.0127    0.0351   -0.0956
          11   -0.0077    0.0121   -0.0010   -0.0254   -0.0072   -0.0005   -0.0348   -0.0472
          12   -0.0037    0.0142   -0.0099   -0.0006   -0.0159    0.0066   -0.0031   -0.0772
          13   -0.0043   -0.0045    0.0144   -0.0199    0.0060   -0.0075    0.0223   -0.0105
          14   -0.0124    0.0007    0.0039    0.0061   -0.0014    0.0030    0.0398   -0.0303
          15   -0.0122   -0.0018    0.0091   -0.0040    0.0028    0.0005    0.0383   -0.0268
          16    0.0199   -0.0097   -0.0003   -0.0144    0.0063   -0.0083   -0.0483    0.0590
          17   -0.0063   -0.0059    0.0062   -0.0045    0.0083    0.0009    0.0120    0.0008
          18    0.0062   -0.0088    0.0047   -0.0114    0.0090   -0.0042   -0.0170    0.0296
          19   -0.0000    0.0006    0.0159    0.0077    0.0139   -0.0014   -0.0068    0.0158
          20    0.0069   -0.0003   -0.0038   -0.0057   -0.0040   -0.0019   -0.0052   -0.0174
          21    0.0019   -0.0012    0.0131    0.0046    0.0110   -0.0011   -0.0094    0.0071
          22   -0.0091    0.0050    0.0015   -0.0157   -0.0005   -0.0017   -0.0193   -0.0084
          23    0.0165   -0.0091   -0.0028    0.0288    0.0008    0.0033    0.0354    0.0145
          24    0.0059   -0.0033   -0.0011    0.0104    0.0002    0.0012    0.0128    0.0050
          25   -0.0025   -0.0018    0.0014    0.0064    0.0026    0.0003    0.0122    0.0110
          26    0.0055   -0.0008    0.0018   -0.0143    0.0001   -0.0023   -0.0263   -0.0117
          27    0.0023   -0.0013    0.0021   -0.0060    0.0015   -0.0013   -0.0107   -0.0019
          28   -0.0074    0.0035    0.0000   -0.0033   -0.0005    0.0000    0.0004    0.0001
          29    0.0134   -0.0055   -0.0008    0.0065    0.0001    0.0003   -0.0002   -0.0028
          30    0.0048   -0.0017   -0.0005    0.0025   -0.0002    0.0002    0.0000   -0.0019
          31   -0.0380   -0.0879    0.1270   -0.0039    0.0127    0.1147    0.0194   -0.0013
          32    0.0828    0.0426    0.0243   -0.0704   -0.1273    0.1167    0.0046   -0.0040
          33   -0.0229    0.0046   -0.0619    0.0404    0.0859   -0.1427   -0.0100   -0.0293
          34    0.0071   -0.0786    0.1155   -0.0159   -0.0510   -0.1213    0.0176   -0.0487
          35    0.0254   -0.0110    0.0226   -0.0314    0.0025   -0.0303    0.0129   -0.0098
          36    0.0588    0.0207   -0.0555   -0.1035    0.1647    0.1125    0.0636   -0.0311
          37   -0.0149   -0.0736    0.0858    0.0077   -0.0184    0.1260   -0.0270   -0.0016
          38    0.0483    0.0479    0.0466   -0.0560   -0.1141    0.1191    0.0245    0.0458
          39    0.0155   -0.0029    0.0589   -0.0285   -0.0776    0.1312    0.0068    0.0391
          40    0.0059   -0.0358    0.0803   -0.0228   -0.0706   -0.1126    0.0342   -0.0110
          41    0.0532    0.0235   -0.0638   -0.0898    0.1660    0.1144    0.0581   -0.0334
          42    0.0219   -0.0038    0.0104   -0.0310    0.0099   -0.0197    0.0196   -0.0065
          43   -0.0110   -0.0048    0.0149   -0.0180    0.0083   -0.0037    0.0264   -0.0151
          44    0.0849   -0.0100    0.0022   -0.0407   -0.0052   -0.0354   -0.0620    0.0693
          45    0.0583   -0.0099    0.0112   -0.0414   -0.0009   -0.0315   -0.0282    0.0425
          46   -0.0531   -0.0323    0.0377   -0.0048    0.0268   -0.0061    0.0845    0.0271
          47    0.0433    0.0090   -0.0186   -0.0137   -0.0040   -0.0005   -0.0806    0.0223
          48    0.0038   -0.0106    0.0066   -0.0118    0.0101   -0.0050   -0.0112    0.0310
          49   -0.0048   -0.1253   -0.0804   -0.0474   -0.0447    0.0065   -0.0145   -0.0526
          50    0.0074    0.1288    0.1012    0.0570    0.0604   -0.0061    0.0034    0.0620
          51    0.0014   -0.0560   -0.0331   -0.0241   -0.0161   -0.0022   -0.0114   -0.0206
          52   -0.0408   -0.1212   -0.0915   -0.0409   -0.0459    0.0072    0.0281    0.0265
          53   -0.0103   -0.0467   -0.0469   -0.0251   -0.0283    0.0012    0.0112   -0.0101
          54   -0.0420   -0.1269   -0.0985   -0.0413   -0.0512    0.0109    0.0310    0.0203
          55    0.1361   -0.0565   -0.0088    0.0838    0.0022    0.0070    0.0634    0.0202
          56   -0.0920    0.0363    0.0045   -0.0436   -0.0012   -0.0030   -0.0229   -0.0046
          57    0.0102   -0.0048   -0.0014    0.0144    0.0003    0.0016    0.0169    0.0063
          58   -0.0112    0.0063    0.0018   -0.0190   -0.0006   -0.0021   -0.0238   -0.0107
          59   -0.1356    0.0554    0.0081   -0.0744   -0.0016   -0.0059   -0.0497   -0.0130
          60   -0.0922    0.0380    0.0059   -0.0568   -0.0014   -0.0048   -0.0429   -0.0124


   Root No.      41        42        43        44        45        46        47        48

                41 A      42 A      43 A      44 A      45 A      46 A      47 A      48 A   

                1852.8    1861.7    1898.5    2358.6    2942.8    2953.5    3024.7    3030.6
  
           1    0.0091   -0.0127   -0.0020   -0.0002   -0.0013    0.0008   -0.0130   -0.0102
           2   -0.0087    0.0162    0.0003   -0.0014   -0.0008   -0.0001   -0.0187   -0.0157
           3    0.0045   -0.0031   -0.0008   -0.0008    0.0284   -0.0326   -0.0015   -0.0027
           4   -0.0029   -0.0026   -0.0007    0.0001    0.0018    0.0010   -0.0113    0.0120
           5   -0.0167   -0.0098   -0.0052    0.0005    0.0221    0.0199    0.0123   -0.0152
           6   -0.0123   -0.0085   -0.0038    0.0004   -0.0237   -0.0201    0.0103   -0.0103
           7   -0.0872    0.1176   -0.0047    0.0045    0.0004   -0.0001    0.0003   -0.0001
           8    0.0305   -0.0349   -0.0187    0.0001   -0.0002    0.0001   -0.0004   -0.0002
           9   -0.0653    0.0897   -0.0140    0.0040    0.0002   -0.0002    0.0000   -0.0001
          10    0.0076   -0.0191   -0.0828   -0.0446    0.0000   -0.0000   -0.0001    0.0000
          11   -0.0133   -0.0189    0.1435    0.0820   -0.0003    0.0002    0.0002    0.0001
          12   -0.0028   -0.0234    0.0479    0.0289   -0.0000    0.0000    0.0001    0.0001
          13   -0.0497   -0.0397   -0.0146    0.0045    0.0005    0.0006    0.0024   -0.0041
          14    0.1092    0.0846    0.0369   -0.0069   -0.0004   -0.0002   -0.0003    0.0008
          15    0.0527    0.0403    0.0187   -0.0027   -0.0000    0.0000    0.0009   -0.0014
          16    0.0782    0.0635    0.0459   -0.0069   -0.0001   -0.0001    0.0000    0.0002
          17   -0.0958   -0.0782   -0.0448    0.0060    0.0001    0.0001   -0.0001    0.0003
          18   -0.0287   -0.0233   -0.0075    0.0011   -0.0001   -0.0001   -0.0001    0.0003
          19    0.0708   -0.0905    0.0014   -0.0037   -0.0001    0.0001   -0.0002   -0.0001
          20   -0.0235    0.0302    0.0020    0.0015    0.0001   -0.0001   -0.0001   -0.0001
          21    0.0547   -0.0700    0.0029   -0.0023    0.0000   -0.0000   -0.0001   -0.0001
          22    0.0146    0.0086   -0.0590    0.0437    0.0000   -0.0000   -0.0000    0.0000
          23   -0.0264   -0.0158    0.1075   -0.0796   -0.0000    0.0000   -0.0000   -0.0000
          24   -0.0095   -0.0057    0.0388   -0.0287   -0.0000    0.0000   -0.0000   -0.0000
          25   -0.0158   -0.0091    0.0600    0.1305   -0.0001    0.0000    0.0001   -0.0000
          26    0.0223    0.0162   -0.1100   -0.2367    0.0001   -0.0000   -0.0001    0.0000
          27    0.0055    0.0065   -0.0395   -0.0850    0.0000   -0.0000   -0.0000    0.0000
          28   -0.0150   -0.0088    0.0629   -0.1322    0.0000   -0.0000   -0.0000    0.0000
          29    0.0277    0.0155   -0.1146    0.2408   -0.0000    0.0000    0.0000   -0.0000
          30    0.0101    0.0054   -0.0413    0.0870   -0.0000   -0.0000    0.0000   -0.0000
          31   -0.0082    0.0298    0.0005   -0.0002   -0.0654    0.0813    0.0799    0.0740
          32    0.0169   -0.0260   -0.0011   -0.0032   -0.1014    0.1249    0.1271    0.1114
          33   -0.0063    0.0084   -0.0038   -0.0019   -0.1454    0.1791    0.2162    0.1890
          34   -0.0093   -0.0066   -0.0020    0.0003    0.0749    0.0707    0.0674   -0.0848
          35   -0.0187   -0.0094   -0.0055    0.0005   -0.1989   -0.1861   -0.2071    0.2453
          36   -0.0145   -0.0136   -0.0054    0.0004    0.0368    0.0343    0.0559   -0.0659
          37   -0.0023    0.0039    0.0003   -0.0001    0.0817   -0.0937    0.0731    0.0574
          38   -0.0084    0.0081   -0.0009    0.0003    0.1151   -0.1243    0.0990    0.0766
          39   -0.0034    0.0034   -0.0010   -0.0003   -0.1966    0.2111   -0.1996   -0.1573
          40   -0.0037   -0.0025   -0.0007    0.0004   -0.0964   -0.0844    0.0640   -0.0674
          41    0.0013   -0.0002   -0.0001   -0.0002   -0.0648   -0.0527    0.0601   -0.0649
          42   -0.0040   -0.0035   -0.0005    0.0014    0.2525    0.2076   -0.1803    0.1899
          43   -0.0626   -0.0505   -0.0174    0.0097   -0.0071   -0.0047   -0.0253    0.0476
          44   -0.0122   -0.0078   -0.0031   -0.0018    0.0026    0.0023    0.0058   -0.0101
          45   -0.0411   -0.0314   -0.0124    0.0027   -0.0027   -0.0017   -0.0078    0.0157
          46   -0.0486   -0.0389   -0.0417   -0.0023    0.0002    0.0005    0.0001   -0.0018
          47   -0.0293   -0.0269    0.0112    0.0089    0.0000    0.0005   -0.0004   -0.0020
          48   -0.0451   -0.0381   -0.0148    0.0040   -0.0005    0.0001   -0.0001   -0.0025
          49    0.0095   -0.0144    0.0060   -0.0008   -0.0009    0.0010    0.0015    0.0015
          50    0.0616   -0.0766   -0.0050   -0.0036   -0.0007    0.0005    0.0010    0.0013
          51    0.0322   -0.0418    0.0077   -0.0013   -0.0014    0.0013    0.0013    0.0016
          52    0.0062   -0.0089    0.0003   -0.0005   -0.0010    0.0011    0.0001    0.0002
          53   -0.0662    0.0850    0.0014    0.0060    0.0016   -0.0018   -0.0007   -0.0009
          54   -0.0199    0.0244   -0.0025    0.0009    0.0002   -0.0001    0.0002    0.0001
          55   -0.0154   -0.0099    0.0630   -0.0312    0.0000   -0.0000   -0.0000    0.0001
          56   -0.0090   -0.0062    0.0416   -0.0578    0.0000   -0.0000   -0.0000    0.0001
          57   -0.0143   -0.0074    0.0580   -0.0523    0.0001   -0.0000   -0.0000    0.0001
          58    0.0198    0.0125   -0.0845    0.0770   -0.0001    0.0000    0.0001   -0.0002
          59    0.0008    0.0017   -0.0026   -0.0254    0.0000    0.0000   -0.0000    0.0000
          60    0.0115    0.0057   -0.0437    0.0222   -0.0000   -0.0000    0.0000   -0.0001


   Root No.      49        50        51        52        53        54

                49 A      50 A      51 A      52 A      53 A      54 A   

                3048.4    3067.9    3119.3    3130.4    3134.5    3139.4
  
           1    0.0006    0.0006   -0.0000   -0.0000   -0.0003   -0.0002
           2    0.0008    0.0008   -0.0000   -0.0000   -0.0000    0.0005
           3    0.0003    0.0005    0.0000    0.0000   -0.0005   -0.0001
           4   -0.0019   -0.0021    0.0000    0.0000    0.0001   -0.0000
           5    0.0026    0.0032   -0.0000   -0.0000   -0.0001    0.0001
           6    0.0010    0.0014   -0.0000   -0.0000    0.0000   -0.0000
           7   -0.0003    0.0004   -0.0001   -0.0000   -0.0047    0.0016
           8   -0.0000   -0.0000   -0.0000    0.0000    0.0015   -0.0011
           9   -0.0002    0.0002   -0.0001   -0.0000   -0.0036    0.0010
          10   -0.0001    0.0007   -0.0003   -0.0000    0.0001    0.0005
          11    0.0000   -0.0007    0.0004   -0.0000   -0.0002    0.0000
          12   -0.0000   -0.0001    0.0002   -0.0000   -0.0000    0.0004
          13   -0.0296   -0.0373    0.0001   -0.0000    0.0000    0.0000
          14    0.0053    0.0112    0.0000    0.0000    0.0000   -0.0000
          15   -0.0107   -0.0104    0.0001   -0.0000    0.0000    0.0000
          16    0.0153   -0.0103    0.0002   -0.0000    0.0001   -0.0000
          17    0.0244   -0.0249    0.0000   -0.0000    0.0001    0.0000
          18    0.0251   -0.0230    0.0001   -0.0000    0.0001   -0.0000
          19    0.0000   -0.0000    0.0005    0.0002    0.0350   -0.0130
          20   -0.0000   -0.0000   -0.0003   -0.0003   -0.0308   -0.0557
          21    0.0000   -0.0000    0.0003    0.0001    0.0195   -0.0336
          22   -0.0000   -0.0001   -0.0215   -0.0516    0.0006    0.0001
          23    0.0000    0.0002    0.0388   -0.0156   -0.0004    0.0001
          24   -0.0000    0.0001    0.0140   -0.0358    0.0001    0.0001
          25    0.0003   -0.0004    0.0000   -0.0002   -0.0001    0.0000
          26   -0.0001    0.0004   -0.0000   -0.0000    0.0002    0.0001
          27    0.0001    0.0001    0.0000   -0.0001    0.0001    0.0001
          28    0.0000    0.0001    0.0034   -0.0003    0.0001    0.0000
          29   -0.0000   -0.0001   -0.0062   -0.0001   -0.0000   -0.0000
          30   -0.0000   -0.0001   -0.0022   -0.0002    0.0000    0.0000
          31   -0.0037   -0.0032    0.0000    0.0000    0.0018   -0.0026
          32   -0.0055   -0.0048    0.0001    0.0000    0.0028   -0.0004
          33   -0.0094   -0.0080    0.0001    0.0000    0.0044   -0.0036
          34    0.0127    0.0134   -0.0001   -0.0000   -0.0002    0.0002
          35   -0.0428   -0.0449    0.0004    0.0000    0.0005   -0.0005
          36    0.0091    0.0093   -0.0001   -0.0000   -0.0002    0.0001
          37   -0.0024   -0.0014    0.0001   -0.0000   -0.0005   -0.0005
          38   -0.0031   -0.0018    0.0001   -0.0000   -0.0005   -0.0003
          39    0.0066    0.0041   -0.0001    0.0000    0.0006    0.0013
          40    0.0076    0.0079   -0.0002   -0.0000   -0.0001    0.0000
          41    0.0084    0.0090   -0.0001   -0.0000   -0.0001    0.0001
          42   -0.0245   -0.0251    0.0003    0.0000    0.0000   -0.0001
          43    0.3546    0.4094   -0.0017    0.0002   -0.0003   -0.0002
          44   -0.0658   -0.0802    0.0003    0.0000    0.0001    0.0000
          45    0.1270    0.1436   -0.0006    0.0000   -0.0001   -0.0001
          46   -0.1835    0.1518   -0.0008    0.0001   -0.0003   -0.0000
          47   -0.2845    0.2431   -0.0013    0.0001   -0.0006   -0.0000
          48   -0.2959    0.2503   -0.0014    0.0001   -0.0006   -0.0000
          49    0.0001   -0.0002   -0.0020   -0.0005   -0.1259    0.2656
          50    0.0002   -0.0003   -0.0032   -0.0009   -0.2108    0.3912
          51    0.0001   -0.0003   -0.0029   -0.0007   -0.1960    0.3925
          52    0.0001   -0.0004   -0.0027   -0.0019   -0.2356   -0.1299
          53   -0.0003    0.0009    0.0065    0.0044    0.5585    0.2781
          54   -0.0000   -0.0000    0.0001    0.0000    0.0069   -0.0079
          55    0.0001   -0.0008   -0.2102    0.1957    0.0014   -0.0007
          56    0.0002   -0.0012   -0.2915    0.3043    0.0017   -0.0010
          57    0.0002   -0.0012   -0.2909    0.2926    0.0018   -0.0010
          58   -0.0002    0.0015    0.4285    0.4254   -0.0089   -0.0001
          59    0.0000   -0.0003   -0.1018   -0.1171    0.0022    0.0000
          60   -0.0001    0.0005    0.1495    0.1382   -0.0031    0.0000


           MASS-WEIGHTED COORDINATE ANALYSIS (NORMAL COORDINATES)


   Root No.       1         2         3         4         5         6         7         8

                 1 A       2 A       3 A       4 A       5 A       6 A       7 A       8 A   

                  61.5      96.9     137.9     177.9     304.7     311.8     372.2     391.2
  
           1    0.1621    0.1102   -0.0512    0.0410   -0.0002    0.0256   -0.0915   -0.0554
           2    0.0271   -0.0802   -0.0746    0.0321    0.1108   -0.0295   -0.0047   -0.2632
           3   -0.2980   -0.0146    0.2707   -0.2905    0.0663   -0.1149    0.0954   -0.1466
           4    0.1611    0.1111   -0.0479    0.0421   -0.0121    0.0189   -0.0461   -0.0614
           5    0.2292    0.0772    0.1443   -0.2120    0.1003   -0.0938    0.2410    0.0962
           6   -0.2482    0.1021   -0.2427    0.2498   -0.0375    0.0179    0.1754   -0.0381
           7   -0.0484   -0.0491   -0.0329    0.0184    0.0271   -0.0691   -0.1883   -0.0790
           8   -0.0575   -0.1406   -0.0678    0.0200    0.1298   -0.0423   -0.0799   -0.2603
           9    0.0759   -0.1230    0.1076   -0.0449   -0.2142    0.0395   -0.1375    0.2836
          10   -0.0701   -0.2135   -0.1270   -0.0667    0.1142   -0.1675   -0.0460   -0.0576
          11   -0.1082   -0.0292   -0.1219   -0.0656    0.1437   -0.0187   -0.2430   -0.0368
          12    0.1410   -0.1332    0.2346    0.0937   -0.2705    0.1053   -0.1064    0.0554
          13   -0.0212   -0.0670    0.0368    0.0679   -0.0732   -0.0222    0.0984   -0.1824
          14   -0.0327    0.1770    0.1014    0.1189   -0.1752    0.0951    0.2670   -0.0754
          15    0.1124    0.1041   -0.2388   -0.1034    0.2661   -0.1615    0.0740    0.2096
          16   -0.1368   -0.2162   -0.0444    0.0624    0.0827   -0.1559   -0.0665    0.1033
          17   -0.1753    0.1252   -0.0622    0.1357    0.0926   -0.0776    0.1178    0.2832
          18    0.2870   -0.0110    0.0574   -0.1689   -0.1688    0.0462    0.1032   -0.2553
          19   -0.2392   -0.0293    0.2859   -0.0421   -0.1687    0.0150   -0.1649    0.2286
          20   -0.0842   -0.3068    0.0345    0.1090   -0.2131   -0.2553    0.2848    0.0793
          21    0.3071   -0.2201   -0.2519    0.0661   -0.1085   -0.1637   -0.0249    0.0407
          22    0.1332    0.4200    0.1122    0.1204    0.0066   -0.2083    0.1084   -0.0383
          23    0.1511    0.1524    0.1686    0.1512    0.0451    0.0348   -0.2949    0.0031
          24   -0.2624    0.3292   -0.2133   -0.2094   -0.1702   -0.0017   -0.1182    0.0117
          25   -0.0173   -0.2302   -0.1579   -0.1966    0.0206    0.1829    0.0753   -0.0369
          26   -0.0431   -0.0309   -0.1650   -0.2156   -0.0972    0.1920   -0.2296    0.0119
          27    0.0464   -0.1529    0.2963    0.3232    0.2528    0.0987   -0.1217   -0.0272
          28    0.0533    0.0440   -0.0672   -0.1157    0.0822    0.4667    0.3766    0.1264
          29    0.0469    0.0470   -0.0506   -0.1238   -0.1275    0.3088   -0.1703    0.0861
          30   -0.0963    0.0489    0.1209    0.1922    0.4267    0.2426    0.0323    0.0258
          31    0.0785    0.0698   -0.0865    0.0887   -0.0231    0.0370    0.0101    0.0464
          32    0.0638   -0.0469   -0.0888    0.0939   -0.0340    0.0282   -0.0557    0.0398
          33   -0.1374   -0.0049    0.1551   -0.1750    0.0738   -0.0723    0.0503   -0.1494
          34    0.0836    0.0579    0.0565   -0.0693    0.0074   -0.0165    0.0128    0.0652
          35    0.0591    0.0360    0.0516   -0.0535    0.0081   -0.0156    0.0819    0.0283
          36   -0.1726    0.0505   -0.1500    0.2613   -0.1389    0.1062    0.0606   -0.1665
          37    0.0608    0.0286    0.0875   -0.0998    0.0216   -0.0206   -0.0201   -0.0284
          38   -0.0823   -0.0236    0.0330   -0.0623    0.1046   -0.0549    0.0320   -0.2365
          39   -0.1328   -0.0058    0.1526   -0.1724    0.0711   -0.0722    0.0498   -0.1441
          40    0.0479    0.0472   -0.1224    0.1256   -0.0229    0.0423   -0.0345   -0.0404
          41    0.1844    0.0218    0.1076   -0.2397    0.1543   -0.1229    0.0694    0.2106
          42   -0.0407    0.0352   -0.0949    0.0696    0.0137   -0.0049    0.0425    0.0246
          43   -0.0197   -0.0224    0.0383    0.0516   -0.0865    0.0270    0.0529   -0.0954
          44   -0.0251    0.0869    0.0555    0.0965   -0.1460    0.0930    0.1188   -0.0886
          45    0.0622    0.0585   -0.1344   -0.0837    0.2074   -0.1038   -0.0287    0.1442
          46   -0.0813   -0.1004   -0.0097    0.0502    0.0221   -0.0459   -0.0865    0.0954
          47   -0.0973    0.0595   -0.0370    0.0920    0.0438   -0.0383    0.0770    0.1782
          48    0.1536   -0.0024    0.0328   -0.1191   -0.0637    0.0303    0.0291   -0.2074
          49   -0.0705    0.0298    0.1301   -0.0091   -0.0557    0.0921   -0.1274    0.0695
          50   -0.0106   -0.1168    0.0211    0.0645   -0.1436   -0.1097    0.1569    0.0957
          51    0.0760   -0.0616   -0.1160   -0.0158    0.0536   -0.0727   -0.0255   -0.0619
          52   -0.1167   -0.0411    0.1178   -0.0319   -0.0975   -0.0599    0.0430    0.1547
          53   -0.0450   -0.1032    0.0251    0.0231   -0.0843   -0.1035    0.1240    0.0624
          54    0.1617   -0.0910   -0.1239    0.0850   -0.0906   -0.0848    0.0520    0.0146
          55    0.0411    0.2213    0.0568    0.0744   -0.0631   -0.2793   -0.0725   -0.0085
          56    0.0473   -0.0253    0.0737    0.0781    0.1113    0.1263   -0.0323    0.1002
          57   -0.0813    0.0986   -0.1039   -0.1230   -0.1070    0.0277   -0.0205   -0.1014
          58    0.0568    0.1241    0.0548    0.0576    0.0242   -0.0740    0.0303   -0.0765
          59    0.0667    0.1428    0.0803    0.0805   -0.0462   -0.1948   -0.1861   -0.1281
[...]
 EFF. MASS   3.5974

 VIBRATION   33   33A         ATOM PAIR      ENERGY CONTRIBUTION    RADIAL
 FREQ.      1281.00         C  8 -- H 19         +15.0% ( 44.9%)      1.8%
 T-DIPOLE    0.1140         C  8 -- H 20         +14.9% ( 44.8%)      1.9%
 TRAVEL      0.1198         C  5 -- H 15          +8.3% ( 33.5%)      0.6%
 RED. MASS   0.2404         C  6 -- H 16          +6.3% ( 29.1%)      1.8%
 EFF. MASS   3.6676

 VIBRATION   34   34A         ATOM PAIR      ENERGY CONTRIBUTION    RADIAL
 FREQ.      1295.20         C  1 -- H 11         +14.0% ( 43.1%)      0.1%
 T-DIPOLE    0.0422         C  7 -- H 17         +13.5% ( 42.4%)      0.1%
 TRAVEL      0.1213         C  1 -- H 13         +12.6% ( 40.9%)      0.0%
 RED. MASS   0.4036         C  7 -- H 18         +12.3% ( 40.5%)      0.2%
 EFF. MASS   3.5411

 VIBRATION   35   35A         ATOM PAIR      ENERGY CONTRIBUTION    RADIAL
 FREQ.      1351.94         C  1 -- H 11         +13.1% ( 41.5%)      0.2%
 T-DIPOLE    0.1091         C  2 -- H 12         +11.6% ( 39.1%)      0.1%
 TRAVEL      0.1156         C  7 -- H 18         +11.5% ( 38.9%)      1.7%
 RED. MASS   0.2767         C  7 -- H 17         +10.3% ( 36.8%)      3.2%
 EFF. MASS   3.7298

 VIBRATION   36   36A         ATOM PAIR      ENERGY CONTRIBUTION    RADIAL
 FREQ.      1359.64         C  1 -- C  2         +10.1% ( 45.4%)     77.8%
 T-DIPOLE    0.0365         C  2 -- H 12          +9.8% ( 44.8%)      0.2%
 TRAVEL      0.0831         C  2 -- H 14          +9.0% ( 42.9%)      0.9%
 RED. MASS   0.8044         C  4 -- C  6          +9.0% ( 42.8%)     94.1%
 EFF. MASS   7.1829

 VIBRATION   37   37A         ATOM PAIR      ENERGY CONTRIBUTION    RADIAL
 FREQ.      1390.23         C  2 -- H 14         +15.3% ( 45.5%)      4.5%
 T-DIPOLE    0.1407         C  1 -- H 11         +13.7% ( 43.1%)      2.8%
 TRAVEL      0.1074         C  2 -- H 12         +13.7% ( 43.1%)      7.5%
 RED. MASS   0.4243         C  1 -- C  2         +11.8% ( 40.0%)     16.1%
 EFF. MASS   4.2086         C  1 -- H 13         +11.8% ( 39.9%)      2.7%

 VIBRATION   38   38A         ATOM PAIR      ENERGY CONTRIBUTION    RADIAL
 FREQ.      1400.11         C  1 -- H 13         +19.1% ( 49.8%)      4.5%
 T-DIPOLE    0.1120         C  1 -- H 11         +18.6% ( 49.2%)      5.7%
 TRAVEL      0.1105         C  1 -- C  2         +17.3% ( 47.4%)     96.1%
 RED. MASS   0.5627         C  2 -- H 12         +14.0% ( 42.6%)      3.8%
 EFF. MASS   3.9423         C  2 -- H 14         +13.4% ( 41.7%)      3.5%

 VIBRATION   39   39A         ATOM PAIR      ENERGY CONTRIBUTION    RADIAL
 FREQ.      1433.85         C  2 -- C  5         +13.5% ( 57.1%)     97.5%
 T-DIPOLE    0.1503         C  4 -- C  6         +10.3% ( 49.7%)     88.8%
 TRAVEL      0.0675         C  3 -- C  4          +8.4% ( 44.9%)     31.8%
 RED. MASS   1.2625         C  1 -- C  2          +7.5% ( 42.6%)     75.1%
 EFF. MASS  10.3314

 VIBRATION   40   40A         ATOM PAIR      ENERGY CONTRIBUTION    RADIAL
 FREQ.      1502.76         C  3 -- C  4         +26.7% ( 77.3%)     98.9%
 T-DIPOLE    0.4683         C  4 -- C  6         +17.3% ( 62.3%)     74.8%
 TRAVEL      0.0625         C  1 -- C  3         +14.6% ( 57.1%)     81.1%
 RED. MASS   3.0999         C  4 -- C  9         +10.5% ( 48.5%)      0.0%
 EFF. MASS  11.4947

 VIBRATION   41   41A         ATOM PAIR      ENERGY CONTRIBUTION    RADIAL
 FREQ.      1852.81         C  5 -- C  6         +25.9% ( 75.1%)    100.0%
 T-DIPOLE    0.4967         C  3 -- C  7         +17.0% ( 60.9%)    100.0%
 TRAVEL      0.0553         C  2 -- C  5          +8.6% ( 43.5%)     51.0%
 RED. MASS   2.6251         C  5 -- H 15          +7.9% ( 41.5%)      4.6%
 EFF. MASS  11.8971

 VIBRATION   42   42A         ATOM PAIR      ENERGY CONTRIBUTION    RADIAL
 FREQ.      1861.74         C  3 -- C  7         +27.7% ( 77.8%)    100.0%
 T-DIPOLE    0.4052         C  5 -- C  6         +15.5% ( 58.1%)    100.0%
 TRAVEL      0.0552         C  3 -- C  4         +11.8% ( 50.8%)     45.1%
 RED. MASS   2.8625         C  1 -- C  3         +11.1% ( 49.2%)     33.0%
 EFF. MASS  11.8876

 VIBRATION   43   43A         ATOM PAIR      ENERGY CONTRIBUTION    RADIAL
 FREQ.      1898.48         C  4 -- C  9         +28.1% ( 75.8%)    100.0%
 T-DIPOLE    0.7234         C  8 -- C 10         +23.3% ( 68.9%)    100.0%
 TRAVEL      0.0545         C  4 -- C  6         +12.2% ( 49.9%)     35.1%
 RED. MASS   2.6667         C  3 -- C  4         +10.4% ( 46.1%)     33.6%
 EFF. MASS  11.9421

 VIBRATION   44   44A         ATOM PAIR      ENERGY CONTRIBUTION    RADIAL
 FREQ.      2358.64         C  9 -- C 10         +49.7% ( 90.6%)    100.0%
 T-DIPOLE    1.3289         C  8 -- C 10         +23.3% ( 62.0%)    100.0%
 TRAVEL      0.0489         C  4 -- C  9         +22.2% ( 60.6%)    100.0%
 RED. MASS   4.8276         C  3 -- C  4          +1.2% ( 14.4%)     23.2%
 EFF. MASS  11.9644

 VIBRATION   45   45A         ATOM PAIR      ENERGY CONTRIBUTION    RADIAL
 FREQ.      2942.85         C  2 -- H 14         +34.0% ( 60.6%)     97.4%
 T-DIPOLE    0.0514         C  1 -- H 13         +25.8% ( 52.9%)     97.4%
 TRAVEL      0.1217         C  2 -- H 12         +21.4% ( 48.1%)     94.9%
 RED. MASS   0.2761         C  1 -- H 11         +16.4% ( 42.1%)     94.9%
 EFF. MASS   1.5466

 VIBRATION   46   46A         ATOM PAIR      ENERGY CONTRIBUTION    RADIAL
 FREQ.      2953.54         C  1 -- H 13         +30.7% ( 57.4%)     97.1%
 T-DIPOLE    0.0694         C  1 -- H 11         +24.8% ( 51.6%)     96.0%
 TRAVEL      0.1219         C  2 -- H 14         +23.6% ( 50.3%)     97.2%
 RED. MASS   0.2671         C  2 -- H 12         +18.7% ( 44.7%)     95.9%
 EFF. MASS   1.5355

 VIBRATION   47   47A         ATOM PAIR      ENERGY CONTRIBUTION    RADIAL
 FREQ.      3024.69         C  1 -- H 11         +31.9% ( 55.7%)     98.3%
 T-DIPOLE    0.0598         C  1 -- H 13         +24.9% ( 49.2%)     96.8%
 TRAVEL      0.1319         C  2 -- H 12         +23.3% ( 47.6%)     98.4%
 RED. MASS   0.2493         C  2 -- H 14         +18.2% ( 42.1%)     96.8%
 EFF. MASS   1.2810

 VIBRATION   48   48A         ATOM PAIR      ENERGY CONTRIBUTION    RADIAL
 FREQ.      3030.61         C  2 -- H 12         +34.6% ( 57.9%)     98.8%
 T-DIPOLE    0.1096         C  1 -- H 11         +25.8% ( 50.1%)     98.7%
 TRAVEL      0.1318         C  2 -- H 14         +21.0% ( 45.2%)     95.9%
 RED. MASS   0.2526         C  1 -- H 13         +15.9% ( 39.3%)     96.0%
 EFF. MASS   1.2805

 VIBRATION   49   49A         ATOM PAIR      ENERGY CONTRIBUTION    RADIAL
 FREQ.      3048.36         C  6 -- H 16         +56.2% ( 76.1%)    100.0%
 T-DIPOLE    0.3202         C  5 -- H 15         +40.6% ( 64.7%)    100.0%
 TRAVEL      0.1230         C  5 -- C  6          +1.1% ( 10.7%)      0.4%
 RED. MASS   0.4694         C  4 -- C  6          +0.8% (  8.9%)     20.7%
 EFF. MASS   1.4615

 VIBRATION   50   50A         ATOM PAIR      ENERGY CONTRIBUTION    RADIAL
 FREQ.      3067.90         C  5 -- H 15         +54.8% ( 75.1%)     99.9%
 T-DIPOLE    0.3539         C  6 -- H 16         +40.8% ( 64.8%)     99.9%
 TRAVEL      0.1177         C  5 -- C  6          +2.0% ( 14.4%)     99.2%
 RED. MASS   0.4675         C  2 -- C  5          +0.9% (  9.6%)     17.9%
 EFF. MASS   1.5868

 VIBRATION   51   51A         ATOM PAIR      ENERGY CONTRIBUTION    RADIAL
 FREQ.      3119.28         C  8 -- H 20         +49.5% ( 70.4%)     95.3%
 T-DIPOLE    0.5403         C  8 -- H 19         +48.9% ( 70.0%)     95.1%
 TRAVEL      0.1246         C  8 -- C 10          +1.6% ( 12.7%)    100.0%
 RED. MASS   0.4855
 EFF. MASS   1.3916

 VIBRATION   52   52A         ATOM PAIR      ENERGY CONTRIBUTION    RADIAL
 FREQ.      3130.43         C  8 -- H 19         +49.7% ( 72.1%)     97.2%
 T-DIPOLE    0.2323         C  8 -- H 20         +49.1% ( 71.7%)     97.1%
 TRAVEL      0.1161         C  8 -- C 10          +1.2% ( 11.3%)      0.0%
 RED. MASS   0.5343
 EFF. MASS   1.5985

 VIBRATION   53   53A         ATOM PAIR      ENERGY CONTRIBUTION    RADIAL
 FREQ.      3134.51         C  7 -- H 18         +78.1% ( 88.6%)     98.6%
 T-DIPOLE    0.2654         C  7 -- H 17         +20.3% ( 45.2%)     82.2%
 TRAVEL      0.1238         C  3 -- C  7          +1.5% ( 12.1%)     86.7%
 RED. MASS   0.6352
 EFF. MASS   1.4034

 VIBRATION   54   54A         ATOM PAIR      ENERGY CONTRIBUTION    RADIAL
 FREQ.      3139.38         C  7 -- H 17         +77.1% ( 89.8%)     99.3%
 T-DIPOLE    0.2249         C  7 -- H 18         +21.6% ( 47.5%)     90.3%
 TRAVEL      0.1163         C  3 -- C  7          +1.3% ( 11.8%)      7.1%
 RED. MASS   0.6752
 EFF. MASS   1.5872

      SYMMETRY NUMBER FOR POINT-GROUP C1  =  1


          SYSTEM IS A GROUND STATE



 InChI=1S/C10H10/c1-3-6-10-8-5-4-7-9(10)2/h5,8H,1-2,4,7H2


          MOLECULE IS NOT LINEAR

          THERE ARE 54 GENUINE VIBRATIONS IN THIS SYSTEM
          THIS THERMODYNAMICS CALCULATION IS LIMITED TO
          MOLECULES WHICH HAVE NO INTERNAL ROTATIONS




                    CALCULATED THERMODYNAMIC PROPERTIES
                                          *
   TEMP. (K)   PARTITION FUNCTION   H.O.F.    ENTHALPY  HEAT CAPACITY ENTROPY
                                   KCAL/MOL   CAL/MOLE    CAL/K/MOL  CAL/K/MOL


 298.00  VIB.     0.1748D+03                  4000.7927    29.7562    23.6862
         ROT.     0.6940D+06                   888.2813     2.9808    29.7091
         INT.     0.1213D+09                  4889.0740    32.7370    53.3953
         TRA.     0.1436D+28                  1480.4688     4.9680    40.5022
         TOT.                       99.755    6369.5429    37.7050    93.8974

 200.00  VIB.     0.2071D+02                  1650.5153    18.2762    14.2747
         ROT.     0.3816D+06                   596.1620     2.9808    28.5204
         INT.     0.7901D+07                  2246.6772    21.2570    42.7951
         TRA.     0.7896D+27                   993.6033     4.9680    38.5210
         TOT.                       96.626    3240.2805    26.2250    81.3162

 210.00  VIB.     0.2551D+02                  1838.9587    19.4149    15.1939
         ROT.     0.4105D+06                   625.9700     2.9808    28.6659
         INT.     0.1047D+08                  2464.9288    22.3958    43.8598
         TRA.     0.8496D+27                  1043.2834     4.9680    38.7634
         TOT.                       96.894    3508.2122    27.3638    82.6232

 220.00  VIB.     0.3150D+02                  2038.8600    20.5674    16.1236
         ROT.     0.4402D+06                   655.7781     2.9808    28.8045
         INT.     0.1387D+08                  2694.6381    23.5482    44.9282
         TRA.     0.9110D+27                  1092.9636     4.9680    38.9945
         TOT.                       97.173    3787.6017    28.5162    83.9227

 230.00  VIB.     0.3898D+02                  2250.3452    21.7313    17.0635
         ROT.     0.4706D+06                   685.5862     2.9808    28.9370
         INT.     0.1834D+08                  2935.9314    24.7122    46.0006
         TRA.     0.9738D+27                  1142.6437     4.9680    39.2154
         TOT.                       97.464    4078.5752    29.6802    85.2159

 240.00  VIB.     0.4834D+02                  2473.5169    22.9043    18.0132
         ROT.     0.5016D+06                   715.3943     2.9808    29.0639
         INT.     0.2425D+08                  3188.9113    25.8851    47.0771
         TRA.     0.1038D+28                  1192.3239     4.9680    39.4268
         TOT.                       97.767    4381.2352    30.8531    86.5039

 250.00  VIB.     0.6006D+02                  2708.4528    24.0837    18.9721
         ROT.     0.5332D+06                   745.2024     2.9808    29.1856
         INT.     0.3203D+08                  3453.6553    27.0646    48.1576
         TRA.     0.1103D+28                  1242.0041     4.9680    39.6296
         TOT.                       98.081    4695.6593    32.0326    87.7873

 260.00  VIB.     0.7477D+02                  2955.2050    25.2671    19.9397
         ROT.     0.5656D+06                   775.0105     2.9808    29.3025
         INT.     0.4228D+08                  3730.2156    28.2479    49.2422
         TRA.     0.1170D+28                  1291.6842     4.9680    39.8245
         TOT.                       98.408    5021.8998    33.2160    89.0666

 270.00  VIB.     0.9325D+02                  3213.8002    26.4519    20.9155
         ROT.     0.5985D+06                   804.8186     2.9808    29.4150
         INT.     0.5581D+08                  4018.6188    29.4327    50.3305
         TRA.     0.1239D+28                  1341.3644     4.9680    40.0120
         TOT.                       98.746    5359.9832    34.4007    90.3424

 280.00  VIB.     0.1165D+03                  3484.2398    27.6356    21.8989
         ROT.     0.6321D+06                   834.6267     2.9808    29.5234
         INT.     0.7364D+08                  4318.8666    30.6164    51.4223
         TRA.     0.1308D+28                  1391.0445     4.9680    40.1926
         TOT.                       99.096    5709.9111    35.5845    91.6149

 290.00  VIB.     0.1458D+03                  3766.5014    28.8159    22.8893
         ROT.     0.6662D+06                   864.4348     2.9808    29.6280
         INT.     0.9716D+08                  4630.9362    31.7967    52.5173
         TRA.     0.1379D+28                  1440.7247     4.9680    40.3670
         TOT.                       99.457    6071.6610    36.7648    92.8842

 300.00  VIB.     0.1829D+03                  4060.5396    29.9906    23.8860
         ROT.     0.7010D+06                   894.2429     2.9808    29.7291
         INT.     0.1282D+09                  4954.7825    32.9714    53.6150
         TRA.     0.1451D+28                  1490.4049     4.9680    40.5354
         TOT.                       99.831    6445.1874    37.9394    94.1504

 310.00  VIB.     0.2297D+03                  4366.2876    31.1576    24.8884
         ROT.     0.7363D+06                   924.0510     2.9808    29.8268
         INT.     0.1691D+09                  5290.3386    34.1384    54.7152
         TRA.     0.1524D+28                  1540.0850     4.9680    40.6983
         TOT.                      100.216    6830.4236    39.1064    95.4135

 320.00  VIB.     0.2889D+03                  4683.6593    32.3150    25.8959
         ROT.     0.7722D+06                   953.8591     2.9808    29.9214
         INT.     0.2231D+09                  5637.5184    35.2958    55.8174
         TRA.     0.1598D+28                  1589.7652     4.9680    40.8560
         TOT.                      100.613    7227.2836    40.2639    96.6734

 330.00  VIB.     0.3639D+03                  5012.5507    33.4613    26.9079
         ROT.     0.8087D+06                   983.6672     2.9808    30.0132
         INT.     0.2943D+09                  5996.2179    36.4421    56.9211
         TRA.     0.1674D+28                  1639.4454     4.9680    41.0089
         TOT.                      101.021    7635.6633    41.4101    97.9299

 340.00  VIB.     0.4591D+03                  5352.8422    34.5948    27.9237
         ROT.     0.8457D+06                  1013.4753     2.9808    30.1021
         INT.     0.3883D+09                  6366.3175    37.5756    58.0258
         TRA.     0.1750D+28                  1689.1255     4.9680    41.1572
         TOT.                      101.441    8055.4430    42.5436    99.1830

 350.00  VIB.     0.5799D+03                  5704.4003    35.7144    28.9427
         ROT.     0.8833D+06                  1043.2834     2.9808    30.1885
         INT.     0.5123D+09                  6747.6837    38.6952    59.1312
         TRA.     0.1828D+28                  1738.8057     4.9680    41.3012
         TOT.                      101.872    8486.4894    43.6632   100.4325

 360.00  VIB.     0.7335D+03                  6067.0794    36.8189    29.9643
         ROT.     0.9215D+06                  1073.0915     2.9808    30.2725
         INT.     0.6759D+09                  7140.1709    39.7997    60.2368
         TRA.     0.1907D+28                  1788.4859     4.9680    41.4412
         TOT.                      102.314    8928.6567    44.7677   101.6780

 370.00  VIB.     0.9289D+03                  6440.7239    37.9073    30.9880
         ROT.     0.9601D+06                  1102.8996     2.9808    30.3542
         INT.     0.8919D+09                  7543.6235    40.8881    61.3422
         TRA.     0.1987D+28                  1838.1660     4.9680    41.5773
         TOT.                      102.767    9381.7895    45.8561   102.9195

 380.00  VIB.     0.1178D+04                  6825.1697    38.9790    32.0132
         ROT.     0.9993D+06                  1132.7077     2.9808    30.4337
         INT.     0.1177D+10                  7957.8774    41.9598    62.4469
         TRA.     0.2068D+28                  1887.8462     4.9680    41.7098
         TOT.                      103.231    9845.7235    46.9278   104.1566

 390.00  VIB.     0.1495D+04                  7220.2457    40.0333    33.0393
         ROT.     0.1039D+07                  1162.5158     2.9808    30.5111
         INT.     0.1553D+10                  8382.7615    43.0141    63.5505
         TRA.     0.2150D+28                  1937.5263     4.9680    41.8388
         TOT.                      103.706   10320.2879    47.9821   105.3893

 400.00  VIB.     0.1899D+04                  7625.7758    41.0697    34.0660
         ROT.     0.1079D+07                  1192.3239     2.9808    30.5866
         INT.     0.2049D+10                  8818.0997    44.0505    64.6526
         TRA.     0.2233D+28                  1987.2065     4.9680    41.9646
         TOT.                      104.191   10805.3062    49.0185   106.6172

   *: NOTE: HEATS OF FORMATION ARE RELATIVE TO THE
            ELEMENTS IN THEIR STANDARD STATE AT 298K
              (=  Standard Enthalpy of Formation).

            Hvib:  Zero-point energy is not included.
                   frequencies of less than zero cm-1 are not included.
            Hrot = (3/2)RT
            Htra = (3/2)RT + pV = (5/2)RT

            Heat capacity is Cp, not Cv

          For more information, see: HTTP://OpenMOPAC.net/Manual/thermochemistry.html


           FORCE CONSTANT IN CARTESIAN COORDINATES (Millidynes/A)

    ATOM   CHEMICAL       X               Y               Z
   NUMBER   SYMBOL  FORCE CONSTANT  FORCE CONSTANT  FORCE CONSTANT

      1       C        8.314572        8.819690        8.269670
      2       C        8.326268        8.872794        8.243096
      3       C       10.464284        9.587250        8.062953
      4       C       10.165309       12.194682        6.012254
      5       C       10.242193       10.924897        5.921218
      6       C       10.140834       11.245688        6.151514
      7       C        9.702871        9.072875        7.653169
      8       C        8.965735       11.742357        5.107180
      9       C        6.666303       17.516659        3.638211
     10       C        6.436584       17.575060        3.569756
     11       H        1.196241        1.815885        3.409165
     12       H        1.185325        4.321968        0.856686
     13       H        1.167659        1.533169        3.572257
     14       H        1.182548        0.931801        4.136130
     15       H        4.474303        0.789328        0.992601
     16       H        1.423922        2.412615        2.422841
     17       H        1.416652        2.618202        2.426685
     18       H        1.298230        4.634703        0.512022
     19       H        1.469495        2.507531        2.302262
     20       H        4.597464        0.804454        0.871389

 **********************
 *                    *
 * JOB ENDED NORMALLY *
 *                    *
 **********************



 TOTAL JOB TIME:             1.89 SECONDS

 == MOPAC DONE ==
