 *******************************************************************************
 ** Site#: 14399        For non-commercial use only    Version 18.184L 64BITS **
 *******************************************************************************
 ** Cite this program as: MOPAC2016, Version: 18.184L, James J. P. Stewart,   **
 ** Stewart Computational Chemistry, web: HTTP://OpenMOPAC.net. Days left:  18**
 *******************************************************************************
 **                                                                           **
 **                                MOPAC2016                                  **
 **                                                                           **
 *******************************************************************************

                              PM3 CALCULATION RESULTS

 *******************************************************************************
 *  CALCULATION DONE:                                Sat Jun 15 10:17:32 2019  *
 *  PM3        - The PM3 Hamiltonian to be used
 *  PRECISE    - CRITERIA TO BE INCREASED BY 100 TIMES
 *  NOSYM      - POINT-GROUP SYMMETRY SET TO C1
 *  THREADS=1  - MULTI-THREADING NOT USED
 *  T=         - A TIME OF 172800.0 SECONDS REQUESTED
 *  DUMP=N     - RESTART FILE WRITTEN EVERY  7200.000 SECONDS
 *******************************************************************************
pm3  precise nosym THREADS=1
 InChI=1S/C10H12/c1-2-3-4-7-10-8-5-6-9-10/h2-5,8-9H,1,6-7H2

   ATOM   CHEMICAL          X               Y               Z
  NUMBER   SYMBOL      (ANGSTROMS)     (ANGSTROMS)     (ANGSTROMS)
 
     1       C         -0.31160000  *  -1.62220000  *  -0.39790000  *
     2       C         -2.83550000  *   1.17350000  *  -0.22170000  *
     3       C         -1.29890000  *  -0.54560000  *  -0.05600000  *
     4       C         -1.94010000  *   0.21300000  *  -0.93280000  *
     5       C         -2.58120000  *   0.81380000  *   1.20650000  *
     6       C          1.05070000  *  -1.28290000  *   0.13080000  *
     7       C         -1.70170000  *  -0.17060000  *   1.28820000  *
     8       C          1.76060000  *  -0.26930000  *  -0.37170000  *
     9       C          3.09530000  *   0.05570000  *   0.15510000  *
    10       C          3.80250000  *   1.06710000  *  -0.34010000  *
    11       H         -2.53290000  *   2.22200000  *  -0.42590000  *
    12       H         -3.89810000  *   0.99810000  *  -0.49130000  *
    13       H         -0.65510000  *  -2.57460000  *   0.05850000  *
    14       H         -0.25500000  *  -1.77420000  *  -1.49830000  *
    15       H         -1.82580000  *   0.14690000  *  -2.00710000  *
    16       H         -3.04660000  *   1.28720000  *   2.06080000  *
    17       H          1.45740000  *  -1.88610000  *   0.93450000  *
    18       H          3.51650000  *  -0.53380000  *   0.96120000  *
    19       H         -1.34650000  *  -0.61400000  *   2.20910000  *
    20       H          1.34680000  *   0.32570000  *  -1.17880000  *
    21       H          3.41680000  *   1.68050000  *  -1.14520000  *
    22       H          4.78230000  *   1.28980000  *   0.06200000  *
 


          CARTESIAN COORDINATES 

    NO.       ATOM           X           Y           Z

     1         C         -0.3116     -1.6222     -0.3979
     2         C         -2.8355      1.1735     -0.2217
     3         C         -1.2989     -0.5456     -0.0560
     4         C         -1.9401      0.2130     -0.9328
     5         C         -2.5812      0.8138      1.2065
     6         C          1.0507     -1.2829      0.1308
     7         C         -1.7017     -0.1706      1.2882
     8         C          1.7606     -0.2693     -0.3717
     9         C          3.0953      0.0557      0.1551
    10         C          3.8025      1.0671     -0.3401
    11         H         -2.5329      2.2220     -0.4259
    12         H         -3.8981      0.9981     -0.4913
    13         H         -0.6551     -2.5746      0.0585
    14         H         -0.2550     -1.7742     -1.4983
    15         H         -1.8258      0.1469     -2.0071
    16         H         -3.0466      1.2872      2.0608
    17         H          1.4574     -1.8861      0.9345
    18         H          3.5165     -0.5338      0.9612
    19         H         -1.3465     -0.6140      2.2091
    20         H          1.3468      0.3257     -1.1788
    21         H          3.4168      1.6805     -1.1452
    22         H          4.7823      1.2898      0.0620

  H: (PM3): J. J. P. STEWART, J. COMP. CHEM. 10, 209 (1989).
  C: (PM3): J. J. P. STEWART, J. COMP. CHEM. 10, 209 (1989).

           Empirical Formula: C10 H12  =    22 atoms



      MOLECULAR POINT GROUP   :   C1  


      RHF CALCULATION, NO. OF DOUBLY OCCUPIED LEVELS = 26


          Geometry optimization using EF

          DIAGONAL MATRIX USED AS START HESSIAN

 CYCLE:     1 TIME:   0.004 TIME LEFT:  2.00D  GRAD.:   117.549 HEAT:  61.92677
 CYCLE:     2 TIME:   0.016 TIME LEFT:  2.00D  GRAD.:    64.961 HEAT:  60.10618
 CYCLE:     3 TIME:   0.004 TIME LEFT:  2.00D  GRAD.:    53.391 HEAT:  59.52352
 CYCLE:     4 TIME:   0.004 TIME LEFT:  2.00D  GRAD.:    66.754 HEAT:  59.27268
 CYCLE:     5 TIME:   0.008 TIME LEFT:  2.00D  GRAD.:    33.780 HEAT:  58.62120
 CYCLE:     6 TIME:   0.012 TIME LEFT:  2.00D  GRAD.:    17.847 HEAT:  58.37428
 CYCLE:     7 TIME:   0.004 TIME LEFT:  2.00D  GRAD.:    21.875 HEAT:  58.20552
 CYCLE:     8 TIME:   0.004 TIME LEFT:  2.00D  GRAD.:    26.580 HEAT:  58.04043
 CYCLE:     9 TIME:   0.008 TIME LEFT:  2.00D  GRAD.:    19.017 HEAT:  57.94034
 CYCLE:    10 TIME:   0.008 TIME LEFT:  2.00D  GRAD.:    12.025 HEAT:  57.87778
 CYCLE:    11 TIME:   0.004 TIME LEFT:  2.00D  GRAD.:    15.230 HEAT:  57.87641
 CYCLE:    12 TIME:   0.008 TIME LEFT:  2.00D  GRAD.:     9.803 HEAT:  57.83412
 CYCLE:    13 TIME:   0.008 TIME LEFT:  2.00D  GRAD.:     9.695 HEAT:  57.82574
 CYCLE:    14 TIME:   0.004 TIME LEFT:  2.00D  GRAD.:    10.325 HEAT:  57.82145
 CYCLE:    15 TIME:   0.004 TIME LEFT:  2.00D  GRAD.:     7.622 HEAT:  57.80848
 CYCLE:    16 TIME:   0.008 TIME LEFT:  2.00D  GRAD.:     3.565 HEAT:  57.79455
 CYCLE:    17 TIME:   0.008 TIME LEFT:  2.00D  GRAD.:     6.013 HEAT:  57.79515
 CYCLE:    18 TIME:   0.008 TIME LEFT:  2.00D  GRAD.:     5.557 HEAT:  57.78865
 CYCLE:    19 TIME:   0.008 TIME LEFT:  2.00D  GRAD.:     2.721 HEAT:  57.78267
 CYCLE:    20 TIME:   0.004 TIME LEFT:  2.00D  GRAD.:     5.461 HEAT:  57.78402
 CYCLE:    21 TIME:   0.004 TIME LEFT:  2.00D  GRAD.:     3.862 HEAT:  57.77449
 CYCLE:    22 TIME:   0.012 TIME LEFT:  2.00D  GRAD.:     4.217 HEAT:  57.77226
 CYCLE:    23 TIME:   0.008 TIME LEFT:  2.00D  GRAD.:     1.748 HEAT:  57.76433
 CYCLE:    24 TIME:   0.004 TIME LEFT:  2.00D  GRAD.:     2.646 HEAT:  57.76146
 CYCLE:    25 TIME:   0.004 TIME LEFT:  2.00D  GRAD.:     2.447 HEAT:  57.75828
 CYCLE:    26 TIME:   0.004 TIME LEFT:  2.00D  GRAD.:     1.675 HEAT:  57.75650
 CYCLE:    27 TIME:   0.004 TIME LEFT:  2.00D  GRAD.:     2.734 HEAT:  57.75645
 CYCLE:    28 TIME:   0.008 TIME LEFT:  2.00D  GRAD.:     1.299 HEAT:  57.75408
 CYCLE:    29 TIME:   0.004 TIME LEFT:  2.00D  GRAD.:     2.468 HEAT:  57.75497
 CYCLE:    30 TIME:   0.004 TIME LEFT:  2.00D  GRAD.:     0.780 HEAT:  57.75268
 CYCLE:    31 TIME:   0.004 TIME LEFT:  2.00D  GRAD.:     0.880 HEAT:  57.75212
 CYCLE:    32 TIME:   0.004 TIME LEFT:  2.00D  GRAD.:     1.096 HEAT:  57.75122
 CYCLE:    33 TIME:   0.008 TIME LEFT:  2.00D  GRAD.:     1.206 HEAT:  57.74914
 CYCLE:    34 TIME:   0.004 TIME LEFT:  2.00D  GRAD.:     1.018 HEAT:  57.74723
 CYCLE:    35 TIME:   0.004 TIME LEFT:  2.00D  GRAD.:     1.752 HEAT:  57.74353
 CYCLE:    36 TIME:   0.004 TIME LEFT:  2.00D  GRAD.:     2.037 HEAT:  57.74130
 CYCLE:    37 TIME:   0.008 TIME LEFT:  2.00D  GRAD.:     1.786 HEAT:  57.73806
 CYCLE:    38 TIME:   0.004 TIME LEFT:  2.00D  GRAD.:     1.518 HEAT:  57.73284
 CYCLE:    39 TIME:   0.004 TIME LEFT:  2.00D  GRAD.:     1.915 HEAT:  57.72551
 CYCLE:    40 TIME:   0.004 TIME LEFT:  2.00D  GRAD.:     2.251 HEAT:  57.71739
 CYCLE:    41 TIME:   0.004 TIME LEFT:  2.00D  GRAD.:     1.705 HEAT:  57.71009
 CYCLE:    42 TIME:   0.008 TIME LEFT:  2.00D  GRAD.:     1.496 HEAT:  57.70319
 CYCLE:    43 TIME:   0.004 TIME LEFT:  2.00D  GRAD.:     1.533 HEAT:  57.69896
 CYCLE:    44 TIME:   0.004 TIME LEFT:  2.00D  GRAD.:     1.769 HEAT:  57.69319
 CYCLE:    45 TIME:   0.004 TIME LEFT:  2.00D  GRAD.:     1.907 HEAT:  57.68645
 CYCLE:    46 TIME:   0.008 TIME LEFT:  2.00D  GRAD.:     3.807 HEAT:  57.67911
 CYCLE:    47 TIME:   0.004 TIME LEFT:  2.00D  GRAD.:     2.698 HEAT:  57.66761
 CYCLE:    48 TIME:   0.004 TIME LEFT:  2.00D  GRAD.:     2.373 HEAT:  57.65605
 CYCLE:    49 TIME:   0.004 TIME LEFT:  2.00D  GRAD.:     5.540 HEAT:  57.64444
 CYCLE:    50 TIME:   0.004 TIME LEFT:  2.00D  GRAD.:     3.708 HEAT:  57.63819
 CYCLE:    51 TIME:   0.008 TIME LEFT:  2.00D  GRAD.:     1.583 HEAT:  57.62755
 CYCLE:    52 TIME:   0.004 TIME LEFT:  2.00D  GRAD.:     2.021 HEAT:  57.61974
 CYCLE:    53 TIME:   0.004 TIME LEFT:  2.00D  GRAD.:     4.196 HEAT:  57.60977
 CYCLE:    54 TIME:   0.004 TIME LEFT:  2.00D  GRAD.:     2.350 HEAT:  57.59999
 CYCLE:    55 TIME:   0.008 TIME LEFT:  2.00D  GRAD.:     1.557 HEAT:  57.59263
 CYCLE:    56 TIME:   0.004 TIME LEFT:  2.00D  GRAD.:     1.501 HEAT:  57.58636
 CYCLE:    57 TIME:   0.004 TIME LEFT:  2.00D  GRAD.:     1.880 HEAT:  57.57447
 CYCLE:    58 TIME:   0.004 TIME LEFT:  2.00D  GRAD.:     2.045 HEAT:  57.56527
 CYCLE:    59 TIME:   0.008 TIME LEFT:  2.00D  GRAD.:     2.890 HEAT:  57.55472
 CYCLE:    60 TIME:   0.004 TIME LEFT:  2.00D  GRAD.:     3.417 HEAT:  57.54006
 CYCLE:    61 TIME:   0.004 TIME LEFT:  2.00D  GRAD.:     3.812 HEAT:  57.52347
 CYCLE:    62 TIME:   0.004 TIME LEFT:  2.00D  GRAD.:     5.017 HEAT:  57.49658
 CYCLE:    63 TIME:   0.008 TIME LEFT:  2.00D  GRAD.:     3.965 HEAT:  57.47361
 CYCLE:    64 TIME:   0.004 TIME LEFT:  2.00D  GRAD.:     5.077 HEAT:  57.44222
 CYCLE:    65 TIME:   0.004 TIME LEFT:  2.00D  GRAD.:     8.466 HEAT:  57.43815
 CYCLE:    66 TIME:   0.004 TIME LEFT:  2.00D  GRAD.:    11.235 HEAT:  57.41941
 CYCLE:    67 TIME:   0.004 TIME LEFT:  2.00D  GRAD.:     6.906 HEAT:  57.38117
 CYCLE:    68 TIME:   0.008 TIME LEFT:  2.00D  GRAD.:     3.497 HEAT:  57.34240
 CYCLE:    69 TIME:   0.004 TIME LEFT:  2.00D  GRAD.:     2.906 HEAT:  57.32017
 CYCLE:    70 TIME:   0.004 TIME LEFT:  2.00D  GRAD.:     5.883 HEAT:  57.30092
 CYCLE:    71 TIME:   0.004 TIME LEFT:  2.00D  GRAD.:     3.550 HEAT:  57.27896
 CYCLE:    72 TIME:   0.008 TIME LEFT:  2.00D  GRAD.:     2.821 HEAT:  57.25143
 CYCLE:    73 TIME:   0.004 TIME LEFT:  2.00D  GRAD.:     2.723 HEAT:  57.23065
 CYCLE:    74 TIME:   0.004 TIME LEFT:  2.00D  GRAD.:     3.785 HEAT:  57.20785
 CYCLE:    75 TIME:   0.004 TIME LEFT:  2.00D  GRAD.:     4.794 HEAT:  57.17799
 CYCLE:    76 TIME:   0.008 TIME LEFT:  2.00D  GRAD.:     5.475 HEAT:  57.16924
 CYCLE:    77 TIME:   0.004 TIME LEFT:  2.00D  GRAD.:     3.570 HEAT:  57.14756
 CYCLE:    78 TIME:   0.004 TIME LEFT:  2.00D  GRAD.:     4.478 HEAT:  57.13144
 CYCLE:    79 TIME:   0.004 TIME LEFT:  2.00D  GRAD.:     2.480 HEAT:  57.11326
 CYCLE:    80 TIME:   0.008 TIME LEFT:  2.00D  GRAD.:     2.553 HEAT:  57.10069
 CYCLE:    81 TIME:   0.004 TIME LEFT:  2.00D  GRAD.:     2.713 HEAT:  57.09235
 CYCLE:    82 TIME:   0.004 TIME LEFT:  2.00D  GRAD.:     2.309 HEAT:  57.07933
 CYCLE:    83 TIME:   0.004 TIME LEFT:  2.00D  GRAD.:     2.367 HEAT:  57.06760
 CYCLE:    84 TIME:   0.004 TIME LEFT:  2.00D  GRAD.:     3.160 HEAT:  57.05445
 CYCLE:    85 TIME:   0.008 TIME LEFT:  2.00D  GRAD.:     3.203 HEAT:  57.04089
 CYCLE:    86 TIME:   0.004 TIME LEFT:  2.00D  GRAD.:     3.691 HEAT:  57.02482
 CYCLE:    87 TIME:   0.004 TIME LEFT:  2.00D  GRAD.:     3.780 HEAT:  57.01027
 CYCLE:    88 TIME:   0.004 TIME LEFT:  2.00D  GRAD.:     4.680 HEAT:  56.99874
 CYCLE:    89 TIME:   0.008 TIME LEFT:  2.00D  GRAD.:     3.083 HEAT:  56.98294
 CYCLE:    90 TIME:   0.004 TIME LEFT:  2.00D  GRAD.:     2.923 HEAT:  56.96760
 CYCLE:    91 TIME:   0.004 TIME LEFT:  2.00D  GRAD.:     3.500 HEAT:  56.95303
 CYCLE:    92 TIME:   0.004 TIME LEFT:  2.00D  GRAD.:     3.105 HEAT:  56.94177
 CYCLE:    93 TIME:   0.004 TIME LEFT:  2.00D  GRAD.:     2.539 HEAT:  56.92946
 CYCLE:    94 TIME:   0.008 TIME LEFT:  2.00D  GRAD.:     2.500 HEAT:  56.91439
 CYCLE:    95 TIME:   0.004 TIME LEFT:  2.00D  GRAD.:     2.607 HEAT:  56.90043
 CYCLE:    96 TIME:   0.004 TIME LEFT:  2.00D  GRAD.:     3.438 HEAT:  56.88934
 CYCLE:    97 TIME:   0.004 TIME LEFT:  2.00D  GRAD.:     3.450 HEAT:  56.87577
 CYCLE:    98 TIME:   0.008 TIME LEFT:  2.00D  GRAD.:     3.074 HEAT:  56.86079
 CYCLE:    99 TIME:   0.004 TIME LEFT:  2.00D  GRAD.:     3.884 HEAT:  56.82582
 CYCLE:   100 TIME:   0.004 TIME LEFT:  2.00D  GRAD.:     4.548 HEAT:  56.80224
 CYCLE:   101 TIME:   0.004 TIME LEFT:  2.00D  GRAD.:     9.230 HEAT:  56.75701
 CYCLE:   102 TIME:   0.004 TIME LEFT:  2.00D  GRAD.:     8.586 HEAT:  56.74456
 CYCLE:   103 TIME:   0.004 TIME LEFT:  2.00D  GRAD.:     6.048 HEAT:  56.68902
 CYCLE:   104 TIME:   0.008 TIME LEFT:  2.00D  GRAD.:     5.725 HEAT:  56.65509
 CYCLE:   105 TIME:   0.004 TIME LEFT:  2.00D  GRAD.:     5.197 HEAT:  56.63405
 CYCLE:   106 TIME:   0.004 TIME LEFT:  2.00D  GRAD.:     2.472 HEAT:  56.61965
 CYCLE:   107 TIME:   0.004 TIME LEFT:  2.00D  GRAD.:     5.131 HEAT:  56.61434
 CYCLE:   108 TIME:   0.008 TIME LEFT:  2.00D  GRAD.:     1.970 HEAT:  56.60475
 CYCLE:   109 TIME:   0.004 TIME LEFT:  2.00D  GRAD.:     1.626 HEAT:  56.59694
 CYCLE:   110 TIME:   0.004 TIME LEFT:  2.00D  GRAD.:     1.388 HEAT:  56.58876
 CYCLE:   111 TIME:   0.004 TIME LEFT:  2.00D  GRAD.:     1.846 HEAT:  56.58473
 CYCLE:   112 TIME:   0.008 TIME LEFT:  2.00D  GRAD.:     1.676 HEAT:  56.58068
 CYCLE:   113 TIME:   0.004 TIME LEFT:  2.00D  GRAD.:     1.655 HEAT:  56.57506
 CYCLE:   114 TIME:   0.004 TIME LEFT:  2.00D  GRAD.:     1.667 HEAT:  56.57068
 CYCLE:   115 TIME:   0.004 TIME LEFT:  2.00D  GRAD.:     1.420 HEAT:  56.56687
 CYCLE:   116 TIME:   0.004 TIME LEFT:  2.00D  GRAD.:     1.590 HEAT:  56.56330
 CYCLE:   117 TIME:   0.008 TIME LEFT:  2.00D  GRAD.:     1.898 HEAT:  56.55930
 CYCLE:   118 TIME:   0.004 TIME LEFT:  2.00D  GRAD.:     1.920 HEAT:  56.55462
 CYCLE:   119 TIME:   0.004 TIME LEFT:  2.00D  GRAD.:     2.514 HEAT:  56.54817
 CYCLE:   120 TIME:   0.004 TIME LEFT:  2.00D  GRAD.:     1.583 HEAT:  56.54553
 CYCLE:   121 TIME:   0.008 TIME LEFT:  2.00D  GRAD.:     1.367 HEAT:  56.54108
 CYCLE:   122 TIME:   0.004 TIME LEFT:  2.00D  GRAD.:     1.812 HEAT:  56.53822
 CYCLE:   123 TIME:   0.004 TIME LEFT:  2.00D  GRAD.:     1.824 HEAT:  56.53620
 CYCLE:   124 TIME:   0.004 TIME LEFT:  2.00D  GRAD.:     1.944 HEAT:  56.53081
 CYCLE:   125 TIME:   0.004 TIME LEFT:  2.00D  GRAD.:     1.550 HEAT:  56.52753
 CYCLE:   126 TIME:   0.008 TIME LEFT:  2.00D  GRAD.:     2.758 HEAT:  56.52145
 CYCLE:   127 TIME:   0.004 TIME LEFT:  2.00D  GRAD.:     1.719 HEAT:  56.51919
 CYCLE:   128 TIME:   0.004 TIME LEFT:  2.00D  GRAD.:     1.172 HEAT:  56.51579
 CYCLE:   129 TIME:   0.004 TIME LEFT:  2.00D  GRAD.:     1.891 HEAT:  56.51077
 CYCLE:   130 TIME:   0.008 TIME LEFT:  2.00D  GRAD.:     2.554 HEAT:  56.50626
 CYCLE:   131 TIME:   0.004 TIME LEFT:  2.00D  GRAD.:     2.219 HEAT:  56.50085
 CYCLE:   132 TIME:   0.004 TIME LEFT:  2.00D  GRAD.:     1.556 HEAT:  56.49339
 CYCLE:   133 TIME:   0.004 TIME LEFT:  2.00D  GRAD.:     0.953 HEAT:  56.49076
 CYCLE:   134 TIME:   0.004 TIME LEFT:  2.00D  GRAD.:     3.138 HEAT:  56.48949
 CYCLE:   135 TIME:   0.008 TIME LEFT:  2.00D  GRAD.:     1.070 HEAT:  56.48697
 CYCLE:   136 TIME:   0.004 TIME LEFT:  2.00D  GRAD.:     0.715 HEAT:  56.48599
 CYCLE:   137 TIME:   0.004 TIME LEFT:  2.00D  GRAD.:     0.799 HEAT:  56.48524
 CYCLE:   138 TIME:   0.004 TIME LEFT:  2.00D  GRAD.:     1.020 HEAT:  56.48470
 CYCLE:   139 TIME:   0.008 TIME LEFT:  2.00D  GRAD.:     0.827 HEAT:  56.48426
 CYCLE:   140 TIME:   0.004 TIME LEFT:  2.00D  GRAD.:     0.857 HEAT:  56.48307
 CYCLE:   141 TIME:   0.004 TIME LEFT:  2.00D  GRAD.:     0.791 HEAT:  56.48256
 CYCLE:   142 TIME:   0.004 TIME LEFT:  2.00D  GRAD.:     1.181 HEAT:  56.48223
 CYCLE:   143 TIME:   0.004 TIME LEFT:  2.00D  GRAD.:     0.903 HEAT:  56.48160
 CYCLE:   144 TIME:   0.008 TIME LEFT:  2.00D  GRAD.:     0.609 HEAT:  56.48121
 CYCLE:   145 TIME:   0.004 TIME LEFT:  2.00D  GRAD.:     0.513 HEAT:  56.48088
 CYCLE:   146 TIME:   0.004 TIME LEFT:  2.00D  GRAD.:     1.130 HEAT:  56.48039
 CYCLE:   147 TIME:   0.008 TIME LEFT:  2.00D  GRAD.:     0.908 HEAT:  56.47976
 CYCLE:   148 TIME:   0.004 TIME LEFT:  2.00D  GRAD.:     0.694 HEAT:  56.47941
 CYCLE:   149 TIME:   0.004 TIME LEFT:  2.00D  GRAD.:     1.217 HEAT:  56.47798
 CYCLE:   150 TIME:   0.004 TIME LEFT:  2.00D  GRAD.:     1.090 HEAT:  56.47655
 CYCLE:   151 TIME:   0.004 TIME LEFT:  2.00D  GRAD.:     1.433 HEAT:  56.47480
 CYCLE:   152 TIME:   0.008 TIME LEFT:  2.00D  GRAD.:     1.176 HEAT:  56.47204
 CYCLE:   153 TIME:   0.004 TIME LEFT:  2.00D  GRAD.:     1.716 HEAT:  56.46907
 CYCLE:   154 TIME:   0.004 TIME LEFT:  2.00D  GRAD.:     1.352 HEAT:  56.46545
 CYCLE:   155 TIME:   0.004 TIME LEFT:  2.00D  GRAD.:     0.935 HEAT:  56.46436
 CYCLE:   156 TIME:   0.008 TIME LEFT:  2.00D  GRAD.:     0.877 HEAT:  56.46307
 CYCLE:   157 TIME:   0.004 TIME LEFT:  2.00D  GRAD.:     1.710 HEAT:  56.46045
 CYCLE:   158 TIME:   0.004 TIME LEFT:  2.00D  GRAD.:     0.948 HEAT:  56.45905
 CYCLE:   159 TIME:   0.004 TIME LEFT:  2.00D  GRAD.:     0.722 HEAT:  56.45745
 CYCLE:   160 TIME:   0.008 TIME LEFT:  2.00D  GRAD.:     0.664 HEAT:  56.45633
 CYCLE:   161 TIME:   0.004 TIME LEFT:  2.00D  GRAD.:     0.691 HEAT:  56.45569
 CYCLE:   162 TIME:   0.004 TIME LEFT:  2.00D  GRAD.:     0.577 HEAT:  56.45505
 CYCLE:   163 TIME:   0.004 TIME LEFT:  2.00D  GRAD.:     0.754 HEAT:  56.45467
 CYCLE:   164 TIME:   0.008 TIME LEFT:  2.00D  GRAD.:     0.602 HEAT:  56.45427
 CYCLE:   165 TIME:   0.004 TIME LEFT:  2.00D  GRAD.:     0.524 HEAT:  56.45391
 CYCLE:   166 TIME:   0.004 TIME LEFT:  2.00D  GRAD.:     0.333 HEAT:  56.45363
 CYCLE:   167 TIME:   0.004 TIME LEFT:  2.00D  GRAD.:     0.324 HEAT:  56.45346
 CYCLE:   168 TIME:   0.008 TIME LEFT:  2.00D  GRAD.:     0.276 HEAT:  56.45338
 CYCLE:   169 TIME:   0.004 TIME LEFT:  2.00D  GRAD.:     0.318 HEAT:  56.45321
 CYCLE:   170 TIME:   0.004 TIME LEFT:  2.00D  GRAD.:     0.241 HEAT:  56.45308
 CYCLE:   171 TIME:   0.004 TIME LEFT:  2.00D  GRAD.:     0.194 HEAT:  56.45299
 CYCLE:   172 TIME:   0.004 TIME LEFT:  2.00D  GRAD.:     0.244 HEAT:  56.45289
 CYCLE:   173 TIME:   0.008 TIME LEFT:  2.00D  GRAD.:     0.430 HEAT:  56.45282
 CYCLE:   174 TIME:   0.004 TIME LEFT:  2.00D  GRAD.:     0.465 HEAT:  56.45264
 CYCLE:   175 TIME:   0.004 TIME LEFT:  2.00D  GRAD.:     0.948 HEAT:  56.45156
 CYCLE:   176 TIME:   0.004 TIME LEFT:  2.00D  GRAD.:     1.346 HEAT:  56.45021
 CYCLE:   177 TIME:   0.008 TIME LEFT:  2.00D  GRAD.:     1.648 HEAT:  56.44724
 CYCLE:   178 TIME:   0.004 TIME LEFT:  2.00D  GRAD.:     3.314 HEAT:  56.44826
 CYCLE:   179 TIME:   0.004 TIME LEFT:  2.00D  GRAD.:     1.007 HEAT:  56.44162
 CYCLE:   180 TIME:   0.004 TIME LEFT:  2.00D  GRAD.:     0.793 HEAT:  56.44050
 CYCLE:   181 TIME:   0.004 TIME LEFT:  2.00D  GRAD.:     0.606 HEAT:  56.43978
 CYCLE:   182 TIME:   0.008 TIME LEFT:  2.00D  GRAD.:     0.486 HEAT:  56.43920
 CYCLE:   183 TIME:   0.004 TIME LEFT:  2.00D  GRAD.:     0.265 HEAT:  56.43882
 CYCLE:   184 TIME:   0.004 TIME LEFT:  2.00D  GRAD.:     0.129 HEAT:  56.43868
 CYCLE:   185 TIME:   0.004 TIME LEFT:  2.00D  GRAD.:     0.075 HEAT:  56.43867
 CYCLE:   186 TIME:   0.008 TIME LEFT:  2.00D  GRAD.:     0.063 HEAT:  56.43866
 CYCLE:   187 TIME:   0.004 TIME LEFT:  2.00D  GRAD.:     0.028 HEAT:  56.43866

     GRADIENT =  0.02843  IS LESS THAN CUTOFF =  0.05000



 -------------------------------------------------------------------------------
 pm3  precise nosym THREADS=1
 InChI=1S/C10H12/c1-2-3-4-7-10-8-5-6-9-10/h2-5,8-9H,1,6-7H2



     GEOMETRY OPTIMISED USING EIGENVECTOR FOLLOWING (EF).     
     SCF FIELD WAS ACHIEVED                                   


                              PM3 CALCULATION
                                                       MOPAC2016 (Version: 18.184L)
                                                       Sat Jun 15 10:17:33 2019
                                                       No. of days remaining =  18




          FINAL HEAT OF FORMATION =         56.43866 KCAL/MOL =     236.13936 KJ/MOL


          TOTAL ENERGY            =      -1367.94889 EV
          ELECTRONIC ENERGY       =      -6981.39738 EV  POINT GROUP:     C1  
          CORE-CORE REPULSION     =       5613.44849 EV
          COSMO AREA              =        197.07 SQUARE ANGSTROMS
          COSMO VOLUME            =        191.29 CUBIC ANGSTROMS

          GRADIENT NORM           =          0.02843 = 0.00606 PER ATOM
          IONIZATION POTENTIAL    =          9.160836 EV
          HOMO LUMO ENERGIES (EV) =         -9.161  0.229
          NO. OF FILLED LEVELS    =         26
          MOLECULAR WEIGHT        =        132.2048

          MOLECULAR DIMENSIONS (Angstroms)

            Atom       Atom       Distance
            H    22    H    12     9.75367
            H    14    H    16     4.30941
            H    13    H    11     3.76474


          SCF CALCULATIONS        =        200
 
          WALL-CLOCK TIME         =          0.953 SECONDS
          COMPUTATION TIME        =          0.883 SECONDS




   ATOM   CHEMICAL          X               Y               Z
  NUMBER   SYMBOL      (ANGSTROMS)     (ANGSTROMS)     (ANGSTROMS)
 
     1       C         -0.18783490  *  -1.08466151  *  -0.50330582  *
     2       C         -3.34854242  *   0.93892089  *  -0.03109248  *
     3       C         -1.40673352  *  -0.35383355  *  -0.08410129  *
     4       C         -2.22629652  *   0.39187930  *  -0.86486068  *
     5       C         -3.04797347  *   0.39565681  *   1.33682107  *
     6       C          1.03026029  *  -0.53680077  *   0.15477096  *
     7       C         -1.92126869  *  -0.34961495  *   1.29112718  *
     8       C          2.18144108  *  -0.35027593  *  -0.49997177  *
     9       C          3.36943176  *   0.16606544  *   0.16262513  *
    10       C          4.52127512  *   0.34483842  *  -0.48120290  *
    11       H         -3.36031880  *   2.04400734  *  -0.03802351  *
    12       H         -4.33413865  *   0.59986486  *  -0.39841838  *
    13       H         -0.29107967  *  -2.15296634  *  -0.22149153  *
    14       H         -0.09515388  *  -1.06527833  *  -1.60800049  *
    15       H         -2.12940497  *   0.59164112  *  -1.92985428  *
    16       H         -3.67592163  *   0.60193105  *   2.20043297  *
    17       H          0.93319714  *  -0.29545770  *   1.22157293  *
    18       H          3.27767973  *   0.40721396  *   1.22926446  *
    19       H         -1.43643612  *  -0.87756855  *   2.11053779  *
    20       H          2.26976013  *  -0.58393177  *  -1.56926643  *
    21       H          4.65497130  *   0.11994408  *  -1.53583272  *
    22       H          5.41018161  *   0.73045474  *   0.00812428  *

                             CARTESIAN COORDINATES

   1    C       -0.187834895    -1.084661514    -0.503305816
   2    C       -3.348542422     0.938920888    -0.031092477
   3    C       -1.406733519    -0.353833555    -0.084101285
   4    C       -2.226296521     0.391879298    -0.864860685
   5    C       -3.047973474     0.395656809     1.336821067
   6    C        1.030260294    -0.536800775     0.154770961
   7    C       -1.921268692    -0.349614952     1.291127178
   8    C        2.181441076    -0.350275926    -0.499971767
   9    C        3.369431763     0.166065442     0.162625128
  10    C        4.521275119     0.344838425    -0.481202902
  11    H       -3.360318803     2.044007341    -0.038023506
  12    H       -4.334138646     0.599864864    -0.398418382
  13    H       -0.291079668    -2.152966336    -0.221491531
  14    H       -0.095153880    -1.065278330    -1.608000490
  15    H       -2.129404971     0.591641123    -1.929854277
  16    H       -3.675921633     0.601931052     2.200432975
  17    H        0.933197145    -0.295457697     1.221572935
  18    H        3.277679730     0.407213962     1.229264462
  19    H       -1.436436116    -0.877568554     2.110537786
  20    H        2.269760134    -0.583931770    -1.569266426
  21    H        4.654971296     0.119944080    -1.535832717
  22    H        5.410181609     0.730454741     0.008124278


           Empirical Formula: C10 H12  =    22 atoms



      MOLECULAR POINT GROUP   :   C1  


                  EIGENVALUES  
 -40.31167 -36.49679 -32.41077 -27.71805 -27.36083 -24.02449 -20.30666 -20.03382
 -19.12033 -18.32350 -17.27735 -16.25287 -15.80294 -14.97679 -14.35822 -14.20230
 -13.81336 -13.33723 -13.11402 -13.05685 -12.33742 -12.08634 -11.66116 -10.68719
  -9.19725  -9.16084   0.22913   0.33418   1.87255   2.17332   3.15898   3.32390
   3.38501   3.63441   3.70692   3.79098   3.86245   3.96169   4.09671   4.23265
   4.27066   4.30904   4.37703   4.47033   4.74396   5.13432   5.38293   5.74515
   5.83340   5.99622   6.08834   6.20753


              NET ATOMIC CHARGES AND DIPOLE CONTRIBUTIONS

  ATOM NO.   TYPE          CHARGE      No. of ELECS.   s-Pop       p-Pop       
    1          C          -0.003722        4.0037     1.12789     2.87584
    2          C          -0.048977        4.0490     1.14500     2.90398
    3          C          -0.102110        4.1021     1.19493     2.90718
    4          C          -0.159619        4.1596     1.20576     2.95386
    5          C          -0.160457        4.1605     1.20697     2.95349
    6          C          -0.125477        4.1255     1.19757     2.92791
    7          C          -0.112916        4.1129     1.19034     2.92258
    8          C          -0.126566        4.1266     1.18295     2.94361
    9          C          -0.101701        4.1017     1.18062     2.92108
   10          C          -0.155146        4.1551     1.18366     2.97149
   11          H           0.082024        0.9180     0.91798
   12          H           0.081082        0.9189     0.91892
   13          H           0.062905        0.9371     0.93710
   14          H           0.056943        0.9431     0.94306
   15          H           0.118279        0.8817     0.88172
   16          H           0.115472        0.8845     0.88453
   17          H           0.105012        0.8950     0.89499
   18          H           0.097137        0.9029     0.90286
   19          H           0.115742        0.8843     0.88426
   20          H           0.102708        0.8973     0.89729
   21          H           0.080791        0.9192     0.91921
   22          H           0.078597        0.9214     0.92140
 DIPOLE           X         Y         Z       TOTAL
 POINT-CHG.    -0.588     0.109    -0.077     0.603
 HYBRID        -0.018     0.037     0.003     0.041
 SUM           -0.605     0.146    -0.074     0.627


          ATOMIC ORBITAL ELECTRON POPULATIONS

     Atom    s        px        py        pz   
    1  C   1.12789   0.91000   0.97615   0.98969
    2  C   1.14500   0.97502   0.99514   0.93382
    3  C   1.19493   0.96633   0.99371   0.94715
    4  C   1.20576   0.97407   0.99798   0.98181
    5  C   1.20697   0.98269   0.99705   0.97375
    6  C   1.19757   0.94637   0.98742   0.99412
    7  C   1.19034   0.96853   0.99940   0.95464
    8  C   1.18295   0.94403   1.01191   0.98767
    9  C   1.18062   0.94403   0.99254   0.98451
   10  C   1.18366   0.96859   1.00425   0.99866
   11  H   0.91798
   12  H   0.91892
   13  H   0.93710
   14  H   0.94306
   15  H   0.88172
   16  H   0.88453
   17  H   0.89499
   18  H   0.90286
   19  H   0.88426
   20  H   0.89729
   21  H   0.91921
   22  H   0.92140
 *******************************************************************************
 ** Site#: 14399        For non-commercial use only    Version 18.184L 64BITS **
 *******************************************************************************
 ** Cite this program as: MOPAC2016, Version: 18.184L, James J. P. Stewart,   **
 ** Stewart Computational Chemistry, web: HTTP://OpenMOPAC.net. Days left:  18**
 *******************************************************************************
 **                                                                           **
 **                                MOPAC2016                                  **
 **                                                                           **
 *******************************************************************************

                              PM3 CALCULATION RESULTS

 *******************************************************************************
 *  CALCULATION DONE:                                Sat Jun 15 10:17:33 2019  *
 *  PM3        - The PM3 Hamiltonian to be used
 *  OLDGEO     - PREVIOUS GEOMETRY TO BE USED
 *  PRECISE    - CRITERIA TO BE INCREASED BY 100 TIMES
 *  NOSYM      - POINT-GROUP SYMMETRY SET TO C1
 *  THREADS=1  - MULTI-THREADING NOT USED
 *  T=         - A TIME OF 172800.0 SECONDS REQUESTED
 *  DUMP=N     - RESTART FILE WRITTEN EVERY  7200.000 SECONDS
 *  THERMO     - THERMODYNAMIC QUANTITIES TO BE CALCULATED
 *******************************************************************************
oldgeo thermo nosym precise THREADS=1  pm3
 InChI=1S/C10H12/c1-2-3-4-7-10-8-5-6-9-10/h2-5,8-9H,1,6-7H2

   ATOM   CHEMICAL          X               Y               Z
  NUMBER   SYMBOL      (ANGSTROMS)     (ANGSTROMS)     (ANGSTROMS)
 
     1       C         -0.18783490  *  -1.08466151  *  -0.50330582  *
     2       C         -3.34854242  *   0.93892089  *  -0.03109248  *
     3       C         -1.40673352  *  -0.35383355  *  -0.08410129  *
     4       C         -2.22629652  *   0.39187930  *  -0.86486068  *
     5       C         -3.04797347  *   0.39565681  *   1.33682107  *
     6       C          1.03026029  *  -0.53680077  *   0.15477096  *
     7       C         -1.92126869  *  -0.34961495  *   1.29112718  *
     8       C          2.18144108  *  -0.35027593  *  -0.49997177  *
     9       C          3.36943176  *   0.16606544  *   0.16262513  *
    10       C          4.52127512  *   0.34483842  *  -0.48120290  *
    11       H         -3.36031880  *   2.04400734  *  -0.03802351  *
    12       H         -4.33413865  *   0.59986486  *  -0.39841838  *
    13       H         -0.29107967  *  -2.15296634  *  -0.22149153  *
    14       H         -0.09515388  *  -1.06527833  *  -1.60800049  *
    15       H         -2.12940497  *   0.59164112  *  -1.92985428  *
    16       H         -3.67592163  *   0.60193105  *   2.20043297  *
    17       H          0.93319714  *  -0.29545770  *   1.22157293  *
    18       H          3.27767973  *   0.40721396  *   1.22926446  *
    19       H         -1.43643612  *  -0.87756855  *   2.11053779  *
    20       H          2.26976013  *  -0.58393177  *  -1.56926643  *
    21       H          4.65497130  *   0.11994408  *  -1.53583272  *
    22       H          5.41018161  *   0.73045474  *   0.00812428  *
 


          CARTESIAN COORDINATES 

    NO.       ATOM           X           Y           Z

     1         C         -0.1878     -1.0847     -0.5033
     2         C         -3.3485      0.9389     -0.0311
     3         C         -1.4067     -0.3538     -0.0841
     4         C         -2.2263      0.3919     -0.8649
     5         C         -3.0480      0.3957      1.3368
     6         C          1.0303     -0.5368      0.1548
     7         C         -1.9213     -0.3496      1.2911
     8         C          2.1814     -0.3503     -0.5000
     9         C          3.3694      0.1661      0.1626
    10         C          4.5213      0.3448     -0.4812
    11         H         -3.3603      2.0440     -0.0380
    12         H         -4.3341      0.5999     -0.3984
    13         H         -0.2911     -2.1530     -0.2215
    14         H         -0.0952     -1.0653     -1.6080
    15         H         -2.1294      0.5916     -1.9299
    16         H         -3.6759      0.6019      2.2004
    17         H          0.9332     -0.2955      1.2216
    18         H          3.2777      0.4072      1.2293
    19         H         -1.4364     -0.8776      2.1105
    20         H          2.2698     -0.5839     -1.5693
    21         H          4.6550      0.1199     -1.5358
    22         H          5.4102      0.7305      0.0081

  H: (PM3): J. J. P. STEWART, J. COMP. CHEM. 10, 209 (1989).
  C: (PM3): J. J. P. STEWART, J. COMP. CHEM. 10, 209 (1989).

           Empirical Formula: C10 H12  =    22 atoms



      MOLECULAR POINT GROUP   :   C1  


      RHF CALCULATION, NO. OF DOUBLY OCCUPIED LEVELS = 26



          HEAT OF FORMATION =      56.438662 KCALS/MOLE


          CARTESIAN COORDINATE DERIVATIVES

   NUMBER  ATOM         X            Y            Z

     1       C      0.001900    -0.002788    -0.000470
     2       C     -0.002664     0.003040    -0.002037
     3       C     -0.003021     0.009072    -0.001823
     4       C      0.005554     0.000611     0.000945
     5       C     -0.005409    -0.003961    -0.001709
     6       C      0.007590     0.005383     0.000022
     7       C      0.004632    -0.005814    -0.001592
     8       C     -0.008413    -0.003270     0.005993
     9       C      0.003180     0.002765    -0.005706
    10       C     -0.002702    -0.003078     0.001340
    11       H     -0.002937    -0.000246     0.000908
    12       H     -0.001519     0.000258     0.001477
    13       H      0.002214    -0.001498     0.002519
    14       H      0.000625     0.003551    -0.003400
    15       H     -0.000680    -0.003672     0.000298
    16       H      0.001938     0.003534     0.000061
    17       H     -0.001474    -0.002402    -0.001536
    18       H      0.001483     0.004634     0.002134
    19       H      0.000617    -0.002296     0.001834
    20       H      0.000840    -0.001261    -0.000295
    21       H     -0.002021    -0.002078     0.000100
    22       H      0.000267    -0.000486     0.000941
 


          GRADIENT NORM =   0.02607


          TIME FOR SCF CALCULATION =    0.00

          TIME FOR DERIVATIVES     =    0.00

          MOLECULAR WEIGHT =  132.20



          ROTATIONAL CONSTANTS IN CM(-1)

          A =    0.13753415   B =    0.01677592   C =    0.01636904



           PRINCIPAL MOMENTS OF INERTIA IN UNITS OF 10**(-40)*GRAM-CM**2

          A =      203.5333   B =     1668.6281   C =     1710.1046


          ORIENTATION OF MOLECULE IN FORCE CALCULATION

    NO.       ATOM         X         Y         Z

     1          C      -0.5412   -0.3106   -1.0048
     2          C       3.2414   -0.3106   -1.0048
     3          C       0.9206   -0.0684   -1.0048
     4          C       1.9069   -0.9979   -0.9785
     5          C       2.8704    1.1443   -1.0503
     6          C      -1.1838    0.2297    0.2248
     7          C       1.5245    1.2692   -1.0489
     8          C      -2.1276   -0.4374    0.8978
     9          C      -2.7614    0.1137    2.0859
    10          C      -3.7086   -0.5410    2.7547
    11          H       3.8416   -0.5512   -0.1085
    12          H       3.8377   -0.6085   -1.8863
    13          H      -0.9912    0.1895   -1.8872
    14          H      -0.7462   -1.3934   -1.1269
    15          H       1.7999   -2.0800   -0.9439
    16          H       3.6133    1.9381   -1.0789
    17          H      -0.8404    1.2203    0.5513
    18          H      -2.4225    1.1042    2.4151
    19          H       0.9392    2.1869   -1.0744
    20          H      -2.4599   -1.4321    0.5723
    21          H      -4.0723   -1.5228    2.4639
    22          H      -4.1840   -0.1348    3.6420


    FIRST DERIVATIVES WILL BE USED IN THE CALCULATION OF SECOND DERIVATIVES

          ESTIMATED TIME TO COMPLETE CALCULATION =        2.06 SECONDS

    FOR POINT-GROUP C1   THERE ARE   1 UNIQUE SYMMETRY FUNCTIONS.

 STEP:   1 TIME =     0.02 SECS, INTEGRAL =      0.02 TIME LEFT: 172799.97
 STEP:   2 TIME =     0.02 SECS, INTEGRAL =      0.04 TIME LEFT: 172799.95
 STEP:   3 TIME =     0.02 SECS, INTEGRAL =      0.06 TIME LEFT: 172799.93
 STEP:   4 TIME =     0.02 SECS, INTEGRAL =      0.08 TIME LEFT: 172799.91
 STEP:   5 TIME =     0.02 SECS, INTEGRAL =      0.10 TIME LEFT: 172799.89
 STEP:   6 TIME =     0.02 SECS, INTEGRAL =      0.12 TIME LEFT: 172799.87
 STEP:   7 TIME =     0.02 SECS, INTEGRAL =      0.14 TIME LEFT: 172799.85
 STEP:   8 TIME =     0.02 SECS, INTEGRAL =      0.16 TIME LEFT: 172799.83
 STEP:   9 TIME =     0.02 SECS, INTEGRAL =      0.19 TIME LEFT: 172799.80
 STEP:  10 TIME =     0.02 SECS, INTEGRAL =      0.21 TIME LEFT: 172799.79
 STEP:  11 TIME =     0.02 SECS, INTEGRAL =      0.23 TIME LEFT: 172799.77
 STEP:  12 TIME =     0.02 SECS, INTEGRAL =      0.25 TIME LEFT: 172799.75
 STEP:  13 TIME =     0.02 SECS, INTEGRAL =      0.27 TIME LEFT: 172799.72
 STEP:  14 TIME =     0.02 SECS, INTEGRAL =      0.29 TIME LEFT: 172799.70
 STEP:  15 TIME =     0.02 SECS, INTEGRAL =      0.31 TIME LEFT: 172799.68
 STEP:  16 TIME =     0.02 SECS, INTEGRAL =      0.33 TIME LEFT: 172799.66
 STEP:  17 TIME =     0.02 SECS, INTEGRAL =      0.35 TIME LEFT: 172799.64
 STEP:  18 TIME =     0.02 SECS, INTEGRAL =      0.38 TIME LEFT: 172799.62
 STEP:  19 TIME =     0.02 SECS, INTEGRAL =      0.39 TIME LEFT: 172799.60
 STEP:  20 TIME =     0.02 SECS, INTEGRAL =      0.42 TIME LEFT: 172799.57
 STEP:  21 TIME =     0.02 SECS, INTEGRAL =      0.44 TIME LEFT: 172799.55
 STEP:  22 TIME =     0.02 SECS, INTEGRAL =      0.46 TIME LEFT: 172799.53
 STEP:  23 TIME =     0.02 SECS, INTEGRAL =      0.48 TIME LEFT: 172799.51
 STEP:  24 TIME =     0.02 SECS, INTEGRAL =      0.50 TIME LEFT: 172799.49
 STEP:  25 TIME =     0.02 SECS, INTEGRAL =      0.52 TIME LEFT: 172799.47
 STEP:  26 TIME =     0.02 SECS, INTEGRAL =      0.54 TIME LEFT: 172799.45
 STEP:  27 TIME =     0.02 SECS, INTEGRAL =      0.57 TIME LEFT: 172799.43
 STEP:  28 TIME =     0.02 SECS, INTEGRAL =      0.59 TIME LEFT: 172799.41
 STEP:  29 TIME =     0.02 SECS, INTEGRAL =      0.61 TIME LEFT: 172799.39
 STEP:  30 TIME =     0.02 SECS, INTEGRAL =      0.62 TIME LEFT: 172799.37
 STEP:  31 TIME =     0.02 SECS, INTEGRAL =      0.64 TIME LEFT: 172799.35
 STEP:  32 TIME =     0.02 SECS, INTEGRAL =      0.67 TIME LEFT: 172799.32
 STEP:  33 TIME =     0.02 SECS, INTEGRAL =      0.69 TIME LEFT: 172799.30
 STEP:  34 TIME =     0.02 SECS, INTEGRAL =      0.71 TIME LEFT: 172799.28
 STEP:  35 TIME =     0.02 SECS, INTEGRAL =      0.73 TIME LEFT: 172799.26
 STEP:  36 TIME =     0.02 SECS, INTEGRAL =      0.75 TIME LEFT: 172799.24
 STEP:  37 TIME =     0.02 SECS, INTEGRAL =      0.77 TIME LEFT: 172799.22
 STEP:  38 TIME =     0.02 SECS, INTEGRAL =      0.79 TIME LEFT: 172799.20
 STEP:  39 TIME =     0.02 SECS, INTEGRAL =      0.82 TIME LEFT: 172799.18
 STEP:  40 TIME =     0.02 SECS, INTEGRAL =      0.84 TIME LEFT: 172799.16
 STEP:  41 TIME =     0.02 SECS, INTEGRAL =      0.86 TIME LEFT: 172799.14
 STEP:  42 TIME =     0.02 SECS, INTEGRAL =      0.88 TIME LEFT: 172799.11
 STEP:  43 TIME =     0.02 SECS, INTEGRAL =      0.90 TIME LEFT: 172799.09
 STEP:  44 TIME =     0.02 SECS, INTEGRAL =      0.92 TIME LEFT: 172799.07
 STEP:  45 TIME =     0.02 SECS, INTEGRAL =      0.94 TIME LEFT: 172799.05
 STEP:  46 TIME =     0.02 SECS, INTEGRAL =      0.96 TIME LEFT: 172799.03
 STEP:  47 TIME =     0.02 SECS, INTEGRAL =      0.98 TIME LEFT: 172799.01
 STEP:  48 TIME =     0.02 SECS, INTEGRAL =      1.00 TIME LEFT: 172798.99
 STEP:  49 TIME =     0.02 SECS, INTEGRAL =      1.02 TIME LEFT: 172798.97
 STEP:  50 TIME =     0.02 SECS, INTEGRAL =      1.04 TIME LEFT: 172798.95
 STEP:  51 TIME =     0.02 SECS, INTEGRAL =      1.06 TIME LEFT: 172798.93
 STEP:  52 TIME =     0.02 SECS, INTEGRAL =      1.08 TIME LEFT: 172798.91
 STEP:  53 TIME =     0.02 SECS, INTEGRAL =      1.11 TIME LEFT: 172798.89
 STEP:  54 TIME =     0.02 SECS, INTEGRAL =      1.12 TIME LEFT: 172798.87
 STEP:  55 TIME =     0.02 SECS, INTEGRAL =      1.15 TIME LEFT: 172798.84
 STEP:  56 TIME =     0.02 SECS, INTEGRAL =      1.17 TIME LEFT: 172798.82
 STEP:  57 TIME =     0.02 SECS, INTEGRAL =      1.19 TIME LEFT: 172798.80
 STEP:  58 TIME =     0.02 SECS, INTEGRAL =      1.21 TIME LEFT: 172798.78
 STEP:  59 TIME =     0.02 SECS, INTEGRAL =      1.23 TIME LEFT: 172798.76
 STEP:  60 TIME =     0.02 SECS, INTEGRAL =      1.25 TIME LEFT: 172798.74
 STEP:  61 TIME =     0.02 SECS, INTEGRAL =      1.27 TIME LEFT: 172798.72
 STEP:  62 TIME =     0.02 SECS, INTEGRAL =      1.29 TIME LEFT: 172798.70
 STEP:  63 TIME =     0.02 SECS, INTEGRAL =      1.31 TIME LEFT: 172798.68
 STEP:  64 TIME =     0.02 SECS, INTEGRAL =      1.33 TIME LEFT: 172798.66
 STEP:  65 TIME =     0.02 SECS, INTEGRAL =      1.36 TIME LEFT: 172798.64
 STEP:  66 TIME =     0.02 SECS, INTEGRAL =      1.38 TIME LEFT: 172798.62

(To convert to Hartree/Bohr^2, multiply by (10^(-21) x N x a0^2)/(4.184 x 627.51) =  0.0642)


           FORCE MATRIX IN MILLIDYNES/ANGSTROM


                  C  1       C  2       C  3       C  4       C  5       C  6
 ------------------------------------------------------------------------------
     C    1  15.136540
     C    2   0.121613  14.904435
     C    3   5.163500   1.240224  18.817354
     C    4   0.664417   4.430781   9.440593  17.876672
     C    5   0.054528   4.407303   1.582654   1.122709  17.922272
     C    6   4.897563   0.020170   0.755687   0.027875   0.003987  18.028649
     C    7   0.516522   1.252673   4.987998   1.536028   9.723493   0.045076
     C    8   0.832191   0.004163   0.045745   0.005127   0.001691  10.395998
     C    9   0.141239   0.002814   0.019825   0.002196   0.001161   1.078219
     C   10   0.016112   0.002085   0.003871   0.000803   0.001672   0.103725
     H   11   0.017347   4.514022   0.043288   0.413704   0.416098   0.003412
     H   12   0.017550   4.514649   0.042677   0.414796   0.416463   0.002541
     H   13   4.382270   0.016195   0.435130   0.031804   0.003859   0.414938
     H   14   4.435816   0.002452   0.444732   0.030887   0.007898   0.459441
     H   15   0.047386   0.400147   0.453544   5.074552   0.042616   0.006257
     H   16   0.006387   0.402516   0.101022   0.043154   5.085021   0.000951
     H   17   0.433085   0.001237   0.032997   0.002329   0.002065   4.758201
     H   18   0.002543   0.000391   0.001032   0.000567   0.000358   0.041317
     H   19   0.008630   0.113446   0.425086   0.047010   0.445817   0.009013
     H   20   0.079637   0.001094   0.007263   0.001360   0.000621   0.465923
     H   21   0.004937   0.000721   0.001134   0.000286   0.000480   0.005838
     H   22   0.009879   0.000486   0.002174   0.000385   0.000542   0.008507


                  C  7       C  8       C  9       C 10       H 11       H 12
 ------------------------------------------------------------------------------
     C    7  18.294610
     C    8   0.004647  18.474983
     C    9   0.001818   5.595463  18.466661
     C   10   0.001633   1.076666  10.785411  17.894461
     H   11   0.044822   0.000968   0.000447   0.000573   5.119479
     H   12   0.045090   0.000623   0.000480   0.000373   0.546190   5.121068
     H   13   0.015024   0.031777   0.019923   0.002013   0.002056   0.003132
     H   14   0.041459   0.047341   0.004293   0.001152   0.000489   0.000527
     H   15   0.091940   0.001915   0.001329   0.000502   0.011090   0.010882
     H   16   0.443567   0.000509   0.000505   0.000389   0.011140   0.011135
     H   17   0.009096   0.465682   0.087531   0.006611   0.000625   0.000383
     H   18   0.000565   0.445822   4.772468   0.451457   0.000167   0.000126
     H   19   5.051914   0.002494   0.000793   0.000489   0.015307   0.015312
     H   20   0.001082   4.751351   0.444195   0.038070   0.000346   0.000176
     H   21   0.000711   0.099277   0.488715   5.077388   0.000186   0.000193
     H   22   0.000677   0.133994   0.460091   5.114358   0.000175   0.000105


                  H 13       H 14       H 15       H 16       H 17       H 18
 ------------------------------------------------------------------------------
     H   13   4.953985
     H   14   0.549020   5.021415
     H   15   0.004956   0.011962   5.477851
     H   16   0.000575   0.001349   0.010700   5.483274
     H   17   0.014329   0.037910   0.000763   0.000642   5.138876
     H   18   0.000624   0.000650   0.000201   0.000160   0.028323   5.141066
     H   19   0.004137   0.001733   0.004899   0.041797   0.011823   0.000525
     H   20   0.009293   0.029958   0.000923   0.000182   0.100424   0.036148
     H   21   0.000692   0.000329   0.000317   0.000170   0.002649   0.113921
     H   22   0.001436   0.000346   0.000237   0.000212   0.004206   0.076415


                  H 19       H 20       H 21       H 22
 ------------------------------------------------------
     H   19   5.448101
     H   20   0.000616   5.128955
     H   21   0.000210   0.025559   5.472449
     H   22   0.000213   0.002280   0.420134   5.500032


          HEAT OF FORMATION =      56.438662 KCALS/MOLE

          ZERO POINT ENERGY     117.094 KCAL/MOL


           NORMAL COORDINATE ANALYSIS (Total motion = 1 Angstrom)


   Root No.       1         2         3         4         5         6         7         8

                 1 A       2 A       3 A       4 A       5 A       6 A       7 A       8 A   

                  44.6      67.9     111.8     152.1     211.7     223.7     294.5     344.9
  
           1   -0.0137   -0.0067   -0.0099    0.0001   -0.0030    0.0004   -0.0073   -0.0022
           2    0.0320   -0.0203    0.0008    0.0060   -0.0148   -0.0105    0.0216    0.0314
           3   -0.0262   -0.0274   -0.0189    0.0053    0.0144   -0.0013   -0.0144   -0.0089
           4   -0.0136   -0.0061   -0.0103   -0.0013   -0.0036    0.0021   -0.0100    0.0192
           5   -0.0156    0.0066    0.0051   -0.0110    0.0039    0.0054    0.0044    0.0123
           6    0.0489    0.0155    0.0207   -0.0201    0.0162   -0.0168   -0.0149    0.0162
           7   -0.0104   -0.0079   -0.0101   -0.0000   -0.0043    0.0008   -0.0057    0.0110
           8    0.0124   -0.0113    0.0008    0.0050   -0.0200   -0.0142   -0.0170   -0.0311
           9   -0.0086   -0.0124   -0.0193    0.0182   -0.0230    0.0298    0.0134    0.0108
          10   -0.0224   -0.0012   -0.0093   -0.0054    0.0032    0.0083   -0.0023    0.0276
          11    0.0012   -0.0046    0.0023   -0.0015   -0.0117   -0.0061   -0.0108   -0.0161
          12    0.0422   -0.0254   -0.0057    0.0034   -0.0233    0.0302    0.0310   -0.0269
          13    0.0049   -0.0164   -0.0121    0.0076   -0.0179   -0.0109   -0.0232   -0.0066
          14   -0.0125    0.0050    0.0046   -0.0084    0.0003    0.0023    0.0022    0.0036
          15   -0.0062    0.0530    0.0155   -0.0079    0.0153   -0.0116    0.0003   -0.0259
          16   -0.0104   -0.0150    0.0073   -0.0291    0.0285   -0.0179    0.0331   -0.0152
          17    0.0194   -0.0034   -0.0104    0.0342    0.0324    0.0247   -0.0086    0.0124
          18   -0.0187   -0.0393   -0.0050   -0.0225    0.0135   -0.0268    0.0164   -0.0029
          19    0.0063   -0.0173   -0.0123    0.0083   -0.0188   -0.0115   -0.0229   -0.0076
          20    0.0037   -0.0054    0.0021    0.0010   -0.0141   -0.0092   -0.0106   -0.0233
          21   -0.0388    0.0345   -0.0099    0.0173   -0.0154    0.0223    0.0178    0.0109
          22    0.0066    0.0032    0.0437    0.0411    0.0196   -0.0154    0.0237   -0.0046
          23    0.0036   -0.0024   -0.0285   -0.0104    0.0471    0.0273   -0.0076    0.0005
          24   -0.0106   -0.0133    0.0276    0.0317    0.0137   -0.0223    0.0001    0.0035
          25    0.0155    0.0168    0.0502   -0.0133   -0.0048    0.0315    0.0041   -0.0091
          26   -0.0120    0.0172   -0.0203    0.0041    0.0191   -0.0085    0.0115   -0.0076
          27    0.0013   -0.0149    0.0274   -0.0046    0.0116    0.0182   -0.0215    0.0074
          28    0.0354    0.0458   -0.0324   -0.0062    0.0034    0.0077    0.0136   -0.0112
          29   -0.0301    0.0167    0.0378   -0.0148   -0.0346   -0.0076    0.0031    0.0021
          30    0.0118    0.0253   -0.0330   -0.0126   -0.0274   -0.0145   -0.0177    0.0149
          31   -0.0362   -0.0186   -0.0287    0.0170   -0.0311    0.0418    0.0383   -0.0377
          32    0.0065   -0.0159    0.0049   -0.0179    0.0046    0.0150    0.0075    0.0543
          33    0.0699    0.0179    0.0330   -0.0343    0.0351   -0.0413   -0.0473    0.0672
          34    0.0022    0.0103    0.0088   -0.0230    0.0295   -0.0324   -0.0526    0.0879
          35   -0.0514    0.0378    0.0077   -0.0126    0.0171    0.0059    0.0136   -0.0020
          36    0.0717    0.0160    0.0328   -0.0344    0.0344   -0.0408   -0.0475    0.0692
          37   -0.0017   -0.0001   -0.0163    0.0156   -0.0230    0.0276    0.0122    0.0436
          38    0.0539   -0.0353    0.0125   -0.0192   -0.0457   -0.0342    0.0950    0.1019
          39   -0.0197   -0.0391   -0.0088   -0.0170    0.0073   -0.0284    0.0167    0.0065
          40   -0.0275   -0.0008   -0.0129    0.0059   -0.0096   -0.0009   -0.0526   -0.0568
          41    0.0370   -0.0229    0.0028    0.0018   -0.0188   -0.0131    0.0383    0.0497
          42   -0.0464   -0.0130   -0.0299    0.0288    0.0584    0.0241   -0.0782   -0.0680
          43   -0.0363    0.0067   -0.0082   -0.0123    0.0140    0.0187    0.0078    0.0531
          44    0.0036   -0.0063    0.0022   -0.0010   -0.0131   -0.0066   -0.0108   -0.0198
          45    0.0748   -0.0569   -0.0077    0.0009   -0.0333    0.0443    0.0542   -0.0730
          46    0.0151   -0.0221   -0.0130    0.0125   -0.0260   -0.0186   -0.0312   -0.0241
          47   -0.0224    0.0116    0.0059   -0.0134    0.0086    0.0087    0.0095    0.0184
          48   -0.0156    0.0881    0.0304   -0.0183    0.0355   -0.0323   -0.0046   -0.0665
          49   -0.0196   -0.0301   -0.0110   -0.1144    0.0504   -0.0123    0.0568   -0.0327
          50    0.0225    0.0105    0.0019    0.0867    0.0284    0.0248   -0.0249    0.0186
          51   -0.0187   -0.0645   -0.0226   -0.0939   -0.0007   -0.0338    0.0422   -0.0026
          52    0.0054    0.0046    0.1183   -0.0655   -0.0379    0.0927   -0.0303   -0.0064
          53   -0.0087    0.0327   -0.0585    0.0299    0.0211   -0.0503    0.0329   -0.0087
          54    0.0015   -0.0489    0.0724   -0.0290    0.0365    0.0801   -0.0506    0.0090
          55    0.0173   -0.0234   -0.0137    0.0144   -0.0287   -0.0203   -0.0356   -0.0271
          56    0.0095   -0.0087    0.0009    0.0053   -0.0207   -0.0142   -0.0181   -0.0352
          57   -0.0797    0.0506   -0.0210    0.0332   -0.0296    0.0386    0.0324    0.0217
          58    0.0158    0.0132    0.0601    0.1349    0.0208   -0.0312    0.0137    0.0091
          59    0.0008   -0.0148   -0.0407   -0.0638    0.0493    0.0369   -0.0004   -0.0053
          60   -0.0117    0.0150    0.0485    0.0984    0.0014   -0.0365   -0.0113    0.0078
          61    0.0459    0.0578   -0.1015    0.0443    0.0463   -0.0478    0.0526   -0.0220
          62   -0.0340    0.0020    0.0769   -0.0393   -0.0392    0.0326   -0.0186    0.0038
          63    0.0119    0.0603   -0.0788    0.0072   -0.0668   -0.0818    0.0069    0.0234
          64    0.0425    0.0597   -0.0378   -0.0508   -0.0321    0.0411   -0.0162   -0.0025
          65   -0.0422    0.0311    0.0508   -0.0072   -0.0817   -0.0482    0.0158    0.0121
          66    0.0212    0.0263   -0.0419   -0.0399   -0.0251    0.0218   -0.0397    0.0153


   Root No.       9        10        11        12        13        14        15        16

                 9 A      10 A      11 A      12 A      13 A      14 A      15 A      16 A   

                 366.4     451.1     513.3     610.5     628.1     705.7     765.1     804.6
  
           1   -0.0018    0.0084    0.0001    0.0189    0.0177    0.0574   -0.0186    0.0055
           2    0.0154    0.0128    0.0150   -0.0101   -0.0030    0.0160   -0.0142    0.0136
           3   -0.0096    0.0434    0.0356   -0.0160   -0.0037    0.0114   -0.0027   -0.0063
           4    0.0184   -0.0104    0.0012   -0.0152   -0.0116   -0.0271    0.0044    0.0792
           5    0.0067   -0.0026    0.0006   -0.0047   -0.0035   -0.0115    0.0037   -0.0484
           6   -0.0188   -0.0001   -0.0008    0.0031    0.0008   -0.0110   -0.0358    0.0054
           7    0.0089    0.0003    0.0013    0.0073    0.0074    0.0347   -0.0139   -0.0027
           8   -0.0178   -0.0051   -0.0021    0.0089    0.0041    0.0060   -0.0008    0.0335
           9   -0.0215    0.0084    0.0311    0.0636    0.0056   -0.0200    0.0402    0.0005
          10    0.0215   -0.0052    0.0019   -0.0087   -0.0053   -0.0034   -0.0028    0.0360
          11   -0.0059   -0.0101   -0.0033   -0.0051   -0.0060   -0.0299    0.0121    0.0556
          12    0.0131   -0.0079   -0.0159   -0.0107   -0.0001   -0.0009    0.0070    0.0054
          13    0.0042   -0.0147   -0.0014   -0.0082   -0.0078   -0.0241    0.0095   -0.0645
          14    0.0040   -0.0018    0.0005    0.0010    0.0007    0.0014    0.0010   -0.0787
          15    0.0421    0.0093    0.0135    0.0103    0.0007   -0.0039   -0.0143   -0.0041
          16   -0.0143    0.0105   -0.0335    0.0144    0.0203   -0.0041    0.0040   -0.0006
          17    0.0082    0.0516   -0.0126   -0.0079   -0.0139   -0.0096    0.0008    0.0001
          18   -0.0054    0.0204    0.0171   -0.0197    0.0015   -0.0088   -0.0026    0.0001
          19    0.0028   -0.0137   -0.0015   -0.0064   -0.0061   -0.0183    0.0072   -0.0611
          20   -0.0152   -0.0040   -0.0039    0.0119    0.0085    0.0219   -0.0071    0.0269
          21   -0.0385   -0.0134   -0.0258   -0.0164   -0.0013   -0.0062   -0.0255   -0.0051
          22   -0.0071    0.0157   -0.0256    0.0106    0.0124   -0.0112    0.0077    0.0011
          23    0.0061   -0.0158   -0.0304    0.0179    0.0031    0.0021    0.0044   -0.0020
          24    0.0078   -0.0367    0.0014    0.0004    0.0069   -0.0029    0.0014    0.0013
          25   -0.0144    0.0056    0.0240   -0.0014   -0.0365    0.0046   -0.0013   -0.0011
          26   -0.0075   -0.0447    0.0341   -0.0101    0.0183    0.0024   -0.0029    0.0018
          27    0.0145   -0.0394   -0.0076    0.0115   -0.0233    0.0144   -0.0048    0.0011
          28   -0.0167    0.0025    0.0318   -0.0114   -0.0008   -0.0032    0.0002   -0.0007
          29   -0.0014    0.0151    0.0023   -0.0025   -0.0036   -0.0002   -0.0009    0.0005
          30    0.0195    0.0094   -0.0354    0.0096    0.0082    0.0035   -0.0011    0.0010
          31    0.0874   -0.0132   -0.0040   -0.0055   -0.0102   -0.0658   -0.0969    0.1235
          32   -0.0383   -0.0119   -0.0233   -0.0401   -0.0060    0.0227    0.0699   -0.0256
          33   -0.0791   -0.0009   -0.0040   -0.0142   -0.0012    0.0254    0.0549   -0.0154
          34   -0.0442   -0.0056    0.0078   -0.0288   -0.0148    0.0129    0.1020    0.0845
          35    0.0603    0.0136    0.0274    0.0276    0.0001   -0.0250   -0.0683   -0.0534
          36   -0.0815   -0.0023   -0.0056   -0.0178   -0.0025    0.0232    0.0595    0.0070
          37    0.0128   -0.0020    0.0186    0.0721    0.0233    0.0846    0.0110   -0.0117
          38    0.0447   -0.0344    0.0471    0.0101    0.0363    0.0298    0.0111   -0.0139
          39   -0.0010    0.0223    0.0436   -0.0318    0.0148    0.0050   -0.0039   -0.0129
          40   -0.0276    0.0081   -0.0118    0.0207    0.0114    0.0743   -0.0410    0.0444
          41    0.0235    0.0049    0.0211   -0.0062    0.0037    0.0158   -0.0068    0.0048
          42   -0.0315    0.1012    0.0044   -0.0476   -0.0456   -0.0081   -0.0284    0.0102
          43    0.0379   -0.0061    0.0045   -0.0244   -0.0164   -0.0314    0.0053   -0.0281
          44   -0.0060   -0.0102   -0.0048   -0.0073   -0.0053   -0.0245    0.0116    0.0603
          45    0.0564   -0.0152   -0.0579   -0.1315   -0.0135    0.0903    0.0075   -0.0687
          46   -0.0057   -0.0162   -0.0035    0.0009   -0.0016   -0.0073    0.0072   -0.0899
          47    0.0159   -0.0001    0.0029   -0.0089   -0.0056   -0.0121    0.0143   -0.0555
          48    0.1156    0.0233    0.0286   -0.0232   -0.0044    0.0820    0.2860    0.0458
          49   -0.0273   -0.0182   -0.0756    0.0500   -0.0178   -0.0483    0.0322    0.0023
          50    0.0155    0.0567   -0.0012   -0.0188    0.0135    0.0080   -0.0075   -0.0066
          51   -0.0139    0.0305    0.0279   -0.0222   -0.0406   -0.0138   -0.0068    0.0180
          52   -0.0120    0.0281    0.0458   -0.0258    0.0214    0.0008   -0.0059   -0.0034
          53   -0.0105   -0.0468    0.0275   -0.0008   -0.0196    0.0033   -0.0014    0.0031
          54    0.0216   -0.0496   -0.0142    0.0089    0.0315    0.0148   -0.0043   -0.0004
          55   -0.0071   -0.0217   -0.0062   -0.0095   -0.0105   -0.0435    0.0193   -0.0129
          56   -0.0227   -0.0098   -0.0090    0.0063    0.0054    0.0087    0.0036    0.0595
          57   -0.0840   -0.0408   -0.0974   -0.1496   -0.0147    0.0809    0.0878    0.0264
          58    0.0044    0.0561   -0.0270   -0.0112    0.0829   -0.0190    0.0063   -0.0028
          59    0.0001   -0.0171   -0.0394    0.0309   -0.0397    0.0013    0.0078    0.0001
          60    0.0143   -0.0710    0.0329   -0.0179    0.0658    0.0081   -0.0079   -0.0007
          61   -0.0286   -0.0604    0.0600    0.0095   -0.1392    0.0337   -0.0158    0.0001
          62    0.0019    0.0219    0.0092   -0.0210    0.0790   -0.0162    0.0034    0.0022
          63    0.0236    0.0704   -0.0981    0.0471   -0.0979    0.0098    0.0056   -0.0061
          64   -0.0073    0.0630    0.0135   -0.0474    0.1934   -0.0552    0.0194    0.0003
          65    0.0038    0.0862   -0.0600    0.0344   -0.1180    0.0065    0.0065   -0.0079
          66    0.0226    0.0103   -0.0188   -0.0257    0.1649   -0.0275    0.0061    0.0053


   Root No.      17        18        19        20        21        22        23        24

                17 A      18 A      19 A      20 A      21 A      22 A      23 A      24 A   

                 813.7     851.7     918.9     925.3     939.8     947.9     972.0     984.3
  
           1   -0.0052   -0.0009   -0.0002   -0.0008   -0.0029   -0.0005   -0.0002    0.0015
           2   -0.0095    0.0359    0.0096   -0.0069    0.0090    0.0150   -0.0213    0.0095
           3    0.0030   -0.0256   -0.0076    0.0049   -0.0098   -0.0019    0.0137   -0.0047
           4    0.0099   -0.0019    0.0003   -0.0001    0.0018    0.0006   -0.0048    0.0045
           5   -0.0049    0.0011   -0.0001    0.0005    0.0016   -0.0006   -0.0009    0.0011
           6   -0.0301   -0.0097   -0.0155    0.0207    0.0089   -0.0005    0.0062    0.0372
           7   -0.0063    0.0067    0.0009   -0.0014   -0.0034    0.0041    0.0036   -0.0039
           8    0.0038   -0.0015    0.0000   -0.0000    0.0007    0.0010   -0.0037    0.0029
           9    0.0124    0.0086   -0.0062    0.0128    0.0155   -0.0001   -0.0140    0.0130
          10    0.0021    0.0012   -0.0001   -0.0001   -0.0022    0.0008    0.0056   -0.0053
          11    0.0118   -0.0125   -0.0025    0.0026    0.0018   -0.0060   -0.0014    0.0034
          12   -0.0257    0.0001    0.0125   -0.0180   -0.0096    0.0006   -0.0062   -0.0427
          13   -0.0035   -0.0014   -0.0000    0.0001    0.0012   -0.0013   -0.0024    0.0025
          14   -0.0077    0.0029    0.0005   -0.0006    0.0001    0.0006   -0.0027    0.0020
          15    0.0247    0.0027    0.0020   -0.0028   -0.0006    0.0003   -0.0073   -0.0418
          16    0.0019   -0.0148    0.0056   -0.0124    0.0111   -0.0108   -0.0216    0.0090
          17   -0.0009    0.0076   -0.0027    0.0067   -0.0039   -0.0140    0.0173   -0.0075
          18   -0.0026   -0.0076    0.0036   -0.0098    0.0059   -0.0010   -0.0112    0.0037
          19   -0.0041   -0.0005    0.0001   -0.0000    0.0005   -0.0006   -0.0008    0.0009
          20    0.0026   -0.0064   -0.0030    0.0020   -0.0080   -0.0008    0.0201   -0.0136
          21    0.0150    0.0033    0.0170   -0.0252   -0.0164    0.0003    0.0140    0.0267
          22    0.0023    0.0129   -0.0169   -0.0102    0.0144    0.0018    0.0168   -0.0048
          23    0.0043   -0.0210    0.0077    0.0084   -0.0118    0.0122   -0.0130    0.0044
          24   -0.0004    0.0136   -0.0152   -0.0067    0.0061    0.0296    0.0146   -0.0049
          25    0.0003   -0.0035   -0.0120    0.0002   -0.0189   -0.0009   -0.0075    0.0012
          26   -0.0020    0.0059    0.0074    0.0001    0.0100    0.0128    0.0033   -0.0003
          27   -0.0017    0.0036   -0.0079   -0.0015   -0.0123   -0.0099   -0.0076    0.0018
          28    0.0003   -0.0033   -0.0023    0.0018   -0.0098    0.0100   -0.0088    0.0031
          29   -0.0010    0.0038    0.0027   -0.0026    0.0100   -0.0296    0.0074   -0.0026
          30   -0.0010    0.0038    0.0022   -0.0028    0.0028   -0.0452   -0.0063    0.0028
          31   -0.1016   -0.0266   -0.0171    0.0183   -0.0012    0.0027    0.0344    0.0949
          32   -0.0421    0.0135    0.0529   -0.0794   -0.0559    0.0067    0.0528   -0.0031
          33    0.0386    0.0110    0.0118   -0.0149   -0.0054    0.0001   -0.0060   -0.0279
          34    0.1243    0.0279    0.0199   -0.0206    0.0035    0.0043   -0.0411   -0.0945
          35    0.0310    0.0051   -0.0464    0.0729    0.0552    0.0039   -0.0471   -0.0202
          36    0.0383    0.0104    0.0150   -0.0197   -0.0088    0.0005   -0.0036   -0.0257
          37    0.0173    0.0039   -0.0424    0.0525   -0.0009   -0.0207    0.0883   -0.0170
          38    0.0253   -0.1254   -0.0238    0.0098   -0.0318   -0.0212    0.0388   -0.0167
          39    0.0102   -0.1159   -0.0045   -0.0130   -0.0333   -0.0112    0.0016   -0.0099
          40   -0.0237    0.0693    0.0282   -0.0282    0.0200    0.0317   -0.0852    0.0399
          41   -0.0014    0.0034    0.0004   -0.0001    0.0003    0.0051   -0.0002    0.0003
          42   -0.0319    0.1194    0.0202   -0.0076    0.0216    0.0312   -0.0232    0.0093
          43   -0.0039    0.0087    0.0021   -0.0015   -0.0024    0.0009    0.0184   -0.0253
          44    0.0216   -0.0129   -0.0045    0.0054    0.0035   -0.0063   -0.0023    0.0114
          45    0.2596    0.0213   -0.0409    0.0633    0.0381   -0.0012    0.0115    0.1395
          46   -0.0070   -0.0072   -0.0042    0.0034   -0.0096   -0.0038    0.0341   -0.0281
          47   -0.0091    0.0083    0.0050   -0.0044    0.0095    0.0028   -0.0347    0.0373
          48   -0.1035    0.0054    0.0184   -0.0240   -0.0157   -0.0007    0.0375    0.1572
          49    0.0103    0.0856    0.0318    0.1183   -0.0616   -0.0227    0.0727   -0.0256
          50    0.0012   -0.0717   -0.0222   -0.0724    0.0373   -0.0131   -0.0357    0.0130
          51   -0.0172    0.1270    0.0354    0.0931   -0.0431    0.0090    0.0502   -0.0219
          52   -0.0009   -0.0440    0.1213    0.0171    0.1175   -0.0023    0.0454   -0.0095
          53   -0.0024    0.0336   -0.0721   -0.0128   -0.0674   -0.0245   -0.0249    0.0047
          54    0.0006   -0.0385    0.0944    0.0200    0.0799    0.1060    0.0226   -0.0024
          55    0.0073   -0.0173   -0.0064    0.0068   -0.0023   -0.0099    0.0213   -0.0179
          56    0.0060   -0.0182   -0.0104    0.0112   -0.0071   -0.0068    0.0322   -0.0295
          57   -0.1226   -0.0339   -0.0974    0.1409    0.0848   -0.0025   -0.0645   -0.1023
          58    0.0043   -0.0362    0.1169    0.1065   -0.0638   -0.0973   -0.0459    0.0137
          59    0.0044    0.0035   -0.0723   -0.0637    0.0397    0.0373    0.0278   -0.0080
          60   -0.0028   -0.0118    0.0930    0.0944   -0.0719    0.0546   -0.0472    0.0143
          61   -0.0061   -0.0152    0.0814   -0.0014    0.1081   -0.1045    0.0600   -0.0185
          62   -0.0009    0.0229   -0.0421   -0.0077   -0.0447   -0.0510   -0.0300    0.0095
          63    0.0074   -0.0488    0.0473    0.0197    0.0365    0.1895    0.0333   -0.0108
          64    0.0060    0.0174   -0.0362    0.0026   -0.0098    0.1837    0.0380   -0.0156
          65    0.0086   -0.0519    0.0002    0.0215   -0.0513    0.1797   -0.0347    0.0112
          66   -0.0021    0.0400   -0.0150   -0.0132    0.0303   -0.0444    0.0377   -0.0133


   Root No.      25        26        27        28        29        30        31        32

                25 A      26 A      27 A      28 A      29 A      30 A      31 A      32 A   

                1002.9    1028.5    1034.7    1039.9    1045.0    1069.0    1089.8    1156.6
  
           1   -0.0170   -0.0018   -0.0002   -0.0027    0.0018   -0.0289   -0.0040    0.0042
           2    0.0048   -0.0003    0.0046    0.0050   -0.0016   -0.0088    0.0015    0.0310
           3   -0.0119   -0.0059    0.0001   -0.0076   -0.0052   -0.0168   -0.0019    0.0273
           4   -0.0150   -0.0037    0.0035   -0.0143    0.0028    0.0259    0.0025   -0.0020
           5    0.0099    0.0019    0.0069   -0.0039    0.0070   -0.0281   -0.0067    0.0045
           6    0.0052   -0.0017   -0.0015    0.0004   -0.0006    0.0012    0.0003    0.0001
           7    0.0072   -0.0054   -0.0025   -0.0020   -0.0076    0.0259    0.0060   -0.0003
           8   -0.0072   -0.0031    0.0033   -0.0049   -0.0012   -0.0056   -0.0052   -0.0000
           9    0.0107    0.0010    0.0166    0.0052   -0.0113    0.0108    0.0023   -0.0002
          10    0.0129    0.0018   -0.0103    0.0191   -0.0104    0.0067    0.0004    0.0009
          11   -0.0246    0.0095   -0.0102    0.0199    0.0026   -0.0360   -0.0260    0.0089
          12   -0.0040   -0.0096   -0.0238   -0.0067    0.0092   -0.0045   -0.0001    0.0006
          13   -0.0101    0.0003   -0.0010    0.0003    0.0001    0.0011   -0.0091   -0.0009
          14   -0.0235   -0.0023   -0.0086    0.0035   -0.0084    0.0412    0.0073   -0.0048
          15   -0.0089    0.0152    0.0301    0.0053   -0.0084    0.0016    0.0002    0.0001
          16    0.0067    0.0090    0.0033    0.0095    0.0159    0.0067    0.0004    0.0123
          17   -0.0032   -0.0021   -0.0045   -0.0042   -0.0053    0.0015   -0.0008   -0.0298
          18    0.0081    0.0125   -0.0018    0.0096    0.0183    0.0138    0.0005   -0.0385
          19   -0.0009   -0.0005    0.0032   -0.0057    0.0032   -0.0022    0.0033   -0.0012
          20    0.0341    0.0007   -0.0082    0.0055   -0.0060    0.0508    0.0160   -0.0067
          21    0.0009   -0.0080   -0.0198   -0.0042    0.0078   -0.0056   -0.0013    0.0006
          22   -0.0054   -0.0010   -0.0034   -0.0100   -0.0143   -0.0081   -0.0013    0.0088
          23    0.0016   -0.0043    0.0051    0.0042    0.0025   -0.0006   -0.0006    0.0092
          24   -0.0031    0.0017   -0.0048   -0.0075   -0.0092   -0.0026    0.0002   -0.0031
          25   -0.0002   -0.0144    0.0100    0.0125    0.0126    0.0030    0.0002    0.0005
          26   -0.0001    0.0108   -0.0069   -0.0066   -0.0053   -0.0027   -0.0004   -0.0120
          27   -0.0008   -0.0110    0.0081    0.0109    0.0115    0.0010   -0.0002   -0.0092
          28    0.0044    0.0235   -0.0138   -0.0143   -0.0125   -0.0012   -0.0001   -0.0057
          29   -0.0024   -0.0153    0.0087    0.0083    0.0066    0.0014   -0.0002    0.0002
          30    0.0030    0.0167   -0.0097   -0.0126   -0.0125   -0.0025   -0.0002    0.0070
          31    0.0170    0.0202    0.1021   -0.0519    0.0033    0.0483   -0.0240   -0.0097
          32    0.0623    0.0673    0.2340   -0.0793    0.0125   -0.0388   -0.0715   -0.0013
          33   -0.0021    0.0000   -0.0067    0.0057    0.0002   -0.0150    0.0002    0.0034
          34    0.0240   -0.0452   -0.0321   -0.0806    0.0435    0.0340   -0.0263   -0.0105
          35    0.1346   -0.0940   -0.0770   -0.1404    0.0991   -0.0664   -0.0761   -0.0014
          36   -0.0116    0.0028    0.0032    0.0013   -0.0039    0.0179    0.0047   -0.0033
          37   -0.0823    0.1283   -0.0353    0.0146    0.1601   -0.0544   -0.0228   -0.0276
          38   -0.0284   -0.0280   -0.0012   -0.0199   -0.0282   -0.0400   -0.0069    0.0331
          39    0.0027   -0.0878    0.0150   -0.0304   -0.1010   -0.0225    0.0031    0.0467
          40   -0.0121   -0.0652    0.0395   -0.0059   -0.0802   -0.1407   -0.0224   -0.1517
          41   -0.0004    0.0063   -0.0021    0.0027    0.0077    0.0037    0.0029    0.0438
          42    0.0179    0.0366   -0.0076    0.0177    0.0422    0.0377    0.0141    0.1956
          43    0.1222    0.0268   -0.0524    0.1666   -0.0667   -0.1317    0.0836   -0.0053
          44   -0.0355    0.0082   -0.0036    0.0059    0.0080   -0.0241   -0.0362    0.0103
          45    0.0241    0.0133    0.0470    0.0130   -0.0214    0.0168    0.0038   -0.0040
          46    0.1018    0.0130   -0.0129    0.0430   -0.0128    0.0262   -0.2184    0.0078
          47   -0.1256   -0.0160   -0.0007   -0.0377    0.0048    0.0199    0.2020   -0.0134
          48    0.0336   -0.0367   -0.0688   -0.0109    0.0184   -0.0055   -0.0058    0.0001
          49   -0.0245   -0.0416    0.0019   -0.0382   -0.0634   -0.0289    0.0072    0.1012
          50    0.0180    0.0172    0.0010    0.0173    0.0285    0.0213    0.0017   -0.0249
          51   -0.0241    0.0056   -0.0167   -0.0062   -0.0026   -0.0109   -0.0145   -0.1434
          52    0.0025    0.0392   -0.0289   -0.0381   -0.0389   -0.0002    0.0032    0.0394
          53   -0.0004   -0.0243    0.0171    0.0225    0.0232    0.0037   -0.0000   -0.0105
          54   -0.0028    0.0395   -0.0245   -0.0245   -0.0211   -0.0149   -0.0047   -0.0569
          55    0.0821    0.0142    0.0394   -0.0406    0.0526   -0.1159    0.2435   -0.0017
          56    0.0865    0.0107    0.0163   -0.0159    0.0238   -0.0172    0.1688   -0.0072
          57   -0.0084    0.0200    0.0546    0.0117   -0.0241    0.0125   -0.0059    0.0016
          58    0.0091   -0.0176    0.0196    0.0198    0.0144    0.0025   -0.0043   -0.1110
          59   -0.0074   -0.0013   -0.0064   -0.0163   -0.0241   -0.0121   -0.0019    0.0020
          60    0.0093    0.0087    0.0072    0.0248    0.0417    0.0200    0.0064    0.1343
          61   -0.0153   -0.0818    0.0454    0.0445    0.0362    0.0082    0.0002    0.0018
          62    0.0099    0.0455   -0.0261   -0.0292   -0.0270   -0.0037   -0.0005   -0.0019
          63   -0.0139   -0.0567    0.0334    0.0412    0.0405    0.0026    0.0001   -0.0030
          64   -0.0180   -0.0843    0.0474    0.0565    0.0528    0.0073    0.0001   -0.0301
          65    0.0116    0.0617   -0.0343   -0.0302   -0.0229   -0.0033   -0.0004   -0.0355
          66   -0.0156   -0.0761    0.0427    0.0431    0.0361    0.0039   -0.0000    0.0105


   Root No.      33        34        35        36        37        38        39        40

                33 A      34 A      35 A      36 A      37 A      38 A      39 A      40 A   

                1167.2    1201.6    1214.3    1236.2    1258.1    1280.5    1336.8    1350.3
  
           1    0.0114   -0.0051    0.0087   -0.0108    0.0015    0.0100    0.0373   -0.0017
           2   -0.0086   -0.0025   -0.0183    0.0012   -0.0079   -0.0046   -0.0080   -0.0003
           3   -0.0018    0.0099   -0.0156    0.0045   -0.0142   -0.0021   -0.0204    0.0080
           4   -0.0032    0.0035   -0.0054    0.0095   -0.0221    0.0056   -0.0045    0.0575
           5    0.0044   -0.0234   -0.0035    0.0014   -0.0057    0.0016    0.0174    0.1016
           6   -0.0001    0.0008   -0.0000   -0.0001    0.0002   -0.0001   -0.0007   -0.0034
           7    0.0004   -0.0085    0.0026   -0.0078    0.0230   -0.0085    0.0014    0.0067
           8   -0.0018    0.0209    0.0067   -0.0068    0.0104   -0.0012    0.0106    0.0122
           9    0.0053   -0.0034    0.0031   -0.0027    0.0030    0.0020    0.0042   -0.0014
          10    0.0031   -0.0336   -0.0017   -0.0053    0.0286   -0.0145   -0.0200   -0.0422
          11    0.0064   -0.0097    0.0023   -0.0076    0.0125   -0.0016    0.0003   -0.0434
          12   -0.0016    0.0012   -0.0012    0.0009   -0.0014   -0.0003   -0.0010    0.0018
          13   -0.0005    0.0110    0.0028   -0.0027    0.0051   -0.0012   -0.0028    0.0012
          14   -0.0032   -0.0091   -0.0076    0.0139   -0.0275    0.0084   -0.0017   -0.0639
          15    0.0003    0.0000    0.0004   -0.0005    0.0011   -0.0001    0.0002    0.0020
          16    0.0114    0.0023    0.0064    0.0011   -0.0036    0.0132    0.0003   -0.0020
          17   -0.0007   -0.0055    0.0221    0.0181    0.0206    0.0221    0.0192   -0.0029
          18   -0.0243   -0.0051    0.0040    0.0149    0.0194   -0.0027    0.0087    0.0005
          19   -0.0005    0.0144    0.0043   -0.0053    0.0110   -0.0034   -0.0044    0.0087
          20   -0.0043    0.0183    0.0001    0.0012    0.0015   -0.0029   -0.0148    0.0241
          21   -0.0005    0.0000   -0.0006    0.0002   -0.0008   -0.0003   -0.0003   -0.0006
          22    0.0193    0.0033    0.0050   -0.0016   -0.0097    0.0058   -0.0079    0.0001
          23   -0.0066   -0.0001    0.0147   -0.0103   -0.0216   -0.0401   -0.0201    0.0048
          24   -0.0256   -0.0045    0.0063   -0.0064   -0.0044   -0.0361   -0.0038    0.0034
          25    0.0036    0.0012   -0.0006    0.0043    0.0011    0.0070   -0.0113    0.0032
          26    0.0030   -0.0018   -0.0131   -0.0141    0.0058    0.0502    0.0054   -0.0028
          27   -0.0025   -0.0028   -0.0092   -0.0160    0.0029    0.0291    0.0180   -0.0061
          28    0.0023    0.0016   -0.0055    0.0058    0.0022   -0.0090   -0.0079    0.0031
          29    0.0122    0.0045   -0.0054    0.0124    0.0007   -0.0195   -0.0085    0.0032
          30    0.0066    0.0014    0.0027    0.0022   -0.0022   -0.0036    0.0032   -0.0015
          31   -0.0130    0.0702   -0.0025    0.0245   -0.0828    0.0386    0.0685   -0.0990
          32   -0.0002    0.0622    0.0230   -0.0284    0.0622   -0.0189   -0.0447   -0.1001
          33    0.0046   -0.0186    0.0045   -0.0159    0.0520   -0.0245   -0.0587    0.0424
          34   -0.0141    0.0706   -0.0023    0.0248   -0.0827    0.0388    0.0695   -0.0997
          35   -0.0027    0.0646    0.0219   -0.0268    0.0584   -0.0177   -0.0411   -0.1034
          36   -0.0044    0.0141   -0.0058    0.0175   -0.0554    0.0256    0.0614   -0.0355
          37   -0.0733    0.0441   -0.0292    0.0462   -0.0434   -0.0138   -0.0620   -0.0034
          38    0.0196    0.0104   -0.0007   -0.0024   -0.0319    0.0111   -0.0180   -0.0454
          39    0.0575   -0.0078    0.0126   -0.0266   -0.0081    0.0191    0.0219   -0.0214
          40   -0.0878   -0.0171    0.0091    0.1162   -0.0613   -0.0023   -0.0948   -0.0293
          41    0.0043    0.0007   -0.0135   -0.0129    0.0040   -0.0017    0.0121    0.0074
          42    0.0412    0.0073   -0.0615   -0.0696   -0.0298   -0.0042    0.0055   -0.0510
          43   -0.0283    0.2082    0.0251   -0.0034   -0.0422    0.0276    0.0324   -0.0138
          44    0.0104   -0.0344    0.0000   -0.0089    0.0210   -0.0058   -0.0037   -0.0476
          45    0.0043   -0.0021    0.0037   -0.0018    0.0024    0.0015    0.0036    0.0006
          46    0.0014   -0.0880   -0.0323    0.0425   -0.0857    0.0254    0.0166   -0.0362
          47   -0.0052    0.0835    0.0245   -0.0271    0.0545   -0.0157   -0.0203   -0.0300
          48    0.0009   -0.0024   -0.0002    0.0003   -0.0013    0.0005    0.0008    0.0011
          49   -0.1366    0.0048   -0.0944    0.0826    0.0808    0.0403    0.0403   -0.0031
          50   -0.0158   -0.0050    0.0160    0.0253    0.0261    0.0227    0.0188   -0.0031
          51    0.1698   -0.0106    0.1342   -0.0856   -0.0816   -0.0276   -0.0276    0.0015
          52   -0.1624   -0.0453    0.1248   -0.0886   -0.0361    0.0528    0.0038   -0.0040
          53   -0.0073   -0.0048   -0.0059   -0.0217    0.0031    0.0559    0.0062   -0.0034
          54    0.1948    0.0518   -0.1575    0.0929    0.0468   -0.0229   -0.0001    0.0024
          55    0.0240   -0.1360   -0.0234    0.0249   -0.0527    0.0128    0.0160   -0.0895
          56    0.0104   -0.0756   -0.0179    0.0212   -0.0400    0.0078   -0.0028   -0.0373
          57   -0.0015    0.0021    0.0008    0.0000    0.0044    0.0013    0.0020    0.0013
          58   -0.0510    0.0015   -0.1492   -0.1237   -0.0310   -0.0280   -0.0229    0.0052
          59   -0.0073   -0.0009    0.0093   -0.0195   -0.0248   -0.0424   -0.0213    0.0055
          60    0.0458   -0.0016    0.1843    0.1404    0.0207    0.0004    0.0075   -0.0023
          61    0.0063    0.0073   -0.0058    0.0252   -0.0060   -0.1686    0.0795   -0.0197
          62    0.0124    0.0046   -0.0077    0.0119    0.0009   -0.0242   -0.0048    0.0023
          63    0.0004   -0.0054    0.0016   -0.0221    0.0080    0.1884   -0.1010    0.0258
          64   -0.0279   -0.0055   -0.0178   -0.0175    0.0009   -0.0823    0.0853   -0.0226
          65   -0.0294   -0.0057   -0.0241   -0.0220   -0.0009   -0.1171    0.1226   -0.0331
          66    0.0118    0.0025    0.0039    0.0051   -0.0016    0.0129   -0.0126    0.0028


   Root No.      41        42        43        44        45        46        47        48

                41 A      42 A      43 A      44 A      45 A      46 A      47 A      48 A   

                1368.5    1383.6    1399.2    1497.2    1746.1    1834.1    1839.0    1883.5
  
           1   -0.0145   -0.0118   -0.0335   -0.0855    0.0234   -0.0498    0.0061    0.0124
           2   -0.0092   -0.0151    0.0142   -0.0220    0.0045    0.0007   -0.0029   -0.0035
           3   -0.0116   -0.0297    0.0373    0.0144   -0.0019    0.0059   -0.0136   -0.0182
           4    0.0277   -0.0320   -0.0292   -0.0063   -0.0104    0.0005    0.0002    0.0001
           5   -0.0078    0.0250    0.0142    0.0068    0.0047   -0.0001   -0.0000    0.0000
           6    0.0001   -0.0009   -0.0001   -0.0000   -0.0001   -0.0000   -0.0000    0.0000
           7   -0.0106    0.0063    0.0001    0.0870   -0.0615    0.1777    0.0190    0.0089
           8   -0.0093   -0.0044   -0.0152    0.1456    0.0301   -0.0927   -0.0110   -0.0052
           9    0.0010    0.0019   -0.0033   -0.0070   -0.0003    0.0013   -0.0007   -0.0016
          10   -0.0072    0.0156    0.0259    0.0223    0.0436   -0.1230   -0.0139   -0.0062
          11   -0.0054    0.0011    0.0021   -0.0458   -0.0454    0.0930    0.0104    0.0045
          12    0.0000   -0.0006    0.0008    0.0019    0.0012   -0.0023   -0.0003   -0.0001
          13    0.0010    0.0054    0.0067   -0.0187    0.1963    0.0513    0.0049    0.0010
          14    0.0040   -0.0245   -0.0205    0.0166   -0.0296   -0.0174   -0.0018   -0.0006
          15   -0.0001    0.0008    0.0005   -0.0005    0.0001    0.0003    0.0000   -0.0000
          16    0.0115   -0.0055    0.0164    0.0091   -0.0009    0.0124   -0.0662   -0.1176
          17    0.0087    0.0041   -0.0074   -0.0037   -0.0002    0.0053   -0.0290   -0.0589
          18   -0.0061    0.0118   -0.0230   -0.0072    0.0011   -0.0121    0.0597    0.1006
          19    0.0007    0.0099    0.0118   -0.0326   -0.1885   -0.0710   -0.0069   -0.0017
          20    0.0127    0.0106    0.0191   -0.0878    0.0110   -0.0026   -0.0001   -0.0000
          21   -0.0005   -0.0007   -0.0000    0.0033    0.0003    0.0006   -0.0000   -0.0001
          22    0.0056   -0.0067    0.0174    0.0118    0.0002   -0.0096    0.0457    0.1298
          23   -0.0160    0.0031   -0.0075   -0.0009    0.0004   -0.0063    0.0350    0.0548
[...]
 TRAVEL      0.0976         C  1 -- H 13          +9.9% ( 40.7%)      0.2%
 RED. MASS   0.4990         C 10 -- H 22          +8.5% ( 37.5%)      0.4%
 EFF. MASS   5.2963

 VIBRATION   40   40A         ATOM PAIR      ENERGY CONTRIBUTION    RADIAL
 FREQ.      1350.28         C  2 -- C  4         +20.7% ( 73.1%)     77.6%
 T-DIPOLE    0.1410         C  2 -- C  5         +20.7% ( 73.0%)     70.2%
 TRAVEL      0.0712         C  2 -- H 12         +14.7% ( 61.7%)      0.1%
 RED. MASS   3.3263         C  2 -- H 11         +14.7% ( 61.6%)      0.1%
 EFF. MASS   9.8420

 VIBRATION   41   41A         ATOM PAIR      ENERGY CONTRIBUTION    RADIAL
 FREQ.      1368.54         C  8 -- C  9         +10.5% ( 38.3%)     94.3%
 T-DIPOLE    0.2288         C  1 -- H 14         +10.4% ( 38.1%)      3.9%
 TRAVEL      0.1051         C  1 -- H 13         +10.0% ( 37.3%)      3.2%
 RED. MASS   0.2765         C  2 -- H 11          +8.4% ( 34.2%)      6.1%
 EFF. MASS   4.4630

 VIBRATION   42   42A         ATOM PAIR      ENERGY CONTRIBUTION    RADIAL
 FREQ.      1383.57         C  1 -- H 14         +13.8% ( 46.1%)      4.9%
 T-DIPOLE    0.1663         C  1 -- H 13         +12.6% ( 44.0%)      6.1%
 TRAVEL      0.0999         C  2 -- C  5         +11.0% ( 41.1%)     85.1%
 RED. MASS   0.4649         C  2 -- H 12         +10.2% ( 39.7%)      7.5%
 EFF. MASS   4.8805         C  2 -- H 11         +10.2% ( 39.6%)      7.7%

 VIBRATION   43   43A         ATOM PAIR      ENERGY CONTRIBUTION    RADIAL
 FREQ.      1399.20         C  1 -- C  6         +12.1% ( 52.0%)     95.1%
 T-DIPOLE    0.0959         C  1 -- H 14          +9.4% ( 46.0%)      1.5%
 TRAVEL      0.0760         C  1 -- H 13          +7.9% ( 42.0%)      1.4%
 RED. MASS   0.8831         C  8 -- C  9          +7.8% ( 41.7%)    100.0%
 EFF. MASS   8.3505

 VIBRATION   44   44A         ATOM PAIR      ENERGY CONTRIBUTION    RADIAL
 FREQ.      1497.22         C  3 -- C  7         +22.9% ( 80.7%)     99.7%
 T-DIPOLE    0.5427         C  1 -- C  3         +20.2% ( 75.8%)     66.9%
 TRAVEL      0.0625         C  3 -- C  4         +16.0% ( 67.5%)     17.4%
 RED. MASS   4.2762         C  3 -- C  5         +13.4% ( 61.9%)     89.6%
 EFF. MASS  11.5281

 VIBRATION   45   45A         ATOM PAIR      ENERGY CONTRIBUTION    RADIAL
 FREQ.      1746.09         C  5 -- C  7         +32.3% ( 96.3%)    100.0%
 T-DIPOLE    0.5663         C  3 -- C  5         +11.5% ( 57.6%)     50.1%
 TRAVEL      0.0568         C  2 -- C  5         +10.3% ( 54.4%)     16.2%
 RED. MASS   4.3645         C  4 -- C  7         +10.2% ( 54.2%)     15.6%
 EFF. MASS  11.9753

 VIBRATION   46   46A         ATOM PAIR      ENERGY CONTRIBUTION    RADIAL
 FREQ.      1834.12         C  3 -- C  4         +29.4% ( 90.1%)     96.0%
 T-DIPOLE    0.2906         C  3 -- C  7         +14.1% ( 62.5%)      0.6%
 TRAVEL      0.0557         C  1 -- C  3         +14.1% ( 62.4%)     72.3%
 RED. MASS   4.4254         C  3 -- C  5         +12.8% ( 59.5%)     21.1%
 EFF. MASS  11.8331

 VIBRATION   47   47A         ATOM PAIR      ENERGY CONTRIBUTION    RADIAL
 FREQ.      1838.97         C  9 -- C 10         +35.8% ( 88.4%)     99.2%
 T-DIPOLE    0.0782         C  8 -- C  9         +12.4% ( 52.1%)     56.7%
 TRAVEL      0.0556         C  9 -- H 18         +11.7% ( 50.5%)      4.7%
 RED. MASS   3.4722         C  6 -- C  8          +9.6% ( 45.9%)     98.6%
 EFF. MASS  11.8441

 VIBRATION   48   48A         ATOM PAIR      ENERGY CONTRIBUTION    RADIAL
 FREQ.      1883.51         C  6 -- C  8         +33.9% ( 86.3%)     95.4%
 T-DIPOLE    0.5024         C  8 -- C  9         +18.4% ( 63.6%)     55.6%
 TRAVEL      0.0551         C  8 -- H 20         +11.8% ( 50.9%)      2.4%
 RED. MASS   3.7409         C  1 -- C  6          +9.8% ( 46.5%)     52.8%
 EFF. MASS  11.7838

 VIBRATION   49   49A         ATOM PAIR      ENERGY CONTRIBUTION    RADIAL
 FREQ.      2935.97         C  1 -- H 13         +58.1% ( 79.1%)     97.3%
 T-DIPOLE    0.0640         C  1 -- H 14         +39.4% ( 65.1%)     95.3%
 TRAVEL      0.1219         C  1 -- C  6          +1.2% ( 11.2%)      0.0%
 RED. MASS   0.5357         C  1 -- C  3          +1.2% ( 11.2%)      0.0%
 EFF. MASS   1.5457

 VIBRATION   50   50A         ATOM PAIR      ENERGY CONTRIBUTION    RADIAL
 FREQ.      2984.25         C  2 -- H 11         +49.2% ( 72.6%)     96.9%
 T-DIPOLE    0.1581         C  2 -- H 12         +48.7% ( 72.2%)     96.8%
 TRAVEL      0.1214         C  2 -- C  5          +1.1% ( 10.7%)      0.0%
 RED. MASS   0.5173         C  2 -- C  4          +1.1% ( 10.7%)      0.0%
 EFF. MASS   1.5321

 VIBRATION   51   51A         ATOM PAIR      ENERGY CONTRIBUTION    RADIAL
 FREQ.      3010.41         C  1 -- H 14         +58.7% ( 75.6%)     98.6%
 T-DIPOLE    0.0765         C  1 -- H 13         +38.9% ( 61.6%)     96.1%
 TRAVEL      0.1320         C  6 -- H 17          +0.9% (  9.1%)     99.5%
 RED. MASS   0.4911         C  1 -- C  6          +0.7% (  8.2%)     29.1%
 EFF. MASS   1.2850

 VIBRATION   52   52A         ATOM PAIR      ENERGY CONTRIBUTION    RADIAL
 FREQ.      3029.64         C  8 -- H 20         +70.0% ( 85.1%)    100.0%
 T-DIPOLE    0.0963         C  9 -- H 18         +26.6% ( 52.4%)    100.0%
 TRAVEL      0.1205         C  8 -- C  9          +1.6% ( 13.0%)     17.3%
 RED. MASS   0.5559         C  6 -- C  8          +1.1% ( 10.7%)     36.9%
 EFF. MASS   1.5321

 VIBRATION   53   53A         ATOM PAIR      ENERGY CONTRIBUTION    RADIAL
 FREQ.      3034.79         C  6 -- H 17         +87.1% ( 94.4%)    100.0%
 T-DIPOLE    0.3868         C  9 -- H 18          +6.9% ( 26.5%)    100.0%
 TRAVEL      0.1224         C  8 -- H 20          +2.8% ( 16.9%)     99.6%
 RED. MASS   0.7462         C  1 -- C  6          +1.2% ( 10.9%)     15.0%
 EFF. MASS   1.4829

 VIBRATION   54   54A         ATOM PAIR      ENERGY CONTRIBUTION    RADIAL
 FREQ.      3038.63         C  9 -- H 18         +63.0% ( 80.4%)    100.0%
 T-DIPOLE    0.2051         C  8 -- H 20         +23.8% ( 49.5%)    100.0%
 TRAVEL      0.1208         C  6 -- H 17          +9.5% ( 31.2%)     99.9%
 RED. MASS   0.4561         C  8 -- C  9          +1.1% ( 10.5%)     24.6%
 EFF. MASS   1.5216

 VIBRATION   55   55A         ATOM PAIR      ENERGY CONTRIBUTION    RADIAL
 FREQ.      3052.37         C  2 -- H 12         +49.5% ( 69.6%)     97.3%
 T-DIPOLE    0.2964         C  2 -- H 11         +48.9% ( 69.1%)     97.3%
 TRAVEL      0.1310         C  2 -- C  5          +0.7% (  8.5%)     35.7%
 RED. MASS   0.4831         C  2 -- C  4          +0.7% (  8.5%)     35.5%
 EFF. MASS   1.2882

 VIBRATION   56   56A         ATOM PAIR      ENERGY CONTRIBUTION    RADIAL
 FREQ.      3130.86         C  7 -- H 19         +72.1% ( 87.0%)    100.0%
 T-DIPOLE    0.3944         C  5 -- H 16         +23.1% ( 49.2%)    100.0%
 TRAVEL      0.1203         C  5 -- C  7          +1.3% ( 11.6%)      6.8%
 RED. MASS   0.5834         C  3 -- C  7          +1.2% ( 11.3%)     28.9%
 EFF. MASS   1.4891

 VIBRATION   57   57A         ATOM PAIR      ENERGY CONTRIBUTION    RADIAL
 FREQ.      3136.97         C 10 -- H 21         +94.3% ( 98.7%)     99.9%
 T-DIPOLE    0.2210         C 10 -- H 22          +4.4% ( 21.2%)     61.1%
 TRAVEL      0.1187         C  9 -- C 10          +1.3% ( 11.7%)     26.8%
 RED. MASS   0.8882
 EFF. MASS   1.5246

 VIBRATION   58   58A         ATOM PAIR      ENERGY CONTRIBUTION    RADIAL
 FREQ.      3142.90         C  4 -- H 15         +83.1% ( 93.5%)    100.0%
 T-DIPOLE    0.5066         C  5 -- H 16         +10.7% ( 33.5%)    100.0%
 TRAVEL      0.1179         C  3 -- C  4          +1.5% ( 12.6%)     48.8%
 RED. MASS   0.7240         C  2 -- C  4          +1.4% ( 12.2%)     25.7%
 EFF. MASS   1.5424

 VIBRATION   59   59A         ATOM PAIR      ENERGY CONTRIBUTION    RADIAL
 FREQ.      3148.10         C 10 -- H 22         +94.1% ( 97.8%)     99.8%
 T-DIPOLE    0.3051         C 10 -- H 21          +3.6% ( 19.1%)     21.1%
 TRAVEL      0.1206         C  9 -- C 10          +1.5% ( 12.5%)     66.4%
 RED. MASS   0.8594         C  9 -- H 18          +0.7% (  8.2%)     94.8%
 EFF. MASS   1.4726

 VIBRATION   60   60A         ATOM PAIR      ENERGY CONTRIBUTION    RADIAL
 FREQ.      3151.93         C  5 -- H 16         +60.9% ( 80.3%)    100.0%
 T-DIPOLE    0.2744         C  7 -- H 19         +21.7% ( 47.9%)     99.9%
 TRAVEL      0.1138         C  4 -- H 15         +11.2% ( 34.4%)    100.0%
 RED. MASS   0.4552         C  5 -- C  7          +2.1% ( 14.8%)     94.2%
 EFF. MASS   1.6522

      SYMMETRY NUMBER FOR POINT-GROUP C1  =  1


          SYSTEM IS A GROUND STATE



 InChI=1S/C10H12/c1-2-3-4-7-10-8-5-6-9-10/h2-5,8-9H,1,6-7H2


          MOLECULE IS NOT LINEAR

          THERE ARE 60 GENUINE VIBRATIONS IN THIS SYSTEM
          THIS THERMODYNAMICS CALCULATION IS LIMITED TO
          MOLECULES WHICH HAVE NO INTERNAL ROTATIONS




                    CALCULATED THERMODYNAMIC PROPERTIES
                                          *
   TEMP. (K)   PARTITION FUNCTION   H.O.F.    ENTHALPY  HEAT CAPACITY ENTROPY
                                   KCAL/MOL   CAL/MOLE    CAL/K/MOL  CAL/K/MOL


 298.00  VIB.     0.6928D+03                  4417.1655    31.2302    27.8204
         ROT.     0.8597D+06                   888.2813     2.9808    30.1347
         INT.     0.5956D+09                  5305.4468    34.2110    57.9551
         TRA.     0.1470D+28                  1480.4688     4.9680    40.5480
         TOT.                       56.439    6785.9156    39.1790    98.5031

 200.00  VIB.     0.6167D+02                  1944.5084    19.5503    17.9136
         ROT.     0.4727D+06                   596.1620     2.9808    28.9460
         INT.     0.2915D+08                  2540.6704    22.5311    46.8596
         TRA.     0.8080D+27                   993.6033     4.9680    38.5668
         TOT.                       53.187    3534.2736    27.4991    85.4264

 210.00  VIB.     0.7877D+02                  2145.4132    20.6361    18.8936
         ROT.     0.5086D+06                   625.9700     2.9808    29.0914
         INT.     0.4006D+08                  2771.3832    23.6169    47.9850
         TRA.     0.8694D+27                  1043.2834     4.9680    38.8092
         TOT.                       53.467    3814.6666    28.5849    86.7942

 220.00  VIB.     0.1006D+03                  2357.3351    21.7534    19.8792
         ROT.     0.5453D+06                   655.7781     2.9808    29.2301
         INT.     0.5488D+08                  3013.1132    24.7343    49.1093
         TRA.     0.9322D+27                  1092.9636     4.9680    39.0403
         TOT.                       53.759    4106.0768    29.7023    88.1497

 230.00  VIB.     0.1286D+03                  2580.5806    22.9004    20.8714
         ROT.     0.5829D+06                   685.5862     2.9808    29.3626
         INT.     0.7497D+08                  3266.1668    25.8812    50.2340
         TRA.     0.9965D+27                  1142.6437     4.9680    39.2612
         TOT.                       54.062    4408.8105    30.8492    89.4952

 240.00  VIB.     0.1644D+03                  2815.4318    24.0741    21.8707
         ROT.     0.6214D+06                   715.3943     2.9808    29.4895
         INT.     0.1022D+09                  3530.8261    27.0549    51.3602
         TRA.     0.1062D+28                  1192.3239     4.9680    39.4726
         TOT.                       54.376    4723.1500    32.0229    90.8328

 250.00  VIB.     0.2104D+03                  3062.1409    25.2714    22.8777
         ROT.     0.6606D+06                   745.2024     2.9808    29.6112
         INT.     0.1390D+09                  3807.3434    28.2522    52.4888
         TRA.     0.1129D+28                  1242.0041     4.9680    39.6754
         TOT.                       54.702    5049.3474    33.2202    92.1643

 260.00  VIB.     0.2693D+03                  3320.9257    26.4886    23.8925
         ROT.     0.7006D+06                   775.0105     2.9808    29.7281
         INT.     0.1886D+09                  4095.9362    29.4694    53.6206
         TRA.     0.1198D+28                  1291.6842     4.9680    39.8703
         TOT.                       55.040    5387.6204    34.4374    93.4908

 270.00  VIB.     0.3449D+03                  3591.9671    27.7221    24.9153
         ROT.     0.7414D+06                   804.8186     2.9808    29.8406
         INT.     0.2557D+09                  4396.7858    30.7029    54.7558
         TRA.     0.1267D+28                  1341.3644     4.9680    40.0578
         TOT.                       55.391    5738.1502    35.6709    94.8136

 280.00  VIB.     0.4421D+03                  3875.4086    28.9680    25.9459
         ROT.     0.7830D+06                   834.6267     2.9808    29.9490
         INT.     0.3462D+09                  4710.0354    31.9488    55.8949
         TRA.     0.1338D+28                  1391.0445     4.9680    40.2384
         TOT.                       55.754    6101.0799    36.9168    96.1333

 290.00  VIB.     0.5672D+03                  4171.3559    30.2226    26.9843
         ROT.     0.8253D+06                   864.4348     2.9808    30.0536
         INT.     0.4681D+09                  5035.7907    33.2034    57.0379
         TRA.     0.1411D+28                  1440.7247     4.9680    40.4128
         TOT.                       56.129    6476.5154    38.1714    97.4507

 300.00  VIB.     0.7283D+03                  4479.8780    31.4824    28.0302
         ROT.     0.8684D+06                   894.2429     2.9808    30.1546
         INT.     0.6325D+09                  5374.1210    34.4632    58.1848
         TRA.     0.1484D+28                  1490.4049     4.9680    40.5812
         TOT.                       56.517    6864.5258    39.4312    98.7660

 310.00  VIB.     0.9361D+03                  4801.0094    32.7439    29.0830
         ROT.     0.9122D+06                   924.0510     2.9808    30.2524
         INT.     0.8539D+09                  5725.0605    35.7247    59.3354
         TRA.     0.1559D+28                  1540.0850     4.9680    40.7441
         TOT.                       56.918    7265.1455    40.6927   100.0795

 320.00  VIB.     0.1204D+04                  5134.7518    34.0041    30.1425
         ROT.     0.9566D+06                   953.8591     2.9808    30.3470
         INT.     0.1152D+10                  6088.6109    36.9849    60.4895
         TRA.     0.1635D+28                  1589.7652     4.9680    40.9018
         TOT.                       57.331    7678.3761    41.9529   101.3913

 330.00  VIB.     0.1551D+04                  5481.0767    35.2600    31.2081
         ROT.     0.1002D+07                   983.6672     2.9808    30.4387
         INT.     0.1553D+10                  6464.7439    38.2408    61.6468
         TRA.     0.1713D+28                  1639.4454     4.9680    41.0547
         TOT.                       57.757    8104.1893    43.2088   102.7015

 340.00  VIB.     0.1998D+04                  5839.9281    36.5090    32.2793
         ROT.     0.1048D+07                  1013.4753     2.9808    30.5277
         INT.     0.2094D+10                  6853.4034    39.4898    62.8070
         TRA.     0.1791D+28                  1689.1255     4.9680    41.2030
         TOT.                       58.195    8542.5290    44.4578   104.0100

 350.00  VIB.     0.2578D+04                  6211.2256    37.7488    33.3555
         ROT.     0.1094D+07                  1043.2834     2.9808    30.6141
         INT.     0.2821D+10                  7254.5090    40.7296    63.9696
         TRA.     0.1871D+28                  1738.8057     4.9680    41.3470
         TOT.                       58.646    8993.3147    45.6976   105.3166

 360.00  VIB.     0.3329D+04                  6594.8668    38.9774    34.4362
         ROT.     0.1142D+07                  1073.0915     2.9808    30.6981
         INT.     0.3800D+10                  7667.9583    41.9582    65.1343
         TRA.     0.1951D+28                  1788.4859     4.9680    41.4870
         TOT.                       59.109    9456.4441    46.9262   106.6212

 370.00  VIB.     0.4302D+04                  6990.7299    40.1929    35.5207
         ROT.     0.1189D+07                  1102.8996     2.9808    30.7798
         INT.     0.5117D+10                  8093.6295    43.1737    66.3005
         TRA.     0.2033D+28                  1838.1660     4.9680    41.6231
         TOT.                       59.585    9931.7955    48.1418   107.9236

 380.00  VIB.     0.5566D+04                  7398.6770    41.3939    36.6086
         ROT.     0.1238D+07                  1132.7077     2.9808    30.8593
         INT.     0.6890D+10                  8531.3847    44.3747    67.4678
         TRA.     0.2116D+28                  1887.8462     4.9680    41.7556
         TOT.                       60.072   10419.2309    49.3428   109.2234

 390.00  VIB.     0.7206D+04                  7818.5557    42.5791    37.6992
         ROT.     0.1287D+07                  1162.5158     2.9808    30.9367
         INT.     0.9275D+10                  8981.0715    45.5599    68.6358
         TRA.     0.2200D+28                  1937.5263     4.9680    41.8846
         TOT.                       60.571   10918.5978    50.5279   110.5205

 400.00  VIB.     0.9337D+04                  8250.2020    43.7473    38.7919
         ROT.     0.1337D+07                  1192.3239     2.9808    31.0121
         INT.     0.1248D+11                  9442.5259    46.7281    69.8041
         TRA.     0.2285D+28                  1987.2065     4.9680    42.0104
         TOT.                       61.082   11429.7324    51.6961   111.8145

   *: NOTE: HEATS OF FORMATION ARE RELATIVE TO THE
            ELEMENTS IN THEIR STANDARD STATE AT 298K
              (=  Standard Enthalpy of Formation).

            Hvib:  Zero-point energy is not included.
                   frequencies of less than zero cm-1 are not included.
            Hrot = (3/2)RT
            Htra = (3/2)RT + pV = (5/2)RT

            Heat capacity is Cp, not Cv

          For more information, see: HTTP://OpenMOPAC.net/Manual/thermochemistry.html


           FORCE CONSTANT IN CARTESIAN COORDINATES (Millidynes/A)

    ATOM   CHEMICAL       X               Y               Z
   NUMBER   SYMBOL  FORCE CONSTANT  FORCE CONSTANT  FORCE CONSTANT

      1       C        9.262462        8.592310        8.300628
      2       C        9.694984        8.101479        7.808062
      3       C       14.952000       10.874305        2.714178
      4       C       10.531799       13.921292        2.337705
      5       C       14.702114        9.739166        2.347316
      6       C        9.017617        9.267424        8.680101
      7       C       14.015964       11.117406        2.222099
      8       C        8.877486        9.575488        9.115702
      9       C        9.007064        9.561386        8.955350
     10       C        8.766484        9.119679        8.449272
     11       H        1.860979        0.807428        3.600201
     12       H        1.845410        0.919221        3.506931
     13       H        1.298411        1.588838        3.253102
     14       H        0.849903        4.759835        0.734726
     15       H        0.745491        5.371393        0.339425
     16       H        2.891067        3.231491        0.340770
     17       H        0.987412        4.193074        1.034366
     18       H        0.974671        4.194257        1.047876
     19       H        2.039503        4.049440        0.355786
     20       H        0.966673        4.212551        1.035520
     21       H        1.051783        4.486785        0.933951
     22       H        1.417751        1.314921        3.750199

 **********************
 *                    *
 * JOB ENDED NORMALLY *
 *                    *
 **********************



 TOTAL JOB TIME:             3.33 SECONDS

 == MOPAC DONE ==
