 *******************************************************************************
 ** Site#: 14399        For non-commercial use only    Version 18.184L 64BITS **
 *******************************************************************************
 ** Cite this program as: MOPAC2016, Version: 18.184L, James J. P. Stewart,   **
 ** Stewart Computational Chemistry, web: HTTP://OpenMOPAC.net. Days left:  18**
 *******************************************************************************
 **                                                                           **
 **                                MOPAC2016                                  **
 **                                                                           **
 *******************************************************************************

                              PM3 CALCULATION RESULTS

 *******************************************************************************
 *  CALCULATION DONE:                                Sat Jun 15 10:26:29 2019  *
 *  PM3        - The PM3 Hamiltonian to be used
 *  PRECISE    - CRITERIA TO BE INCREASED BY 100 TIMES
 *  NOSYM      - POINT-GROUP SYMMETRY SET TO C1
 *  THREADS=1  - MULTI-THREADING NOT USED
 *  T=         - A TIME OF 172800.0 SECONDS REQUESTED
 *  DUMP=N     - RESTART FILE WRITTEN EVERY  7200.000 SECONDS
 *******************************************************************************
pm3  precise nosym THREADS=1
 InChI=1S/C7H12/c1-2-3-4-7-5-6-7/h2,7H,1,3-6H2

   ATOM   CHEMICAL          X               Y               Z
  NUMBER   SYMBOL      (ANGSTROMS)     (ANGSTROMS)     (ANGSTROMS)
 
     1       C         -1.46500000  *  -0.35770000  *  -0.37190000  *
     2       C         -2.73510000  *  -0.20150000  *   0.45030000  *
     3       C         -2.16890000  *   0.98940000  *  -0.30830000  *
     4       C         -0.17280000  *  -0.47200000  *   0.44730000  *
     5       C          1.03220000  *  -0.06130000  *  -0.40260000  *
     6       C          2.31530000  *  -0.19200000  *   0.37180000  *
     7       C          3.48710000  *   0.11940000  *  -0.18690000  *
     8       H         -1.58390000  *  -0.92660000  *  -1.31900000  *
     9       H         -3.64310000  *  -0.63900000  *  -0.01580000  *
    10       H         -2.60470000  *  -0.13700000  *   1.55190000  *
    11       H         -1.69760000  *   1.75830000  *   0.34090000  *
    12       H         -2.73830000  *   1.25280000  *  -1.22450000  *
    13       H         -0.05630000  *  -1.53060000  *   0.76550000  *
    14       H         -0.21170000  *   0.16030000  *   1.36300000  *
    15       H          0.91060000  *   0.99530000  *  -0.72790000  *
    16       H          1.08630000  *  -0.70830000  *  -1.30570000  *
    17       H          2.30130000  *  -0.54340000  *   1.40030000  *
    18       H          4.40480000  *   0.02020000  *   0.38370000  *
    19       H          3.53990000  *   0.47380000  *  -1.21210000  *
 


          CARTESIAN COORDINATES 

    NO.       ATOM           X           Y           Z

     1         C         -1.4650     -0.3577     -0.3719
     2         C         -2.7351     -0.2015      0.4503
     3         C         -2.1689      0.9894     -0.3083
     4         C         -0.1728     -0.4720      0.4473
     5         C          1.0322     -0.0613     -0.4026
     6         C          2.3153     -0.1920      0.3718
     7         C          3.4871      0.1194     -0.1869
     8         H         -1.5839     -0.9266     -1.3190
     9         H         -3.6431     -0.6390     -0.0158
    10         H         -2.6047     -0.1370      1.5519
    11         H         -1.6976      1.7583      0.3409
    12         H         -2.7383      1.2528     -1.2245
    13         H         -0.0563     -1.5306      0.7655
    14         H         -0.2117      0.1603      1.3630
    15         H          0.9106      0.9953     -0.7279
    16         H          1.0863     -0.7083     -1.3057
    17         H          2.3013     -0.5434      1.4003
    18         H          4.4048      0.0202      0.3837
    19         H          3.5399      0.4738     -1.2121

  H: (PM3): J. J. P. STEWART, J. COMP. CHEM. 10, 209 (1989).
  C: (PM3): J. J. P. STEWART, J. COMP. CHEM. 10, 209 (1989).

           Empirical Formula: C7 H12  =    19 atoms



      MOLECULAR POINT GROUP   :   C1  


      RHF CALCULATION, NO. OF DOUBLY OCCUPIED LEVELS = 20


          Geometry optimization using EF

          DIAGONAL MATRIX USED AS START HESSIAN

 CYCLE:     1 TIME:   0.004 TIME LEFT:  2.00D  GRAD.:    80.795 HEAT:  31.09235
 CYCLE:     2 TIME:   0.004 TIME LEFT:  2.00D  GRAD.:   128.654 HEAT:  30.42097
 CYCLE:     3 TIME:   0.004 TIME LEFT:  2.00D  GRAD.:    58.361 HEAT:  26.63897
 CYCLE:     4 TIME:   0.008 TIME LEFT:  2.00D  GRAD.:    90.538 HEAT:  26.59516
 CYCLE:     5 TIME:   0.004 TIME LEFT:  2.00D  GRAD.:    47.141 HEAT:  24.97956
 CYCLE:     6 TIME:   0.004 TIME LEFT:  2.00D  GRAD.:    45.357 HEAT:  24.63328
 CYCLE:     7 TIME:   0.004 TIME LEFT:  2.00D  GRAD.:    39.141 HEAT:  24.20420
 CYCLE:     8 TIME:   0.004 TIME LEFT:  2.00D  GRAD.:    22.718 HEAT:  23.87801
 CYCLE:     9 TIME:   0.004 TIME LEFT:  2.00D  GRAD.:    19.704 HEAT:  23.77348
 CYCLE:    10 TIME:   0.004 TIME LEFT:  2.00D  GRAD.:    13.591 HEAT:  23.65041
 CYCLE:    11 TIME:   0.004 TIME LEFT:  2.00D  GRAD.:    15.277 HEAT:  23.60439
 CYCLE:    12 TIME:   0.004 TIME LEFT:  2.00D  GRAD.:    12.047 HEAT:  23.53813
 CYCLE:    13 TIME:   0.004 TIME LEFT:  2.00D  GRAD.:    10.056 HEAT:  23.49734
 CYCLE:    14 TIME:   0.004 TIME LEFT:  2.00D  GRAD.:    13.461 HEAT:  23.49640
 CYCLE:    15 TIME:   0.004 TIME LEFT:  2.00D  GRAD.:    13.063 HEAT:  23.46509
 CYCLE:    16 TIME:   0.008 TIME LEFT:  2.00D  GRAD.:     6.165 HEAT:  23.42059
 CYCLE:    17 TIME:   0.000 TIME LEFT:  2.00D  GRAD.:     9.293 HEAT:  23.41843
 CYCLE:    18 TIME:   0.004 TIME LEFT:  2.00D  GRAD.:     5.099 HEAT:  23.38840
 CYCLE:    19 TIME:   0.008 TIME LEFT:  2.00D  GRAD.:     7.160 HEAT:  23.38611
 CYCLE:    20 TIME:   0.000 TIME LEFT:  2.00D  GRAD.:     3.121 HEAT:  23.36602
 CYCLE:    21 TIME:   0.004 TIME LEFT:  2.00D  GRAD.:     4.286 HEAT:  23.35807
 CYCLE:    22 TIME:   0.004 TIME LEFT:  2.00D  GRAD.:     3.665 HEAT:  23.34932
 CYCLE:    23 TIME:   0.004 TIME LEFT:  2.00D  GRAD.:     2.644 HEAT:  23.34252
 CYCLE:    24 TIME:   0.004 TIME LEFT:  2.00D  GRAD.:     1.905 HEAT:  23.33767
 CYCLE:    25 TIME:   0.004 TIME LEFT:  2.00D  GRAD.:     2.014 HEAT:  23.33437
 CYCLE:    26 TIME:   0.004 TIME LEFT:  2.00D  GRAD.:     2.450 HEAT:  23.33303
 CYCLE:    27 TIME:   0.000 TIME LEFT:  2.00D  GRAD.:     1.189 HEAT:  23.33101
 CYCLE:    28 TIME:   0.004 TIME LEFT:  2.00D  GRAD.:     0.934 HEAT:  23.32999
 CYCLE:    29 TIME:   0.004 TIME LEFT:  2.00D  GRAD.:     0.913 HEAT:  23.32889
 CYCLE:    30 TIME:   0.004 TIME LEFT:  2.00D  GRAD.:     1.022 HEAT:  23.32675
 CYCLE:    31 TIME:   0.004 TIME LEFT:  2.00D  GRAD.:     1.163 HEAT:  23.32519
 CYCLE:    32 TIME:   0.004 TIME LEFT:  2.00D  GRAD.:     1.001 HEAT:  23.32327
 CYCLE:    33 TIME:   0.000 TIME LEFT:  2.00D  GRAD.:     0.699 HEAT:  23.32203
 CYCLE:    34 TIME:   0.004 TIME LEFT:  2.00D  GRAD.:     0.602 HEAT:  23.32131
 CYCLE:    35 TIME:   0.004 TIME LEFT:  2.00D  GRAD.:     0.610 HEAT:  23.32065
 CYCLE:    36 TIME:   0.004 TIME LEFT:  2.00D  GRAD.:     0.616 HEAT:  23.31998
 CYCLE:    37 TIME:   0.004 TIME LEFT:  2.00D  GRAD.:     0.540 HEAT:  23.31929
 CYCLE:    38 TIME:   0.004 TIME LEFT:  2.00D  GRAD.:     0.451 HEAT:  23.31868
 CYCLE:    39 TIME:   0.004 TIME LEFT:  2.00D  GRAD.:     0.431 HEAT:  23.31816
 CYCLE:    40 TIME:   0.000 TIME LEFT:  2.00D  GRAD.:     0.392 HEAT:  23.31777
 CYCLE:    41 TIME:   0.004 TIME LEFT:  2.00D  GRAD.:     0.330 HEAT:  23.31752
 CYCLE:    42 TIME:   0.004 TIME LEFT:  2.00D  GRAD.:     0.265 HEAT:  23.31738
 CYCLE:    43 TIME:   0.004 TIME LEFT:  2.00D  GRAD.:     0.242 HEAT:  23.31725
 CYCLE:    44 TIME:   0.004 TIME LEFT:  2.00D  GRAD.:     0.238 HEAT:  23.31712
 CYCLE:    45 TIME:   0.000 TIME LEFT:  2.00D  GRAD.:     0.210 HEAT:  23.31701
 CYCLE:    46 TIME:   0.004 TIME LEFT:  2.00D  GRAD.:     0.178 HEAT:  23.31694
 CYCLE:    47 TIME:   0.004 TIME LEFT:  2.00D  GRAD.:     0.163 HEAT:  23.31687
 CYCLE:    48 TIME:   0.004 TIME LEFT:  2.00D  GRAD.:     0.178 HEAT:  23.31680
 CYCLE:    49 TIME:   0.004 TIME LEFT:  2.00D  GRAD.:     0.187 HEAT:  23.31674
 CYCLE:    50 TIME:   0.004 TIME LEFT:  2.00D  GRAD.:     0.196 HEAT:  23.31665
 CYCLE:    51 TIME:   0.004 TIME LEFT:  2.00D  GRAD.:     0.235 HEAT:  23.31651
 CYCLE:    52 TIME:   0.004 TIME LEFT:  2.00D  GRAD.:     0.318 HEAT:  23.31630
 CYCLE:    53 TIME:   0.000 TIME LEFT:  2.00D  GRAD.:     0.377 HEAT:  23.31601
 CYCLE:    54 TIME:   0.004 TIME LEFT:  2.00D  GRAD.:     0.402 HEAT:  23.31554
 CYCLE:    55 TIME:   0.004 TIME LEFT:  2.00D  GRAD.:     0.343 HEAT:  23.31528
 CYCLE:    56 TIME:   0.004 TIME LEFT:  2.00D  GRAD.:     0.390 HEAT:  23.31480
 CYCLE:    57 TIME:   0.004 TIME LEFT:  2.00D  GRAD.:     0.327 HEAT:  23.31462
 CYCLE:    58 TIME:   0.004 TIME LEFT:  2.00D  GRAD.:     0.290 HEAT:  23.31420
 CYCLE:    59 TIME:   0.000 TIME LEFT:  2.00D  GRAD.:     0.194 HEAT:  23.31410
 CYCLE:    60 TIME:   0.004 TIME LEFT:  2.00D  GRAD.:     0.253 HEAT:  23.31401
 CYCLE:    61 TIME:   0.004 TIME LEFT:  2.00D  GRAD.:     0.183 HEAT:  23.31390
 CYCLE:    62 TIME:   0.004 TIME LEFT:  2.00D  GRAD.:     0.184 HEAT:  23.31375
 CYCLE:    63 TIME:   0.004 TIME LEFT:  2.00D  GRAD.:     0.169 HEAT:  23.31364
 CYCLE:    64 TIME:   0.004 TIME LEFT:  2.00D  GRAD.:     0.133 HEAT:  23.31351
 CYCLE:    65 TIME:   0.004 TIME LEFT:  2.00D  GRAD.:     0.106 HEAT:  23.31347
 CYCLE:    66 TIME:   0.000 TIME LEFT:  2.00D  GRAD.:     0.100 HEAT:  23.31340
 CYCLE:    67 TIME:   0.004 TIME LEFT:  2.00D  GRAD.:     0.094 HEAT:  23.31338
 CYCLE:    68 TIME:   0.004 TIME LEFT:  2.00D  GRAD.:     0.112 HEAT:  23.31327
 CYCLE:    69 TIME:   0.004 TIME LEFT:  2.00D  GRAD.:     0.114 HEAT:  23.31324
 CYCLE:    70 TIME:   0.004 TIME LEFT:  2.00D  GRAD.:     0.189 HEAT:  23.31311
 CYCLE:    71 TIME:   0.004 TIME LEFT:  2.00D  GRAD.:     0.217 HEAT:  23.31302
 CYCLE:    72 TIME:   0.000 TIME LEFT:  2.00D  GRAD.:     0.321 HEAT:  23.31236
 CYCLE:    73 TIME:   0.004 TIME LEFT:  2.00D  GRAD.:     0.560 HEAT:  23.31159
 CYCLE:    74 TIME:   0.004 TIME LEFT:  2.00D  GRAD.:     0.809 HEAT:  23.31058
 CYCLE:    75 TIME:   0.004 TIME LEFT:  2.00D  GRAD.:     2.243 HEAT:  23.30766
 CYCLE:    76 TIME:   0.004 TIME LEFT:  2.00D  GRAD.:     1.505 HEAT:  23.30363
 CYCLE:    77 TIME:   0.004 TIME LEFT:  2.00D  GRAD.:     1.776 HEAT:  23.29310
 CYCLE:    78 TIME:   0.004 TIME LEFT:  2.00D  GRAD.:     3.210 HEAT:  23.27678
 CYCLE:    79 TIME:   0.004 TIME LEFT:  2.00D  GRAD.:     7.357 HEAT:  23.27469
 CYCLE:    80 TIME:   0.004 TIME LEFT:  2.00D  GRAD.:     3.121 HEAT:  23.25675
 CYCLE:    81 TIME:   0.008 TIME LEFT:  2.00D  GRAD.:     4.467 HEAT:  23.25492
 CYCLE:    82 TIME:   0.004 TIME LEFT:  2.00D  GRAD.:     1.569 HEAT:  23.23997
 CYCLE:    83 TIME:   0.004 TIME LEFT:  2.00D  GRAD.:     1.593 HEAT:  23.23016
 CYCLE:    84 TIME:   0.004 TIME LEFT:  2.00D  GRAD.:     3.964 HEAT:  23.21559
 CYCLE:    85 TIME:   0.004 TIME LEFT:  2.00D  GRAD.:     5.547 HEAT:  23.20256
 CYCLE:    86 TIME:   0.004 TIME LEFT:  2.00D  GRAD.:     2.191 HEAT:  23.18834
 CYCLE:    87 TIME:   0.004 TIME LEFT:  2.00D  GRAD.:     3.886 HEAT:  23.17616
 CYCLE:    88 TIME:   0.004 TIME LEFT:  2.00D  GRAD.:     3.195 HEAT:  23.17353
 CYCLE:    89 TIME:   0.000 TIME LEFT:  2.00D  GRAD.:     1.986 HEAT:  23.16664
 CYCLE:    90 TIME:   0.004 TIME LEFT:  2.00D  GRAD.:     0.978 HEAT:  23.16487
 CYCLE:    91 TIME:   0.004 TIME LEFT:  2.00D  GRAD.:     1.055 HEAT:  23.16130
 CYCLE:    92 TIME:   0.004 TIME LEFT:  2.00D  GRAD.:     1.874 HEAT:  23.15052
 CYCLE:    93 TIME:   0.004 TIME LEFT:  2.00D  GRAD.:     1.581 HEAT:  23.14641
 CYCLE:    94 TIME:   0.004 TIME LEFT:  2.00D  GRAD.:     1.433 HEAT:  23.14389
 CYCLE:    95 TIME:   0.004 TIME LEFT:  2.00D  GRAD.:     1.391 HEAT:  23.14169
 CYCLE:    96 TIME:   0.000 TIME LEFT:  2.00D  GRAD.:     1.195 HEAT:  23.13917
 CYCLE:    97 TIME:   0.004 TIME LEFT:  2.00D  GRAD.:     1.279 HEAT:  23.13615
 CYCLE:    98 TIME:   0.004 TIME LEFT:  2.00D  GRAD.:     1.388 HEAT:  23.12895
 CYCLE:    99 TIME:   0.004 TIME LEFT:  2.00D  GRAD.:     1.209 HEAT:  23.12589
 CYCLE:   100 TIME:   0.004 TIME LEFT:  2.00D  GRAD.:     1.282 HEAT:  23.12385
 CYCLE:   101 TIME:   0.004 TIME LEFT:  2.00D  GRAD.:     1.157 HEAT:  23.12217
 CYCLE:   102 TIME:   0.004 TIME LEFT:  2.00D  GRAD.:     1.706 HEAT:  23.11933
 CYCLE:   103 TIME:   0.004 TIME LEFT:  2.00D  GRAD.:     1.947 HEAT:  23.11487
 CYCLE:   104 TIME:   0.004 TIME LEFT:  2.00D  GRAD.:     2.410 HEAT:  23.10095
 CYCLE:   105 TIME:   0.004 TIME LEFT:  2.00D  GRAD.:     2.283 HEAT:  23.09563
 CYCLE:   106 TIME:   0.004 TIME LEFT:  2.00D  GRAD.:     2.709 HEAT:  23.08555
 CYCLE:   107 TIME:   0.004 TIME LEFT:  2.00D  GRAD.:     2.395 HEAT:  23.07171
 CYCLE:   108 TIME:   0.000 TIME LEFT:  2.00D  GRAD.:     3.961 HEAT:  23.05168
 CYCLE:   109 TIME:   0.004 TIME LEFT:  2.00D  GRAD.:     7.086 HEAT:  23.03343
 CYCLE:   110 TIME:   0.004 TIME LEFT:  2.00D  GRAD.:     8.029 HEAT:  23.02847
 CYCLE:   111 TIME:   0.004 TIME LEFT:  2.00D  GRAD.:     7.044 HEAT:  23.01247
 CYCLE:   112 TIME:   0.004 TIME LEFT:  2.00D  GRAD.:     4.110 HEAT:  22.99594
 CYCLE:   113 TIME:   0.004 TIME LEFT:  2.00D  GRAD.:     2.438 HEAT:  22.98140
 CYCLE:   114 TIME:   0.004 TIME LEFT:  2.00D  GRAD.:     4.122 HEAT:  22.97220
 CYCLE:   115 TIME:   0.004 TIME LEFT:  2.00D  GRAD.:     2.718 HEAT:  22.96225
 CYCLE:   116 TIME:   0.000 TIME LEFT:  2.00D  GRAD.:     1.854 HEAT:  22.95293
 CYCLE:   117 TIME:   0.004 TIME LEFT:  2.00D  GRAD.:     1.305 HEAT:  22.95075
 CYCLE:   118 TIME:   0.004 TIME LEFT:  2.00D  GRAD.:     1.601 HEAT:  22.94843
 CYCLE:   119 TIME:   0.004 TIME LEFT:  2.00D  GRAD.:     0.976 HEAT:  22.94725
 CYCLE:   120 TIME:   0.004 TIME LEFT:  2.00D  GRAD.:     0.919 HEAT:  22.94649
 CYCLE:   121 TIME:   0.004 TIME LEFT:  2.00D  GRAD.:     0.512 HEAT:  22.94614
 CYCLE:   122 TIME:   0.004 TIME LEFT:  2.00D  GRAD.:     0.332 HEAT:  22.94596
 CYCLE:   123 TIME:   0.000 TIME LEFT:  2.00D  GRAD.:     0.327 HEAT:  22.94579
 CYCLE:   124 TIME:   0.004 TIME LEFT:  2.00D  GRAD.:     0.298 HEAT:  22.94565
 CYCLE:   125 TIME:   0.004 TIME LEFT:  2.00D  GRAD.:     0.194 HEAT:  22.94554
 CYCLE:   126 TIME:   0.004 TIME LEFT:  2.00D  GRAD.:     0.147 HEAT:  22.94549
 CYCLE:   127 TIME:   0.004 TIME LEFT:  2.00D  GRAD.:     0.125 HEAT:  22.94548
 CYCLE:   128 TIME:   0.004 TIME LEFT:  2.00D  GRAD.:     0.130 HEAT:  22.94546
 CYCLE:   129 TIME:   0.000 TIME LEFT:  2.00D  GRAD.:     0.123 HEAT:  22.94544
 CYCLE:   130 TIME:   0.004 TIME LEFT:  2.00D  GRAD.:     0.122 HEAT:  22.94543
 CYCLE:   131 TIME:   0.004 TIME LEFT:  2.00D  GRAD.:     0.145 HEAT:  22.94544
 CYCLE:   132 TIME:   0.004 TIME LEFT:  2.00D  GRAD.:     0.095 HEAT:  22.94542
 CYCLE:   133 TIME:   0.004 TIME LEFT:  2.00D  GRAD.:     0.091 HEAT:  22.94540
 CYCLE:   134 TIME:   0.004 TIME LEFT:  2.00D  GRAD.:     0.094 HEAT:  22.94537
 CYCLE:   135 TIME:   0.004 TIME LEFT:  2.00D  GRAD.:     0.091 HEAT:  22.94534
 CYCLE:   136 TIME:   0.000 TIME LEFT:  2.00D  GRAD.:     0.082 HEAT:  22.94532
 CYCLE:   137 TIME:   0.004 TIME LEFT:  2.00D  GRAD.:     0.058 HEAT:  22.94529
 CYCLE:   138 TIME:   0.004 TIME LEFT:  2.00D  GRAD.:     0.050 HEAT:  22.94528

     GRADIENT =  0.04994  IS LESS THAN CUTOFF =  0.05000



 -------------------------------------------------------------------------------
 pm3  precise nosym THREADS=1
 InChI=1S/C7H12/c1-2-3-4-7-5-6-7/h2,7H,1,3-6H2



     GEOMETRY OPTIMISED USING EIGENVECTOR FOLLOWING (EF).     
     SCF FIELD WAS ACHIEVED                                   


                              PM3 CALCULATION
                                                       MOPAC2016 (Version: 18.184L)
                                                       Sat Jun 15 10:26:30 2019
                                                       No. of days remaining =  18




          FINAL HEAT OF FORMATION =         22.94528 KCAL/MOL =      96.00306 KJ/MOL


          TOTAL ENERGY            =      -1013.48005 EV
          ELECTRONIC ENERGY       =      -4719.90143 EV  POINT GROUP:     C1  
          CORE-CORE REPULSION     =       3706.42137 EV
          COSMO AREA              =        160.40 SQUARE ANGSTROMS
          COSMO VOLUME            =        151.77 CUBIC ANGSTROMS

          GRADIENT NORM           =          0.04994 = 0.01146 PER ATOM
          IONIZATION POTENTIAL    =         10.150767 EV
          HOMO LUMO ENERGIES (EV) =        -10.151  1.156
          NO. OF FILLED LEVELS    =         20
          MOLECULAR WEIGHT        =         96.1718

          MOLECULAR DIMENSIONS (Angstroms)

            Atom       Atom       Distance
            H    18    H     9     7.96012
            H    17    H    11     3.69164
            H    10    H    16     3.29534


          SCF CALCULATIONS        =        150
 
          WALL-CLOCK TIME         =          0.496 SECONDS
          COMPUTATION TIME        =          0.448 SECONDS




   ATOM   CHEMICAL          X               Y               Z
  NUMBER   SYMBOL      (ANGSTROMS)     (ANGSTROMS)     (ANGSTROMS)
 
     1       C         -1.45572247  *  -0.36401394  *  -0.26737525  *
     2       C         -2.68568140  *  -0.03771738  *   0.53376941  *
     3       C         -2.10881601  *   0.98503106  *  -0.39526857  *
     4       C         -0.13193514  *  -0.49119894  *   0.43537039  *
     5       C          1.02261276  *  -0.28549878  *  -0.53526782  *
     6       C          2.33297208  *  -0.45551586  *   0.14942739  *
     7       C          3.32039776  *   0.42728400  *   0.05817645  *
     8       H         -1.55105819  *  -1.07263345  *  -1.11093853  *
     9       H         -3.63671534  *  -0.52458652  *   0.29340799  *
    10       H         -2.60856216  *   0.10583074  *   1.61765458  *
    11       H         -1.60992128  *   1.87199334  *   0.01203724  *
    12       H         -2.63678686  *   1.24982832  *  -1.31740869  *
    13       H         -0.06736036  *  -1.49277265  *   0.90536210  *
    14       H         -0.05895091  *   0.23678691  *   1.26816390  *
    15       H          0.94170302  *   0.71362968  *  -1.00904946  *
    16       H          0.96130349  *  -1.01786988  *  -1.36585026  *
    17       H          2.44678633  *  -1.37182046  *   0.74173246  *
    18       H          4.27768808  *   0.28753374  *   0.55077556  *
    19       H          3.24562695  *   1.34843372  *  -0.51354886  *

                             CARTESIAN COORDINATES

   1    C       -1.455722470    -0.364013938    -0.267375252
   2    C       -2.685681398    -0.037717379     0.533769407
   3    C       -2.108816015     0.985031059    -0.395268570
   4    C       -0.131935143    -0.491198944     0.435370392
   5    C        1.022612759    -0.285498782    -0.535267825
   6    C        2.332972076    -0.455515860     0.149427394
   7    C        3.320397756     0.427283999     0.058176449
   8    H       -1.551058192    -1.072633453    -1.110938535
   9    H       -3.636715342    -0.524586521     0.293407986
  10    H       -2.608562159     0.105830744     1.617654585
  11    H       -1.609921283     1.871993345     0.012037242
  12    H       -2.636786856     1.249828317    -1.317408694
  13    H       -0.067360356    -1.492772646     0.905362097
  14    H       -0.058950906     0.236786911     1.268163904
  15    H        0.941703017     0.713629683    -1.009049458
  16    H        0.961303486    -1.017869877    -1.365850261
  17    H        2.446786330    -1.371820459     0.741732462
  18    H        4.277688077     0.287533742     0.550775560
  19    H        3.245626947     1.348433722    -0.513548862


           Empirical Formula: C7 H12  =    19 atoms



      MOLECULAR POINT GROUP   :   C1  


                  EIGENVALUES  
 -40.24745 -35.43871 -29.40354 -23.50205 -22.16701 -20.29724 -19.59302 -17.38294
 -16.30898 -16.04956 -15.21256 -14.31604 -13.51863 -12.75086 -12.31179 -12.17658
 -12.02768 -11.55763 -11.12233 -10.15077   1.15644   2.90976   3.16008   3.32878
   3.48238   3.60515   3.75270   3.96210   3.98021   4.03529   4.16344   4.45842
   4.52140   4.77304   4.93741   4.94644   5.08643   5.12429   5.62128   5.87505


              NET ATOMIC CHARGES AND DIPOLE CONTRIBUTIONS

  ATOM NO.   TYPE          CHARGE      No. of ELECS.   s-Pop       p-Pop       
    1          C          -0.137996        4.1380     1.17608     2.96191
    2          C          -0.150707        4.1507     1.16098     2.98973
    3          C          -0.152436        4.1524     1.16146     2.99098
    4          C          -0.067535        4.0675     1.15384     2.91369
    5          C          -0.069020        4.0690     1.14982     2.91920
    6          C          -0.138297        4.1383     1.19563     2.94267
    7          C          -0.166260        4.1663     1.18259     2.98367
    8          H           0.094161        0.9058     0.90584
    9          H           0.076145        0.9239     0.92386
   10          H           0.078955        0.9210     0.92105
   11          H           0.079867        0.9201     0.92013
   12          H           0.076086        0.9239     0.92391
   13          H           0.052428        0.9476     0.94757
   14          H           0.054503        0.9455     0.94550
   15          H           0.056767        0.9432     0.94323
   16          H           0.056141        0.9439     0.94386
   17          H           0.096611        0.9034     0.90339
   18          H           0.078883        0.9211     0.92112
   19          H           0.081703        0.9183     0.91830
 DIPOLE           X         Y         Z       TOTAL
 POINT-CHG.    -0.133    -0.092    -0.020     0.163
 HYBRID        -0.003     0.016    -0.004     0.017
 SUM           -0.136    -0.075    -0.023     0.158


          ATOMIC ORBITAL ELECTRON POPULATIONS

     Atom    s        px        py        pz   
    1  C   1.17608   0.94516   0.99547   1.02128
    2  C   1.16098   0.97419   1.03549   0.98005
    3  C   1.16146   1.04116   0.93410   1.01571
    4  C   1.15384   0.92643   1.01708   0.97018
    5  C   1.14982   0.92897   1.01874   0.97149
    6  C   1.19563   0.95968   0.98865   0.99434
    7  C   1.18259   0.98100   0.98872   1.01394
    8  H   0.90584
    9  H   0.92386
   10  H   0.92105
   11  H   0.92013
   12  H   0.92391
   13  H   0.94757
   14  H   0.94550
   15  H   0.94323
   16  H   0.94386
   17  H   0.90339
   18  H   0.92112
   19  H   0.91830
 *******************************************************************************
 ** Site#: 14399        For non-commercial use only    Version 18.184L 64BITS **
 *******************************************************************************
 ** Cite this program as: MOPAC2016, Version: 18.184L, James J. P. Stewart,   **
 ** Stewart Computational Chemistry, web: HTTP://OpenMOPAC.net. Days left:  18**
 *******************************************************************************
 **                                                                           **
 **                                MOPAC2016                                  **
 **                                                                           **
 *******************************************************************************

                              PM3 CALCULATION RESULTS

 *******************************************************************************
 *  CALCULATION DONE:                                Sat Jun 15 10:26:30 2019  *
 *  PM3        - The PM3 Hamiltonian to be used
 *  OLDGEO     - PREVIOUS GEOMETRY TO BE USED
 *  PRECISE    - CRITERIA TO BE INCREASED BY 100 TIMES
 *  NOSYM      - POINT-GROUP SYMMETRY SET TO C1
 *  THREADS=1  - MULTI-THREADING NOT USED
 *  T=         - A TIME OF 172800.0 SECONDS REQUESTED
 *  DUMP=N     - RESTART FILE WRITTEN EVERY  7200.000 SECONDS
 *  THERMO     - THERMODYNAMIC QUANTITIES TO BE CALCULATED
 *******************************************************************************
oldgeo thermo nosym precise THREADS=1  pm3
 InChI=1S/C7H12/c1-2-3-4-7-5-6-7/h2,7H,1,3-6H2

   ATOM   CHEMICAL          X               Y               Z
  NUMBER   SYMBOL      (ANGSTROMS)     (ANGSTROMS)     (ANGSTROMS)
 
     1       C         -1.45572247  *  -0.36401394  *  -0.26737525  *
     2       C         -2.68568140  *  -0.03771738  *   0.53376941  *
     3       C         -2.10881601  *   0.98503106  *  -0.39526857  *
     4       C         -0.13193514  *  -0.49119894  *   0.43537039  *
     5       C          1.02261276  *  -0.28549878  *  -0.53526782  *
     6       C          2.33297208  *  -0.45551586  *   0.14942739  *
     7       C          3.32039776  *   0.42728400  *   0.05817645  *
     8       H         -1.55105819  *  -1.07263345  *  -1.11093853  *
     9       H         -3.63671534  *  -0.52458652  *   0.29340799  *
    10       H         -2.60856216  *   0.10583074  *   1.61765458  *
    11       H         -1.60992128  *   1.87199334  *   0.01203724  *
    12       H         -2.63678686  *   1.24982832  *  -1.31740869  *
    13       H         -0.06736036  *  -1.49277265  *   0.90536210  *
    14       H         -0.05895091  *   0.23678691  *   1.26816390  *
    15       H          0.94170302  *   0.71362968  *  -1.00904946  *
    16       H          0.96130349  *  -1.01786988  *  -1.36585026  *
    17       H          2.44678633  *  -1.37182046  *   0.74173246  *
    18       H          4.27768808  *   0.28753374  *   0.55077556  *
    19       H          3.24562695  *   1.34843372  *  -0.51354886  *
 


          CARTESIAN COORDINATES 

    NO.       ATOM           X           Y           Z

     1         C         -1.4557     -0.3640     -0.2674
     2         C         -2.6857     -0.0377      0.5338
     3         C         -2.1088      0.9850     -0.3953
     4         C         -0.1319     -0.4912      0.4354
     5         C          1.0226     -0.2855     -0.5353
     6         C          2.3330     -0.4555      0.1494
     7         C          3.3204      0.4273      0.0582
     8         H         -1.5511     -1.0726     -1.1109
     9         H         -3.6367     -0.5246      0.2934
    10         H         -2.6086      0.1058      1.6177
    11         H         -1.6099      1.8720      0.0120
    12         H         -2.6368      1.2498     -1.3174
    13         H         -0.0674     -1.4928      0.9054
    14         H         -0.0590      0.2368      1.2682
    15         H          0.9417      0.7136     -1.0090
    16         H          0.9613     -1.0179     -1.3659
    17         H          2.4468     -1.3718      0.7417
    18         H          4.2777      0.2875      0.5508
    19         H          3.2456      1.3484     -0.5135

  H: (PM3): J. J. P. STEWART, J. COMP. CHEM. 10, 209 (1989).
  C: (PM3): J. J. P. STEWART, J. COMP. CHEM. 10, 209 (1989).

           Empirical Formula: C7 H12  =    19 atoms



      MOLECULAR POINT GROUP   :   C1  


      RHF CALCULATION, NO. OF DOUBLY OCCUPIED LEVELS = 20



          HEAT OF FORMATION =      22.945281 KCALS/MOLE


          CARTESIAN COORDINATE DERIVATIVES

   NUMBER  ATOM         X            Y            Z

     1       C     -0.000306    -0.000591     0.002535
     2       C     -0.008100     0.007516    -0.001468
     3       C      0.002688    -0.000820    -0.008396
     4       C     -0.000397    -0.002129    -0.003309
     5       C     -0.001801     0.007812    -0.003271
     6       C     -0.009451     0.013915    -0.012293
     7       C      0.015484    -0.001042     0.010139
     8       H      0.006868    -0.003345    -0.005449
     9       H     -0.011091    -0.001572    -0.006641
    10       H      0.003170     0.005458     0.003017
    11       H     -0.001008    -0.008276     0.008309
    12       H      0.005958     0.002098    -0.000387
    13       H      0.000750     0.002849     0.004059
    14       H      0.001768     0.001317     0.001585
    15       H      0.004219    -0.004279     0.010488
    16       H     -0.012203    -0.006522    -0.006794
    17       H     -0.000360     0.003234     0.002295
    18       H     -0.005737    -0.017335     0.007459
    19       H      0.009549     0.001712    -0.001876
 


          GRADIENT NORM =   0.04982

          MOLECULAR WEIGHT =   96.17



          ROTATIONAL CONSTANTS IN CM(-1)

          A =    0.28250173   B =    0.03614633   C =    0.03476195



           PRINCIPAL MOMENTS OF INERTIA IN UNITS OF 10**(-40)*GRAM-CM**2

          A =       99.0889   B =      774.4293   C =      805.2706


          ORIENTATION OF MOLECULE IN FORCE CALCULATION

    NO.       ATOM         X         Y         Z

     1          C       1.0030   -0.1639    1.1710
     2          C       2.5067   -0.1639    1.1710
     3          C       1.7618    1.1349    1.1710
     4          C       0.2670   -0.6009   -0.0659
     5          C      -1.1499   -0.0444   -0.0824
     6          C      -1.8938   -0.5127   -1.2833
     7          C      -2.5585    0.3050   -2.0908
     8          H       0.4778   -0.4621    2.0973
     9          H       3.0509   -0.4857    2.0652
    10          H       3.0522   -0.4790    0.2741
    11          H       1.7632    1.7644    0.2736
    12          H       1.7598    1.7674    2.0649
    13          H       0.2473   -1.7084   -0.1020
    14          H       0.8090   -0.2801   -0.9782
    15          H      -1.1193    1.0628   -0.0332
    16          H      -1.7012   -0.3704    0.8230
    17          H      -1.8701   -1.5938   -1.4680
    18          H      -3.1094   -0.0482   -2.9571
    19          H      -2.6021    1.3811   -1.9455


    FIRST DERIVATIVES WILL BE USED IN THE CALCULATION OF SECOND DERIVATIVES

    FOR POINT-GROUP C1   THERE ARE   1 UNIQUE SYMMETRY FUNCTIONS.

 STEP:   1 TIME =     0.02 SECS, INTEGRAL =      0.02 TIME LEFT: 172799.98
 STEP:   2 TIME =     0.01 SECS, INTEGRAL =      0.03 TIME LEFT: 172799.97
 STEP:   3 TIME =     0.02 SECS, INTEGRAL =      0.04 TIME LEFT: 172799.96
 STEP:   4 TIME =     0.01 SECS, INTEGRAL =      0.05 TIME LEFT: 172799.95
 STEP:   5 TIME =     0.02 SECS, INTEGRAL =      0.07 TIME LEFT: 172799.93
 STEP:   6 TIME =     0.01 SECS, INTEGRAL =      0.08 TIME LEFT: 172799.92
 STEP:   7 TIME =     0.02 SECS, INTEGRAL =      0.10 TIME LEFT: 172799.90
 STEP:   8 TIME =     0.02 SECS, INTEGRAL =      0.11 TIME LEFT: 172799.89
 STEP:   9 TIME =     0.01 SECS, INTEGRAL =      0.12 TIME LEFT: 172799.88
 STEP:  10 TIME =     0.01 SECS, INTEGRAL =      0.14 TIME LEFT: 172799.86
 STEP:  11 TIME =     0.02 SECS, INTEGRAL =      0.15 TIME LEFT: 172799.85
 STEP:  12 TIME =     0.01 SECS, INTEGRAL =      0.16 TIME LEFT: 172799.84
 STEP:  13 TIME =     0.01 SECS, INTEGRAL =      0.18 TIME LEFT: 172799.82
 STEP:  14 TIME =     0.02 SECS, INTEGRAL =      0.19 TIME LEFT: 172799.81
 STEP:  15 TIME =     0.01 SECS, INTEGRAL =      0.20 TIME LEFT: 172799.80
 STEP:  16 TIME =     0.02 SECS, INTEGRAL =      0.22 TIME LEFT: 172799.78
 STEP:  17 TIME =     0.01 SECS, INTEGRAL =      0.23 TIME LEFT: 172799.77
 STEP:  18 TIME =     0.02 SECS, INTEGRAL =      0.25 TIME LEFT: 172799.75
 STEP:  19 TIME =     0.01 SECS, INTEGRAL =      0.26 TIME LEFT: 172799.74
 STEP:  20 TIME =     0.02 SECS, INTEGRAL =      0.27 TIME LEFT: 172799.73
 STEP:  21 TIME =     0.01 SECS, INTEGRAL =      0.29 TIME LEFT: 172799.71
 STEP:  22 TIME =     0.02 SECS, INTEGRAL =      0.30 TIME LEFT: 172799.70
 STEP:  23 TIME =     0.02 SECS, INTEGRAL =      0.32 TIME LEFT: 172799.68
 STEP:  24 TIME =     0.01 SECS, INTEGRAL =      0.33 TIME LEFT: 172799.67
 STEP:  25 TIME =     0.02 SECS, INTEGRAL =      0.34 TIME LEFT: 172799.66
 STEP:  26 TIME =     0.01 SECS, INTEGRAL =      0.36 TIME LEFT: 172799.64
 STEP:  27 TIME =     0.02 SECS, INTEGRAL =      0.37 TIME LEFT: 172799.63
 STEP:  28 TIME =     0.01 SECS, INTEGRAL =      0.38 TIME LEFT: 172799.62
 STEP:  29 TIME =     0.02 SECS, INTEGRAL =      0.40 TIME LEFT: 172799.60
 STEP:  30 TIME =     0.02 SECS, INTEGRAL =      0.41 TIME LEFT: 172799.59
 STEP:  31 TIME =     0.01 SECS, INTEGRAL =      0.43 TIME LEFT: 172799.57
 STEP:  32 TIME =     0.02 SECS, INTEGRAL =      0.44 TIME LEFT: 172799.56
 STEP:  33 TIME =     0.01 SECS, INTEGRAL =      0.45 TIME LEFT: 172799.55
 STEP:  34 TIME =     0.02 SECS, INTEGRAL =      0.47 TIME LEFT: 172799.53
 STEP:  35 TIME =     0.02 SECS, INTEGRAL =      0.48 TIME LEFT: 172799.52
 STEP:  36 TIME =     0.01 SECS, INTEGRAL =      0.50 TIME LEFT: 172799.50
 STEP:  37 TIME =     0.02 SECS, INTEGRAL =      0.51 TIME LEFT: 172799.49
 STEP:  38 TIME =     0.01 SECS, INTEGRAL =      0.52 TIME LEFT: 172799.48
 STEP:  39 TIME =     0.02 SECS, INTEGRAL =      0.54 TIME LEFT: 172799.46
 STEP:  40 TIME =     0.01 SECS, INTEGRAL =      0.55 TIME LEFT: 172799.45
 STEP:  41 TIME =     0.02 SECS, INTEGRAL =      0.57 TIME LEFT: 172799.43
 STEP:  42 TIME =     0.01 SECS, INTEGRAL =      0.58 TIME LEFT: 172799.42
 STEP:  43 TIME =     0.02 SECS, INTEGRAL =      0.59 TIME LEFT: 172799.41
 STEP:  44 TIME =     0.02 SECS, INTEGRAL =      0.61 TIME LEFT: 172799.39
 STEP:  45 TIME =     0.01 SECS, INTEGRAL =      0.62 TIME LEFT: 172799.38
 STEP:  46 TIME =     0.01 SECS, INTEGRAL =      0.63 TIME LEFT: 172799.37
 STEP:  47 TIME =     0.01 SECS, INTEGRAL =      0.64 TIME LEFT: 172799.36
 STEP:  48 TIME =     0.02 SECS, INTEGRAL =      0.66 TIME LEFT: 172799.34
 STEP:  49 TIME =     0.01 SECS, INTEGRAL =      0.67 TIME LEFT: 172799.33
 STEP:  50 TIME =     0.02 SECS, INTEGRAL =      0.69 TIME LEFT: 172799.31
 STEP:  51 TIME =     0.01 SECS, INTEGRAL =      0.70 TIME LEFT: 172799.30
 STEP:  52 TIME =     0.02 SECS, INTEGRAL =      0.71 TIME LEFT: 172799.29
 STEP:  53 TIME =     0.02 SECS, INTEGRAL =      0.73 TIME LEFT: 172799.27
 STEP:  54 TIME =     0.01 SECS, INTEGRAL =      0.74 TIME LEFT: 172799.26
 STEP:  55 TIME =     0.02 SECS, INTEGRAL =      0.76 TIME LEFT: 172799.24
 STEP:  56 TIME =     0.01 SECS, INTEGRAL =      0.77 TIME LEFT: 172799.23
 STEP:  57 TIME =     0.02 SECS, INTEGRAL =      0.79 TIME LEFT: 172799.21

(To convert to Hartree/Bohr^2, multiply by (10^(-21) x N x a0^2)/(4.184 x 627.51) =  0.0642)


           FORCE MATRIX IN MILLIDYNES/ANGSTROM


                  C  1       C  2       C  3       C  4       C  5       C  6
 ------------------------------------------------------------------------------
     C    1  15.582266
     C    2   4.858761  15.412370
     C    3   4.828779   5.131937  15.399073
     C    4   4.573624   0.545438   0.546645  14.547948
     C    5   0.673963   0.052384   0.020829   4.109718  14.679260
     C    6   0.055278   0.009880   0.002332   0.698601   4.964201  18.194291
     C    7   0.010267   0.002492   0.001617   0.042080   0.834663  11.086794
     H    8   4.554681   0.438374   0.439446   0.423136   0.027412   0.001937
     H    9   0.454646   4.847907   0.459925   0.042812   0.008191   0.002076
     H   10   0.464791   4.817007   0.461567   0.024007   0.004012   0.001453
     H   11   0.465396   0.461722   4.815692   0.023672   0.004440   0.001156
     H   12   0.453747   0.460230   4.848302   0.044111   0.002785   0.000779
     H   13   0.429012   0.013182   0.048346   4.448680   0.449353   0.032263
     H   14   0.453145   0.027002   0.023632   4.446666   0.440862   0.021657
     H   15   0.025138   0.002651   0.004586   0.440394   4.441659   0.459180
     H   16   0.028540   0.001599   0.002488   0.452907   4.413460   0.410522
     H   17   0.002413   0.000794   0.000783   0.028156   0.431959   4.783930
     H   18   0.003075   0.000841   0.000631   0.016774   0.135127   0.462685
     H   19   0.002183   0.000531   0.000506   0.010152   0.097092   0.490720


                  C  7       H  8       H  9       H 10       H 11       H 12
 ------------------------------------------------------------------------------
     C    7  18.044321
     H    8   0.001147   5.083531
     H    9   0.000649   0.020431   5.454321
     H   10   0.000560   0.037791   0.496131   5.428606
     H   11   0.000639   0.038144   0.042170   0.021415   5.426738
     H   12   0.000448   0.020429   0.020608   0.042152   0.495531   5.454980
     H   13   0.002251   0.025877   0.002279   0.002303   0.004123   0.007910
     H   14   0.002262   0.039509   0.001242   0.016359   0.016475   0.001666
     H   15   0.047022   0.002151   0.000392   0.000398   0.004446   0.000606
     H   16   0.033731   0.021804   0.000493   0.000454   0.000575   0.000346
     H   17   0.454471   0.000828   0.000131   0.000178   0.000313   0.000230
     H   18   5.108108   0.000313   0.000247   0.000176   0.000223   0.000167
     H   19   5.072386   0.000277   0.000197   0.000172   0.000299   0.000185


                  H 13       H 14       H 15       H 16       H 17       H 18
 ------------------------------------------------------------------------------
     H   13   5.055647
     H   14   0.565688   5.057932
     H   15   0.045746   0.024633   5.049552
     H   16   0.023171   0.045983   0.562963   5.015881
     H   17   0.022279   0.002590   0.039305   0.018135   5.158297
     H   18   0.000535   0.000699   0.002942   0.017007   0.078835   5.496974
     H   19   0.000436   0.000475   0.028867   0.011578   0.118572   0.423037


                  H 19
 ------------------
     H   19   5.468139


          HEAT OF FORMATION =      22.945281 KCALS/MOLE

          ZERO POINT ENERGY     106.336 KCAL/MOL


           NORMAL COORDINATE ANALYSIS (Total motion = 1 Angstrom)


   Root No.       1         2         3         4         5         6         7         8

                 1 A       2 A       3 A       4 A       5 A       6 A       7 A       8 A   

                  56.6      80.3      87.3     191.3     327.3     373.9     433.1     485.8
  
           1   -0.0031    0.0071    0.0035   -0.0007   -0.0075    0.0388    0.0052   -0.0170
           2    0.0169   -0.0261   -0.0070   -0.0083   -0.0279   -0.0216   -0.0172    0.0169
           3   -0.0066    0.0047   -0.0068   -0.0227   -0.0004   -0.0151    0.0539    0.0013
           4   -0.0030    0.0071    0.0037   -0.0021   -0.0098    0.0461    0.0093   -0.0246
           5   -0.0310    0.0110   -0.0014    0.0100   -0.0071    0.0179    0.0003   -0.0071
           6    0.0276   -0.0089   -0.0276    0.0426    0.0041    0.0321   -0.0032   -0.0118
           7    0.0383   -0.0251   -0.0013   -0.0174   -0.0309    0.0117   -0.0078   -0.0010
           8   -0.0073   -0.0074   -0.0043    0.0015   -0.0174   -0.0048   -0.0101    0.0087
           9    0.0251    0.0227    0.0267   -0.0153   -0.0357    0.0009   -0.0170    0.0055
          10    0.0128    0.0044   -0.0079    0.0226   -0.0012   -0.0173    0.0217    0.0267
          11    0.0486   -0.0184    0.0270   -0.0102    0.0227   -0.0088    0.0247   -0.0243
          12   -0.0273    0.0035   -0.0116   -0.0370   -0.0149    0.0083    0.0207   -0.0083
          13    0.0009    0.0307   -0.0147    0.0216    0.0011   -0.0284    0.0063    0.0293
          14    0.0186    0.0479    0.0111   -0.0089    0.0284   -0.0022   -0.0118   -0.0181
          15   -0.0180   -0.0271    0.0178   -0.0088    0.0310    0.0184   -0.0171    0.0196
          16   -0.0040    0.0016   -0.0266   -0.0293    0.0364   -0.0200   -0.0177    0.0050
          17   -0.0097    0.0095   -0.0097   -0.0046    0.0166    0.0316    0.0030    0.0488
          18   -0.0041    0.0061    0.0329    0.0231    0.0179   -0.0065   -0.0139    0.0155
          19   -0.0424   -0.0245    0.0406    0.0055    0.0132   -0.0264   -0.0170   -0.0173
          20   -0.0346   -0.0182   -0.0159    0.0153   -0.0170   -0.0058    0.0060   -0.0074
          21    0.0023   -0.0005   -0.0284    0.0143    0.0059   -0.0406   -0.0146   -0.0228
          22   -0.0324    0.0222    0.0168   -0.0276   -0.0099    0.0522    0.0218   -0.0350
          23    0.0232   -0.0557   -0.0395   -0.0026   -0.0354   -0.0353   -0.0242    0.0357
          24   -0.0211    0.0038   -0.0097   -0.0354   -0.0051   -0.0105    0.0577   -0.0028
          25   -0.0335    0.0232    0.0177   -0.0412   -0.0125    0.0142    0.0558   -0.0118
          26   -0.0584    0.0077   -0.0296    0.0340    0.0308    0.0365    0.0497   -0.0261
          27    0.0363   -0.0199   -0.0463    0.0754    0.0195    0.0594   -0.0140   -0.0273
          28    0.0068    0.0073   -0.0080    0.0446    0.0020    0.0994   -0.0269   -0.0530
          29   -0.0388    0.0420    0.0308   -0.0001   -0.0275    0.0362   -0.0330   -0.0150
          30    0.0364   -0.0197   -0.0460    0.0750    0.0188    0.0594   -0.0138   -0.0274
          31    0.0798   -0.0500   -0.0157    0.0133   -0.0478    0.0271   -0.0713    0.0052
          32    0.0028    0.0095    0.0264   -0.0185   -0.0503   -0.0150   -0.0489    0.0240
          33    0.0323    0.0345    0.0482   -0.0294   -0.0599   -0.0064   -0.0458    0.0170
          34    0.0381   -0.0328    0.0085   -0.0645   -0.0396   -0.0374    0.0372    0.0166
          35   -0.0174   -0.0245   -0.0349    0.0215    0.0160    0.0063    0.0304   -0.0077
          36    0.0322    0.0347    0.0483   -0.0298   -0.0602   -0.0071   -0.0466    0.0177
          37    0.0358   -0.0455    0.0032    0.0286    0.0014   -0.0355    0.0548    0.0421
          38    0.0492   -0.0183    0.0277   -0.0092    0.0250   -0.0087    0.0273   -0.0250
          39   -0.0652    0.0270   -0.0455   -0.0534   -0.0787    0.0127   -0.0453    0.0102
          40    0.0124    0.0311   -0.0213    0.0214   -0.0103   -0.0370    0.0416    0.0291
          41    0.0908   -0.0627    0.0605    0.0074    0.0759   -0.0197    0.0917   -0.0322
          42   -0.0126    0.0039   -0.0079   -0.0309   -0.0027   -0.0062    0.0544   -0.0090
          43   -0.0232    0.0840   -0.0275    0.0315   -0.0111   -0.0372   -0.0144    0.0304
          44    0.0195    0.0495    0.0116   -0.0085    0.0275   -0.0053   -0.0118   -0.0229
          45   -0.0284   -0.0948    0.0098   -0.0149    0.0468    0.0586   -0.0034    0.0959
          46    0.0167    0.0186    0.0075    0.0470    0.0094   -0.0331    0.0043    0.0400
          47    0.0147    0.1295    0.0100    0.0006    0.0074   -0.0416   -0.0328   -0.0855
          48   -0.0096   -0.0050    0.0307    0.0106    0.0281    0.0012   -0.0254    0.0036
          49    0.0251    0.0004   -0.0898   -0.1011    0.1018   -0.0038   -0.0683   -0.0127
          50   -0.0101    0.0041   -0.0217   -0.0117    0.0198    0.0312   -0.0018    0.0435
          51    0.0011    0.0374    0.0953    0.0579    0.0020   -0.0102    0.0084    0.0318
          52   -0.0466   -0.0455    0.0384   -0.0364    0.0650    0.0100   -0.0683   -0.0204
          53   -0.0566   -0.0472   -0.0324    0.0276   -0.0481   -0.0549    0.0006   -0.1000
          54    0.0139    0.0246   -0.0204    0.0360   -0.0144   -0.0450    0.0197    0.0151
          55   -0.0728   -0.0266    0.1038    0.0804   -0.0622   -0.0716    0.0343   -0.0440
          56   -0.0351   -0.0142   -0.0049    0.0225   -0.0214   -0.0036    0.0129    0.0022
          57   -0.0032   -0.0315   -0.0920   -0.0157    0.0138   -0.0762   -0.0511   -0.1146


   Root No.       9        10        11        12        13        14        15        16

                 9 A      10 A      11 A      12 A      13 A      14 A      15 A      16 A   

                 627.9     798.4     820.6     872.8     899.0     919.7     934.2     957.3
  
           1   -0.0015   -0.0023   -0.0024   -0.0025   -0.0170   -0.0006    0.0072   -0.0027
           2    0.0022   -0.0016   -0.0017   -0.0044   -0.0163    0.0040   -0.0011   -0.0137
           3    0.0146   -0.0025   -0.0030    0.0047    0.0163    0.0031   -0.0011    0.0039
           4   -0.0011   -0.0028    0.0017    0.0139   -0.0096    0.0070   -0.0084   -0.0167
           5    0.0011    0.0054    0.0072    0.0041    0.0255   -0.0011   -0.0041    0.0076
           6   -0.0006    0.0004   -0.0021    0.0115    0.0141    0.0091   -0.0050   -0.0099
           7    0.0035    0.0076    0.0092   -0.0010    0.0294   -0.0023   -0.0021    0.0092
           8    0.0025    0.0059    0.0028   -0.0117    0.0087   -0.0063    0.0096    0.0116
           9    0.0012   -0.0009   -0.0025   -0.0062    0.0176    0.0087   -0.0048   -0.0099
          10    0.0198   -0.0112   -0.0077   -0.0007   -0.0145    0.0066    0.0120   -0.0060
          11   -0.0085   -0.0243   -0.0120   -0.0060   -0.0272    0.0110   -0.0106   -0.0048
          12   -0.0050    0.0105   -0.0125   -0.0056   -0.0293   -0.0170    0.0078    0.0112
          13    0.0079   -0.0077   -0.0067   -0.0026   -0.0032   -0.0090    0.0065    0.0059
          14   -0.0101   -0.0188   -0.0020    0.0111    0.0145   -0.0102    0.0169    0.0055
          15   -0.0044    0.0154    0.0055   -0.0022   -0.0037    0.0086    0.0207   -0.0194
          16   -0.0483    0.0079    0.0039   -0.0003    0.0032   -0.0165   -0.0176   -0.0115
          17   -0.0020    0.0064    0.0012   -0.0016   -0.0000   -0.0036    0.0008   -0.0045
          18    0.0214   -0.0041   -0.0012   -0.0005    0.0004    0.0097   -0.0003    0.0114
          19   -0.0016   -0.0001    0.0012   -0.0007    0.0011   -0.0011   -0.0219   -0.0010
          20    0.0063    0.0043    0.0001   -0.0034   -0.0068    0.0063   -0.0235    0.0053
          21   -0.0133   -0.0017    0.0006   -0.0010   -0.0004    0.0040   -0.0296    0.0168
          22   -0.0061    0.0024   -0.0210   -0.0706   -0.0151   -0.0286    0.0252    0.0641
          23    0.0083    0.0226   -0.0029    0.1142   -0.0534    0.0006   -0.0075   -0.0667
          24    0.0129    0.0080   -0.0151    0.0036    0.0021   -0.0147    0.0078    0.0252
          25    0.0198   -0.0002    0.0063    0.1663    0.0627    0.0627   -0.0470   -0.0518
          26    0.0127   -0.0257    0.1821    0.1026    0.0178    0.0063   -0.0265    0.0287
          27   -0.0094   -0.0133    0.0632   -0.0503   -0.0349   -0.0243    0.0114    0.0212
          28   -0.0230   -0.0041    0.0019   -0.1108   -0.0505   -0.0418    0.0074    0.0154
          29   -0.0141    0.0370   -0.1590   -0.0490    0.0794    0.0030   -0.0199   -0.0205
          30   -0.0091   -0.0127    0.0616   -0.0506   -0.0332   -0.0242    0.0112    0.0212
          31   -0.0131    0.0676   -0.1232    0.1171    0.0350   -0.0309    0.0058    0.1145
          32   -0.0010    0.0076    0.0940    0.0424   -0.0757   -0.0470    0.0296    0.0524
          33   -0.0014    0.0001    0.0669    0.0353   -0.0461   -0.0221    0.0104    0.0213
          34    0.0265   -0.0309    0.1593   -0.1388    0.1492    0.0092   -0.0174   -0.0204
          35    0.0066    0.0066   -0.0884   -0.0643    0.0972    0.0337   -0.0105   -0.0281
          36   -0.0016   -0.0014    0.0680    0.0341   -0.0486   -0.0215    0.0101    0.0199
          37    0.0444    0.0923    0.0024   -0.0245   -0.0610   -0.0079    0.0303   -0.0455
          38   -0.0074   -0.0184   -0.0110   -0.0043   -0.0249    0.0077   -0.0094   -0.0027
          39   -0.0195   -0.1204   -0.0364   -0.0311   -0.0975    0.0562   -0.0185   -0.0467
          40    0.0295   -0.0594   -0.0286    0.0083   -0.0041   -0.0064    0.0139    0.0553
          41    0.0133    0.1351    0.0112    0.0041   -0.0069   -0.0584    0.0183    0.0221
          42    0.0080    0.0333   -0.0170    0.0034   -0.0163   -0.0473    0.0186    0.0565
          43    0.0496    0.1025    0.0218   -0.0224   -0.0048   -0.0151    0.0377   -0.0440
          44   -0.0072   -0.0138   -0.0011    0.0093    0.0107   -0.0062    0.0136    0.0041
          45   -0.0686   -0.0904   -0.0149    0.0300    0.0544   -0.0578    0.0707    0.0103
          46    0.0470   -0.0564   -0.0164   -0.0038   -0.0002    0.0383    0.0266    0.0168
          47    0.0603    0.1259    0.0300   -0.0235   -0.0339    0.0425   -0.0003   -0.0504
          48    0.0429    0.0337    0.0101   -0.0144   -0.0182    0.0554    0.0273   -0.0317
          49    0.0170    0.0156    0.0141   -0.0006    0.0063    0.1472    0.1273    0.0673
          50    0.0098    0.0110    0.0027   -0.0047   -0.0052    0.0254    0.0077    0.0095
          51   -0.0384   -0.0303   -0.0094    0.0175    0.0292   -0.1391   -0.0179   -0.0633
          52    0.2252   -0.0353   -0.0174   -0.0018   -0.0078   -0.0184   -0.0773    0.0590
          53    0.0327   -0.0275   -0.0071    0.0204    0.0244   -0.0332    0.1768   -0.0499
          54   -0.1688    0.0327    0.0154   -0.0094   -0.0062    0.0300   -0.0733    0.0008
          55   -0.1613    0.0064    0.0105    0.0092    0.0155    0.0799    0.1580    0.0406
          56   -0.0134    0.0096    0.0019   -0.0059   -0.0108    0.0237   -0.0280    0.0190
          57    0.0866   -0.0426   -0.0108    0.0233    0.0371   -0.1043    0.0871   -0.0817


   Root No.      17        18        19        20        21        22        23        24

                17 A      18 A      19 A      20 A      21 A      22 A      23 A      24 A   

                 967.0    1008.9    1032.9    1049.9    1098.1    1118.0    1127.3    1142.4
  
           1   -0.0161    0.0159   -0.0253   -0.0083   -0.0178    0.0043   -0.0057    0.0340
           2    0.0054    0.0084    0.0025    0.0095    0.0331   -0.0054    0.0138   -0.0397
           3    0.0028   -0.0082    0.0009   -0.0025    0.0007   -0.0006   -0.0046   -0.0073
           4    0.0195    0.0054   -0.0030    0.0046    0.0229   -0.0066    0.0048   -0.0302
           5    0.0035   -0.0085    0.0076   -0.0000   -0.0032   -0.0026   -0.0028   -0.0150
           6   -0.0048    0.0085   -0.0103   -0.0053   -0.0229    0.0272    0.0160   -0.0198
           7   -0.0021   -0.0038   -0.0008   -0.0024    0.0004   -0.0024   -0.0093   -0.0097
           8   -0.0244    0.0111   -0.0238   -0.0090   -0.0144    0.0017   -0.0065    0.0197
           9   -0.0063    0.0094   -0.0007    0.0050    0.0301   -0.0246   -0.0108    0.0237
          10   -0.0049   -0.0041    0.0026    0.0015   -0.0358   -0.0300   -0.0059    0.0013
          11   -0.0098   -0.0068    0.0174   -0.0024   -0.0042    0.0245   -0.0254    0.0027
          12    0.0041    0.0011    0.0006    0.0028    0.0001    0.0083    0.0079    0.0151
          13    0.0022    0.0002    0.0026   -0.0021    0.0237    0.0351   -0.0031    0.0148
          14    0.0083    0.0062   -0.0106    0.0073   -0.0062   -0.0142    0.0213    0.0108
          15   -0.0137   -0.0154    0.0062   -0.0219   -0.0097   -0.0099   -0.0121   -0.0030
          16   -0.0064    0.0043    0.0119   -0.0262    0.0013   -0.0076    0.0040   -0.0057
          17    0.0002    0.0024    0.0070    0.0014    0.0019   -0.0009   -0.0022   -0.0084
          18    0.0092    0.0022   -0.0052    0.0250    0.0004    0.0046   -0.0056   -0.0027
          19   -0.0034   -0.0182   -0.0188    0.0314   -0.0003    0.0035   -0.0019    0.0012
          20   -0.0015   -0.0037   -0.0058    0.0026   -0.0033   -0.0039    0.0061    0.0028
          21    0.0097    0.0219    0.0065   -0.0131   -0.0017   -0.0041    0.0026   -0.0008
          22   -0.0880    0.0117   -0.0148    0.0078    0.0565    0.0315    0.0574   -0.0745
          23    0.1662   -0.0184   -0.0761   -0.0571    0.0115   -0.0181   -0.0457    0.1440
          24    0.0140   -0.0200   -0.0180   -0.0151    0.0366    0.0120    0.0133   -0.0081
          25   -0.0188    0.0218    0.0175    0.0101   -0.0106    0.0464    0.0378   -0.0250
          26   -0.0269   -0.0373    0.1070    0.0394    0.0666   -0.0414   -0.0241    0.1040
          27    0.0082   -0.0130    0.0135    0.0059    0.0253   -0.0211   -0.0131    0.0210
          28    0.1139   -0.0629    0.0564    0.0138    0.0530   -0.0409   -0.0216    0.0337
          29    0.1294   -0.0715    0.0566   -0.0126   -0.0904    0.0771    0.0281    0.0133
          30    0.0098   -0.0124    0.0103    0.0055    0.0294   -0.0236   -0.0118    0.0108
          31   -0.0736   -0.0727    0.1162    0.0310   -0.0153   -0.0156    0.0008    0.0639
          32    0.0016   -0.0201   -0.0302   -0.0276   -0.0910    0.0664    0.0198   -0.0367
          33    0.0126   -0.0144   -0.0050   -0.0090   -0.0271    0.0235    0.0087   -0.0167
          34    0.0531   -0.0282    0.0335   -0.0082   -0.0915    0.0506    0.0443    0.0438
          35   -0.0495    0.0445   -0.0258    0.0067    0.0646   -0.0654   -0.0366    0.0806
          36    0.0131   -0.0156    0.0003   -0.0069   -0.0278    0.0251    0.0117   -0.0218
          37    0.0076    0.0526    0.0643    0.1068   -0.0512   -0.0663    0.1607    0.0465
          38   -0.0075   -0.0068    0.0133   -0.0049   -0.0022    0.0251   -0.0282    0.0018
          39   -0.0394   -0.0006    0.0923    0.0500   -0.0559    0.0214    0.0292    0.0430
          40    0.0278   -0.0639   -0.0244   -0.0276   -0.0504   -0.1265   -0.0873   -0.1256
          41    0.0325    0.0238   -0.0205    0.0118    0.0389    0.0271    0.0388    0.0274
          42    0.0375   -0.0251   -0.0279   -0.0102    0.0056   -0.0476   -0.0176   -0.0506
          43   -0.0062    0.0417    0.0510    0.0462    0.0456    0.1283   -0.1468   -0.0344
          44    0.0059    0.0022   -0.0104    0.0023   -0.0082   -0.0191    0.0262    0.0118
          45    0.0309    0.0403   -0.0066    0.0453    0.0208    0.0429   -0.0258    0.0110
          46   -0.0218   -0.1052   -0.0286   -0.1010    0.1279    0.0517    0.1383    0.0380
          47   -0.0369   -0.0248    0.0226   -0.0366   -0.0387   -0.0402   -0.0290   -0.0215
          48   -0.0438   -0.0918   -0.0016   -0.0991    0.0433   -0.0094    0.0572   -0.0003
          49    0.0529    0.0100   -0.0238    0.1080   -0.0027   -0.0046    0.0194   -0.0163
          50    0.0048   -0.0034   -0.0010    0.0075    0.0047    0.0084   -0.0105   -0.0023
          51   -0.0120    0.0339    0.0384    0.0031   -0.0178   -0.0518    0.0475   -0.0382
          52    0.0396    0.1117    0.0550   -0.0891   -0.0012   -0.0068    0.0067   -0.0005
          53   -0.0087   -0.0057    0.0302   -0.0288    0.0044   -0.0031    0.0002   -0.0031
          54   -0.0142   -0.0589   -0.0547    0.0778   -0.0042    0.0020   -0.0007    0.0016
          55    0.0464    0.0868    0.0644   -0.0780    0.0067   -0.0048   -0.0054   -0.0163
          56    0.0055    0.0102    0.0014   -0.0136   -0.0046   -0.0076    0.0095    0.0036
          57   -0.0303   -0.0553   -0.0186    0.0707    0.0083    0.0155   -0.0182   -0.0126


   Root No.      25        26        27        28        29        30        31        32

                25 A      26 A      27 A      28 A      29 A      30 A      31 A      32 A   

                1165.3    1173.5    1178.4    1182.8    1210.1    1243.5    1286.7    1329.4
  
           1   -0.0143   -0.0033    0.0132   -0.0025    0.0042   -0.0009   -0.0086   -0.0031
           2   -0.0347   -0.0078   -0.0073    0.0097   -0.0107   -0.0218    0.0011   -0.0081
           3    0.0303    0.0114    0.0149    0.0325   -0.0129   -0.0241   -0.0298    0.0122
           4   -0.0064    0.0361   -0.0008   -0.0037   -0.0022   -0.0093   -0.0130    0.0085
           5    0.0399    0.0469   -0.0111   -0.0159    0.0042    0.0144    0.0193   -0.0078
           6   -0.0116   -0.0074   -0.0003   -0.0039    0.0024    0.0086    0.0070   -0.0013
           7    0.0594   -0.0382   -0.0227   -0.0028    0.0012    0.0087    0.0096   -0.0026
           8   -0.0042   -0.0150    0.0095    0.0028    0.0018   -0.0059   -0.0234    0.0132
           9   -0.0075    0.0008    0.0016   -0.0052    0.0026    0.0067    0.0071   -0.0026
          10   -0.0035    0.0027   -0.0089    0.0149   -0.0107   -0.0239    0.0128   -0.0267
          11    0.0059    0.0018    0.0096   -0.0093    0.0068    0.0080    0.0033    0.0020
          12   -0.0115   -0.0043   -0.0246   -0.0347    0.0025   -0.0112    0.0096   -0.0160
          13   -0.0008    0.0033   -0.0134   -0.0146   -0.0165   -0.0122    0.0248    0.0044
          14   -0.0042    0.0066   -0.0334    0.0240    0.0078   -0.0018    0.0006    0.0007
          15   -0.0080    0.0037   -0.0183    0.0132    0.0024   -0.0107    0.0174    0.0017
          16    0.0017   -0.0018    0.0066   -0.0034   -0.0094    0.0092   -0.0041    0.0127
          17    0.0040   -0.0060    0.0235   -0.0197   -0.0292    0.0206   -0.0180   -0.0054
          18    0.0002   -0.0029    0.0092   -0.0144   -0.0298    0.0133   -0.0019    0.0170
          19   -0.0008    0.0008   -0.0026    0.0019   -0.0022    0.0030   -0.0012    0.0067
          20    0.0027   -0.0004    0.0039    0.0033    0.0235   -0.0171    0.0077   -0.0102
          21    0.0001    0.0007   -0.0016    0.0056    0.0041    0.0022   -0.0019    0.0076
          22   -0.0633   -0.0379    0.1169    0.1419   -0.0225    0.1028    0.1165   -0.0329
          23    0.0119    0.0477    0.1041    0.0463    0.0140    0.0882    0.0561   -0.0106
          24    0.0175    0.0100    0.1120    0.1288   -0.0205    0.0716    0.0600   -0.0055
          25   -0.1068   -0.1018   -0.0013   -0.0034    0.0041   -0.0000   -0.0252    0.0377
          26   -0.0493   -0.1564   -0.0073    0.0155   -0.0019    0.0034    0.0299   -0.0302
          27    0.0190    0.0039    0.0029    0.0091   -0.0041   -0.0017    0.0155   -0.0243
          28   -0.0177   -0.0573    0.0186    0.0551   -0.0215   -0.0560   -0.0735    0.0506
          29   -0.0248   -0.1576   -0.0064    0.0378   -0.0116   -0.0160    0.0097   -0.0233
          30    0.0056    0.0086    0.0109    0.0151   -0.0049   -0.0098   -0.0249    0.0275
          31   -0.0897    0.1458    0.0586    0.0117   -0.0044   -0.0270   -0.0317    0.0093
          32    0.0153   -0.0215    0.0199    0.0291   -0.0063   -0.0240   -0.0720    0.0611
          33    0.0074   -0.0031    0.0103    0.0154   -0.0037   -0.0061   -0.0257    0.0290
          34   -0.1617    0.1199    0.0462   -0.0361    0.0140    0.0150    0.0107   -0.0047
          35   -0.0302   -0.0219    0.0111   -0.0158    0.0109    0.0056   -0.0395    0.0485
          36    0.0114    0.0065    0.0018    0.0100   -0.0044   -0.0022    0.0159   -0.0247
          37    0.0541    0.0036   -0.0468    0.0390    0.0481    0.1171   -0.0399    0.0613
          38    0.0017    0.0018    0.0087   -0.0100    0.0052    0.0040    0.0056   -0.0018
          39    0.0579    0.0099   -0.0053   -0.0114    0.0414    0.0873    0.0008    0.0275
          40   -0.1014   -0.0476   -0.0072   -0.0436    0.0962    0.1153   -0.0130    0.0455
          41   -0.0222   -0.0065   -0.0327   -0.0547    0.0047    0.0045    0.0232   -0.0154
          42   -0.0781   -0.0367   -0.0391   -0.0870    0.0655    0.0696    0.0009    0.0202
          43   -0.0115    0.0179   -0.0066    0.0608    0.1613    0.0304   -0.0497    0.0178
          44   -0.0034    0.0056   -0.0319    0.0194   -0.0029   -0.0026    0.0040   -0.0008
          45   -0.0200    0.0280   -0.0992    0.0975    0.1281   -0.0103   -0.0084   -0.0339
          46    0.0331   -0.0032   -0.0044   -0.0384    0.0894    0.0245   -0.0688   -0.0063
          47   -0.0082    0.0020   -0.0029    0.0269    0.0057   -0.0138    0.0148   -0.0412
          48    0.0108   -0.0019   -0.0037   -0.0008    0.0685    0.0061   -0.0341   -0.0226
          49    0.0405   -0.0303    0.1467   -0.0616    0.0827   -0.0777    0.0302   -0.0138
          50   -0.0058    0.0009   -0.0100   -0.0098   -0.0560    0.0396   -0.0240   -0.0000
          51    0.0609   -0.0453    0.2136   -0.0793    0.1213   -0.0943    0.0287   -0.0189
          52    0.0015    0.0016   -0.0009    0.0111    0.0160    0.0067   -0.0260   -0.0533
          53   -0.0000   -0.0054    0.0079   -0.0291   -0.0423   -0.0206    0.0840    0.1851
          54    0.0004    0.0017   -0.0014    0.0117    0.0176    0.0044   -0.0230   -0.0425
          55    0.0020   -0.0049    0.0211   -0.0140   -0.0395    0.0505   -0.0725   -0.1081
          56    0.0030   -0.0001    0.0027    0.0056    0.0304   -0.0258    0.0212    0.0134
          57    0.0011   -0.0062    0.0249   -0.0268   -0.0626    0.0657   -0.0947   -0.1530


   Root No.      33        34        35        36        37        38        39        40

                33 A      34 A      35 A      36 A      37 A      38 A      39 A      40 A   

                1375.7    1401.1    1402.9    1406.2    1431.5    1597.7    1861.8    2940.6
  
           1   -0.0165   -0.0069   -0.0115   -0.0097   -0.0158    0.1220    0.0019   -0.0008
           2   -0.0099   -0.0066   -0.0042   -0.0014   -0.0072    0.0682    0.0005   -0.0005
           3   -0.0032   -0.0058   -0.0076   -0.0049   -0.0227    0.0400    0.0013    0.0015
           4    0.0029   -0.0169    0.0102   -0.0084   -0.0134   -0.0963   -0.0005    0.0000
           5    0.0007    0.0106   -0.0020    0.0060    0.0128    0.0539    0.0002   -0.0000
           6    0.0008    0.0010    0.0013   -0.0004    0.0022   -0.0031   -0.0000   -0.0001
           7    0.0020    0.0026    0.0011    0.0025    0.0045   -0.0019   -0.0000   -0.0001
           8    0.0006    0.0144   -0.0190    0.0001   -0.0193   -0.1093   -0.0005   -0.0000
           9    0.0004    0.0008    0.0009    0.0011    0.0029   -0.0032   -0.0000   -0.0001
          10   -0.0063   -0.0115   -0.0042    0.0335    0.0335   -0.0325   -0.0022    0.0072
          11   -0.0040    0.0103    0.0068   -0.0185    0.0091   -0.0138   -0.0008    0.0181
          12   -0.0141    0.0087    0.0077   -0.0096    0.0343   -0.0307   -0.0025   -0.0112
          13    0.0292    0.0174    0.0124   -0.0266   -0.0300    0.0040   -0.0229   -0.0123
          14   -0.0096    0.0051    0.0123    0.0183   -0.0061   -0.0007   -0.0027   -0.0287
          15    0.0041    0.0194    0.0279    0.0119   -0.0296    0.0009   -0.0317    0.0182
          16   -0.0066   -0.0065   -0.0073    0.0014    0.0067    0.0002    0.1280    0.0001
          17   -0.0043   -0.0070   -0.0090   -0.0013    0.0102    0.0006   -0.1094    0.0014
          18   -0.0067   -0.0085   -0.0110   -0.0021    0.0107   -0.0007    0.1631    0.0004
          19   -0.0039   -0.0046   -0.0055    0.0003    0.0058    0.0006   -0.1016   -0.0001
          20    0.0064    0.0078    0.0095    0.0001   -0.0095   -0.0007    0.1206   -0.0001
          21   -0.0053   -0.0056   -0.0063    0.0015    0.0069    0.0008   -0.1240   -0.0001
          22    0.0107    0.0059    0.0142    0.0173    0.0338   -0.0307    0.0002    0.0109
          23    0.0044    0.0100    0.0057    0.0018    0.0174   -0.0158    0.0000    0.0069
          24    0.0178    0.0072    0.0107    0.0120    0.0145   -0.0820   -0.0001   -0.0177
          25    0.0597    0.1153   -0.0288    0.0560    0.0659    0.0105   -0.0003    0.0001
          26   -0.0354   -0.0619    0.0162   -0.0300   -0.0296   -0.0202   -0.0000   -0.0001
          27   -0.0430   -0.0980    0.0293   -0.0490   -0.0576   -0.0914   -0.0002    0.0002
          28    0.0551    0.1092   -0.0374    0.0549    0.0470    0.0363    0.0000   -0.0007
          29   -0.0374   -0.0661    0.0135   -0.0329   -0.0400   -0.0107    0.0002    0.0004
          30    0.0424    0.0972   -0.0311    0.0483    0.0532    0.0984    0.0004    0.0007
          31   -0.0048   -0.0057   -0.0030   -0.0059   -0.0117    0.0100    0.0002    0.0002
          32    0.0758   -0.0647    0.1210   -0.0056    0.0633    0.0366    0.0001   -0.0003
          33    0.0490   -0.0511    0.0923   -0.0035    0.0564    0.0974    0.0004    0.0001
          34   -0.0005   -0.0011    0.0044   -0.0010    0.0074   -0.0118   -0.0004   -0.0002
          35    0.0778   -0.0610    0.1239    0.0004    0.0764    0.0187   -0.0003   -0.0003
          36   -0.0500    0.0504   -0.0930    0.0006   -0.0608   -0.0905   -0.0002   -0.0003
          37   -0.0270    0.0612    0.0407   -0.1187   -0.0202    0.0047   -0.0033   -0.0035
          38   -0.0006    0.0042    0.0025   -0.0062    0.0086   -0.0120   -0.0013   -0.1698
          39    0.1006   -0.0679   -0.0480    0.1439   -0.0821   -0.0015   -0.0015   -0.0069
          40    0.0040    0.0166    0.0104   -0.0464   -0.0526    0.0443   -0.0019   -0.0827
          41    0.0885   -0.0888   -0.0626    0.1787   -0.0608    0.0238    0.0012   -0.0489
          42    0.0329   -0.0181   -0.0139    0.0297   -0.0470    0.0301   -0.0024    0.1434
          43   -0.0953   -0.0057    0.0257    0.0973    0.0289   -0.0106    0.0283    0.0059
          44   -0.0007    0.0057    0.0098    0.0086   -0.0088   -0.0003   -0.0076    0.2614
          45    0.0799   -0.0556   -0.1092   -0.1245    0.0686   -0.0039    0.0372    0.0157
          46   -0.0518   -0.0195   -0.0124    0.0353    0.0415   -0.0066    0.0001    0.1440
          47    0.1134   -0.0432   -0.1028   -0.1505    0.0422    0.0017   -0.0078    0.0831
          48    0.0099   -0.0251   -0.0395   -0.0269    0.0359   -0.0045   -0.0125   -0.2360
          49    0.0130    0.0086    0.0079   -0.0075   -0.0093    0.0013   -0.0390    0.0006
          50   -0.0074   -0.0101   -0.0127   -0.0010    0.0140    0.0002   -0.1099   -0.0171
          51    0.0113    0.0082    0.0084   -0.0046   -0.0083    0.0015   -0.0755   -0.0012
          52    0.0112    0.0108    0.0129    0.0003   -0.0098    0.0001   -0.0549   -0.0010
          53   -0.0413   -0.0427   -0.0521   -0.0037    0.0416    0.0012   -0.0992   -0.0003
          54    0.0056    0.0061    0.0083    0.0033   -0.0045    0.0004   -0.1003   -0.0009
          55    0.0171    0.0177    0.0220    0.0033   -0.0154   -0.0005    0.0391   -0.0002
          56    0.0014    0.0032    0.0041    0.0004   -0.0053   -0.0006    0.1291    0.0019
          57    0.0293    0.0282    0.0333   -0.0001   -0.0251   -0.0008    0.0811   -0.0004


   Root No.      41        42        43        44        45        46        47        48

                41 A      42 A      43 A      44 A      45 A      46 A      47 A      48 A   

                2955.4    3003.7    3022.8    3029.9    3041.3    3083.2    3097.3    3134.0
  
           1    0.0013    0.0289   -0.0005    0.0005    0.0000   -0.0000    0.0013    0.0003
           2    0.0006    0.0164   -0.0004    0.0002    0.0000    0.0000    0.0007   -0.0004
           3   -0.0023   -0.0479    0.0013   -0.0013    0.0001   -0.0000   -0.0027   -0.0000
           4   -0.0000   -0.0004   -0.0000    0.0001   -0.0000   -0.0015    0.0021    0.0174
           5    0.0001    0.0006    0.0000   -0.0001    0.0000    0.0008   -0.0010   -0.0104
           6    0.0002    0.0035   -0.0001   -0.0000   -0.0000    0.0307   -0.0299    0.0022
           7    0.0002    0.0003   -0.0000    0.0001    0.0000    0.0000    0.0001    0.0002
           8   -0.0000   -0.0007   -0.0001    0.0002   -0.0000    0.0018    0.0025   -0.0228
           9    0.0002    0.0035    0.0001   -0.0003    0.0000   -0.0308   -0.0297   -0.0029
          10   -0.0115    0.0011   -0.0024    0.0132   -0.0004   -0.0002    0.0002   -0.0000
          11   -0.0289    0.0053    0.0040   -0.0202    0.0006    0.0003    0.0003    0.0001
          12    0.0180   -0.0019    0.0053   -0.0241    0.0004    0.0001    0.0002   -0.0000
          13   -0.0077    0.0002    0.0116    0.0033    0.0006    0.0000   -0.0000   -0.0000
          14   -0.0177   -0.0009   -0.0206   -0.0053   -0.0049   -0.0001   -0.0000    0.0000
          15    0.0113   -0.0010   -0.0221   -0.0054   -0.0014   -0.0000    0.0000   -0.0000
          16    0.0000   -0.0000   -0.0005    0.0002    0.0037   -0.0000   -0.0000    0.0000
          17    0.0007    0.0002    0.0038   -0.0001   -0.0634    0.0000    0.0000   -0.0000
          18    0.0003    0.0000    0.0002    0.0000   -0.0074    0.0000   -0.0000    0.0000
          19   -0.0001    0.0000    0.0001    0.0000    0.0005    0.0000   -0.0000    0.0000
          20   -0.0001   -0.0000   -0.0006   -0.0001    0.0046   -0.0000   -0.0000    0.0003
          21   -0.0001   -0.0000   -0.0001   -0.0000    0.0016    0.0000   -0.0000    0.0001
          22   -0.0179   -0.3385    0.0089   -0.0066    0.0002    0.0013   -0.0185   -0.0002
          23   -0.0106   -0.1928    0.0047   -0.0046    0.0001   -0.0023   -0.0106   -0.0001
          24    0.0262    0.5855   -0.0143    0.0135   -0.0003    0.0000    0.0271    0.0004
          25   -0.0001   -0.0123    0.0006   -0.0013    0.0000   -0.1103    0.1042   -0.1146
          26    0.0002    0.0099   -0.0004    0.0007   -0.0000    0.0635   -0.0629    0.0678
          27   -0.0003   -0.0236    0.0011   -0.0021    0.0001   -0.1703    0.1578   -0.2007
          28    0.0012    0.0101   -0.0003   -0.0012    0.0000    0.1292   -0.1289   -0.0978
          29   -0.0007   -0.0090    0.0002    0.0003   -0.0000   -0.0727    0.0755    0.0565
          30   -0.0013   -0.0217    0.0007    0.0006    0.0001   -0.2027    0.2006    0.1736
          31    0.0001   -0.0027    0.0003   -0.0002    0.0001   -0.0021    0.0004    0.0005
          32    0.0013    0.0134    0.0010   -0.0028    0.0001   -0.1496   -0.1497    0.1244
          33   -0.0012   -0.0219   -0.0011    0.0030   -0.0001    0.2048    0.2013   -0.1919
          34    0.0002    0.0023   -0.0001    0.0001    0.0000    0.0011   -0.0015   -0.0005
          35    0.0005   -0.0158   -0.0001    0.0006   -0.0000    0.1271    0.1198    0.1510
          36    0.0004   -0.0239    0.0001    0.0005   -0.0000    0.1697    0.1550    0.2271
          37    0.0002   -0.0017   -0.0046    0.0177   -0.0022   -0.0001   -0.0000    0.0001
          38    0.2714   -0.0608   -0.0806    0.3785   -0.0123   -0.0025   -0.0027   -0.0004
          39    0.0115   -0.0042    0.0020   -0.0105   -0.0007    0.0002    0.0001    0.0001
          40    0.1359   -0.0095    0.0400   -0.1800    0.0043    0.0005    0.0016    0.0001
          41    0.0749   -0.0040    0.0291   -0.1321    0.0030    0.0011    0.0011   -0.0004
          42   -0.2271    0.0229   -0.0683    0.3020   -0.0071   -0.0012   -0.0006    0.0001
          43    0.0003    0.0013    0.0218    0.0048    0.0054    0.0002    0.0001   -0.0001
          44    0.1608    0.0150    0.3742    0.0904    0.0662    0.0010    0.0006   -0.0005
          45    0.0100   -0.0002   -0.0040   -0.0015    0.0038   -0.0000    0.0000   -0.0000
          46    0.0924   -0.0075   -0.1685   -0.0414   -0.0106   -0.0002   -0.0000    0.0000
          47    0.0499   -0.0041   -0.1233   -0.0299   -0.0107   -0.0002    0.0000    0.0000
          48   -0.1465    0.0087    0.2721    0.0651    0.0142    0.0004   -0.0001   -0.0000
          49    0.0010   -0.0000    0.0016    0.0011   -0.0119   -0.0000   -0.0000    0.0000
          50   -0.0088   -0.0019   -0.0431    0.0001    0.7249   -0.0001   -0.0001   -0.0000
          51    0.0001   -0.0003   -0.0070    0.0006    0.1281   -0.0000   -0.0000    0.0000
          52   -0.0007    0.0002    0.0019   -0.0001   -0.0350   -0.0000    0.0001   -0.0004
          53   -0.0002    0.0001    0.0014   -0.0001   -0.0276   -0.0000    0.0001   -0.0002
          54   -0.0007    0.0002    0.0024   -0.0003   -0.0563   -0.0001    0.0001   -0.0006
          55   -0.0002   -0.0000   -0.0008   -0.0002   -0.0016   -0.0000   -0.0000    0.0001
          56    0.0014    0.0000    0.0029    0.0015    0.0075    0.0000    0.0001   -0.0036
          57   -0.0002   -0.0000    0.0000    0.0000   -0.0006    0.0000    0.0000   -0.0005


   Root No.      49        50        51

                49 A      50 A      51 A   

                3135.1    3135.6    3147.6
  
           1    0.0009    0.0001   -0.0000
           2    0.0006    0.0000   -0.0000
           3   -0.0004   -0.0000    0.0000
           4   -0.0200   -0.0012    0.0001
           5    0.0116    0.0007   -0.0001
           6   -0.0035   -0.0002    0.0000
           7   -0.0001   -0.0000   -0.0000
           8   -0.0207   -0.0017    0.0001
           9   -0.0034   -0.0002    0.0000
          10    0.0002    0.0000   -0.0001
          11    0.0001    0.0001    0.0000
          12   -0.0002    0.0000   -0.0000
          13   -0.0000    0.0002    0.0001
          14    0.0000    0.0002   -0.0006
          15   -0.0000    0.0004    0.0004
          16    0.0001   -0.0019    0.0034
          17   -0.0000    0.0008   -0.0089
          18    0.0001   -0.0027    0.0031
          19    0.0000   -0.0032   -0.0319
          20    0.0018   -0.0618   -0.0006
          21    0.0004   -0.0165   -0.0464
          22   -0.0022   -0.0002    0.0001
          23   -0.0012   -0.0001    0.0001
          24    0.0040    0.0003   -0.0001
          25    0.1282    0.0073   -0.0006
          26   -0.0758   -0.0043    0.0004
          27    0.2243    0.0127   -0.0011
          28    0.1020    0.0058   -0.0004
          29   -0.0582   -0.0033    0.0002
          30   -0.1829   -0.0104    0.0006
          31    0.0008    0.0000   -0.0000
          32    0.1031    0.0086   -0.0005
          33   -0.1612   -0.0133    0.0007
          34   -0.0004   -0.0001    0.0000
          35    0.1339    0.0108   -0.0007
          36    0.2013    0.0163   -0.0010
          37    0.0001   -0.0000   -0.0002
          38    0.0005   -0.0007    0.0002
          39   -0.0001   -0.0000   -0.0001
          40   -0.0019    0.0001   -0.0000
          41   -0.0012    0.0001   -0.0001
          42    0.0026   -0.0001    0.0001
          43   -0.0001    0.0010    0.0006
          44   -0.0002   -0.0051    0.0052
          45   -0.0001    0.0016    0.0007
          46   -0.0001    0.0007    0.0011
          47   -0.0001    0.0007    0.0003
          48    0.0001   -0.0009   -0.0018
          49    0.0001   -0.0026   -0.0025
          50   -0.0003    0.0152    0.0595
          51    0.0000   -0.0004    0.0085
          52   -0.0018    0.0858    0.3426
          53   -0.0007    0.0396    0.2308
          54   -0.0028    0.1324    0.5412
          55    0.0008   -0.0266   -0.0024
          56   -0.0196    0.6731   -0.1756
          57   -0.0027    0.0911   -0.0374


           MASS-WEIGHTED COORDINATE ANALYSIS (NORMAL COORDINATES)


   Root No.       1         2         3         4         5         6         7         8

                 1 A       2 A       3 A       4 A       5 A       6 A       7 A       8 A   

                  56.6      80.3      87.3     191.3     327.3     373.9     433.1     485.8
  
           1   -0.0243    0.0617    0.0306   -0.0063   -0.0654    0.3088    0.0479   -0.1483
           2    0.1348   -0.2280   -0.0611   -0.0745   -0.2432   -0.1721   -0.1571    0.1475
           3   -0.0527    0.0410   -0.0591   -0.2038   -0.0039   -0.1197    0.4937    0.0117
           4   -0.0239    0.0622    0.0318   -0.0185   -0.0854    0.3661    0.0848   -0.2140
           5   -0.2475    0.0965   -0.0126    0.0895   -0.0620    0.1423    0.0027   -0.0619
           6    0.2205   -0.0779   -0.2401    0.3820    0.0353    0.2550   -0.0290   -0.1028
           7    0.3055   -0.2194   -0.0116   -0.1560   -0.2693    0.0926   -0.0715   -0.0091
           8   -0.0586   -0.0650   -0.0376    0.0130   -0.1512   -0.0384   -0.0921    0.0759
           9    0.1999    0.1980    0.2322   -0.1372   -0.3108    0.0072   -0.1558    0.0483
          10    0.1019    0.0380   -0.0688    0.2029   -0.0107   -0.1377    0.1985    0.2326
          11    0.3875   -0.1606    0.2348   -0.0918    0.1978   -0.0700    0.2260   -0.2118
          12   -0.2181    0.0307   -0.1013   -0.3322   -0.1294    0.0658    0.1897   -0.0720
          13    0.0070    0.2679   -0.1279    0.1940    0.0098   -0.2255    0.0577    0.2553
          14    0.1485    0.4188    0.0964   -0.0803    0.2471   -0.0177   -0.1080   -0.1582
          15   -0.1437   -0.2366    0.1547   -0.0788    0.2697    0.1465   -0.1564    0.1708
          16   -0.0319    0.0140   -0.2322   -0.2629    0.3166   -0.1591   -0.1622    0.0440
          17   -0.0777    0.0831   -0.0842   -0.0411    0.1447    0.2510    0.0272    0.4257
          18   -0.0327    0.0530    0.2869    0.2076    0.1554   -0.0515   -0.1275    0.1349
          19   -0.3384   -0.2145    0.3535    0.0498    0.1145   -0.2099   -0.1556   -0.1507
          20   -0.2763   -0.1592   -0.1388    0.1377   -0.1476   -0.0459    0.0551   -0.0644
          21    0.0186   -0.0043   -0.2474    0.1282    0.0510   -0.3231   -0.1337   -0.1983
          22   -0.0749    0.0562    0.0423   -0.0717   -0.0249    0.1201    0.0577   -0.0884
          23    0.0536   -0.1409   -0.0996   -0.0067   -0.0894   -0.0813   -0.0643    0.0902
          24   -0.0487    0.0095   -0.0245   -0.0920   -0.0130   -0.0241    0.1531   -0.0072
          25   -0.0773    0.0587    0.0447   -0.1072   -0.0314    0.0327    0.1480   -0.0298
          26   -0.1350    0.0194   -0.0746    0.0882    0.0777    0.0842    0.1318   -0.0658
          27    0.0839   -0.0504   -0.1168    0.1960    0.0492    0.1368   -0.0370   -0.0689
          28    0.0158    0.0185   -0.0202    0.1160    0.0051    0.2288   -0.0713   -0.1339
          29   -0.0897    0.1064    0.0777   -0.0002   -0.0692    0.0833   -0.0876   -0.0378
          30    0.0841   -0.0500   -0.1161    0.1950    0.0474    0.1368   -0.0367   -0.0691
          31    0.1844   -0.1267   -0.0397    0.0346   -0.1205    0.0623   -0.1892    0.0132
          32    0.0066    0.0239    0.0665   -0.0480   -0.1269   -0.0346   -0.1297    0.0607
          33    0.0746    0.0873    0.1216   -0.0765   -0.1511   -0.0148   -0.1216    0.0430
          34    0.0880   -0.0830    0.0214   -0.1677   -0.0998   -0.0862    0.0986    0.0419
          35   -0.0401   -0.0620   -0.0881    0.0559    0.0402    0.0145    0.0807   -0.0195
          36    0.0744    0.0879    0.1220   -0.0774   -0.1519   -0.0164   -0.1236    0.0447
          37    0.0826   -0.1152    0.0080    0.0743    0.0034   -0.0819    0.1454    0.1062
          38    0.1137   -0.0463    0.0700   -0.0239    0.0629   -0.0201    0.0724   -0.0632
          39   -0.1506    0.0683   -0.1148   -0.1388   -0.1984    0.0293   -0.1202    0.0257
          40    0.0287    0.0788   -0.0537    0.0555   -0.0260   -0.0851    0.1103    0.0735
          41    0.2097   -0.1588    0.1527    0.0192    0.1913   -0.0454    0.2434   -0.0813
          42   -0.0292    0.0098   -0.0199   -0.0803   -0.0067   -0.0144    0.1443   -0.0227
          43   -0.0536    0.2128   -0.0695    0.0819   -0.0280   -0.0857   -0.0383    0.0768
          44    0.0451    0.1253    0.0293   -0.0220    0.0693   -0.0121   -0.0313   -0.0579
          45   -0.0656   -0.2401    0.0249   -0.0388    0.1179    0.1348   -0.0090    0.2422
          46    0.0386    0.0470    0.0188    0.1222    0.0237   -0.0762    0.0113    0.1011
          47    0.0340    0.3279    0.0253    0.0015    0.0186   -0.0957   -0.0870   -0.2160
          48   -0.0221   -0.0126    0.0774    0.0276    0.0708    0.0028   -0.0675    0.0091
          49    0.0580    0.0010   -0.2265   -0.2628    0.2566   -0.0087   -0.1811   -0.0320
          50   -0.0233    0.0103   -0.0548   -0.0304    0.0500    0.0718   -0.0048    0.1098
          51    0.0026    0.0946    0.2406    0.1505    0.0052   -0.0235    0.0222    0.0803
          52   -0.1077   -0.1151    0.0970   -0.0946    0.1639    0.0230   -0.1811   -0.0514
          53   -0.1308   -0.1195   -0.0818    0.0717   -0.1213   -0.1263    0.0017   -0.2524
          54    0.0322    0.0623   -0.0515    0.0937   -0.0364   -0.1036    0.0522    0.0381
          55   -0.1682   -0.0673    0.2619    0.2089   -0.1567   -0.1649    0.0911   -0.1110
          56   -0.0811   -0.0359   -0.0123    0.0584   -0.0540   -0.0083    0.0343    0.0056
          57   -0.0075   -0.0798   -0.2322   -0.0408    0.0348   -0.1756   -0.1355   -0.2893


   Root No.       9        10        11        12        13        14        15        16

                 9 A      10 A      11 A      12 A      13 A      14 A      15 A      16 A   

                 627.9     798.4     820.6     872.8     899.0     919.7     934.2     957.3
  
           1   -0.0124   -0.0227   -0.0220   -0.0238   -0.1542   -0.0057    0.0636   -0.0295
           2    0.0181   -0.0158   -0.0151   -0.0413   -0.1478    0.0416   -0.0094   -0.1510
[...]
 T-DIPOLE    0.0243         C  4 -- H 13         +13.0% ( 45.3%)      0.5%
 TRAVEL      0.1146         C  4 -- H 14         +12.2% ( 43.8%)      0.0%
 RED. MASS   0.3150         C  6 -- H 17          +9.3% ( 38.3%)      8.4%
 EFF. MASS   4.1313

 VIBRATION   31   31A         ATOM PAIR      ENERGY CONTRIBUTION    RADIAL
 FREQ.      1286.71         C  1 -- H  8         +13.4% ( 48.4%)      5.5%
 T-DIPOLE    0.0370         C  2 -- C  3          +9.4% ( 40.6%)     99.9%
 TRAVEL      0.0989         C  1 -- C  3          +7.8% ( 36.9%)      6.3%
 RED. MASS   0.3959         C  5 -- H 16          +7.4% ( 35.9%)      0.0%
 EFF. MASS   5.3616

 VIBRATION   32   32A         ATOM PAIR      ENERGY CONTRIBUTION    RADIAL
 FREQ.      1329.45         C  7 -- H 18         +20.3% ( 49.8%)      0.8%
 T-DIPOLE    0.0451         C  7 -- H 19         +18.5% ( 47.5%)      1.7%
 TRAVEL      0.1282         C  4 -- H 13          +8.6% ( 32.4%)      0.0%
 RED. MASS   0.3138         C  4 -- H 14          +7.5% ( 30.2%)      0.0%
 EFF. MASS   3.0852

 VIBRATION   33   33A         ATOM PAIR      ENERGY CONTRIBUTION    RADIAL
 FREQ.      1375.69         C  5 -- H 16         +16.0% ( 42.8%)      1.9%
 T-DIPOLE    0.0623         C  5 -- H 15         +15.8% ( 42.6%)      2.0%
 TRAVEL      0.1290         C  4 -- C  5          +8.3% ( 30.8%)     76.7%
 RED. MASS   0.2570         C  4 -- H 13          +8.3% ( 30.8%)      1.4%
 EFF. MASS   2.9456

 VIBRATION   34   34A         ATOM PAIR      ENERGY CONTRIBUTION    RADIAL
 FREQ.      1401.14         C  2 -- H  9         +17.0% ( 45.1%)      2.1%
 T-DIPOLE    0.0985         C  2 -- H 10         +16.4% ( 44.2%)      2.8%
 TRAVEL      0.1254         C  5 -- C  6          +6.8% ( 28.5%)     97.9%
 RED. MASS   0.2299         C  4 -- C  5          +6.2% ( 27.2%)     85.6%
 EFF. MASS   3.0582

 VIBRATION   35   35A         ATOM PAIR      ENERGY CONTRIBUTION    RADIAL
 FREQ.      1402.93         C  3 -- H 12         +14.6% ( 42.5%)      2.1%
 T-DIPOLE    0.0453         C  3 -- H 11         +14.1% ( 41.7%)      2.7%
 TRAVEL      0.1200         C  5 -- H 15         +12.7% ( 39.6%)      4.1%
 RED. MASS   0.2891         C  5 -- H 16         +12.3% ( 38.9%)      3.9%
 EFF. MASS   3.3397         C  5 -- C  6         +10.1% ( 35.3%)     97.6%

 VIBRATION   36   36A         ATOM PAIR      ENERGY CONTRIBUTION    RADIAL
 FREQ.      1406.21         C  4 -- H 13         +19.1% ( 46.4%)      3.9%
 T-DIPOLE    0.0418         C  4 -- H 14         +19.1% ( 46.4%)      4.2%
 TRAVEL      0.1241         C  4 -- C  5         +14.3% ( 40.1%)     88.1%
 RED. MASS   0.3638         C  5 -- H 15         +13.8% ( 39.5%)      4.8%
 EFF. MASS   3.1133         C  5 -- H 16         +13.7% ( 39.3%)      4.7%

 VIBRATION   37   37A         ATOM PAIR      ENERGY CONTRIBUTION    RADIAL
 FREQ.      1431.55         C  4 -- C  5         +14.1% ( 52.0%)     35.3%
 T-DIPOLE    0.1126         C  1 -- C  4         +12.6% ( 49.2%)     96.4%
 TRAVEL      0.0841         C  4 -- H 14          +9.9% ( 43.6%)      1.2%
 RED. MASS   0.9355         C  4 -- H 13          +9.2% ( 42.1%)      1.7%
 EFF. MASS   6.6637

 VIBRATION   38   38A         ATOM PAIR      ENERGY CONTRIBUTION    RADIAL
 FREQ.      1597.67         C  1 -- C  2         +19.8% ( 73.7%)     95.9%
 T-DIPOLE    0.0468         C  1 -- C  3         +19.5% ( 73.2%)     95.5%
 TRAVEL      0.0606         C  2 -- C  3         +14.8% ( 63.7%)    100.0%
 RED. MASS   3.3274         C  1 -- C  4         +12.0% ( 57.4%)     69.8%
 EFF. MASS  11.4911

 VIBRATION   39   39A         ATOM PAIR      ENERGY CONTRIBUTION    RADIAL
 FREQ.      1861.82         C  6 -- C  7         +45.3% ( 99.3%)     98.9%
 T-DIPOLE    0.2272         C  5 -- C  6         +16.8% ( 60.4%)     54.9%
 TRAVEL      0.0554         C  6 -- H 17         +15.5% ( 58.0%)      3.9%
 RED. MASS   5.2993         C  7 -- H 19         +11.0% ( 48.8%)     10.9%
 EFF. MASS  11.7924         C  7 -- H 18         +10.7% ( 48.3%)     12.9%

 VIBRATION   40   40A         ATOM PAIR      ENERGY CONTRIBUTION    RADIAL
 FREQ.      2940.62         C  5 -- H 16         +38.1% ( 64.3%)     96.8%
 T-DIPOLE    0.0237         C  5 -- H 15         +31.9% ( 58.8%)     95.9%
 TRAVEL      0.1215         C  4 -- H 14         +13.8% ( 38.7%)     96.4%
 RED. MASS   0.3097         C  4 -- H 13         +13.4% ( 38.1%)     96.2%
 EFF. MASS   1.5524

 VIBRATION   41   41A         ATOM PAIR      ENERGY CONTRIBUTION    RADIAL
 FREQ.      2955.43         C  4 -- H 14         +35.4% ( 61.6%)     96.7%
 T-DIPOLE    0.0162         C  4 -- H 13         +34.6% ( 60.9%)     96.5%
 TRAVEL      0.1219         C  5 -- H 16         +15.0% ( 40.1%)     97.1%
 RED. MASS   0.3060         C  5 -- H 15         +12.2% ( 36.2%)     96.2%
 EFF. MASS   1.5344

 VIBRATION   42   42A         ATOM PAIR      ENERGY CONTRIBUTION    RADIAL
 FREQ.      3003.75         C  1 -- H  8         +95.1% ( 99.2%)    100.0%
 T-DIPOLE    0.1884         C  1 -- C  2          +1.1% ( 10.8%)     22.9%
 TRAVEL      0.1243         C  1 -- C  3          +1.1% ( 10.8%)     22.7%
 RED. MASS   0.9015         C  1 -- C  4          +1.1% ( 10.7%)     14.7%
 EFF. MASS   1.4536

 VIBRATION   43   43A         ATOM PAIR      ENERGY CONTRIBUTION    RADIAL
 FREQ.      3022.78         C  5 -- H 15         +50.8% ( 70.3%)     98.2%
 T-DIPOLE    0.0330         C  5 -- H 16         +42.1% ( 64.0%)     97.1%
 TRAVEL      0.1321         C  4 -- H 14          +2.6% ( 15.8%)     98.0%
 RED. MASS   0.4340         C  4 -- H 13          +2.3% ( 15.1%)     97.7%
 EFF. MASS   1.2785

 VIBRATION   44   44A         ATOM PAIR      ENERGY CONTRIBUTION    RADIAL
 FREQ.      3029.92         C  4 -- H 13         +47.3% ( 67.7%)     97.8%
 T-DIPOLE    0.0412         C  4 -- H 14         +46.4% ( 67.1%)     97.6%
 TRAVEL      0.1323         C  5 -- H 15          +2.7% ( 16.2%)     98.0%
 RED. MASS   0.4370         C  5 -- H 16          +2.2% ( 14.7%)     96.7%
 EFF. MASS   1.2706

 VIBRATION   45   45A         ATOM PAIR      ENERGY CONTRIBUTION    RADIAL
 FREQ.      3041.31         C  6 -- H 17         +95.5% ( 99.1%)    100.0%
 T-DIPOLE    0.2330         C  6 -- C  7          +1.4% ( 12.0%)     30.6%
 TRAVEL      0.1217         C  5 -- C  6          +1.3% ( 11.6%)     13.6%
 RED. MASS   0.8969         C  7 -- H 18          +0.9% (  9.6%)     95.4%
 EFF. MASS   1.4982

 VIBRATION   46   46A         ATOM PAIR      ENERGY CONTRIBUTION    RADIAL
 FREQ.      3083.17         C  3 -- H 11         +28.5% ( 55.4%)     97.8%
 T-DIPOLE    0.0247         C  2 -- H 10         +28.0% ( 54.8%)     97.8%
 TRAVEL      0.1186         C  2 -- H  9         +20.6% ( 47.1%)     96.0%
 RED. MASS   0.2660         C  3 -- H 12         +20.5% ( 46.9%)     95.9%
 EFF. MASS   1.5555

 VIBRATION   47   47A         ATOM PAIR      ENERGY CONTRIBUTION    RADIAL
 FREQ.      3097.34         C  3 -- H 11         +29.7% ( 56.1%)     98.3%
 T-DIPOLE    0.2455         C  2 -- H 10         +29.5% ( 56.0%)     98.2%
 TRAVEL      0.1188         C  2 -- H  9         +19.4% ( 45.3%)     95.9%
 RED. MASS   0.2686         C  3 -- H 12         +18.8% ( 44.6%)     95.7%
 EFF. MASS   1.5414

 VIBRATION   48   48A         ATOM PAIR      ENERGY CONTRIBUTION    RADIAL
 FREQ.      3133.99         C  3 -- H 12         +32.5% ( 56.6%)     97.6%
 T-DIPOLE    0.2234         C  2 -- H  9         +25.3% ( 49.9%)     97.5%
 TRAVEL      0.1300         C  3 -- H 11         +22.5% ( 47.0%)     94.9%
 RED. MASS   0.2515         C  2 -- H 10         +18.4% ( 42.6%)     95.2%
 EFF. MASS   1.2728

 VIBRATION   49   49A         ATOM PAIR      ENERGY CONTRIBUTION    RADIAL
 FREQ.      3135.05         C  2 -- H  9         +33.2% ( 57.4%)     97.7%
 T-DIPOLE    0.1540         C  3 -- H 12         +26.8% ( 51.6%)     97.7%
 TRAVEL      0.1268         C  2 -- H 10         +21.2% ( 45.9%)     94.1%
 RED. MASS   0.2557         C  3 -- H 11         +16.5% ( 40.4%)     93.8%
 EFF. MASS   1.3373

 VIBRATION   50   50A         ATOM PAIR      ENERGY CONTRIBUTION    RADIAL
 FREQ.      3135.62         C  7 -- H 19         +91.1% ( 97.2%)     99.8%
 T-DIPOLE    0.1948         C  7 -- H 18          +7.4% ( 27.6%)     73.1%
 TRAVEL      0.1182         C  6 -- C  7          +1.3% ( 11.7%)     21.2%
 RED. MASS   0.8422
 EFF. MASS   1.5401

 VIBRATION   51   51A         ATOM PAIR      ENERGY CONTRIBUTION    RADIAL
 FREQ.      3147.59         C  7 -- H 18         +91.3% ( 96.2%)     99.6%
 T-DIPOLE    0.2503         C  7 -- H 19          +6.3% ( 25.3%)     45.0%
 TRAVEL      0.1210         C  6 -- C  7          +1.6% ( 12.7%)     74.4%
 RED. MASS   0.8100         C  6 -- H 17          +0.8% (  8.8%)     94.6%
 EFF. MASS   1.4635

      SYMMETRY NUMBER FOR POINT-GROUP C1  =  1


          SYSTEM IS A GROUND STATE



 InChI=1S/C7H12/c1-2-3-4-7-5-6-7/h2,7H,1,3-6H2


          MOLECULE IS NOT LINEAR

          THERE ARE 51 GENUINE VIBRATIONS IN THIS SYSTEM
          THIS THERMODYNAMICS CALCULATION IS LIMITED TO
          MOLECULES WHICH HAVE NO INTERNAL ROTATIONS




                    CALCULATED THERMODYNAMIC PROPERTIES
                                          *
   TEMP. (K)   PARTITION FUNCTION   H.O.F.    ENTHALPY  HEAT CAPACITY ENTROPY
                                   KCAL/MOL   CAL/MOLE    CAL/K/MOL  CAL/K/MOL


 298.00  VIB.     0.1500D+03                  3206.2171    22.8486    20.7163
         ROT.     0.2804D+06                   888.2813     2.9808    27.9084
         INT.     0.4206D+08                  4094.4984    25.8294    48.6247
         TRA.     0.9118D+27                  1480.4688     4.9680    39.5994
         TOT.                       22.945    5574.9673    30.7974    88.2241

 200.00  VIB.     0.2576D+02                  1432.3295    13.7850    13.6180
         ROT.     0.1542D+06                   596.1620     2.9808    26.7198
         INT.     0.3972D+07                  2028.4915    16.7658    40.3378
         TRA.     0.5013D+27                   993.6033     4.9680    37.6183
         TOT.                       20.392    3022.0947    21.7338    77.9561

 210.00  VIB.     0.3084D+02                  1574.1004    14.5753    14.3096
         ROT.     0.1659D+06                   625.9700     2.9808    26.8652
         INT.     0.5116D+07                  2200.0704    17.5561    41.1748
         TRA.     0.5394D+27                  1043.2834     4.9680    37.8607
         TOT.                       20.614    3243.3538    22.5241    79.0355

 220.00  VIB.     0.3690D+02                  1723.9573    15.4021    15.0066
         ROT.     0.1779D+06                   655.7781     2.9808    27.0039
         INT.     0.6564D+07                  2379.7355    18.3829    42.0104
         TRA.     0.5784D+27                  1092.9636     4.9680    38.0918
         TOT.                       20.843    3472.6990    23.3509    80.1022

 230.00  VIB.     0.4414D+02                  1882.2598    16.2641    15.7101
         ROT.     0.1901D+06                   685.5862     2.9808    27.1364
         INT.     0.8393D+07                  2567.8460    19.2449    42.8465
         TRA.     0.6182D+27                  1142.6437     4.9680    38.3126
         TOT.                       21.081    3710.4897    24.2130    81.1591

 240.00  VIB.     0.5280D+02                  2049.3507    17.1594    16.4211
         ROT.     0.2027D+06                   715.3943     2.9808    27.2632
         INT.     0.1070D+08                  2764.7450    20.1402    43.6843
         TRA.     0.6590D+27                  1192.3239     4.9680    38.5241
         TOT.                       21.327    3957.0689    25.1082    82.2084

 250.00  VIB.     0.6315D+02                  2225.5494    18.0852    17.1403
         ROT.     0.2155D+06                   745.2024     2.9808    27.3849
         INT.     0.1361D+08                  2970.7518    21.0660    44.5252
         TRA.     0.7006D+27                  1242.0041     4.9680    38.7269
         TOT.                       21.583    4212.7559    26.0340    83.2520

 260.00  VIB.     0.7556D+02                  2411.1459    19.0384    17.8681
         ROT.     0.2285D+06                   775.0105     2.9808    27.5018
         INT.     0.1727D+08                  3186.1565    22.0192    45.3699
         TRA.     0.7431D+27                  1291.6842     4.9680    38.9217
         TOT.                       21.848    4477.8407    26.9872    84.2916

 270.00  VIB.     0.9043D+02                  2606.3976    20.0156    18.6048
         ROT.     0.2418D+06                   804.8186     2.9808    27.6143
         INT.     0.2187D+08                  3411.2162    22.9964    46.2191
         TRA.     0.7864D+27                  1341.3644     4.9680    39.1092
         TOT.                       22.123    4752.5806    27.9644    85.3284

 280.00  VIB.     0.1083D+03                  2811.5263    21.0132    19.3507
         ROT.     0.2554D+06                   834.6267     2.9808    27.7227
         INT.     0.2766D+08                  3646.1531    23.9940    47.0734
         TRA.     0.8304D+27                  1391.0445     4.9680    39.2899
         TOT.                       22.408    5037.1976    28.9620    86.3633

 290.00  VIB.     0.1297D+03                  3026.7176    22.0275    20.1057
         ROT.     0.2692D+06                   864.4348     2.9808    27.8273
         INT.     0.3493D+08                  3891.1525    25.0083    47.9331
         TRA.     0.8753D+27                  1440.7247     4.9680    39.4642
         TOT.                       22.702    5331.8772    29.9764    87.3973

 300.00  VIB.     0.1556D+03                  3252.1206    23.0550    20.8698
         ROT.     0.2833D+06                   894.2429     2.9808    27.9284
         INT.     0.4406D+08                  4146.3635    26.0358    48.7982
         TRA.     0.9210D+27                  1490.4049     4.9680    39.6326
         TOT.                       23.007    5636.7684    31.0038    88.4308

 310.00  VIB.     0.1866D+03                  3487.8488    24.0920    21.6427
         ROT.     0.2975D+06                   924.0510     2.9808    28.0261
         INT.     0.5553D+08                  4411.8998    27.0728    49.6688
         TRA.     0.9674D+27                  1540.0850     4.9680    39.7955
         TOT.                       23.322    5951.9849    32.0408    89.4643

 320.00  VIB.     0.2241D+03                  3733.9816    25.1353    22.4240
         ROT.     0.3120D+06                   953.8591     2.9808    28.1208
         INT.     0.6994D+08                  4687.8407    28.1161    50.5448
         TRA.     0.1015D+28                  1589.7652     4.9680    39.9533
         TOT.                       23.648    6277.6059    33.0842    90.4980

 330.00  VIB.     0.2694D+03                  3990.5662    26.1819    23.2135
         ROT.     0.3268D+06                   983.6672     2.9808    28.2125
         INT.     0.8804D+08                  4974.2334    29.1627    51.4260
         TRA.     0.1063D+28                  1639.4454     4.9680    40.1062
         TOT.                       23.984    6613.6788    34.1307    91.5321

 340.00  VIB.     0.3241D+03                  4257.6199    27.2287    24.0106
         ROT.     0.3418D+06                  1013.4753     2.9808    28.3015
         INT.     0.1108D+09                  5271.0953    30.2095    52.3121
         TRA.     0.1111D+28                  1689.1255     4.9680    40.2545
         TOT.                       24.331    6960.2208    35.1775    92.5666

 350.00  VIB.     0.3903D+03                  4535.1327    28.2733    24.8150
         ROT.     0.3569D+06                  1043.2834     2.9808    28.3879
         INT.     0.1393D+09                  5578.4161    31.2541    53.2029
         TRA.     0.1161D+28                  1738.8057     4.9680    40.3985
         TOT.                       24.688    7317.2218    36.2221    93.6014

 360.00  VIB.     0.4705D+03                  4823.0697    29.3132    25.6261
         ROT.     0.3723D+06                  1073.0915     2.9808    28.4718
         INT.     0.1752D+09                  5896.1612    32.2940    54.0979
         TRA.     0.1211D+28                  1788.4859     4.9680    40.5384
         TOT.                       25.055    7684.6471    37.2620    94.6364

 370.00  VIB.     0.5676D+03                  5121.3739    30.3464    26.4433
         ROT.     0.3880D+06                  1102.8996     2.9808    28.5535
         INT.     0.2202D+09                  6224.2735    33.3272    54.9969
         TRA.     0.1261D+28                  1838.1660     4.9680    40.6745
         TOT.                       25.433    8062.4395    38.2952    95.6714

 380.00  VIB.     0.6855D+03                  5429.9687    31.3710    27.2662
         ROT.     0.4038D+06                  1132.7077     2.9808    28.6330
         INT.     0.2768D+09                  6562.6764    34.3518    55.8993
         TRA.     0.1313D+28                  1887.8462     4.9680    40.8070
         TOT.                       25.821    8450.5226    39.3198    96.7063

 390.00  VIB.     0.8287D+03                  5748.7604    32.3855    28.0943
         ROT.     0.4198D+06                  1162.5158     2.9808    28.7104
         INT.     0.3479D+09                  6911.2763    35.3663    56.8047
         TRA.     0.1365D+28                  1937.5263     4.9680    40.9361
         TOT.                       26.219    8848.8026    40.3344    97.7408

 400.00  VIB.     0.1003D+04                  6077.6409    33.3885    28.9269
         ROT.     0.4361D+06                  1192.3239     2.9808    28.7859
         INT.     0.4373D+09                  7269.9648    36.3694    57.7128
         TRA.     0.1418D+28                  1987.2065     4.9680    41.0619
         TOT.                       26.627    9257.1713    41.3374    98.7746

   *: NOTE: HEATS OF FORMATION ARE RELATIVE TO THE
            ELEMENTS IN THEIR STANDARD STATE AT 298K
              (=  Standard Enthalpy of Formation).

            Hvib:  Zero-point energy is not included.
                   frequencies of less than zero cm-1 are not included.
            Hrot = (3/2)RT
            Htra = (3/2)RT + pV = (5/2)RT

            Heat capacity is Cp, not Cv

          For more information, see: HTTP://OpenMOPAC.net/Manual/thermochemistry.html


           FORCE CONSTANT IN CARTESIAN COORDINATES (Millidynes/A)

    ATOM   CHEMICAL       X               Y               Z
   NUMBER   SYMBOL  FORCE CONSTANT  FORCE CONSTANT  FORCE CONSTANT

      1       C       10.208957        6.517348        8.897420
      2       C        9.914853        6.479042        8.767602
      3       C        4.558730       11.806352        8.771484
      4       C        8.347062        8.251485        8.587142
      5       C        8.257082        8.426931        8.693500
      6       C        6.430538       11.362254        9.374285
      7       C        5.985798       11.236710        9.301157
      8       H        1.725358        0.917787        3.698990
      9       H        1.843158        0.984291        3.838286
     10       H        1.852304        0.965424        3.826255
     11       H        0.522872        2.287911        3.827066
     12       H        0.527139        2.301347        3.836717
     13       H        0.718453        4.953533        0.692471
     14       H        1.733082        1.109955        3.556902
     15       H        0.727716        4.936872        0.721713
     16       H        1.748052        1.105011        3.435884
     17       H        0.502629        4.950702        0.768497
     18       H        1.672697        1.214825        3.596651
     19       H        0.471406        5.312550        0.681037

 **********************
 *                    *
 * JOB ENDED NORMALLY *
 *                    *
 **********************



 TOTAL JOB TIME:             1.80 SECONDS

 == MOPAC DONE ==
