 *******************************************************************************
 ** Site#: 14399        For non-commercial use only    Version 18.184L 64BITS **
 *******************************************************************************
 ** Cite this program as: MOPAC2016, Version: 18.184L, James J. P. Stewart,   **
 ** Stewart Computational Chemistry, web: HTTP://OpenMOPAC.net. Days left:  18**
 *******************************************************************************
 **                                                                           **
 **                                MOPAC2016                                  **
 **                                                                           **
 *******************************************************************************

                              PM3 CALCULATION RESULTS

 *******************************************************************************
 *  CALCULATION DONE:                                Sat Jun 15 10:11:32 2019  *
 *  PM3        - The PM3 Hamiltonian to be used
 *  PRECISE    - CRITERIA TO BE INCREASED BY 100 TIMES
 *  NOSYM      - POINT-GROUP SYMMETRY SET TO C1
 *  THREADS=1  - MULTI-THREADING NOT USED
 *  T=         - A TIME OF 172800.0 SECONDS REQUESTED
 *  DUMP=N     - RESTART FILE WRITTEN EVERY  7200.000 SECONDS
 *******************************************************************************
pm3  precise nosym THREADS=1
 InChI=1S/C10H12/c1-2-3-7-10-8-5-4-6-9-10/h2-3,5-10H,1,4H2

   ATOM   CHEMICAL          X               Y               Z
  NUMBER   SYMBOL      (ANGSTROMS)     (ANGSTROMS)     (ANGSTROMS)
 
     1       C         -0.40940000  *  -0.68380000  *  -0.22850000  *
     2       C         -3.20330000  *   0.35290000  *  -0.14290000  *
     3       C         -1.15760000  *  -0.23110000  *  -1.45820000  *
     4       C         -1.25650000  *  -0.70210000  *   1.02010000  *
     5       C          0.76720000  *   0.22550000  *  -0.00870000  *
     6       C         -2.40970000  *   0.24430000  *  -1.41740000  *
     7       C         -2.50850000  *  -0.22660000  *   1.06020000  *
     8       C          2.02450000  *  -0.22460000  *  -0.04410000  *
     9       C          3.15980000  *   0.68600000  *   0.17420000  *
    10       C          4.41330000  *   0.24340000  *   0.14010000  *
    11       H         -0.07360000  *  -1.72760000  *  -0.41350000  *
    12       H         -4.16340000  *  -0.18640000  *  -0.28370000  *
    13       H         -3.42960000  *   1.42210000  *   0.05130000  *
    14       H         -0.64820000  *  -0.27680000  *  -2.41670000  *
    15       H         -0.82170000  *  -1.10320000  *   1.93140000  *
    16       H          0.57550000  *   1.27610000  *   0.18330000  *
    17       H         -2.87620000  *   0.57200000  *  -2.34150000  *
    18       H         -3.04950000  *  -0.25340000  *   2.00130000  *
    19       H          2.98020000  *   1.73730000  *   0.36690000  *
    20       H          2.21740000  *  -1.27430000  *  -0.23590000  *
    21       H          4.63540000  *  -0.79970000  *  -0.04930000  *
    22       H          5.23380000  *   0.93000000  *   0.30330000  *
 


          CARTESIAN COORDINATES 

    NO.       ATOM           X           Y           Z

     1         C         -0.4094     -0.6838     -0.2285
     2         C         -3.2033      0.3529     -0.1429
     3         C         -1.1576     -0.2311     -1.4582
     4         C         -1.2565     -0.7021      1.0201
     5         C          0.7672      0.2255     -0.0087
     6         C         -2.4097      0.2443     -1.4174
     7         C         -2.5085     -0.2266      1.0602
     8         C          2.0245     -0.2246     -0.0441
     9         C          3.1598      0.6860      0.1742
    10         C          4.4133      0.2434      0.1401
    11         H         -0.0736     -1.7276     -0.4135
    12         H         -4.1634     -0.1864     -0.2837
    13         H         -3.4296      1.4221      0.0513
    14         H         -0.6482     -0.2768     -2.4167
    15         H         -0.8217     -1.1032      1.9314
    16         H          0.5755      1.2761      0.1833
    17         H         -2.8762      0.5720     -2.3415
    18         H         -3.0495     -0.2534      2.0013
    19         H          2.9802      1.7373      0.3669
    20         H          2.2174     -1.2743     -0.2359
    21         H          4.6354     -0.7997     -0.0493
    22         H          5.2338      0.9300      0.3033

  H: (PM3): J. J. P. STEWART, J. COMP. CHEM. 10, 209 (1989).
  C: (PM3): J. J. P. STEWART, J. COMP. CHEM. 10, 209 (1989).

           Empirical Formula: C10 H12  =    22 atoms



      MOLECULAR POINT GROUP   :   C1  


      RHF CALCULATION, NO. OF DOUBLY OCCUPIED LEVELS = 26


          Geometry optimization using EF

          DIAGONAL MATRIX USED AS START HESSIAN

 CYCLE:     1 TIME:   0.008 TIME LEFT:  2.00D  GRAD.:    67.318 HEAT:  57.08965
 CYCLE:     2 TIME:   0.012 TIME LEFT:  2.00D  GRAD.:    50.480 HEAT:  56.29816
 CYCLE:     3 TIME:   0.004 TIME LEFT:  2.00D  GRAD.:    34.638 HEAT:  55.60060
 CYCLE:     4 TIME:   0.012 TIME LEFT:  2.00D  GRAD.:    31.710 HEAT:  55.43102
 CYCLE:     5 TIME:   0.004 TIME LEFT:  2.00D  GRAD.:    18.686 HEAT:  55.14822
 CYCLE:     6 TIME:   0.008 TIME LEFT:  2.00D  GRAD.:    20.085 HEAT:  55.05063
 CYCLE:     7 TIME:   0.004 TIME LEFT:  2.00D  GRAD.:    14.325 HEAT:  54.91584
 CYCLE:     8 TIME:   0.008 TIME LEFT:  2.00D  GRAD.:    13.049 HEAT:  54.85516
 CYCLE:     9 TIME:   0.008 TIME LEFT:  2.00D  GRAD.:     9.355 HEAT:  54.79783
 CYCLE:    10 TIME:   0.008 TIME LEFT:  2.00D  GRAD.:     9.895 HEAT:  54.77379
 CYCLE:    11 TIME:   0.004 TIME LEFT:  2.00D  GRAD.:     8.144 HEAT:  54.75501
 CYCLE:    12 TIME:   0.004 TIME LEFT:  2.00D  GRAD.:     9.107 HEAT:  54.74195
 CYCLE:    13 TIME:   0.008 TIME LEFT:  2.00D  GRAD.:     6.039 HEAT:  54.73100
 CYCLE:    14 TIME:   0.004 TIME LEFT:  2.00D  GRAD.:     3.576 HEAT:  54.72399
 CYCLE:    15 TIME:   0.008 TIME LEFT:  2.00D  GRAD.:     5.747 HEAT:  54.72236
 CYCLE:    16 TIME:   0.008 TIME LEFT:  2.00D  GRAD.:     4.417 HEAT:  54.71944
 CYCLE:    17 TIME:   0.004 TIME LEFT:  2.00D  GRAD.:     5.144 HEAT:  54.71863
 CYCLE:    18 TIME:   0.004 TIME LEFT:  2.00D  GRAD.:     5.638 HEAT:  54.71673
 CYCLE:    19 TIME:   0.004 TIME LEFT:  2.00D  GRAD.:     2.850 HEAT:  54.71179
 CYCLE:    20 TIME:   0.004 TIME LEFT:  2.00D  GRAD.:     3.246 HEAT:  54.71087
 CYCLE:    21 TIME:   0.008 TIME LEFT:  2.00D  GRAD.:     2.084 HEAT:  54.70769
 CYCLE:    22 TIME:   0.004 TIME LEFT:  2.00D  GRAD.:     3.293 HEAT:  54.70775
 CYCLE:    23 TIME:   0.004 TIME LEFT:  2.00D  GRAD.:     1.741 HEAT:  54.70377
 CYCLE:    24 TIME:   0.004 TIME LEFT:  2.00D  GRAD.:     1.745 HEAT:  54.70204
 CYCLE:    25 TIME:   0.004 TIME LEFT:  2.00D  GRAD.:     2.093 HEAT:  54.70004
 CYCLE:    26 TIME:   0.008 TIME LEFT:  2.00D  GRAD.:     3.162 HEAT:  54.69889
 CYCLE:    27 TIME:   0.004 TIME LEFT:  2.00D  GRAD.:     1.921 HEAT:  54.69687
 CYCLE:    28 TIME:   0.004 TIME LEFT:  2.00D  GRAD.:     1.192 HEAT:  54.69512
 CYCLE:    29 TIME:   0.004 TIME LEFT:  2.00D  GRAD.:     0.986 HEAT:  54.69368
 CYCLE:    30 TIME:   0.008 TIME LEFT:  2.00D  GRAD.:     1.203 HEAT:  54.69214
 CYCLE:    31 TIME:   0.004 TIME LEFT:  2.00D  GRAD.:     1.089 HEAT:  54.69114
 CYCLE:    32 TIME:   0.004 TIME LEFT:  2.00D  GRAD.:     0.875 HEAT:  54.69011
 CYCLE:    33 TIME:   0.004 TIME LEFT:  2.00D  GRAD.:     1.478 HEAT:  54.68836
 CYCLE:    34 TIME:   0.004 TIME LEFT:  2.00D  GRAD.:     1.404 HEAT:  54.68692
 CYCLE:    35 TIME:   0.004 TIME LEFT:  2.00D  GRAD.:     1.216 HEAT:  54.68528
 CYCLE:    36 TIME:   0.008 TIME LEFT:  2.00D  GRAD.:     1.357 HEAT:  54.68251
 CYCLE:    37 TIME:   0.004 TIME LEFT:  2.00D  GRAD.:     1.735 HEAT:  54.68019
 CYCLE:    38 TIME:   0.004 TIME LEFT:  2.00D  GRAD.:     1.241 HEAT:  54.67796
 CYCLE:    39 TIME:   0.004 TIME LEFT:  2.00D  GRAD.:     1.257 HEAT:  54.67554
 CYCLE:    40 TIME:   0.008 TIME LEFT:  2.00D  GRAD.:     1.910 HEAT:  54.67186
 CYCLE:    41 TIME:   0.004 TIME LEFT:  2.00D  GRAD.:     2.049 HEAT:  54.66761
 CYCLE:    42 TIME:   0.004 TIME LEFT:  2.00D  GRAD.:     1.848 HEAT:  54.66136
 CYCLE:    43 TIME:   0.004 TIME LEFT:  2.00D  GRAD.:     1.867 HEAT:  54.65409
 CYCLE:    44 TIME:   0.004 TIME LEFT:  2.00D  GRAD.:     2.097 HEAT:  54.64678
 CYCLE:    45 TIME:   0.008 TIME LEFT:  2.00D  GRAD.:     2.125 HEAT:  54.63944
 CYCLE:    46 TIME:   0.004 TIME LEFT:  2.00D  GRAD.:     2.048 HEAT:  54.63109
 CYCLE:    47 TIME:   0.004 TIME LEFT:  2.00D  GRAD.:     2.201 HEAT:  54.62184
 CYCLE:    48 TIME:   0.008 TIME LEFT:  2.00D  GRAD.:     2.583 HEAT:  54.61335
 CYCLE:    49 TIME:   0.004 TIME LEFT:  2.00D  GRAD.:     2.663 HEAT:  54.60650
 CYCLE:    50 TIME:   0.004 TIME LEFT:  2.00D  GRAD.:     2.114 HEAT:  54.59836
 CYCLE:    51 TIME:   0.004 TIME LEFT:  2.00D  GRAD.:     2.326 HEAT:  54.58759
 CYCLE:    52 TIME:   0.004 TIME LEFT:  2.00D  GRAD.:     2.463 HEAT:  54.57871
 CYCLE:    53 TIME:   0.004 TIME LEFT:  2.00D  GRAD.:     1.983 HEAT:  54.56972
 CYCLE:    54 TIME:   0.008 TIME LEFT:  2.00D  GRAD.:     1.584 HEAT:  54.56387
 CYCLE:    55 TIME:   0.004 TIME LEFT:  2.00D  GRAD.:     1.117 HEAT:  54.56052
 CYCLE:    56 TIME:   0.004 TIME LEFT:  2.00D  GRAD.:     2.056 HEAT:  54.55806
 CYCLE:    57 TIME:   0.004 TIME LEFT:  2.00D  GRAD.:     1.143 HEAT:  54.55492
 CYCLE:    58 TIME:   0.008 TIME LEFT:  2.00D  GRAD.:     0.849 HEAT:  54.55264
 CYCLE:    59 TIME:   0.004 TIME LEFT:  2.00D  GRAD.:     0.885 HEAT:  54.55055
 CYCLE:    60 TIME:   0.004 TIME LEFT:  2.00D  GRAD.:     1.054 HEAT:  54.54820
 CYCLE:    61 TIME:   0.004 TIME LEFT:  2.00D  GRAD.:     0.849 HEAT:  54.54647
 CYCLE:    62 TIME:   0.004 TIME LEFT:  2.00D  GRAD.:     0.876 HEAT:  54.54540
 CYCLE:    63 TIME:   0.008 TIME LEFT:  2.00D  GRAD.:     0.576 HEAT:  54.54500
 CYCLE:    64 TIME:   0.004 TIME LEFT:  2.00D  GRAD.:     0.377 HEAT:  54.54461
 CYCLE:    65 TIME:   0.004 TIME LEFT:  2.00D  GRAD.:     0.358 HEAT:  54.54407
 CYCLE:    66 TIME:   0.008 TIME LEFT:  2.00D  GRAD.:     0.304 HEAT:  54.54386
 CYCLE:    67 TIME:   0.004 TIME LEFT:  2.00D  GRAD.:     0.438 HEAT:  54.54333
 CYCLE:    68 TIME:   0.004 TIME LEFT:  2.00D  GRAD.:     0.316 HEAT:  54.54314
 CYCLE:    69 TIME:   0.004 TIME LEFT:  2.00D  GRAD.:     0.244 HEAT:  54.54287
 CYCLE:    70 TIME:   0.004 TIME LEFT:  2.00D  GRAD.:     0.218 HEAT:  54.54276
 CYCLE:    71 TIME:   0.004 TIME LEFT:  2.00D  GRAD.:     0.264 HEAT:  54.54260
 CYCLE:    72 TIME:   0.008 TIME LEFT:  2.00D  GRAD.:     0.399 HEAT:  54.54226
 CYCLE:    73 TIME:   0.004 TIME LEFT:  2.00D  GRAD.:     0.334 HEAT:  54.54200
 CYCLE:    74 TIME:   0.004 TIME LEFT:  2.00D  GRAD.:     0.119 HEAT:  54.54181
 CYCLE:    75 TIME:   0.004 TIME LEFT:  2.00D  GRAD.:     0.103 HEAT:  54.54178
 CYCLE:    76 TIME:   0.004 TIME LEFT:  2.00D  GRAD.:     0.089 HEAT:  54.54175
 CYCLE:    77 TIME:   0.008 TIME LEFT:  2.00D  GRAD.:     0.054 HEAT:  54.54173
 CYCLE:    78 TIME:   0.004 TIME LEFT:  2.00D  GRAD.:     0.039 HEAT:  54.54172

     GRADIENT =  0.03917  IS LESS THAN CUTOFF =  0.05000



 -------------------------------------------------------------------------------
 pm3  precise nosym THREADS=1
 InChI=1S/C10H12/c1-2-3-7-10-8-5-4-6-9-10/h2-3,5-10H,1,4H2



     GEOMETRY OPTIMISED USING EIGENVECTOR FOLLOWING (EF).     
     SCF FIELD WAS ACHIEVED                                   


                              PM3 CALCULATION
                                                       MOPAC2016 (Version: 18.184L)
                                                       Sat Jun 15 10:11:33 2019
                                                       No. of days remaining =  18




          FINAL HEAT OF FORMATION =         54.54172 KCAL/MOL =     228.20254 KJ/MOL


          TOTAL ENERGY            =      -1368.03115 EV
          ELECTRONIC ENERGY       =      -7095.57104 EV  POINT GROUP:     C1  
          CORE-CORE REPULSION     =       5727.53989 EV
          COSMO AREA              =        191.67 SQUARE ANGSTROMS
          COSMO VOLUME            =        187.30 CUBIC ANGSTROMS

          GRADIENT NORM           =          0.03917 = 0.00835 PER ATOM
          IONIZATION POTENTIAL    =          9.282628 EV
          HOMO LUMO ENERGIES (EV) =         -9.283  0.204
          NO. OF FILLED LEVELS    =         26
          MOLECULAR WEIGHT        =        132.2048

          MOLECULAR DIMENSIONS (Angstroms)

            Atom       Atom       Distance
            H    22    H    12     9.55056
            H    17    H    15     4.47171
            H    21    H    13     3.20853


          SCF CALCULATIONS        =         87
 
          WALL-CLOCK TIME         =          0.410 SECONDS
          COMPUTATION TIME        =          0.380 SECONDS




   ATOM   CHEMICAL          X               Y               Z
  NUMBER   SYMBOL      (ANGSTROMS)     (ANGSTROMS)     (ANGSTROMS)
 
     1       C         -0.41429170  *  -0.55012419  *  -0.19400394  *
     2       C         -3.29973682  *   0.11933422  *  -0.19890559  *
     3       C         -1.14165384  *  -0.06466819  *  -1.40715716  *
     4       C         -1.25330140  *  -0.52810014  *   1.04369031  *
     5       C          0.80906385  *   0.28970116  *   0.01998778  *
     6       C         -2.44184375  *   0.22793918  *  -1.40692026  *
     7       C         -2.55314852  *  -0.23404374  *   1.03592688  *
     8       C          2.04644952  *  -0.21330231  *  -0.03878130  *
     9       C          3.22495130  *   0.61490927  *   0.16947035  *
    10       C          4.46030074  *   0.12307982  *   0.09849180  *
    11       H         -0.12846135  *  -1.61719229  *  -0.38280907  *
    12       H         -4.08675945  *  -0.64185664  *  -0.37874952  *
    13       H         -3.83263052  *   1.07926899  *  -0.04159477  *
    14       H         -0.53800775  *   0.03498533  *  -2.31625381  *
    15       H         -0.73361280  *  -0.77644281  *   1.97588381  *
    16       H          0.63027825  *   1.35172091  *   0.22886194  *
    17       H         -2.94088063  *   0.56670598  *  -2.32183672  *
    18       H         -3.13619567  *  -0.24358609  *   1.96375016  *
    19       H          3.05315796  *   1.67611491  *   0.38999291  *
    20       H          2.21748792  *  -1.27772630  *  -0.24867207  *
    21       H          4.67432342  *  -0.92023013  *  -0.11714178  *
    22       H          5.34275191  *   0.73628188  *   0.25226664  *

                             CARTESIAN COORDINATES

   1    C       -0.414291704    -0.550124189    -0.194003939
   2    C       -3.299736820     0.119334223    -0.198905585
   3    C       -1.141653842    -0.064668193    -1.407157163
   4    C       -1.253301401    -0.528100144     1.043690311
   5    C        0.809063851     0.289701158     0.019987781
   6    C       -2.441843745     0.227939185    -1.406920257
   7    C       -2.553148521    -0.234043740     1.035926885
   8    C        2.046449519    -0.213302310    -0.038781304
   9    C        3.224951302     0.614909266     0.169470351
  10    C        4.460300742     0.123079822     0.098491801
  11    H       -0.128461347    -1.617192286    -0.382809072
  12    H       -4.086759452    -0.641856637    -0.378749516
  13    H       -3.832630519     1.079268993    -0.041594768
  14    H       -0.538007752     0.034985327    -2.316253811
  15    H       -0.733612800    -0.776442805     1.975883808
  16    H        0.630278252     1.351720913     0.228861935
  17    H       -2.940880635     0.566705976    -2.321836723
  18    H       -3.136195668    -0.243586088     1.963750156
  19    H        3.053157961     1.676114914     0.389992909
  20    H        2.217487921    -1.277726303    -0.248672072
  21    H        4.674323424    -0.920230133    -0.117141783
  22    H        5.342751912     0.736281885     0.252266642


           Empirical Formula: C10 H12  =    22 atoms



      MOLECULAR POINT GROUP   :   C1  


                  EIGENVALUES  
 -40.27101 -35.88915 -31.79924 -29.90855 -27.42465 -22.96953 -20.70351 -20.25150
 -19.79173 -17.73006 -16.67566 -16.12879 -16.04700 -15.16692 -14.81097 -14.59489
 -14.11374 -13.44583 -13.00018 -12.62181 -12.10132 -12.03903 -11.54333 -10.45414
  -9.37441  -9.28263   0.20408   1.01260   1.13747   2.11169   3.16298   3.36929
   3.48567   3.50171   3.65031   3.74399   3.84104   3.84760   3.92108   4.10770
   4.28227   4.47727   4.50038   4.52700   5.08676   5.27643   5.33415   5.37876
   5.85568   6.03776   6.05821   6.14581


              NET ATOMIC CHARGES AND DIPOLE CONTRIBUTIONS

  ATOM NO.   TYPE          CHARGE      No. of ELECS.   s-Pop       p-Pop       
    1          C           0.028877        3.9711     1.13948     2.83164
    2          C          -0.022707        4.0227     1.13149     2.89122
    3          C          -0.143420        4.1434     1.19511     2.94831
    4          C          -0.143566        4.1436     1.19510     2.94846
    5          C          -0.122776        4.1228     1.19912     2.92366
    6          C          -0.143466        4.1435     1.19304     2.95043
    7          C          -0.143392        4.1434     1.19305     2.95035
    8          C          -0.120594        4.1206     1.18382     2.93678
    9          C          -0.104976        4.1050     1.18108     2.92390
   10          C          -0.151813        4.1518     1.18372     2.96809
   11          H           0.074609        0.9254     0.92539
   12          H           0.061961        0.9380     0.93804
   13          H           0.060276        0.9397     0.93972
   14          H           0.103242        0.8968     0.89676
   15          H           0.103218        0.8968     0.89678
   16          H           0.106734        0.8933     0.89327
   17          H           0.098332        0.9017     0.90167
   18          H           0.098315        0.9017     0.90168
   19          H           0.098189        0.9018     0.90181
   20          H           0.103070        0.8969     0.89693
   21          H           0.080934        0.9191     0.91907
   22          H           0.078952        0.9210     0.92105
 DIPOLE           X         Y         Z       TOTAL
 POINT-CHG.    -0.315    -0.024    -0.018     0.317
 HYBRID         0.013     0.027     0.003     0.030
 SUM           -0.302     0.003    -0.015     0.303


          ATOMIC ORBITAL ELECTRON POPULATIONS

     Atom    s        px        py        pz   
    1  C   1.13948   0.93149   0.97745   0.92270
    2  C   1.13149   0.96490   1.00285   0.92347
    3  C   1.19511   0.95951   1.00967   0.97912
    4  C   1.19510   0.95644   1.01287   0.97916
    5  C   1.19912   0.94029   0.99321   0.99016
    6  C   1.19304   0.96042   1.00913   0.98087
    7  C   1.19305   0.96271   1.00761   0.98002
    8  C   1.18382   0.93786   0.98551   1.01341
    9  C   1.18108   0.94165   0.98231   0.99994
   10  C   1.18372   0.96284   1.00376   1.00150
   11  H   0.92539
   12  H   0.93804
   13  H   0.93972
   14  H   0.89676
   15  H   0.89678
   16  H   0.89327
   17  H   0.90167
   18  H   0.90168
   19  H   0.90181
   20  H   0.89693
   21  H   0.91907
   22  H   0.92105
 *******************************************************************************
 ** Site#: 14399        For non-commercial use only    Version 18.184L 64BITS **
 *******************************************************************************
 ** Cite this program as: MOPAC2016, Version: 18.184L, James J. P. Stewart,   **
 ** Stewart Computational Chemistry, web: HTTP://OpenMOPAC.net. Days left:  18**
 *******************************************************************************
 **                                                                           **
 **                                MOPAC2016                                  **
 **                                                                           **
 *******************************************************************************

                              PM3 CALCULATION RESULTS

 *******************************************************************************
 *  CALCULATION DONE:                                Sat Jun 15 10:11:33 2019  *
 *  PM3        - The PM3 Hamiltonian to be used
 *  OLDGEO     - PREVIOUS GEOMETRY TO BE USED
 *  PRECISE    - CRITERIA TO BE INCREASED BY 100 TIMES
 *  NOSYM      - POINT-GROUP SYMMETRY SET TO C1
 *  THREADS=1  - MULTI-THREADING NOT USED
 *  T=         - A TIME OF 172800.0 SECONDS REQUESTED
 *  DUMP=N     - RESTART FILE WRITTEN EVERY  7200.000 SECONDS
 *  THERMO     - THERMODYNAMIC QUANTITIES TO BE CALCULATED
 *******************************************************************************
oldgeo thermo nosym precise THREADS=1  pm3
 InChI=1S/C10H12/c1-2-3-7-10-8-5-4-6-9-10/h2-3,5-10H,1,4H2

   ATOM   CHEMICAL          X               Y               Z
  NUMBER   SYMBOL      (ANGSTROMS)     (ANGSTROMS)     (ANGSTROMS)
 
     1       C         -0.41429170  *  -0.55012419  *  -0.19400394  *
     2       C         -3.29973682  *   0.11933422  *  -0.19890559  *
     3       C         -1.14165384  *  -0.06466819  *  -1.40715716  *
     4       C         -1.25330140  *  -0.52810014  *   1.04369031  *
     5       C          0.80906385  *   0.28970116  *   0.01998778  *
     6       C         -2.44184375  *   0.22793918  *  -1.40692026  *
     7       C         -2.55314852  *  -0.23404374  *   1.03592688  *
     8       C          2.04644952  *  -0.21330231  *  -0.03878130  *
     9       C          3.22495130  *   0.61490927  *   0.16947035  *
    10       C          4.46030074  *   0.12307982  *   0.09849180  *
    11       H         -0.12846135  *  -1.61719229  *  -0.38280907  *
    12       H         -4.08675945  *  -0.64185664  *  -0.37874952  *
    13       H         -3.83263052  *   1.07926899  *  -0.04159477  *
    14       H         -0.53800775  *   0.03498533  *  -2.31625381  *
    15       H         -0.73361280  *  -0.77644281  *   1.97588381  *
    16       H          0.63027825  *   1.35172091  *   0.22886194  *
    17       H         -2.94088063  *   0.56670598  *  -2.32183672  *
    18       H         -3.13619567  *  -0.24358609  *   1.96375016  *
    19       H          3.05315796  *   1.67611491  *   0.38999291  *
    20       H          2.21748792  *  -1.27772630  *  -0.24867207  *
    21       H          4.67432342  *  -0.92023013  *  -0.11714178  *
    22       H          5.34275191  *   0.73628188  *   0.25226664  *
 


          CARTESIAN COORDINATES 

    NO.       ATOM           X           Y           Z

     1         C         -0.4143     -0.5501     -0.1940
     2         C         -3.2997      0.1193     -0.1989
     3         C         -1.1417     -0.0647     -1.4072
     4         C         -1.2533     -0.5281      1.0437
     5         C          0.8091      0.2897      0.0200
     6         C         -2.4418      0.2279     -1.4069
     7         C         -2.5531     -0.2340      1.0359
     8         C          2.0464     -0.2133     -0.0388
     9         C          3.2250      0.6149      0.1695
    10         C          4.4603      0.1231      0.0985
    11         H         -0.1285     -1.6172     -0.3828
    12         H         -4.0868     -0.6419     -0.3787
    13         H         -3.8326      1.0793     -0.0416
    14         H         -0.5380      0.0350     -2.3163
    15         H         -0.7336     -0.7764      1.9759
    16         H          0.6303      1.3517      0.2289
    17         H         -2.9409      0.5667     -2.3218
    18         H         -3.1362     -0.2436      1.9638
    19         H          3.0532      1.6761      0.3900
    20         H          2.2175     -1.2777     -0.2487
    21         H          4.6743     -0.9202     -0.1171
    22         H          5.3428      0.7363      0.2523

  H: (PM3): J. J. P. STEWART, J. COMP. CHEM. 10, 209 (1989).
  C: (PM3): J. J. P. STEWART, J. COMP. CHEM. 10, 209 (1989).

           Empirical Formula: C10 H12  =    22 atoms



      MOLECULAR POINT GROUP   :   C1  


      RHF CALCULATION, NO. OF DOUBLY OCCUPIED LEVELS = 26



          HEAT OF FORMATION =      54.541716 KCALS/MOLE


          CARTESIAN COORDINATE DERIVATIVES

   NUMBER  ATOM         X            Y            Z

     1       C     -0.004700     0.001208    -0.000557
     2       C     -0.004294    -0.000629     0.002465
     3       C     -0.002908     0.001483    -0.004700
     4       C     -0.001207    -0.003486     0.000926
     5       C     -0.001352     0.002654    -0.003849
     6       C     -0.004242    -0.002882    -0.004571
     7       C     -0.008493     0.001112     0.006342
     8       C      0.002535    -0.003445    -0.001621
     9       C     -0.004346    -0.007942     0.003944
    10       C     -0.003229     0.007807    -0.002055
    11       H      0.001536     0.002905    -0.002112
    12       H      0.007942     0.002826    -0.006448
    13       H     -0.002291    -0.004769     0.004505
    14       H     -0.004051    -0.003390     0.005819
    15       H      0.007195     0.005469    -0.002158
    16       H      0.003932     0.002646    -0.005967
    17       H     -0.000466    -0.001365     0.006346
    18       H      0.010253     0.002218    -0.001189
    19       H     -0.005015    -0.012877     0.006170
    20       H      0.001628    -0.003463    -0.000315
    21       H      0.009350     0.002429     0.005768
    22       H      0.002225     0.011490    -0.006743
 


          GRADIENT NORM =   0.03954


          TIME FOR SCF CALCULATION =    0.00

          TIME FOR DERIVATIVES     =    0.00

          MOLECULAR WEIGHT =  132.20



          ROTATIONAL CONSTANTS IN CM(-1)

          A =    0.14331871   B =    0.01909830   C =    0.01769232



           PRINCIPAL MOMENTS OF INERTIA IN UNITS OF 10**(-40)*GRAM-CM**2

          A =      195.3184   B =     1465.7207   C =     1582.1992


          ORIENTATION OF MOLECULE IN FORCE CALCULATION

    NO.       ATOM         X         Y         Z

     1          C       0.2379   -0.0450    0.6072
     2          C       3.2000   -0.0450    0.6072
     3          C       1.0582    1.2055    0.6072
     4          C       1.0581   -1.2872    0.4645
     5          C      -0.7643    0.0193   -0.5059
     6          C       2.3909    1.2009    0.6152
     7          C       2.3908   -1.2836    0.4730
     8          C      -2.0833    0.0265   -0.2870
     9          C      -3.0444    0.0910   -1.3780
    10          C      -4.3589    0.1125   -1.1662
    11          H      -0.2814   -0.1017    1.5988
    12          H       3.7949   -0.0985    1.5423
    13          H       3.9358    0.0024   -0.2213
    14          H       0.4942    2.1450    0.6055
    15          H       0.4942   -2.2204    0.3554
    16          H      -0.3505    0.0615   -1.5210
    17          H       2.9551    2.1403    0.6302
    18          H       2.9551   -2.2185    0.3806
    19          H      -2.6376    0.1221   -2.3967
    20          H      -2.4901   -0.0157    0.7323
    21          H      -4.8028    0.0834   -0.1748
    22          H      -5.0802    0.1612   -1.9760


    FIRST DERIVATIVES WILL BE USED IN THE CALCULATION OF SECOND DERIVATIVES

          ESTIMATED TIME TO COMPLETE CALCULATION =        2.06 SECONDS

    FOR POINT-GROUP C1   THERE ARE   1 UNIQUE SYMMETRY FUNCTIONS.

 STEP:   1 TIME =     0.02 SECS, INTEGRAL =      0.02 TIME LEFT: 172799.97
 STEP:   2 TIME =     0.02 SECS, INTEGRAL =      0.04 TIME LEFT: 172799.95
 STEP:   3 TIME =     0.02 SECS, INTEGRAL =      0.06 TIME LEFT: 172799.93
 STEP:   4 TIME =     0.02 SECS, INTEGRAL =      0.08 TIME LEFT: 172799.91
 STEP:   5 TIME =     0.02 SECS, INTEGRAL =      0.11 TIME LEFT: 172799.89
 STEP:   6 TIME =     0.02 SECS, INTEGRAL =      0.12 TIME LEFT: 172799.87
 STEP:   7 TIME =     0.02 SECS, INTEGRAL =      0.14 TIME LEFT: 172799.85
 STEP:   8 TIME =     0.02 SECS, INTEGRAL =      0.16 TIME LEFT: 172799.83
 STEP:   9 TIME =     0.02 SECS, INTEGRAL =      0.18 TIME LEFT: 172799.81
 STEP:  10 TIME =     0.02 SECS, INTEGRAL =      0.21 TIME LEFT: 172799.79
 STEP:  11 TIME =     0.02 SECS, INTEGRAL =      0.23 TIME LEFT: 172799.77
 STEP:  12 TIME =     0.02 SECS, INTEGRAL =      0.25 TIME LEFT: 172799.74
 STEP:  13 TIME =     0.02 SECS, INTEGRAL =      0.27 TIME LEFT: 172799.72
 STEP:  14 TIME =     0.02 SECS, INTEGRAL =      0.29 TIME LEFT: 172799.70
 STEP:  15 TIME =     0.02 SECS, INTEGRAL =      0.31 TIME LEFT: 172799.68
 STEP:  16 TIME =     0.02 SECS, INTEGRAL =      0.33 TIME LEFT: 172799.66
 STEP:  17 TIME =     0.02 SECS, INTEGRAL =      0.35 TIME LEFT: 172799.64
 STEP:  18 TIME =     0.02 SECS, INTEGRAL =      0.37 TIME LEFT: 172799.62
 STEP:  19 TIME =     0.02 SECS, INTEGRAL =      0.39 TIME LEFT: 172799.60
 STEP:  20 TIME =     0.02 SECS, INTEGRAL =      0.41 TIME LEFT: 172799.58
 STEP:  21 TIME =     0.02 SECS, INTEGRAL =      0.43 TIME LEFT: 172799.56
 STEP:  22 TIME =     0.02 SECS, INTEGRAL =      0.45 TIME LEFT: 172799.54
 STEP:  23 TIME =     0.02 SECS, INTEGRAL =      0.47 TIME LEFT: 172799.52
 STEP:  24 TIME =     0.02 SECS, INTEGRAL =      0.50 TIME LEFT: 172799.50
 STEP:  25 TIME =     0.02 SECS, INTEGRAL =      0.52 TIME LEFT: 172799.48
 STEP:  26 TIME =     0.02 SECS, INTEGRAL =      0.54 TIME LEFT: 172799.45
 STEP:  27 TIME =     0.02 SECS, INTEGRAL =      0.56 TIME LEFT: 172799.43
 STEP:  28 TIME =     0.02 SECS, INTEGRAL =      0.58 TIME LEFT: 172799.41
 STEP:  29 TIME =     0.02 SECS, INTEGRAL =      0.60 TIME LEFT: 172799.39
 STEP:  30 TIME =     0.02 SECS, INTEGRAL =      0.62 TIME LEFT: 172799.37
 STEP:  31 TIME =     0.02 SECS, INTEGRAL =      0.64 TIME LEFT: 172799.35
 STEP:  32 TIME =     0.02 SECS, INTEGRAL =      0.66 TIME LEFT: 172799.33
 STEP:  33 TIME =     0.02 SECS, INTEGRAL =      0.68 TIME LEFT: 172799.31
 STEP:  34 TIME =     0.02 SECS, INTEGRAL =      0.70 TIME LEFT: 172799.29
 STEP:  35 TIME =     0.02 SECS, INTEGRAL =      0.72 TIME LEFT: 172799.27
 STEP:  36 TIME =     0.02 SECS, INTEGRAL =      0.74 TIME LEFT: 172799.25
 STEP:  37 TIME =     0.02 SECS, INTEGRAL =      0.76 TIME LEFT: 172799.23
 STEP:  38 TIME =     0.02 SECS, INTEGRAL =      0.78 TIME LEFT: 172799.21
 STEP:  39 TIME =     0.02 SECS, INTEGRAL =      0.80 TIME LEFT: 172799.19
 STEP:  40 TIME =     0.02 SECS, INTEGRAL =      0.82 TIME LEFT: 172799.17
 STEP:  41 TIME =     0.02 SECS, INTEGRAL =      0.84 TIME LEFT: 172799.15
 STEP:  42 TIME =     0.02 SECS, INTEGRAL =      0.87 TIME LEFT: 172799.12
 STEP:  43 TIME =     0.02 SECS, INTEGRAL =      0.89 TIME LEFT: 172799.11
 STEP:  44 TIME =     0.02 SECS, INTEGRAL =      0.91 TIME LEFT: 172799.09
 STEP:  45 TIME =     0.02 SECS, INTEGRAL =      0.93 TIME LEFT: 172799.07
 STEP:  46 TIME =     0.02 SECS, INTEGRAL =      0.95 TIME LEFT: 172799.05
 STEP:  47 TIME =     0.02 SECS, INTEGRAL =      0.96 TIME LEFT: 172799.03
 STEP:  48 TIME =     0.02 SECS, INTEGRAL =      0.98 TIME LEFT: 172799.01
 STEP:  49 TIME =     0.02 SECS, INTEGRAL =      1.01 TIME LEFT: 172798.98
 STEP:  50 TIME =     0.02 SECS, INTEGRAL =      1.03 TIME LEFT: 172798.96
 STEP:  51 TIME =     0.02 SECS, INTEGRAL =      1.05 TIME LEFT: 172798.95
 STEP:  52 TIME =     0.02 SECS, INTEGRAL =      1.07 TIME LEFT: 172798.92
 STEP:  53 TIME =     0.02 SECS, INTEGRAL =      1.09 TIME LEFT: 172798.90
 STEP:  54 TIME =     0.02 SECS, INTEGRAL =      1.11 TIME LEFT: 172798.88
 STEP:  55 TIME =     0.02 SECS, INTEGRAL =      1.13 TIME LEFT: 172798.86
 STEP:  56 TIME =     0.02 SECS, INTEGRAL =      1.16 TIME LEFT: 172798.84
 STEP:  57 TIME =     0.02 SECS, INTEGRAL =      1.18 TIME LEFT: 172798.82
 STEP:  58 TIME =     0.02 SECS, INTEGRAL =      1.20 TIME LEFT: 172798.79
 STEP:  59 TIME =     0.02 SECS, INTEGRAL =      1.22 TIME LEFT: 172798.77
 STEP:  60 TIME =     0.02 SECS, INTEGRAL =      1.24 TIME LEFT: 172798.75
 STEP:  61 TIME =     0.02 SECS, INTEGRAL =      1.26 TIME LEFT: 172798.73
 STEP:  62 TIME =     0.02 SECS, INTEGRAL =      1.28 TIME LEFT: 172798.71
 STEP:  63 TIME =     0.02 SECS, INTEGRAL =      1.30 TIME LEFT: 172798.69
 STEP:  64 TIME =     0.02 SECS, INTEGRAL =      1.32 TIME LEFT: 172798.67
 STEP:  65 TIME =     0.02 SECS, INTEGRAL =      1.34 TIME LEFT: 172798.65
 STEP:  66 TIME =     0.02 SECS, INTEGRAL =      1.37 TIME LEFT: 172798.62

(To convert to Hartree/Bohr^2, multiply by (10^(-21) x N x a0^2)/(4.184 x 627.51) =  0.0642)


           FORCE MATRIX IN MILLIDYNES/ANGSTROM


                  C  1       C  2       C  3       C  4       C  5       C  6
 ------------------------------------------------------------------------------
     C    1  15.312643
     C    2   0.197922  15.137813
     C    3   4.686736   0.846543  18.269790
     C    4   4.688094   0.847114   0.712252  18.262397
     C    5   4.575690   0.015318   0.748383   0.748079  17.992639
     C    6   0.819231   5.030472  10.747233   0.054964   0.042428  18.279418
     C    7   0.818724   5.030156   0.055019  10.745301   0.042444   0.739427
     C    8   0.785992   0.002313   0.042470   0.042179  10.434268   0.006152
     C    9   0.141654   0.001168   0.020584   0.020751   1.063734   0.004061
     C   10   0.013822   0.000909   0.002932   0.002771   0.100188   0.001104
     H   11   4.096597   0.012424   0.393015   0.393181   0.457013   0.033740
     H   12   0.013756   4.380429   0.035527   0.035468   0.004161   0.420594
     H   13   0.014661   4.401918   0.039501   0.039530   0.001983   0.421327
     H   14   0.429964   0.124905   4.827432   0.044112   0.023532   0.443640
     H   15   0.430251   0.124538   0.043880   4.827770   0.023307   0.003377
     H   16   0.433144   0.001581   0.012437   0.013238   4.794467   0.002423
     H   17   0.122181   0.424534   0.443952   0.004146   0.016490   4.821401
     H   18   0.122573   0.424555   0.004114   0.443939   0.016542   0.045664
     H   19   0.002503   0.000203   0.001062   0.000992   0.041477   0.000499
     H   20   0.082005   0.000407   0.009487   0.009579   0.466053   0.002055
     H   21   0.005625   0.000297   0.001342   0.001308   0.005582   0.000438
     H   22   0.010275   0.000313   0.001894   0.001875   0.008055   0.000690


                  C  7       C  8       C  9       C 10       H 11       H 12
 ------------------------------------------------------------------------------
     C    7  18.278739
     C    8   0.006170  18.486441
     C    9   0.003586   5.593136  18.468835
     C   10   0.001222   1.069138  10.793783  17.899407
     H   11   0.033792   0.052686   0.002020   0.001116   4.547685
     H   12   0.420686   0.000483   0.000224   0.000185   0.002325   4.966807
     H   13   0.421357   0.000335   0.000454   0.000264   0.002379   0.564297
     H   14   0.003334   0.003317   0.001669   0.000541   0.022748   0.016515
     H   15   0.443647   0.003143   0.001729   0.000669   0.022708   0.016524
     H   16   0.002614   0.465323   0.088727   0.006450   0.037616   0.000923
     H   17   0.045752   0.001735   0.001328   0.000555   0.015273   0.024441
     H   18   4.821147   0.002028   0.001428   0.000565   0.015326   0.024313
     H   19   0.000493   0.446253   4.773452   0.451644   0.000698   0.000176
     H   20   0.002021   4.744458   0.444387   0.038471   0.029518   0.000121
     H   21   0.000405   0.102327   0.488183   5.076055   0.000337   0.000100
     H   22   0.000681   0.137844   0.460184   5.113233   0.000186   0.000061


                  H 13       H 14       H 15       H 16       H 17       H 18
 ------------------------------------------------------------------------------
     H   13   4.984586
     H   14   0.015470   5.202578
     H   15   0.015366   0.006343   5.203039
     H   16   0.000781   0.003828   0.003821   5.170395
     H   17   0.031123   0.070312   0.000970   0.000749   5.197319
     H   18   0.031193   0.000949   0.070160   0.000740   0.006479   5.197119
     H   19   0.000152   0.000515   0.000496   0.028118   0.000130   0.000114
     H   20   0.000254   0.001167   0.001159   0.103513   0.000562   0.000592
     H   21   0.000115   0.000398   0.000373   0.003097   0.000162   0.000199
     H   22   0.000086   0.000275   0.000271   0.004623   0.000165   0.000138


                  H 19       H 20       H 21       H 22
 ------------------------------------------------------
     H   19   5.141562
     H   20   0.035481   5.120354
     H   21   0.117449   0.025646   5.470014
     H   22   0.079059   0.002469   0.420701   5.497709


          HEAT OF FORMATION =      54.541716 KCALS/MOLE

          ZERO POINT ENERGY     116.678 KCAL/MOL


           NORMAL COORDINATE ANALYSIS (Total motion = 1 Angstrom)


   Root No.       1         2         3         4         5         6         7         8

                 1 A       2 A       3 A       4 A       5 A       6 A       7 A       8 A   

                  43.7      47.0      93.8     154.7     166.5     262.0     327.2     355.5
  
           1   -0.0014    0.0076   -0.0002    0.0012   -0.0045    0.0080   -0.0001    0.0063
           2   -0.0311   -0.0042   -0.0194    0.0095    0.0033    0.0009   -0.0213    0.0017
           3    0.0044   -0.0352   -0.0012    0.0038   -0.0205   -0.0261   -0.0013   -0.0270
           4   -0.0008    0.0041   -0.0001    0.0010   -0.0033    0.0273   -0.0005   -0.0333
           5    0.0268    0.0013    0.0053   -0.0079   -0.0004    0.0011    0.0047    0.0005
           6   -0.0105    0.0702    0.0000    0.0031   -0.0163   -0.0162    0.0004   -0.0091
           7   -0.0252    0.0033   -0.0103    0.0074   -0.0034    0.0184   -0.0109   -0.0180
           8   -0.0152   -0.0014   -0.0126    0.0048    0.0012   -0.0048   -0.0164    0.0136
           9    0.0009   -0.0412   -0.0057    0.0130    0.0175   -0.0078    0.0237   -0.0292
          10    0.0222    0.0129    0.0100   -0.0049   -0.0058    0.0190    0.0102   -0.0183
          11   -0.0160   -0.0004   -0.0133    0.0070   -0.0003    0.0047   -0.0139   -0.0100
          12    0.0104   -0.0382    0.0051   -0.0187    0.0118   -0.0072   -0.0251   -0.0297
          13    0.0002   -0.0054    0.0003   -0.0041    0.0196   -0.0261    0.0010    0.0067
          14   -0.0492   -0.0088   -0.0251    0.0018    0.0027    0.0003    0.0492    0.0003
          15    0.0019   -0.0235   -0.0020    0.0085   -0.0440    0.0020    0.0019   -0.0089
          16   -0.0251    0.0031   -0.0104    0.0076   -0.0036    0.0192   -0.0114   -0.0205
          17    0.0109    0.0012   -0.0014   -0.0035   -0.0009   -0.0048   -0.0026    0.0094
          18   -0.0069    0.0085   -0.0063    0.0183    0.0289    0.0329   -0.0392    0.0198
          19    0.0222    0.0126    0.0101   -0.0050   -0.0060    0.0198    0.0107   -0.0208
          20    0.0101    0.0019   -0.0022   -0.0006   -0.0024    0.0007   -0.0072   -0.0113
          21    0.0040    0.0119    0.0069   -0.0270    0.0204    0.0345    0.0382    0.0178
          22    0.0004   -0.0023    0.0015   -0.0036    0.0206   -0.0272    0.0008    0.0181
          23   -0.0007   -0.0004    0.0693    0.0484    0.0101   -0.0010    0.0224   -0.0021
          24    0.0012   -0.0047    0.0021    0.0102   -0.0390    0.0136    0.0016    0.0426
          25    0.0032   -0.0192    0.0007    0.0006   -0.0098   -0.0265    0.0001    0.0401
          26   -0.0039   -0.0010    0.0542   -0.0455   -0.0093    0.0007   -0.0080   -0.0017
          27   -0.0014    0.0102    0.0020    0.0007   -0.0117    0.0090    0.0004    0.0318
          28    0.0040   -0.0156   -0.0015   -0.0004   -0.0013   -0.0328    0.0001    0.0376
          29    0.0602    0.0106   -0.0500   -0.0069   -0.0023    0.0018   -0.0033   -0.0007
          30   -0.0027    0.0318   -0.0010   -0.0099    0.0447   -0.0289   -0.0003   -0.0026
          31   -0.0027    0.0177   -0.0007    0.0067   -0.0325    0.0200   -0.0008    0.0188
          32   -0.0374   -0.0054   -0.0198    0.0034    0.0032    0.0001   -0.0657    0.0018
          33    0.0033   -0.0297   -0.0015    0.0062   -0.0342   -0.0187   -0.0042   -0.0193
          34    0.0107   -0.0653    0.0008   -0.0087    0.0490    0.1044   -0.0012    0.0197
          35    0.0427    0.0024    0.0154   -0.0298   -0.0025    0.0046    0.0520    0.0020
          36   -0.0169    0.1145    0.0000    0.0081   -0.0500   -0.0659    0.0035   -0.0437
          37   -0.0111    0.0657   -0.0009    0.0096   -0.0497   -0.0404    0.0000   -0.0816
          38    0.0375   -0.0002    0.0068    0.0040    0.0043    0.0042   -0.0251    0.0034
          39   -0.0190    0.1249   -0.0006    0.0115   -0.0576   -0.0773   -0.0008   -0.0529
          40   -0.0436    0.0011   -0.0183    0.0129   -0.0023    0.0240   -0.0208   -0.0285
          41   -0.0262   -0.0028   -0.0173    0.0081    0.0019   -0.0014   -0.0221    0.0071
          42    0.0040   -0.0864   -0.0096    0.0197    0.0432   -0.0024    0.0579   -0.0508
          43    0.0400    0.0180    0.0179   -0.0103   -0.0069    0.0250    0.0199   -0.0289
          44   -0.0279    0.0015   -0.0185    0.0120   -0.0022    0.0004   -0.0155   -0.0012
          45    0.0205   -0.0808    0.0094   -0.0343    0.0335   -0.0021   -0.0594   -0.0493
          46    0.0016   -0.0188   -0.0004   -0.0071    0.0278   -0.0472    0.0015   -0.0182
          47   -0.0988   -0.0180   -0.1091   -0.0723   -0.0111    0.0022    0.1131    0.0006
          48    0.0004   -0.0292   -0.0057    0.0040   -0.0401   -0.0069    0.0048   -0.0190
          49   -0.0435    0.0013   -0.0183    0.0131   -0.0028    0.0157   -0.0211   -0.0126
          50    0.0220    0.0022    0.0034   -0.0071   -0.0019   -0.0032    0.0040    0.0037
          51   -0.0107    0.0060   -0.0109    0.0320    0.0670    0.0858   -0.0927    0.0621
          52    0.0400    0.0181    0.0180   -0.0105   -0.0073    0.0169    0.0206   -0.0130
          53    0.0203    0.0052    0.0020   -0.0013   -0.0063   -0.0066   -0.0066   -0.0104
          54    0.0088    0.0123    0.0129   -0.0528    0.0508    0.0883    0.0914    0.0593
          55    0.0048   -0.0355    0.0016    0.0056   -0.0458   -0.0115   -0.0005    0.0637
          56   -0.0596   -0.0109    0.1226   -0.1613   -0.0324    0.0019   -0.0567   -0.0013
          57   -0.0025    0.0035    0.0044   -0.0010   -0.0261    0.0143   -0.0013    0.0405
          58   -0.0015    0.0127    0.0027   -0.0053    0.0372   -0.0261    0.0008    0.0318
          59    0.0473    0.0084    0.1508    0.1387    0.0263   -0.0027   -0.0158   -0.0021
          60    0.0025    0.0017    0.0060    0.0130   -0.0306    0.0133   -0.0000    0.0470
          61    0.0024    0.0004   -0.0022   -0.0073    0.0426   -0.0656    0.0005    0.0106
          62    0.1162    0.0205   -0.1225    0.1075    0.0201    0.0015    0.0490   -0.0010
          63   -0.0018    0.0393   -0.0035   -0.0097    0.0653   -0.0440    0.0014   -0.0152
          64    0.0064   -0.0286   -0.0027    0.0056   -0.0379   -0.0060   -0.0002    0.0633
          65    0.0611    0.0109   -0.0714   -0.0870   -0.0185    0.0032   -0.0515    0.0004
          66   -0.0048    0.0434   -0.0012   -0.0201    0.0765   -0.0532   -0.0029   -0.0251


   Root No.       9        10        11        12        13        14        15        16

                 9 A      10 A      11 A      12 A      13 A      14 A      15 A      16 A   

                 439.9     456.3     559.8     589.7     590.4     625.3     755.2     780.7
  
           1    0.0002    0.0038    0.0318   -0.0341    0.0156   -0.0001   -0.0050    0.0000
           2   -0.0209    0.0032   -0.0019   -0.0078   -0.0349   -0.0060   -0.0010    0.0008
           3   -0.0027   -0.0210    0.0358    0.0309   -0.0162    0.0009    0.0168    0.0002
           4   -0.0003   -0.0049   -0.0316    0.0309   -0.0141    0.0001    0.0109    0.0001
           5    0.0066   -0.0007   -0.0001    0.0059    0.0368    0.0030    0.0014   -0.0009
           6    0.0007    0.0023    0.0006    0.0076   -0.0012    0.0004   -0.0244   -0.0003
           7   -0.0082    0.0004    0.0026    0.0018    0.0623   -0.0014   -0.0061    0.0007
           8   -0.0186    0.0041    0.0240   -0.0365   -0.0439   -0.0101   -0.0084    0.0021
           9   -0.0403    0.0256   -0.0107   -0.0103    0.0079   -0.0047   -0.0222    0.0258
          10    0.0081   -0.0011    0.0027   -0.0189   -0.0545    0.0013   -0.0060   -0.0009
          11   -0.0237   -0.0026   -0.0222    0.0186   -0.0684   -0.0102    0.0108    0.0053
          12    0.0420    0.0188   -0.0135   -0.0097   -0.0057    0.0032   -0.0206   -0.0259
          13    0.0024    0.0209    0.0347    0.0170   -0.0077    0.0013    0.0128    0.0002
          14    0.0406   -0.0023   -0.0020   -0.0015   -0.0079    0.0344   -0.0009    0.0002
          15   -0.0016   -0.0416    0.0244   -0.0133    0.0057    0.0016    0.0167    0.0002
          16   -0.0105    0.0006    0.0003    0.0030    0.0631   -0.0028   -0.0069    0.0019
          17   -0.0020    0.0032    0.0234   -0.0180    0.0734   -0.0005   -0.0128    0.0008
          18    0.0227   -0.0139    0.0085    0.0046   -0.0016    0.0022   -0.0066    0.0231
          19    0.0104   -0.0014    0.0004   -0.0182   -0.0561    0.0026   -0.0068   -0.0021
          20    0.0005   -0.0015   -0.0244    0.0385    0.0471   -0.0000    0.0134    0.0038
          21   -0.0252   -0.0106    0.0059    0.0089    0.0028   -0.0019   -0.0046   -0.0230
          22    0.0024    0.0253    0.0235    0.0200   -0.0090    0.0009    0.0113    0.0001
          23    0.0175   -0.0029    0.0006   -0.0004   -0.0008    0.0218    0.0005   -0.0044
          24    0.0019    0.0106   -0.0296   -0.0052    0.0022    0.0005   -0.0099   -0.0004
          25   -0.0014   -0.0142   -0.0280   -0.0008    0.0003   -0.0018   -0.0025    0.0000
          26    0.0018   -0.0017    0.0008    0.0002    0.0019   -0.0604   -0.0003    0.0020
          27    0.0045    0.0486    0.0062    0.0208   -0.0094   -0.0021    0.0040    0.0001
          28   -0.0026   -0.0256   -0.0349   -0.0044    0.0018   -0.0005   -0.0042   -0.0001
          29   -0.0030    0.0017    0.0010    0.0000   -0.0005    0.0068    0.0001    0.0002
          30   -0.0023   -0.0225   -0.0086   -0.0026    0.0011   -0.0000    0.0010    0.0000
          31   -0.0031   -0.0305    0.0619   -0.0539    0.0248   -0.0005    0.0294    0.0005
          32    0.0041    0.0025   -0.0026   -0.0016   -0.0043   -0.0122   -0.0015   -0.0456
          33   -0.0029   -0.0378    0.0496    0.0197   -0.0091    0.0002    0.0349   -0.0022
          34   -0.0049   -0.0555    0.0094    0.0919   -0.0420    0.0022   -0.0850   -0.0011
          35   -0.0206   -0.0007    0.0015    0.0023    0.0020    0.0009   -0.0017   -0.0544
          36    0.0021    0.0357   -0.0269   -0.0331    0.0153   -0.0011    0.0396   -0.0026
          37    0.0037    0.0396   -0.0715   -0.0192    0.0088   -0.0017    0.0972    0.0011
          38    0.0445   -0.0061    0.0019   -0.0009   -0.0176    0.0104   -0.0036    0.0353
          39    0.0065    0.0429   -0.0358   -0.0395    0.0170   -0.0008    0.0551    0.0026
          40   -0.0188   -0.0013   -0.0161    0.0143    0.0208   -0.0065   -0.0036    0.0037
          41   -0.0246    0.0031    0.0124   -0.0287   -0.0682   -0.0129   -0.0067    0.0034
          42   -0.1065    0.0839   -0.0756   -0.1013    0.0599   -0.0288    0.0595   -0.1684
          43    0.0183   -0.0049   -0.0162    0.0051   -0.0296    0.0064   -0.0036   -0.0041
          44   -0.0380   -0.0058   -0.0031    0.0151   -0.0862   -0.0151    0.0003   -0.0157
          45    0.1156    0.0656   -0.0775   -0.1059    0.0253    0.0201    0.0565    0.1694
          46    0.0025    0.0094    0.0753    0.0469   -0.0214    0.0021    0.0478    0.0003
          47    0.1264   -0.0098   -0.0022   -0.0010   -0.0046   -0.0065   -0.0006   -0.0281
          48    0.0021   -0.0455    0.0406   -0.0004   -0.0001    0.0003    0.0308   -0.0009
          49   -0.0238    0.0039    0.0206   -0.0265    0.0430   -0.0106   -0.0206    0.0047
          50    0.0053    0.0013    0.0113    0.0004    0.0842    0.0041   -0.0078    0.0023
          51    0.0573   -0.0225   -0.0093   -0.0475    0.0207   -0.0041    0.1727   -0.1790
          52    0.0239   -0.0006    0.0204   -0.0373   -0.0136    0.0102   -0.0202   -0.0050
          53    0.0120   -0.0006   -0.0105    0.0319    0.0691    0.0041   -0.0114   -0.0182
          54   -0.0608   -0.0141   -0.0106   -0.0436    0.0305    0.0005    0.1687    0.1823
          55   -0.0014   -0.0065   -0.0497   -0.0033    0.0012   -0.0002   -0.0109   -0.0001
          56   -0.0415    0.0028    0.0001   -0.0018   -0.0023    0.0334   -0.0002    0.0062
          57    0.0030    0.0498   -0.0029    0.0190   -0.0089    0.0014    0.0007    0.0002
          58    0.0053    0.0678    0.0275    0.0414   -0.0188    0.0031    0.0117    0.0002
          59   -0.0415    0.0005   -0.0012   -0.0026   -0.0007    0.1306    0.0005    0.0019
          60    0.0006    0.0274   -0.0274    0.0035   -0.0019    0.0059   -0.0096   -0.0001
          61   -0.0086   -0.1047   -0.0661   -0.0395    0.0180   -0.0063   -0.0206   -0.0002
          62    0.0498   -0.0007    0.0048    0.0054    0.0068   -0.2218    0.0000    0.0076
          63   -0.0036   -0.0595   -0.0230   -0.0189    0.0089   -0.0093   -0.0068    0.0002
          64    0.0020    0.0402   -0.0143    0.0253   -0.0120    0.0076    0.0081   -0.0001
          65   -0.0617    0.0085   -0.0020   -0.0051   -0.0113    0.3385    0.0014   -0.0118
          66   -0.0100   -0.0826   -0.0290   -0.0302    0.0131    0.0126   -0.0106   -0.0007


   Root No.      17        18        19        20        21        22        23        24

                17 A      18 A      19 A      20 A      21 A      22 A      23 A      24 A   

                 877.5     911.3     919.1     921.7     946.6     957.0     971.8     982.2
  
           1    0.0260    0.0006   -0.0224    0.0019   -0.0034   -0.0004    0.0000   -0.0307
           2    0.0010    0.0039   -0.0010   -0.0030    0.0006   -0.0049    0.0064   -0.0013
           3   -0.0167   -0.0000    0.0148   -0.0016   -0.0072   -0.0004    0.0003    0.0214
           4    0.0262    0.0007   -0.0334    0.0031    0.0046    0.0002   -0.0001   -0.0164
           5   -0.0021    0.0032   -0.0023   -0.0022    0.0005   -0.0032    0.0048   -0.0009
           6    0.0376   -0.0007    0.0381   -0.0036   -0.0065   -0.0004    0.0003    0.0155
           7   -0.0165   -0.0004    0.0157   -0.0015   -0.0011   -0.0007    0.0010    0.0056
           8    0.0240   -0.0075   -0.0369    0.0100    0.0112    0.0076   -0.0088    0.0311
           9   -0.0143   -0.0005   -0.0239    0.0017    0.0038   -0.0036   -0.0238    0.0015
          10   -0.0165   -0.0003    0.0157   -0.0013   -0.0012    0.0006   -0.0010    0.0056
          11   -0.0224   -0.0089    0.0399    0.0024   -0.0122    0.0056   -0.0111   -0.0309
          12   -0.0169    0.0004   -0.0194    0.0030    0.0024    0.0044    0.0227   -0.0019
          13    0.0086    0.0006   -0.0033   -0.0004   -0.0136   -0.0009    0.0001   -0.0046
          14   -0.0009    0.0425   -0.0018   -0.0433    0.0010   -0.0350    0.0073    0.0010
          15    0.0191    0.0023   -0.0021   -0.0020    0.0091   -0.0016    0.0003   -0.0128
          16   -0.0179   -0.0032    0.0136    0.0009    0.0004    0.0022   -0.0039    0.0087
          17   -0.0322   -0.0037    0.0252    0.0001   -0.0022    0.0033   -0.0053   -0.0138
          18   -0.0086   -0.0025   -0.0133    0.0042    0.0039    0.0050    0.0216   -0.0189
          19   -0.0178    0.0026    0.0134   -0.0033    0.0007   -0.0020    0.0039    0.0087
          20    0.0329   -0.0028   -0.0233    0.0047    0.0014    0.0039   -0.0027    0.0160
          21   -0.0049    0.0027   -0.0162   -0.0010    0.0042   -0.0042   -0.0220   -0.0173
          22    0.0062   -0.0005   -0.0012   -0.0004   -0.0127    0.0001   -0.0000   -0.0041
          23    0.0001   -0.0343   -0.0021   -0.0298    0.0000    0.0458   -0.0047   -0.0004
          24   -0.0045   -0.0017   -0.0063   -0.0009   -0.0276    0.0012   -0.0001    0.0033
          25   -0.0026   -0.0005    0.0030   -0.0002    0.0108   -0.0003    0.0000    0.0010
          26    0.0001   -0.0247   -0.0007    0.0013    0.0013   -0.0307    0.0023   -0.0001
          27   -0.0023   -0.0010    0.0030   -0.0003   -0.0035   -0.0014    0.0001    0.0036
          28   -0.0041   -0.0001    0.0054   -0.0003    0.0246    0.0004   -0.0000    0.0012
          29    0.0001   -0.0015   -0.0004    0.0023   -0.0017   -0.0214    0.0029    0.0002
          30   -0.0006    0.0001    0.0084   -0.0005    0.0502    0.0007   -0.0000   -0.0026
          31    0.0871    0.0002   -0.0302    0.0032   -0.0086   -0.0002    0.0004   -0.1003
          32   -0.0005    0.0043   -0.0013   -0.0101    0.0015   -0.0052    0.1102   -0.0002
          33    0.0149   -0.0002    0.0116   -0.0015   -0.0105   -0.0003    0.0065   -0.0166
          34    0.1318   -0.0013    0.0603   -0.0053   -0.0104   -0.0003   -0.0003    0.0216
          35    0.0018    0.0185    0.0008   -0.0156    0.0007   -0.0299   -0.0532   -0.0001
          36   -0.0305    0.0016   -0.0255    0.0014    0.0038   -0.0016   -0.0030   -0.0086
          37   -0.0531    0.0029   -0.1344    0.0123    0.0214    0.0008   -0.0002   -0.0562
          38    0.0022    0.0097    0.0029   -0.0049    0.0002   -0.0046    0.0902    0.0012
          39   -0.0369    0.0017   -0.0520    0.0044    0.0083    0.0000    0.0051   -0.0220
          40   -0.0116   -0.0007    0.0021    0.0022    0.0120   -0.0021    0.0065    0.0966
          41    0.0275   -0.0075   -0.0455    0.0121    0.0191    0.0067   -0.0050    0.0845
          42    0.1399   -0.0094    0.1305   -0.0037   -0.0151    0.0249    0.1377   -0.0144
          43   -0.0116    0.0003    0.0015   -0.0022    0.0118    0.0041   -0.0063    0.0970
          44   -0.0434   -0.0094    0.0312    0.0052   -0.0179    0.0068    0.0111   -0.0823
          45    0.1355    0.0025    0.1342   -0.0189   -0.0166   -0.0247   -0.1374   -0.0242
          46    0.0137   -0.0014    0.0206    0.0023   -0.0229    0.0004    0.0000    0.0068
          47   -0.0013   -0.1275    0.0196    0.3597   -0.0041    0.0992   -0.0189   -0.0009
          48    0.0205   -0.0056    0.0088    0.0158    0.0051    0.0045   -0.0008   -0.0076
          49   -0.0168   -0.0160    0.0031    0.0123    0.0122    0.0159   -0.0246    0.1012
          50   -0.0327    0.0033    0.0310   -0.0061   -0.0085   -0.0042    0.0093   -0.0689
          51   -0.0447    0.0197    0.0187   -0.0216   -0.0142   -0.0312   -0.1339    0.0773
          52   -0.0165    0.0153    0.0022   -0.0120    0.0136   -0.0136    0.0247    0.1009
          53    0.0377    0.0068   -0.0333   -0.0021    0.0106   -0.0062   -0.0059    0.0596
          54   -0.0410   -0.0194    0.0165    0.0164   -0.0142    0.0293    0.1342    0.0847
          55   -0.0109    0.0047   -0.0054    0.0009   -0.0720    0.0018   -0.0000    0.0171
          56    0.0001    0.2676    0.0083    0.0382   -0.0061    0.1680   -0.0120   -0.0011
          57   -0.0055    0.0099   -0.0002    0.0013   -0.0375    0.0055   -0.0003    0.0101
          58   -0.0007    0.0014   -0.0045    0.0048   -0.0852   -0.0042    0.0003    0.0047
          59    0.0002    0.1378    0.0234    0.3264    0.0076   -0.1433    0.0111    0.0005
          60   -0.0075    0.0062   -0.0066    0.0159   -0.0565   -0.0083    0.0007    0.0073
          61   -0.0058    0.0024   -0.0343    0.0024   -0.2090   -0.0026    0.0002    0.0169
          62   -0.0000    0.1612    0.0056    0.0144   -0.0005    0.1596   -0.0166   -0.0014
          63   -0.0013    0.0060   -0.0102    0.0012   -0.0601    0.0045   -0.0005    0.0046
          64   -0.0058   -0.0006    0.0416   -0.0036    0.2290    0.0095   -0.0010   -0.0090
          65    0.0002   -0.0620   -0.0027   -0.0298   -0.0026    0.0996   -0.0138   -0.0009
          66    0.0006   -0.0031   -0.0245    0.0005   -0.1357   -0.0002   -0.0001    0.0071


   Root No.      25        26        27        28        29        30        31        32

                25 A      26 A      27 A      28 A      29 A      30 A      31 A      32 A   

                1011.3    1012.7    1028.5    1032.7    1066.3    1071.7    1125.2    1148.2
  
           1   -0.0066   -0.0004    0.0369   -0.0014    0.0000   -0.0001   -0.0179    0.0002
           2   -0.0017    0.0186    0.0013   -0.0009    0.0048    0.0041   -0.0016   -0.0134
           3    0.0115    0.0015   -0.0241    0.0008    0.0003    0.0003    0.0252   -0.0003
           4    0.0548    0.0019   -0.0263    0.0010   -0.0000   -0.0000    0.0033    0.0000
           5   -0.0026    0.0175   -0.0014   -0.0019    0.0075   -0.0179   -0.0000   -0.0002
           6    0.0283    0.0022    0.0222   -0.0010    0.0004   -0.0010    0.0016   -0.0001
           7   -0.0133    0.0071    0.0040   -0.0011    0.0046   -0.0115   -0.0015   -0.0005
           8    0.0246   -0.0178   -0.0252    0.0018   -0.0033   -0.0043    0.0033    0.0054
           9    0.0105    0.0186    0.0299   -0.0047    0.0113    0.0142    0.0077    0.0030
          10   -0.0125   -0.0080    0.0041    0.0008   -0.0046    0.0115   -0.0015    0.0004
          11   -0.0237   -0.0176    0.0219   -0.0003   -0.0020   -0.0027   -0.0040    0.0057
          12    0.0099   -0.0197    0.0329    0.0023   -0.0115   -0.0145    0.0074   -0.0027
          13   -0.0041   -0.0004    0.0043    0.0001   -0.0001   -0.0001   -0.0324    0.0003
          14    0.0011   -0.0107   -0.0004    0.0153   -0.0048    0.0015    0.0034    0.0036
          15   -0.0098   -0.0011    0.0094    0.0005   -0.0003   -0.0001   -0.0528    0.0001
          16    0.0005   -0.0049   -0.0061    0.0003    0.0010   -0.0063    0.0021    0.0035
          17    0.0402   -0.0175   -0.0235    0.0029   -0.0047    0.0156    0.0053    0.0010
          18   -0.0267   -0.0038   -0.0319    0.0009   -0.0349   -0.0076   -0.0017   -0.0012
          19   -0.0000    0.0050   -0.0061    0.0001   -0.0010    0.0063    0.0020   -0.0034
          20   -0.0348   -0.0203    0.0272    0.0010   -0.0086    0.0145   -0.0051    0.0010
          21   -0.0313   -0.0008   -0.0289    0.0017    0.0342    0.0092   -0.0023    0.0014
          22   -0.0044   -0.0001    0.0027   -0.0004    0.0000   -0.0001   -0.0210    0.0002
          23   -0.0003    0.0048   -0.0006   -0.0263    0.0024   -0.0002    0.0004   -0.0014
          24    0.0019    0.0003    0.0005   -0.0011    0.0001    0.0000   -0.0062    0.0002
          25    0.0008    0.0001   -0.0010    0.0011   -0.0000    0.0000   -0.0010    0.0000
          26   -0.0002    0.0030    0.0017    0.0501   -0.0015    0.0001    0.0005    0.0002
          27    0.0001    0.0002   -0.0061    0.0023   -0.0001    0.0000   -0.0051   -0.0001
          28    0.0019   -0.0001   -0.0010   -0.0015    0.0000    0.0000    0.0090    0.0000
          29    0.0004   -0.0083   -0.0021   -0.0648    0.0012   -0.0002   -0.0006   -0.0001
          30    0.0014   -0.0003    0.0027   -0.0028    0.0000   -0.0000    0.0071   -0.0001
          31   -0.0597   -0.0021    0.0753   -0.0040   -0.0000    0.0008    0.3475   -0.0010
          32   -0.0106    0.2100   -0.0014   -0.0348   -0.0134    0.2396   -0.0134    0.0805
          33   -0.0165    0.0116   -0.0038   -0.0025   -0.0008    0.0143    0.2121    0.0045
          34    0.1384    0.0053    0.0164   -0.0007   -0.0002    0.0000    0.0108   -0.0001
          35   -0.0085    0.1702   -0.0010   -0.0317   -0.2734   -0.1818    0.0010    0.0879
          36   -0.0250    0.0088   -0.0070   -0.0015   -0.0155   -0.0104   -0.0026    0.0050
          37    0.0274    0.0006   -0.0891    0.0034    0.0001   -0.0000    0.0041    0.0001
          38   -0.0034    0.0670    0.0016    0.0008    0.3405   -0.1384    0.0009    0.1288
          39    0.0010    0.0037   -0.0331    0.0013    0.0195   -0.0079    0.0017    0.0074
          40   -0.0834    0.0604   -0.0154   -0.0091    0.0393   -0.1021    0.0161   -0.1150
          41   -0.0142    0.0139   -0.0386   -0.0028    0.0168   -0.0558    0.0138   -0.0631
          42   -0.0424   -0.0500   -0.0982    0.0127   -0.0215   -0.0263   -0.0045   -0.0035
          43   -0.0762   -0.0654   -0.0143    0.0102   -0.0394    0.1025    0.0167    0.1128
          44    0.0181    0.0089    0.0493   -0.0050    0.0144   -0.0587   -0.0135   -0.0619
          45   -0.0467    0.0473   -0.0939   -0.0057    0.0232    0.0198   -0.0062   -0.0026
          46   -0.0156    0.0001   -0.0443    0.0010    0.0002    0.0003    0.0043   -0.0037
          47   -0.0012    0.0384    0.0010   -0.0432    0.0108    0.0066    0.0004   -0.0057
          48   -0.0143    0.0012   -0.0108   -0.0015    0.0005    0.0002   -0.0389   -0.0019
          49   -0.0653   -0.0537   -0.0065    0.0025   -0.0194   -0.0314    0.0214    0.1695
          50    0.0787    0.0116   -0.0273    0.0017    0.0067    0.0278   -0.0057   -0.0966
          51    0.1015    0.0225    0.1008   -0.0049    0.0611    0.0163    0.0070   -0.0023
          52   -0.0710    0.0496   -0.0069   -0.0022    0.0195    0.0317    0.0193   -0.1677
          53   -0.0911    0.0079    0.0157   -0.0002    0.0137    0.0295    0.0037   -0.0951
          54    0.0949   -0.0131    0.1030   -0.0025   -0.0602   -0.0130    0.0072   -0.0083
          55    0.0034    0.0004   -0.0256   -0.0019    0.0002    0.0002    0.0457   -0.0024
          56    0.0005   -0.0082   -0.0027   -0.1422    0.0038    0.0005   -0.0021   -0.0003
          57    0.0011   -0.0000   -0.0161   -0.0047    0.0002    0.0001    0.0123   -0.0011
          58   -0.0065   -0.0003   -0.0167    0.0009    0.0001    0.0000    0.1653   -0.0008
          59    0.0006   -0.0106    0.0023    0.0718   -0.0066    0.0030   -0.0046    0.0047
          60    0.0013   -0.0004   -0.0074    0.0035   -0.0002    0.0002    0.0649    0.0000
          61   -0.0018    0.0009   -0.0183    0.0056   -0.0000    0.0002    0.0036   -0.0000
          62   -0.0016    0.0300    0.0074    0.2127   -0.0038    0.0011    0.0003    0.0005
          63   -0.0005    0.0012   -0.0049    0.0086   -0.0001    0.0001    0.0027   -0.0001
          64    0.0070    0.0009    0.0088    0.0048   -0.0001    0.0000    0.0491   -0.0003
          65   -0.0021    0.0356    0.0078    0.2476   -0.0037    0.0005    0.0004    0.0002
          66   -0.0031    0.0014   -0.0063    0.0103   -0.0001    0.0000   -0.0269    0.0002


   Root No.      33        34        35        36        37        38        39        40

                33 A      34 A      35 A      36 A      37 A      38 A      39 A      40 A   

                1152.8    1161.4    1211.3    1220.6    1227.2    1271.2    1291.2    1344.5
  
           1   -0.0064   -0.0044   -0.0123    0.0003    0.0179    0.0240    0.0181    0.0293
           2    0.0014    0.0014    0.0020    0.0282   -0.0008   -0.0015   -0.0009   -0.0006
           3   -0.0248   -0.0217   -0.0253    0.0021    0.0103    0.0273    0.0185    0.0120
           4   -0.0043    0.0030    0.0024   -0.0000   -0.0035   -0.0055   -0.0050   -0.0151
           5   -0.0002   -0.0001   -0.0003   -0.0207    0.0002    0.0000    0.0001    0.0001
           6    0.0028    0.0008    0.0010   -0.0012   -0.0009   -0.0013   -0.0007   -0.0018
           7    0.0035   -0.0023   -0.0018    0.0160    0.0033    0.0082    0.0114   -0.0067
           8   -0.0020   -0.0004   -0.0012    0.0093    0.0019    0.0084    0.0126   -0.0136
           9    0.0070    0.0048    0.0036   -0.0017   -0.0038   -0.0046   -0.0024   -0.0024
          10    0.0035   -0.0023   -0.0023   -0.0159    0.0035    0.0082    0.0114   -0.0068
          11    0.0013   -0.0002    0.0009    0.0091   -0.0016   -0.0078   -0.0124    0.0137
          12    0.0071    0.0049    0.0038    0.0026   -0.0041   -0.0056   -0.0038   -0.0009
          13   -0.0020   -0.0105   -0.0107    0.0000   -0.0036    0.0032   -0.0167    0.0062
          14   -0.0006   -0.0001   -0.0011   -0.0063   -0.0008    0.0018    0.0009    0.0005
          15    0.0119    0.0035    0.0221   -0.0005    0.0181   -0.0427   -0.0153   -0.0141
          16   -0.0032    0.0030    0.0012    0.0146   -0.0002    0.0032    0.0073   -0.0115
          17    0.0040    0.0002    0.0046   -0.0127   -0.0069   -0.0145   -0.0178    0.0074
          18   -0.0029   -0.0017   -0.0013    0.0006    0.0009    0.0012    0.0006    0.0006
          19   -0.0033    0.0029    0.0008   -0.0146   -0.0000    0.0032    0.0074   -0.0114
          20   -0.0036   -0.0001   -0.0048   -0.0124    0.0069    0.0143    0.0176   -0.0075
          21   -0.0033   -0.0017   -0.0019   -0.0019    0.0017    0.0028    0.0026   -0.0003
          22   -0.0042   -0.0166   -0.0041    0.0001   -0.0049   -0.0095   -0.0199   -0.0039
          23    0.0004    0.0008   -0.0006    0.0020    0.0007   -0.0022    0.0010   -0.0008
          24   -0.0079   -0.0144    0.0190   -0.0002   -0.0146    0.0522   -0.0151    0.0193
          25   -0.0009   -0.0028    0.0005   -0.0000   -0.0102    0.0014   -0.0072   -0.0162
          26   -0.0002   -0.0002    0.0008   -0.0001    0.0013    0.0018   -0.0008    0.0010
          27    0.0045    0.0066   -0.0166    0.0001   -0.0266   -0.0442    0.0250   -0.0164
          28   -0.0021   -0.0036    0.0093   -0.0001   -0.0084   -0.0052    0.0063   -0.0127
          29   -0.0000   -0.0002   -0.0001    0.0001   -0.0004   -0.0004    0.0001    0.0000
          30    0.0024    0.0085   -0.0053    0.0001    0.0166    0.0140   -0.0076    0.0062
          31    0.0280   -0.0072   -0.0396   -0.0000   -0.0992   -0.0365   -0.0447   -0.0255
          32    0.0008    0.0011    0.0011   -0.0773    0.0038    0.0002    0.0007    0.0009
          33   -0.0089   -0.0236   -0.0385   -0.0041   -0.0482   -0.0054   -0.0148   -0.0167
          34   -0.0075    0.0118    0.0110   -0.0003   -0.0157   -0.0399   -0.0607    0.1221
          35    0.0009    0.0011    0.0015    0.0776   -0.0008   -0.0008   -0.0018    0.0043
          36    0.0027   -0.0034   -0.0035    0.0045    0.0057    0.0173    0.0292   -0.0758
          37   -0.0183    0.0079    0.0066   -0.0001   -0.0117   -0.0331   -0.0536    0.1104
          38    0.0021    0.0010    0.0011    0.0790   -0.0001    0.0013    0.0019   -0.0054
          39   -0.0066    0.0033    0.0039    0.0044   -0.0068   -0.0219   -0.0375    0.0947
          40    0.1404   -0.0871   -0.0102   -0.1469   -0.0048   -0.0255   -0.0461    0.0504
          41    0.0793   -0.0507   -0.0060   -0.0866   -0.0031   -0.0118   -0.0216    0.0192
          42   -0.0148   -0.0134   -0.0093   -0.0003    0.0066    0.0085    0.0047    0.0038
          43    0.1440   -0.0838   -0.0047    0.1471   -0.0060   -0.0253   -0.0461    0.0504
          44   -0.0792    0.0499    0.0036   -0.0862    0.0031    0.0106    0.0208   -0.0196
          45   -0.0236   -0.0079   -0.0089   -0.0090    0.0070    0.0098    0.0070    0.0017
          46    0.1239    0.2163    0.1433   -0.0033   -0.1253    0.1289    0.0395    0.0306
          47   -0.0043   -0.0069   -0.0055    0.0125    0.0028   -0.0019   -0.0007   -0.0000
          48    0.0623    0.0941    0.0871   -0.0011   -0.0295    0.0065    0.0077   -0.0052
          49   -0.1246    0.0821    0.0260   -0.1176   -0.0315   -0.0585   -0.0677    0.0282
          50    0.0765   -0.0469   -0.0097    0.0652    0.0110    0.0210    0.0257   -0.0169
          51    0.0022   -0.0008   -0.0016    0.0006    0.0005    0.0024    0.0017    0.0011
          52   -0.1286    0.0794    0.0289    0.1167   -0.0329   -0.0581   -0.0681    0.0281
          53   -0.0785    0.0451    0.0114    0.0645   -0.0118   -0.0210   -0.0260    0.0166
          54   -0.0065    0.0043   -0.0003    0.0067   -0.0008    0.0001   -0.0012    0.0030
          55    0.0727    0.1837   -0.2253    0.0029    0.1750    0.0132   -0.0539    0.0140
          56   -0.0029   -0.0071    0.0086    0.0004   -0.0054    0.0012    0.0007   -0.0001
          57    0.0338    0.0803   -0.1053    0.0013    0.0431   -0.0415    0.0090   -0.0049
          58   -0.0011   -0.0110    0.2312   -0.0015    0.2302   -0.0531   -0.0000   -0.0305
          59    0.0003    0.0006   -0.0088   -0.0062   -0.0065   -0.0013    0.0004   -0.0001
          60   -0.0065   -0.0119    0.1141   -0.0013    0.0765    0.0378   -0.0065    0.0108
          61    0.0001   -0.0047    0.0125   -0.0001   -0.0435   -0.1404    0.1553    0.1008
          62   -0.0002   -0.0003    0.0002   -0.0002    0.0010    0.0049   -0.0056   -0.0043
          63    0.0038    0.0087   -0.0069    0.0001    0.0000   -0.0431    0.0538    0.0524
          64    0.0011    0.0133    0.0240   -0.0001    0.0391   -0.0437    0.0920    0.1025
          65   -0.0000   -0.0001    0.0003   -0.0000    0.0002   -0.0007    0.0009    0.0012
          66    0.0002   -0.0049   -0.0194    0.0001   -0.0257    0.0416   -0.0757   -0.0910


   Root No.      41        42        43        44        45        46        47        48

                41 A      42 A      43 A      44 A      45 A      46 A      47 A      48 A   

                1372.1    1374.1    1408.4    1461.1    1838.6    1874.3    1882.6    1895.5
  
           1    0.0023    0.0137    0.0560    0.0004    0.0163    0.0004    0.0218   -0.0167
           2    0.0933   -0.0078   -0.0018   -0.0723   -0.0007   -0.0261   -0.0004   -0.0003
           3    0.0070    0.0100    0.0212   -0.0041    0.0097   -0.0014    0.0086    0.0035
           4   -0.0044   -0.0369    0.0322    0.0001   -0.0012   -0.0003   -0.0085    0.0217
           5    0.0607   -0.0046   -0.0007    0.1231   -0.0000   -0.0296    0.0003   -0.0002
           6    0.0031   -0.0032    0.0016    0.0071   -0.0001   -0.0017   -0.0004    0.0010
           7    0.0027    0.0092   -0.0171    0.0296   -0.0049    0.1347   -0.0399    0.1036
           8   -0.0362    0.0073   -0.0195    0.0457   -0.0002    0.0211   -0.0046    0.0144
           9   -0.0025   -0.0006   -0.0027    0.0018    0.0006    0.0017    0.0004    0.0016
          10   -0.0007    0.0095   -0.0169   -0.0297   -0.0052   -0.1370   -0.0375    0.1025
          11   -0.0370   -0.0016    0.0200    0.0458    0.0002    0.0214    0.0042   -0.0143
          12   -0.0020   -0.0011   -0.0005    0.0033    0.0007    0.0007    0.0009   -0.0001
          13   -0.0031   -0.0213   -0.0203   -0.0001   -0.1005   -0.0012   -0.1186   -0.0521
          14   -0.0108    0.0013    0.0010    0.0053    0.0016   -0.0029    0.0016    0.0007
          15   -0.0014   -0.0050   -0.0156    0.0002   -0.0062   -0.0002   -0.0009   -0.0011
          16   -0.0148    0.0051   -0.0201    0.0220    0.0051   -0.1352    0.0406   -0.1035
          17   -0.0154   -0.0107    0.0177   -0.0623   -0.0011    0.0236   -0.0064    0.0152
          18   -0.0002    0.0003    0.0006   -0.0011    0.0001   -0.0005    0.0003   -0.0006
          19    0.0154    0.0028   -0.0202   -0.0222    0.0054    0.1376    0.0382   -0.1023
          20   -0.0128    0.0128   -0.0172   -0.0621    0.0012    0.0237    0.0060   -0.0149
          21   -0.0012    0.0017   -0.0014   -0.0060    0.0002    0.0033    0.0009   -0.0023
          22   -0.0022   -0.0172   -0.0241   -0.0003    0.0708    0.0014    0.1344    0.0557
          23    0.0033    0.0013    0.0012   -0.0017   -0.0002   -0.0000   -0.0023   -0.0009
          24   -0.0035   -0.0270   -0.0188   -0.0003   -0.0141    0.0002    0.0119    0.0042
          25    0.0025    0.0175    0.0095    0.0000    0.1630   -0.0012   -0.0850   -0.0263
          26    0.0003   -0.0015   -0.0010   -0.0005   -0.0035    0.0000    0.0024    0.0008
          27    0.0039    0.0282    0.0210    0.0002   -0.0022   -0.0002   -0.0143   -0.0056
          28    0.0030    0.0220    0.0176    0.0001   -0.1476    0.0009    0.0548    0.0153
          29   -0.0001   -0.0002   -0.0002    0.0000    0.0025   -0.0000   -0.0009   -0.0002
          30   -0.0012   -0.0089   -0.0059   -0.0000    0.0195   -0.0001   -0.0089   -0.0027
          31   -0.0038   -0.0262   -0.0503   -0.0004   -0.0175   -0.0001   -0.0191   -0.0111
          32   -0.1117    0.0093    0.0027    0.0558    0.0006   -0.0218    0.0009   -0.0000
          33   -0.0079   -0.0102   -0.0340    0.0029   -0.0069   -0.0014   -0.0092    0.0014
          34    0.0161    0.1305   -0.0623   -0.0001   -0.0006   -0.0002   -0.0037    0.0096
          35   -0.0882    0.0122   -0.0022   -0.1144    0.0000   -0.0240    0.0003   -0.0003
          36   -0.0165   -0.0929    0.0527   -0.0064   -0.0002   -0.0014   -0.0014    0.0035
          37    0.0142    0.1142   -0.0499   -0.0001   -0.0007   -0.0002   -0.0054    0.0138
          38   -0.0981    0.0011    0.0044   -0.1220   -0.0000   -0.0286    0.0002   -0.0001
          39    0.0084    0.1139   -0.0616   -0.0071    0.0001   -0.0016    0.0006   -0.0013
          40   -0.0375   -0.0129    0.0704   -0.0658    0.0017    0.0201   -0.0010    0.0063
          41   -0.0617   -0.0065    0.0315   -0.0125    0.0043   -0.0745    0.0262   -0.0648
          42    0.0016    0.0015    0.0053   -0.0011    0.0006   -0.0019    0.0009   -0.0008
          43    0.0352   -0.0186    0.0695    0.0664    0.0017   -0.0203   -0.0006    0.0062
          44   -0.0592    0.0156   -0.0309   -0.0127   -0.0044   -0.0756   -0.0247    0.0638
          45   -0.0076    0.0035    0.0018   -0.0003    0.0001   -0.0067   -0.0020    0.0065
          46    0.0002    0.0084    0.0288    0.0008    0.0108    0.0003    0.0117    0.0034
          47    0.0211   -0.0021   -0.0006   -0.0110   -0.0025   -0.0010   -0.0036   -0.0015
          48    0.0013    0.0077    0.0043   -0.0001    0.0535    0.0007    0.0747    0.0318
          49    0.0641   -0.0438    0.0582   -0.0500   -0.0008   -0.0184    0.0006   -0.0047
          50   -0.0652    0.0171   -0.0287   -0.0209    0.0031   -0.0726    0.0250   -0.0641
          51    0.0021    0.0006    0.0022   -0.0000    0.0004   -0.0010    0.0003   -0.0001
          52   -0.0726   -0.0334    0.0588    0.0504   -0.0007    0.0185    0.0003   -0.0045
          53   -0.0670   -0.0069    0.0292   -0.0205   -0.0032   -0.0738   -0.0236    0.0631
          54   -0.0093    0.0001    0.0055   -0.0023   -0.0001   -0.0074   -0.0024    0.0071
          55   -0.0047   -0.0341   -0.0259   -0.0002   -0.0043    0.0003    0.0273    0.0103
          56   -0.0001    0.0003    0.0002    0.0004    0.0038   -0.0000   -0.0018   -0.0005
          57    0.0013    0.0095    0.0087    0.0001   -0.0972    0.0006    0.0389    0.0110
          58    0.0051    0.0394    0.0262    0.0003    0.0176   -0.0004   -0.0267   -0.0090
          59   -0.0117    0.0006   -0.0004    0.0070    0.0020   -0.0002    0.0039    0.0016
          60   -0.0015   -0.0062    0.0005    0.0004   -0.0534   -0.0007   -0.0716   -0.0300
          61   -0.0117   -0.0819   -0.0371   -0.0002    0.0147   -0.0001   -0.0039   -0.0010
          62    0.0007    0.0039    0.0020   -0.0001   -0.0048    0.0000    0.0018    0.0005
          63   -0.0073   -0.0516   -0.0288   -0.0002    0.1142   -0.0007   -0.0458   -0.0132
          64   -0.0134   -0.0944   -0.0467   -0.0002   -0.0356    0.0002    0.0151    0.0043
          65   -0.0006   -0.0014   -0.0009    0.0005    0.0052   -0.0001   -0.0017   -0.0005
          66    0.0128    0.0909    0.0503    0.0003   -0.1086    0.0006    0.0359    0.0096


   Root No.      49        50        51        52        53        54        55        56

                49 A      50 A      51 A      52 A      53 A      54 A      55 A      56 A   

                2836.4    2932.2    3010.2    3027.8    3037.8    3045.4    3045.6    3046.8
  
           1    0.0330   -0.0001   -0.0002    0.0002    0.0001    0.0000    0.0006   -0.0001
           2    0.0036   -0.0000   -0.0000   -0.0000   -0.0000    0.0003    0.0001    0.0000
           3   -0.0631    0.0003    0.0001    0.0005    0.0001    0.0000   -0.0014   -0.0002
           4    0.0000    0.0037   -0.0383   -0.0000    0.0000   -0.0000    0.0001    0.0023
           5    0.0000    0.0035    0.0001   -0.0000   -0.0000   -0.0002    0.0000    0.0000
           6   -0.0000   -0.0605   -0.0013    0.0000    0.0000   -0.0000    0.0000   -0.0001
           7    0.0004    0.0001    0.0002   -0.0000   -0.0001   -0.0092    0.0004    0.0089
           8    0.0013    0.0000   -0.0001    0.0000    0.0001    0.0155   -0.0008   -0.0151
           9    0.0001   -0.0003   -0.0000    0.0000   -0.0000   -0.0000   -0.0002    0.0000
          10    0.0004    0.0001    0.0002   -0.0000   -0.0000    0.0090    0.0000    0.0089
          11   -0.0013   -0.0000    0.0001   -0.0000   -0.0000    0.0151    0.0003    0.0151
          12   -0.0001   -0.0003    0.0000   -0.0000   -0.0000    0.0018   -0.0001    0.0017
          13   -0.0006    0.0000    0.0000   -0.0040    0.0010    0.0002    0.0282   -0.0004
          14   -0.0000    0.0000    0.0000    0.0000    0.0003    0.0002    0.0023   -0.0000
          15    0.0010   -0.0000   -0.0001    0.0001   -0.0065   -0.0004   -0.0567    0.0006
          16   -0.0006   -0.0002    0.0021    0.0001    0.0000   -0.0104    0.0005    0.0094
          17    0.0000   -0.0001    0.0042    0.0001    0.0000   -0.0171    0.0008    0.0159
          18   -0.0003   -0.0000    0.0001    0.0000   -0.0000   -0.0003   -0.0000    0.0003
          19   -0.0006   -0.0002    0.0021    0.0001    0.0000    0.0103    0.0000    0.0096
          20   -0.0000    0.0001   -0.0042   -0.0001   -0.0000   -0.0169   -0.0001   -0.0161
          21   -0.0003   -0.0000   -0.0004   -0.0000   -0.0000   -0.0017   -0.0000   -0.0016
          22   -0.0002    0.0000   -0.0000    0.0219    0.0091   -0.0001   -0.0071    0.0001
          23    0.0000   -0.0000   -0.0000    0.0019    0.0008    0.0000   -0.0001   -0.0000
          24   -0.0009   -0.0000    0.0000   -0.0477   -0.0192    0.0000    0.0040   -0.0000
          25    0.0000   -0.0000    0.0000   -0.0095    0.0197   -0.0000   -0.0030    0.0000
          26   -0.0000    0.0000    0.0000   -0.0007    0.0012   -0.0000   -0.0002    0.0000
          27    0.0001    0.0000   -0.0000    0.0224   -0.0419    0.0001    0.0072   -0.0001
          28   -0.0000    0.0000   -0.0000    0.0006   -0.0007    0.0000    0.0002    0.0000
          29   -0.0000   -0.0000   -0.0000    0.0001   -0.0001    0.0000    0.0000   -0.0000
          30   -0.0000   -0.0000   -0.0000   -0.0020    0.0032   -0.0000   -0.0007    0.0000
          31   -0.3967    0.0005    0.0004    0.0040    0.0014   -0.0000   -0.0036   -0.0015
          32   -0.0441    0.0001    0.0001    0.0002   -0.0000    0.0017   -0.0009   -0.0001
          33    0.7703   -0.0013   -0.0009   -0.0036    0.0001    0.0002    0.0157    0.0026
          34    0.0014    0.2615    0.1933    0.0000   -0.0001    0.0001   -0.0007   -0.0120
          35   -0.0001   -0.0229   -0.0205   -0.0000    0.0000   -0.0021    0.0001    0.0012
          36    0.0019    0.4009    0.3587    0.0000   -0.0002    0.0000   -0.0012   -0.0220
          37   -0.0006   -0.3038    0.2648    0.0001   -0.0001    0.0001   -0.0009   -0.0184
          38   -0.0000   -0.0189    0.0196    0.0000   -0.0000   -0.0026   -0.0000   -0.0013
          39    0.0002    0.3304   -0.3422   -0.0002    0.0001   -0.0002    0.0012    0.0227
          40    0.0065    0.0000    0.0016    0.0003    0.0005    0.1095   -0.0056   -0.1051
          41   -0.0061   -0.0001   -0.0016   -0.0004   -0.0008   -0.1880    0.0098    0.1799
          42   -0.0020   -0.0008    0.0000    0.0001    0.0000    0.0002   -0.0002   -0.0002
          43    0.0066    0.0000    0.0016    0.0003    0.0002   -0.1078   -0.0014   -0.1055
          44    0.0063    0.0002    0.0016    0.0004    0.0003   -0.1839   -0.0025   -0.1794
          45   -0.0013   -0.0008    0.0002    0.0001    0.0001   -0.0214   -0.0005   -0.0209
          46    0.0114   -0.0000   -0.0003   -0.0045   -0.0337   -0.0021   -0.2724    0.0028
          47    0.0006   -0.0000   -0.0000   -0.0002   -0.0031   -0.0002   -0.0279    0.0003
          48   -0.0154    0.0001    0.0008    0.0049    0.0759    0.0051    0.6729   -0.0070
[...]
 T-DIPOLE    0.1519         C  8 -- C  9         +10.2% ( 40.2%)     83.8%
 TRAVEL      0.0985         C  1 -- C  5          +9.1% ( 38.0%)     99.5%
 RED. MASS   0.3158         C  9 -- C 10          +5.7% ( 30.0%)     27.4%
 EFF. MASS   5.3788

 VIBRATION   40   40A         ATOM PAIR      ENERGY CONTRIBUTION    RADIAL
 FREQ.      1344.51         C 10 -- H 22          +9.7% ( 36.7%)      0.5%
 T-DIPOLE    0.1313         C  2 -- H 13          +9.2% ( 35.9%)      2.8%
 TRAVEL      0.1068         C  2 -- H 12          +9.0% ( 35.4%)      3.4%
 RED. MASS   0.2820         C  1 -- C  3          +7.2% ( 31.8%)     56.1%
 EFF. MASS   4.3997

 VIBRATION   41   41A         ATOM PAIR      ENERGY CONTRIBUTION    RADIAL
 FREQ.      1372.13         C  1 -- C  4         +17.1% ( 64.0%)     67.6%
 T-DIPOLE    0.0803         C  1 -- C  3         +17.0% ( 63.7%)     69.2%
 TRAVEL      0.0732         C  1 -- H 11         +14.8% ( 59.4%)      0.0%
 RED. MASS   2.5207         C  1 -- C  5         +12.1% ( 53.8%)      0.3%
 EFF. MASS   9.1749

 VIBRATION   42   42A         ATOM PAIR      ENERGY CONTRIBUTION    RADIAL
 FREQ.      1374.14         C  8 -- C  9         +12.8% ( 45.2%)     97.4%
 T-DIPOLE    0.1299         C  2 -- H 13         +12.1% ( 44.0%)      6.1%
 TRAVEL      0.0935         C  2 -- H 12         +12.1% ( 43.9%)      6.2%
 RED. MASS   0.4443         C 10 -- H 22          +8.7% ( 37.2%)      1.1%
 EFF. MASS   5.6181

 VIBRATION   43   43A         ATOM PAIR      ENERGY CONTRIBUTION    RADIAL
 FREQ.      1408.44         C  1 -- C  5         +12.2% ( 52.3%)     85.7%
 T-DIPOLE    0.1396         C  1 -- C  4         +11.2% ( 50.0%)     50.0%
 TRAVEL      0.0744         C  1 -- C  3         +11.1% ( 49.9%)     48.3%
 RED. MASS   1.1279         C  1 -- H 11          +9.2% ( 45.5%)      0.4%
 EFF. MASS   8.6506

 VIBRATION   44   44A         ATOM PAIR      ENERGY CONTRIBUTION    RADIAL
 FREQ.      1461.05         C  2 -- C  7         +17.3% ( 65.6%)     80.4%
 T-DIPOLE    0.0698         C  2 -- C  6         +17.3% ( 65.6%)     80.3%
 TRAVEL      0.0652         C  2 -- H 13         +11.7% ( 53.9%)      0.0%
 RED. MASS   2.4785         C  2 -- H 12         +11.5% ( 53.5%)      0.0%
 EFF. MASS  10.8716

 VIBRATION   45   45A         ATOM PAIR      ENERGY CONTRIBUTION    RADIAL
 FREQ.      1838.60         C  9 -- C 10         +35.5% ( 87.9%)     99.2%
 T-DIPOLE    0.0095         C  8 -- C  9         +12.5% ( 52.1%)     56.6%
 TRAVEL      0.0556         C  9 -- H 19         +11.5% ( 50.0%)      4.9%
 RED. MASS   3.4367         C  5 -- C  8         +10.6% ( 48.2%)     98.6%
 EFF. MASS  11.8437

 VIBRATION   46   46A         ATOM PAIR      ENERGY CONTRIBUTION    RADIAL
 FREQ.      1874.33         C  4 -- C  7         +22.6% ( 70.5%)    100.0%
 T-DIPOLE    0.0492         C  3 -- C  6         +21.8% ( 69.3%)    100.0%
 TRAVEL      0.0550         C  2 -- C  7          +7.4% ( 40.3%)     65.8%
 RED. MASS   2.7337         C  1 -- C  4          +7.2% ( 39.8%)     62.6%
 EFF. MASS  11.9035

 VIBRATION   47   47A         ATOM PAIR      ENERGY CONTRIBUTION    RADIAL
 FREQ.      1882.63         C  5 -- C  8         +28.3% ( 79.0%)     95.4%
 T-DIPOLE    0.1393         C  8 -- C  9         +16.3% ( 59.9%)     55.6%
 TRAVEL      0.0551         C  8 -- H 20         +10.0% ( 47.0%)      2.3%
 RED. MASS   2.7525         C  9 -- C 10          +9.0% ( 44.5%)     96.1%
 EFF. MASS  11.7911

 VIBRATION   48   48A         ATOM PAIR      ENERGY CONTRIBUTION    RADIAL
 FREQ.      1895.50         C  3 -- C  6         +19.5% ( 64.8%)    100.0%
 T-DIPOLE    0.3518         C  4 -- C  7         +19.1% ( 64.1%)    100.0%
 TRAVEL      0.0548         C  2 -- C  6          +6.3% ( 36.9%)     41.4%
 RED. MASS   2.1217         C  1 -- C  3          +6.2% ( 36.5%)     41.7%
 EFF. MASS  11.8511

 VIBRATION   49   49A         ATOM PAIR      ENERGY CONTRIBUTION    RADIAL
 FREQ.      2836.38         C  1 -- H 11         +96.8% (100.0%)    100.0%
 T-DIPOLE    0.0670         C  1 -- C  5          +1.0% ( 10.4%)     12.3%
 TRAVEL      0.1284         C  1 -- C  3          +1.0% ( 10.3%)      7.7%
 RED. MASS   0.9284         C  1 -- C  4          +1.0% ( 10.3%)      7.8%
 EFF. MASS   1.4412

 VIBRATION   50   50A         ATOM PAIR      ENERGY CONTRIBUTION    RADIAL
 FREQ.      2932.16         C  2 -- H 12         +51.8% ( 74.7%)     96.8%
 T-DIPOLE    0.0386         C  2 -- H 13         +46.0% ( 70.4%)     96.2%
 TRAVEL      0.1224         C  2 -- C  7          +1.1% ( 10.8%)      0.0%
 RED. MASS   0.5192         C  2 -- C  6          +1.1% ( 10.8%)      0.0%
 EFF. MASS   1.5348

 VIBRATION   51   51A         ATOM PAIR      ENERGY CONTRIBUTION    RADIAL
 FREQ.      3010.17         C  2 -- H 13         +51.6% ( 70.8%)     98.1%
 T-DIPOLE    0.0953         C  2 -- H 12         +45.4% ( 66.5%)     97.3%
 TRAVEL      0.1321         C  6 -- H 17          +0.8% (  9.0%)     99.9%
 RED. MASS   0.4709         C  7 -- H 18          +0.8% (  8.9%)     99.9%
 EFF. MASS   1.2838

 VIBRATION   52   52A         ATOM PAIR      ENERGY CONTRIBUTION    RADIAL
 FREQ.      3027.83         C  8 -- H 20         +79.6% ( 90.7%)    100.0%
 T-DIPOLE    0.1393         C  9 -- H 19         +17.1% ( 42.1%)    100.0%
 TRAVEL      0.1206         C  8 -- C  9          +1.6% ( 12.9%)     17.2%
 RED. MASS   0.6579         C  5 -- C  8          +1.3% ( 11.4%)     37.5%
 EFF. MASS   1.5314

 VIBRATION   53   53A         ATOM PAIR      ENERGY CONTRIBUTION    RADIAL
 FREQ.      3037.79         C  9 -- H 19         +78.1% ( 89.4%)    100.0%
 T-DIPOLE    0.3451         C  8 -- H 20         +16.8% ( 41.4%)    100.0%
 TRAVEL      0.1221         C  5 -- H 16          +1.9% ( 13.9%)     99.9%
 RED. MASS   0.6247         C  9 -- C 10          +1.2% ( 11.0%)     30.4%
 EFF. MASS   1.4901

 VIBRATION   54   54A         ATOM PAIR      ENERGY CONTRIBUTION    RADIAL
 FREQ.      3045.38         C  6 -- H 17         +27.0% ( 52.7%)    100.0%
 T-DIPOLE    0.0042         C  7 -- H 18         +26.7% ( 52.5%)    100.0%
 TRAVEL      0.1237         C  3 -- H 14         +22.3% ( 47.9%)    100.0%
 RED. MASS   0.2348         C  4 -- H 15         +21.6% ( 47.2%)    100.0%
 EFF. MASS   1.4459

 VIBRATION   55   55A         ATOM PAIR      ENERGY CONTRIBUTION    RADIAL
 FREQ.      3045.64         C  5 -- H 16         +95.1% ( 98.9%)    100.0%
 T-DIPOLE    0.2425         C  5 -- C  8          +1.5% ( 12.6%)     40.5%
 TRAVEL      0.1207         C  9 -- H 19          +1.4% ( 12.2%)    100.0%
 RED. MASS   0.8923         C  1 -- C  5          +1.3% ( 11.6%)     13.5%
 EFF. MASS   1.5197

 VIBRATION   56   56A         ATOM PAIR      ENERGY CONTRIBUTION    RADIAL
 FREQ.      3046.82         C  7 -- H 18         +25.9% ( 51.6%)    100.0%
 T-DIPOLE    0.4060         C  6 -- H 17         +25.1% ( 50.8%)    100.0%
 TRAVEL      0.1229         C  4 -- H 15         +23.0% ( 48.7%)    100.0%
 RED. MASS   0.2294         C  3 -- H 14         +22.8% ( 48.5%)    100.0%
 EFF. MASS   1.4649

 VIBRATION   57   57A         ATOM PAIR      ENERGY CONTRIBUTION    RADIAL
 FREQ.      3064.79         C  3 -- H 14         +26.9% ( 52.6%)     99.9%
 T-DIPOLE    0.4154         C  4 -- H 15         +26.2% ( 52.0%)     99.9%
 TRAVEL      0.1182         C  6 -- H 17         +22.1% ( 47.8%)     99.9%
 RED. MASS   0.2354         C  7 -- H 18         +21.1% ( 46.7%)     99.9%
 EFF. MASS   1.5738

 VIBRATION   58   58A         ATOM PAIR      ENERGY CONTRIBUTION    RADIAL
 FREQ.      3067.48         C  4 -- H 15         +26.1% ( 51.8%)     99.9%
 T-DIPOLE    0.0422         C  3 -- H 14         +25.0% ( 50.7%)     99.9%
 TRAVEL      0.1170         C  7 -- H 18         +22.5% ( 48.1%)     99.9%
 RED. MASS   0.2307         C  6 -- H 17         +22.0% ( 47.6%)     99.9%
 EFF. MASS   1.6051

 VIBRATION   59   59A         ATOM PAIR      ENERGY CONTRIBUTION    RADIAL
 FREQ.      3136.43         C 10 -- H 21         +94.6% ( 98.8%)    100.0%
 T-DIPOLE    0.2284         C 10 -- H 22          +4.1% ( 20.5%)     59.2%
 TRAVEL      0.1188         C  9 -- C 10          +1.3% ( 11.7%)     27.6%
 RED. MASS   0.8925
 EFF. MASS   1.5232

 VIBRATION   60   60A         ATOM PAIR      ENERGY CONTRIBUTION    RADIAL
 FREQ.      3147.56         C 10 -- H 22         +94.4% ( 98.0%)     99.8%
 T-DIPOLE    0.3097         C 10 -- H 21          +3.3% ( 18.4%)     18.2%
 TRAVEL      0.1205         C  9 -- C 10          +1.5% ( 12.5%)     65.6%
 RED. MASS   0.8647         C  9 -- H 19          +0.7% (  8.3%)     94.8%
 EFF. MASS   1.4747

      SYMMETRY NUMBER FOR POINT-GROUP C1  =  1


          SYSTEM IS A GROUND STATE



 InChI=1S/C10H12/c1-2-3-7-10-8-5-4-6-9-10/h2-3,5-10H,1,4H2


          MOLECULE IS NOT LINEAR

          THERE ARE 60 GENUINE VIBRATIONS IN THIS SYSTEM
          THIS THERMODYNAMICS CALCULATION IS LIMITED TO
          MOLECULES WHICH HAVE NO INTERNAL ROTATIONS




                    CALCULATED THERMODYNAMIC PROPERTIES
                                          *
   TEMP. (K)   PARTITION FUNCTION   H.O.F.    ENTHALPY  HEAT CAPACITY ENTROPY
                                   KCAL/MOL   CAL/MOLE    CAL/K/MOL  CAL/K/MOL


 298.00  VIB.     0.1050D+04                  4410.1331    31.1026    28.6227
         ROT.     0.7592D+06                   888.2813     2.9808    29.8877
         INT.     0.7970D+09                  5298.4144    34.0834    58.5104
         TRA.     0.1470D+28                  1480.4688     4.9680    40.5480
         TOT.                       54.542    6778.8832    39.0514    99.0583

 200.00  VIB.     0.9327D+02                  1955.8691    19.2962    18.7924
         ROT.     0.4174D+06                   596.1620     2.9808    28.6990
         INT.     0.3894D+08                  2552.0311    22.2770    47.4914
         TRA.     0.8080D+27                   993.6033     4.9680    38.5668
         TOT.                       51.308    3545.6343    27.2450    86.0582

 210.00  VIB.     0.1193D+03                  2154.3010    20.3957    19.7603
         ROT.     0.4491D+06                   625.9700     2.9808    28.8444
         INT.     0.5357D+08                  2780.2711    23.3765    48.6047
         TRA.     0.8694D+27                  1043.2834     4.9680    38.8092
         TOT.                       51.586    3823.5545    28.3445    87.4140

 220.00  VIB.     0.1525D+03                  2363.8897    21.5272    20.7351
         ROT.     0.4816D+06                   655.7781     2.9808    28.9831
         INT.     0.7345D+08                  3019.6678    24.5080    49.7182
         TRA.     0.9322D+27                  1092.9636     4.9680    39.0403
         TOT.                       51.875    4112.6314    29.4760    88.7585

 230.00  VIB.     0.1950D+03                  2584.9436    22.6883    21.7175
         ROT.     0.5148D+06                   685.5862     2.9808    29.1156
         INT.     0.1004D+09                  3270.5298    25.6691    50.8331
         TRA.     0.9965D+27                  1142.6437     4.9680    39.2612
         TOT.                       52.176    4413.1735    30.6371    90.0943

 240.00  VIB.     0.2494D+03                  2817.7440    23.8760    22.7081
         ROT.     0.5487D+06                   715.3943     2.9808    29.2425
         INT.     0.1369D+09                  3533.1383    26.8568    51.9506
         TRA.     0.1062D+28                  1192.3239     4.9680    39.4726
         TOT.                       52.488    4725.4622    31.8248    91.4232

 250.00  VIB.     0.3191D+03                  3062.5400    25.0868    23.7073
         ROT.     0.5834D+06                   745.2024     2.9808    29.3642
         INT.     0.1861D+09                  3807.7425    28.0676    53.0714
         TRA.     0.1129D+28                  1242.0041     4.9680    39.6754
         TOT.                       52.813    5049.7465    33.0356    92.7468

 260.00  VIB.     0.4084D+03                  3319.5449    26.3171    24.7151
         ROT.     0.6187D+06                   775.0105     2.9808    29.4811
         INT.     0.2527D+09                  4094.5555    29.2979    54.1962
         TRA.     0.1198D+28                  1291.6842     4.9680    39.8703
         TOT.                       53.149    5386.2397    34.2659    94.0664

 270.00  VIB.     0.5231D+03                  3588.9344    27.5631    25.7317
         ROT.     0.6548D+06                   804.8186     2.9808    29.5936
         INT.     0.3425D+09                  4393.7530    30.5439    55.3252
         TRA.     0.1267D+28                  1341.3644     4.9680    40.0578
         TOT.                       53.498    5735.1174    35.5119    95.3830

 280.00  VIB.     0.6703D+03                  3870.8455    28.8208    26.7568
         ROT.     0.6915D+06                   834.6267     2.9808    29.7020
         INT.     0.4635D+09                  4705.4722    31.8016    56.4587
         TRA.     0.1338D+28                  1391.0445     4.9680    40.2384
         TOT.                       53.859    6096.5168    36.7696    96.6972

 290.00  VIB.     0.8597D+03                  4165.3774    30.0866    27.7902
         ROT.     0.7289D+06                   864.4348     2.9808    29.8066
         INT.     0.6266D+09                  5029.8122    33.0674    57.5967
         TRA.     0.1411D+28                  1440.7247     4.9680    40.4128
         TOT.                       54.233    6470.5370    38.0354    98.0095

 300.00  VIB.     0.1104D+04                  4472.5925    31.3569    28.8316
         ROT.     0.7669D+06                   894.2429     2.9808    29.9076
         INT.     0.8463D+09                  5366.8354    34.3377    58.7392
         TRA.     0.1484D+28                  1490.4049     4.9680    40.5812
         TOT.                       54.620    6857.2403    39.3057    99.3204

 310.00  VIB.     0.1418D+04                  4792.5182    32.6282    29.8805
         ROT.     0.8055D+06                   924.0510     2.9808    30.0054
         INT.     0.1142D+10                  5716.5692    35.6090    59.8858
         TRA.     0.1559D+28                  1540.0850     4.9680    40.7441
         TOT.                       55.019    7256.6542    40.5770   100.6299

 320.00  VIB.     0.1823D+04                  5125.1490    33.8974    30.9364
         ROT.     0.8448D+06                   953.8591     2.9808    30.1000
         INT.     0.1540D+10                  6079.0081    36.8782    61.0364
         TRA.     0.1635D+28                  1589.7652     4.9680    40.9018
         TOT.                       55.432    7668.7733    41.8462   101.9383

 330.00  VIB.     0.2346D+04                  5470.4498    35.1617    31.9989
         ROT.     0.8847D+06                   983.6672     2.9808    30.1917
         INT.     0.2076D+10                  6454.1170    38.1425    62.1906
         TRA.     0.1713D+28                  1639.4454     4.9680    41.0547
         TOT.                       55.856    8093.5624    43.1105   103.2453

 340.00  VIB.     0.3022D+04                  5828.3579    36.4185    33.0673
         ROT.     0.9253D+06                  1013.4753     2.9808    30.2807
         INT.     0.2796D+10                  6841.8332    39.3993    63.3480
         TRA.     0.1791D+28                  1689.1255     4.9680    41.2030
         TOT.                       56.294    8530.9587    44.3673   104.5510

 350.00  VIB.     0.3897D+04                  6198.7863    37.6654    34.1409
         ROT.     0.9664D+06                  1043.2834     2.9808    30.3671
         INT.     0.3766D+10                  7242.0697    40.6462    64.5081
         TRA.     0.1871D+28                  1738.8057     4.9680    41.3470
         TOT.                       56.744    8980.8754    45.6142   105.8551

 360.00  VIB.     0.5029D+04                  6581.6266    38.9005    35.2194
         ROT.     0.1008D+07                  1073.0915     2.9808    30.4511
         INT.     0.5070D+10                  7654.7181    41.8813    65.6704
         TRA.     0.1951D+28                  1788.4859     4.9680    41.4870
         TOT.                       57.206    9443.2039    46.8493   107.1574

 370.00  VIB.     0.6497D+04                  6976.7513    40.1220    36.3019
         ROT.     0.1050D+07                  1102.8996     2.9808    30.5328
         INT.     0.6824D+10                  8079.6509    43.1028    66.8346
         TRA.     0.2033D+28                  1838.1660     4.9680    41.6231
         TOT.                       57.681    9917.8169    48.0709   108.4577

 380.00  VIB.     0.8400D+04                  7384.0170    41.3285    37.3879
         ROT.     0.1093D+07                  1132.7077     2.9808    30.6122
         INT.     0.9183D+10                  8516.7247    44.3093    68.0002
         TRA.     0.2116D+28                  1887.8462     4.9680    41.7556
         TOT.                       58.167   10404.5709    49.2773   109.7558

 390.00  VIB.     0.1087D+05                  7803.2666    42.5186    38.4769
         ROT.     0.1137D+07                  1162.5158     2.9808    30.6897
         INT.     0.1235D+11                  8965.7824    45.4994    69.1665
         TRA.     0.2200D+28                  1937.5263     4.9680    41.8846
         TOT.                       58.666   10903.3087    50.4674   111.0512

 400.00  VIB.     0.1408D+05                  8234.3316    43.6914    39.5682
         ROT.     0.1181D+07                  1192.3239     2.9808    30.7651
         INT.     0.1662D+11                  9426.6555    46.6722    70.3333
         TRA.     0.2285D+28                  1987.2065     4.9680    42.0104
         TOT.                       59.177   11413.8620    51.6402   112.3437

   *: NOTE: HEATS OF FORMATION ARE RELATIVE TO THE
            ELEMENTS IN THEIR STANDARD STATE AT 298K
              (=  Standard Enthalpy of Formation).

            Hvib:  Zero-point energy is not included.
                   frequencies of less than zero cm-1 are not included.
            Hrot = (3/2)RT
            Htra = (3/2)RT + pV = (5/2)RT

            Heat capacity is Cp, not Cv

          For more information, see: HTTP://OpenMOPAC.net/Manual/thermochemistry.html


           FORCE CONSTANT IN CARTESIAN COORDINATES (Millidynes/A)

    ATOM   CHEMICAL       X               Y               Z
   NUMBER   SYMBOL  FORCE CONSTANT  FORCE CONSTANT  FORCE CONSTANT

      1       C        9.221919        9.070145        8.184999
      2       C        9.045421        9.409788        7.666096
      3       C       15.479358        9.375777        2.455124
      4       C       15.468085        9.310811        2.525575
      5       C       15.182366        2.602411        9.221540
      6       C       15.379090        9.583839        2.384869
      7       C       15.379012        9.511619        2.453863
      8       C       15.416740        2.216738        9.922435
      9       C       15.446342        2.233023        9.820138
     10       C       15.209776        1.968806        9.144571
     11       H        1.480112        0.647540        3.659374
     12       H        1.749001        0.667990        3.748638
     13       H        2.395305        0.690933        3.118989
     14       H        1.895867        4.002335        0.350677
     15       H        1.895807        3.954545        0.398983
     16       H        1.383223        0.358495        4.483266
     17       H        1.900626        3.995222        0.353521
     18       H        1.900828        3.960468        0.388384
     19       H        1.357138        0.360143        4.496472
     20       H        1.374038        0.361467        4.465259
     21       H        1.485330        0.342796        4.635777
     22       H        2.761911        0.344280        3.367757

 **********************
 *                    *
 * JOB ENDED NORMALLY *
 *                    *
 **********************



 TOTAL JOB TIME:             2.24 SECONDS

 == MOPAC DONE ==
