 *******************************************************************************
 ** Site#: 14399        For non-commercial use only    Version 18.184L 64BITS **
 *******************************************************************************
 ** Cite this program as: MOPAC2016, Version: 18.184L, James J. P. Stewart,   **
 ** Stewart Computational Chemistry, web: HTTP://OpenMOPAC.net. Days left:  18**
 *******************************************************************************
 **                                                                           **
 **                                MOPAC2016                                  **
 **                                                                           **
 *******************************************************************************

                              PM3 CALCULATION RESULTS

 *******************************************************************************
 *  CALCULATION DONE:                                Sat Jun 15 11:07:59 2019  *
 *  PM3        - The PM3 Hamiltonian to be used
 *  PRECISE    - CRITERIA TO BE INCREASED BY 100 TIMES
 *  NOSYM      - POINT-GROUP SYMMETRY SET TO C1
 *  THREADS=1  - MULTI-THREADING NOT USED
 *  T=         - A TIME OF 172800.0 SECONDS REQUESTED
 *  DUMP=N     - RESTART FILE WRITTEN EVERY  7200.000 SECONDS
 *******************************************************************************
pm3  precise nosym THREADS=1
 InChI=1S/C7H12O2/c8-5-3-1-2-4-7-6-9-7/h5,7H,1-4,6H2

   ATOM   CHEMICAL          X               Y               Z
  NUMBER   SYMBOL      (ANGSTROMS)     (ANGSTROMS)     (ANGSTROMS)
 
     1       O          3.68700000  *  -0.54210000  *   0.13060000  *
     2       O         -4.58540000  *  -0.03610000  *   0.75550000  *
     3       C          2.43780000  *  -0.82690000  *  -0.45290000  *
     4       C          1.28220000  *  -0.47930000  *   0.48800000  *
     5       C          0.00280000  *  -0.22640000  *  -0.31410000  *
     6       C         -1.17420000  *   0.09940000  *   0.61290000  *
     7       C         -2.45280000  *   0.35280000  *  -0.19070000  *
     8       C          3.27680000  *   0.29730000  *  -0.92570000  *
     9       C         -3.59330000  *   0.67450000  *   0.72760000  *
    10       H          2.45060000  *  -1.77500000  *  -1.03090000  *
    11       H         -1.34130000  *  -0.75210000  *   1.30950000  *
    12       H         -0.93050000  *   1.00460000  *   1.21250000  *
    13       H         -0.23950000  *  -1.13180000  *  -0.91390000  *
    14       H          0.16990000  *   0.62470000  *  -1.01080000  *
    15       H          1.52170000  *   0.41630000  *   1.10440000  *
    16       H          1.12500000  *  -1.33670000  *   1.17720000  *
    17       H         -2.69810000  *  -0.54680000  *  -0.79770000  *
    18       H         -2.30110000  *   1.21100000  *  -0.88020000  *
    19       H          3.03100000  *   1.31660000  *  -0.55990000  *
    20       H          3.87220000  *   0.10930000  *  -1.84300000  *
    21       H         -3.54080000  *   1.54670000  *   1.37140000  *
 


          CARTESIAN COORDINATES 

    NO.       ATOM           X           Y           Z

     1         O          3.6870     -0.5421      0.1306
     2         O         -4.5854     -0.0361      0.7555
     3         C          2.4378     -0.8269     -0.4529
     4         C          1.2822     -0.4793      0.4880
     5         C          0.0028     -0.2264     -0.3141
     6         C         -1.1742      0.0994      0.6129
     7         C         -2.4528      0.3528     -0.1907
     8         C          3.2768      0.2973     -0.9257
     9         C         -3.5933      0.6745      0.7276
    10         H          2.4506     -1.7750     -1.0309
    11         H         -1.3413     -0.7521      1.3095
    12         H         -0.9305      1.0046      1.2125
    13         H         -0.2395     -1.1318     -0.9139
    14         H          0.1699      0.6247     -1.0108
    15         H          1.5217      0.4163      1.1044
    16         H          1.1250     -1.3367      1.1772
    17         H         -2.6981     -0.5468     -0.7977
    18         H         -2.3011      1.2110     -0.8802
    19         H          3.0310      1.3166     -0.5599
    20         H          3.8722      0.1093     -1.8430
    21         H         -3.5408      1.5467      1.3714

  H: (PM3): J. J. P. STEWART, J. COMP. CHEM. 10, 209 (1989).
  C: (PM3): J. J. P. STEWART, J. COMP. CHEM. 10, 209 (1989).
  O: (PM3): J. J. P. STEWART, J. COMP. CHEM. 10, 209 (1989).

           Empirical Formula: C7 H12 O2  =    21 atoms



      MOLECULAR POINT GROUP   :   C1  


      RHF CALCULATION, NO. OF DOUBLY OCCUPIED LEVELS = 26


          Geometry optimization using EF

          DIAGONAL MATRIX USED AS START HESSIAN

 CYCLE:     1 TIME:   0.004 TIME LEFT:  2.00D  GRAD.:    85.046 HEAT: -57.69683
 CYCLE:     2 TIME:   0.012 TIME LEFT:  2.00D  GRAD.:    80.205 HEAT: -58.99766
 CYCLE:     3 TIME:   0.004 TIME LEFT:  2.00D  GRAD.:    47.795 HEAT: -60.56532
 CYCLE:     4 TIME:   0.004 TIME LEFT:  2.00D  GRAD.:    78.454 HEAT: -60.73847
 CYCLE:     5 TIME:   0.004 TIME LEFT:  2.00D  GRAD.:    39.840 HEAT: -61.98909
 CYCLE:     6 TIME:   0.008 TIME LEFT:  2.00D  GRAD.:    39.845 HEAT: -62.20463
 CYCLE:     7 TIME:   0.008 TIME LEFT:  2.00D  GRAD.:    20.651 HEAT: -62.60801
 CYCLE:     8 TIME:   0.008 TIME LEFT:  2.00D  GRAD.:    16.091 HEAT: -62.72278
 CYCLE:     9 TIME:   0.004 TIME LEFT:  2.00D  GRAD.:    13.869 HEAT: -62.80179
 CYCLE:    10 TIME:   0.004 TIME LEFT:  2.00D  GRAD.:    17.513 HEAT: -62.86414
 CYCLE:    11 TIME:   0.004 TIME LEFT:  2.00D  GRAD.:    19.755 HEAT: -62.88589
 CYCLE:    12 TIME:   0.004 TIME LEFT:  2.00D  GRAD.:    20.054 HEAT: -62.92077
 CYCLE:    13 TIME:   0.012 TIME LEFT:  2.00D  GRAD.:     8.317 HEAT: -63.03522
 CYCLE:    14 TIME:   0.008 TIME LEFT:  2.00D  GRAD.:     6.769 HEAT: -63.05670
 CYCLE:    15 TIME:   0.004 TIME LEFT:  2.00D  GRAD.:     5.501 HEAT: -63.07989
 CYCLE:    16 TIME:   0.004 TIME LEFT:  2.00D  GRAD.:     4.908 HEAT: -63.10822
 CYCLE:    17 TIME:   0.004 TIME LEFT:  2.00D  GRAD.:     5.103 HEAT: -63.14140
 CYCLE:    18 TIME:   0.004 TIME LEFT:  2.00D  GRAD.:     4.633 HEAT: -63.17932
 CYCLE:    19 TIME:   0.004 TIME LEFT:  2.00D  GRAD.:    10.515 HEAT: -63.18026
 CYCLE:    20 TIME:   0.004 TIME LEFT:  2.00D  GRAD.:     6.387 HEAT: -63.20793
 CYCLE:    21 TIME:   0.004 TIME LEFT:  2.00D  GRAD.:     4.812 HEAT: -63.21891
 CYCLE:    22 TIME:   0.004 TIME LEFT:  2.00D  GRAD.:     3.392 HEAT: -63.22590
 CYCLE:    23 TIME:   0.004 TIME LEFT:  2.00D  GRAD.:     3.248 HEAT: -63.23076
 CYCLE:    24 TIME:   0.004 TIME LEFT:  2.00D  GRAD.:     2.858 HEAT: -63.23535
 CYCLE:    25 TIME:   0.004 TIME LEFT:  2.00D  GRAD.:     3.083 HEAT: -63.24343
 CYCLE:    26 TIME:   0.004 TIME LEFT:  2.00D  GRAD.:     2.771 HEAT: -63.25120
 CYCLE:    27 TIME:   0.004 TIME LEFT:  2.00D  GRAD.:     3.829 HEAT: -63.25806
 CYCLE:    28 TIME:   0.004 TIME LEFT:  2.00D  GRAD.:     3.166 HEAT: -63.26467
 CYCLE:    29 TIME:   0.008 TIME LEFT:  2.00D  GRAD.:     2.126 HEAT: -63.27223
 CYCLE:    30 TIME:   0.004 TIME LEFT:  2.00D  GRAD.:     2.365 HEAT: -63.28008
 CYCLE:    31 TIME:   0.004 TIME LEFT:  2.00D  GRAD.:     5.306 HEAT: -63.28577
 CYCLE:    32 TIME:   0.004 TIME LEFT:  2.00D  GRAD.:     2.320 HEAT: -63.29738
 CYCLE:    33 TIME:   0.004 TIME LEFT:  2.00D  GRAD.:     2.184 HEAT: -63.30435
 CYCLE:    34 TIME:   0.004 TIME LEFT:  2.00D  GRAD.:     2.580 HEAT: -63.31732
 CYCLE:    35 TIME:   0.004 TIME LEFT:  2.00D  GRAD.:     2.689 HEAT: -63.32962
 CYCLE:    36 TIME:   0.004 TIME LEFT:  2.00D  GRAD.:     2.164 HEAT: -63.33798
 CYCLE:    37 TIME:   0.004 TIME LEFT:  2.00D  GRAD.:     2.830 HEAT: -63.34744
 CYCLE:    38 TIME:   0.004 TIME LEFT:  2.00D  GRAD.:     3.133 HEAT: -63.35498
 CYCLE:    39 TIME:   0.008 TIME LEFT:  2.00D  GRAD.:     2.348 HEAT: -63.36245
 CYCLE:    40 TIME:   0.004 TIME LEFT:  2.00D  GRAD.:     1.754 HEAT: -63.37143
 CYCLE:    41 TIME:   0.004 TIME LEFT:  2.00D  GRAD.:     2.013 HEAT: -63.37935
 CYCLE:    42 TIME:   0.004 TIME LEFT:  2.00D  GRAD.:     1.790 HEAT: -63.38456
 CYCLE:    43 TIME:   0.004 TIME LEFT:  2.00D  GRAD.:     2.173 HEAT: -63.39050
 CYCLE:    44 TIME:   0.004 TIME LEFT:  2.00D  GRAD.:     1.427 HEAT: -63.39504
 CYCLE:    45 TIME:   0.004 TIME LEFT:  2.00D  GRAD.:     1.984 HEAT: -63.39876
 CYCLE:    46 TIME:   0.004 TIME LEFT:  2.00D  GRAD.:     1.280 HEAT: -63.40250
 CYCLE:    47 TIME:   0.004 TIME LEFT:  2.00D  GRAD.:     1.622 HEAT: -63.40544
 CYCLE:    48 TIME:   0.008 TIME LEFT:  2.00D  GRAD.:     1.161 HEAT: -63.40865
 CYCLE:    49 TIME:   0.004 TIME LEFT:  2.00D  GRAD.:     1.217 HEAT: -63.41080
 CYCLE:    50 TIME:   0.004 TIME LEFT:  2.00D  GRAD.:     0.933 HEAT: -63.41321
 CYCLE:    51 TIME:   0.004 TIME LEFT:  2.00D  GRAD.:     1.068 HEAT: -63.41500
 CYCLE:    52 TIME:   0.004 TIME LEFT:  2.00D  GRAD.:     0.987 HEAT: -63.41673
 CYCLE:    53 TIME:   0.004 TIME LEFT:  2.00D  GRAD.:     0.928 HEAT: -63.41874
 CYCLE:    54 TIME:   0.004 TIME LEFT:  2.00D  GRAD.:     1.070 HEAT: -63.42177
 CYCLE:    55 TIME:   0.004 TIME LEFT:  2.00D  GRAD.:     1.171 HEAT: -63.42452
 CYCLE:    56 TIME:   0.008 TIME LEFT:  2.00D  GRAD.:     1.015 HEAT: -63.42674
 CYCLE:    57 TIME:   0.004 TIME LEFT:  2.00D  GRAD.:     1.522 HEAT: -63.42792
 CYCLE:    58 TIME:   0.004 TIME LEFT:  2.00D  GRAD.:     0.668 HEAT: -63.42894
 CYCLE:    59 TIME:   0.004 TIME LEFT:  2.00D  GRAD.:     0.634 HEAT: -63.42991
 CYCLE:    60 TIME:   0.004 TIME LEFT:  2.00D  GRAD.:     0.443 HEAT: -63.43074
 CYCLE:    61 TIME:   0.004 TIME LEFT:  2.00D  GRAD.:     0.356 HEAT: -63.43109
 CYCLE:    62 TIME:   0.004 TIME LEFT:  2.00D  GRAD.:     0.336 HEAT: -63.43143
 CYCLE:    63 TIME:   0.004 TIME LEFT:  2.00D  GRAD.:     0.350 HEAT: -63.43174
 CYCLE:    64 TIME:   0.004 TIME LEFT:  2.00D  GRAD.:     0.376 HEAT: -63.43210
 CYCLE:    65 TIME:   0.004 TIME LEFT:  2.00D  GRAD.:     0.361 HEAT: -63.43237
 CYCLE:    66 TIME:   0.004 TIME LEFT:  2.00D  GRAD.:     0.314 HEAT: -63.43266
 CYCLE:    67 TIME:   0.004 TIME LEFT:  2.00D  GRAD.:     0.289 HEAT: -63.43281
 CYCLE:    68 TIME:   0.008 TIME LEFT:  2.00D  GRAD.:     0.612 HEAT: -63.43293
 CYCLE:    69 TIME:   0.004 TIME LEFT:  2.00D  GRAD.:     0.442 HEAT: -63.43338
 CYCLE:    70 TIME:   0.004 TIME LEFT:  2.00D  GRAD.:     0.396 HEAT: -63.43366
 CYCLE:    71 TIME:   0.004 TIME LEFT:  2.00D  GRAD.:     0.475 HEAT: -63.43435
 CYCLE:    72 TIME:   0.004 TIME LEFT:  2.00D  GRAD.:     0.452 HEAT: -63.43474
 CYCLE:    73 TIME:   0.004 TIME LEFT:  2.00D  GRAD.:     0.524 HEAT: -63.43569
 CYCLE:    74 TIME:   0.004 TIME LEFT:  2.00D  GRAD.:     0.410 HEAT: -63.43593
 CYCLE:    75 TIME:   0.008 TIME LEFT:  2.00D  GRAD.:     1.114 HEAT: -63.43442
 CYCLE:    76 TIME:   0.004 TIME LEFT:  2.00D  GRAD.:     0.410 HEAT: -63.43691
 CYCLE:    77 TIME:   0.004 TIME LEFT:  2.00D  GRAD.:     0.357 HEAT: -63.43710
 CYCLE:    78 TIME:   0.004 TIME LEFT:  2.00D  GRAD.:     0.226 HEAT: -63.43737
 CYCLE:    79 TIME:   0.004 TIME LEFT:  2.00D  GRAD.:     0.267 HEAT: -63.43743
 CYCLE:    80 TIME:   0.004 TIME LEFT:  2.00D  GRAD.:     0.238 HEAT: -63.43747
 CYCLE:    81 TIME:   0.004 TIME LEFT:  2.00D  GRAD.:     0.277 HEAT: -63.43708
 CYCLE:    82 TIME:   0.004 TIME LEFT:  2.00D  GRAD.:     0.111 HEAT: -63.43754
 CYCLE:    83 TIME:   0.008 TIME LEFT:  2.00D  GRAD.:     0.092 HEAT: -63.43756
 CYCLE:    84 TIME:   0.004 TIME LEFT:  2.00D  GRAD.:     0.132 HEAT: -63.43761
 CYCLE:    85 TIME:   0.004 TIME LEFT:  2.00D  GRAD.:     0.115 HEAT: -63.43763
 CYCLE:    86 TIME:   0.004 TIME LEFT:  2.00D  GRAD.:     0.190 HEAT: -63.43769
 CYCLE:    87 TIME:   0.004 TIME LEFT:  2.00D  GRAD.:     0.269 HEAT: -63.43774
 CYCLE:    88 TIME:   0.004 TIME LEFT:  2.00D  GRAD.:     0.508 HEAT: -63.43789
 CYCLE:    89 TIME:   0.004 TIME LEFT:  2.00D  GRAD.:     0.339 HEAT: -63.43803
 CYCLE:    90 TIME:   0.004 TIME LEFT:  2.00D  GRAD.:     0.691 HEAT: -63.43807
 CYCLE:    91 TIME:   0.004 TIME LEFT:  2.00D  GRAD.:     0.393 HEAT: -63.43826
 CYCLE:    92 TIME:   0.004 TIME LEFT:  2.00D  GRAD.:     0.308 HEAT: -63.43839
 CYCLE:    93 TIME:   0.008 TIME LEFT:  2.00D  GRAD.:     0.383 HEAT: -63.43853
 CYCLE:    94 TIME:   0.004 TIME LEFT:  2.00D  GRAD.:     0.175 HEAT: -63.43877
 CYCLE:    95 TIME:   0.004 TIME LEFT:  2.00D  GRAD.:     0.204 HEAT: -63.43879
 CYCLE:    96 TIME:   0.004 TIME LEFT:  2.00D  GRAD.:     0.186 HEAT: -63.43879
 CYCLE:    97 TIME:   0.004 TIME LEFT:  2.00D  GRAD.:     0.120 HEAT: -63.43867
 CYCLE:    98 TIME:   0.004 TIME LEFT:  2.00D  GRAD.:     0.167 HEAT: -63.43880
 CYCLE:    99 TIME:   0.004 TIME LEFT:  2.00D  GRAD.:     0.155 HEAT: -63.43881
 CYCLE:   100 TIME:   0.004 TIME LEFT:  2.00D  GRAD.:     0.165 HEAT: -63.43880
 CYCLE:   101 TIME:   0.004 TIME LEFT:  2.00D  GRAD.:     0.162 HEAT: -63.43880
 CYCLE:   102 TIME:   0.004 TIME LEFT:  2.00D  GRAD.:     0.150 HEAT: -63.43881
 CYCLE:   103 TIME:   0.012 TIME LEFT:  2.00D  GRAD.:     1.843 HEAT: -63.43650
 CYCLE:   104 TIME:   0.004 TIME LEFT:  2.00D  GRAD.:     0.320 HEAT: -63.43939
 CYCLE:   105 TIME:   0.004 TIME LEFT:  2.00D  GRAD.:     0.331 HEAT: -63.43982
 CYCLE:   106 TIME:   0.004 TIME LEFT:  2.00D  GRAD.:     0.192 HEAT: -63.43991
 CYCLE:   107 TIME:   0.004 TIME LEFT:  2.00D  GRAD.:     0.249 HEAT: -63.43993
 CYCLE:   108 TIME:   0.004 TIME LEFT:  2.00D  GRAD.:     0.143 HEAT: -63.43996
 CYCLE:   109 TIME:   0.004 TIME LEFT:  2.00D  GRAD.:     0.136 HEAT: -63.43997
 CYCLE:   110 TIME:   0.004 TIME LEFT:  2.00D  GRAD.:     0.132 HEAT: -63.43999
 CYCLE:   111 TIME:   0.008 TIME LEFT:  2.00D  GRAD.:     0.258 HEAT: -63.44004
 CYCLE:   112 TIME:   0.004 TIME LEFT:  2.00D  GRAD.:     0.198 HEAT: -63.44006
 CYCLE:   113 TIME:   0.004 TIME LEFT:  2.00D  GRAD.:     0.161 HEAT: -63.44008
 CYCLE:   114 TIME:   0.004 TIME LEFT:  2.00D  GRAD.:     0.174 HEAT: -63.44010
 CYCLE:   115 TIME:   0.004 TIME LEFT:  2.00D  GRAD.:     0.156 HEAT: -63.44015
 CYCLE:   116 TIME:   0.004 TIME LEFT:  2.00D  GRAD.:     0.111 HEAT: -63.44018
 CYCLE:   117 TIME:   0.004 TIME LEFT:  2.00D  GRAD.:     0.047 HEAT: -63.44021

     GRADIENT =  0.04657  IS LESS THAN CUTOFF =  0.05000



 -------------------------------------------------------------------------------
 pm3  precise nosym THREADS=1
 InChI=1S/C7H12O2/c8-5-3-1-2-4-7-6-9-7/h5,7H,1-4,6H2



     GEOMETRY OPTIMISED USING EIGENVECTOR FOLLOWING (EF).     
     SCF FIELD WAS ACHIEVED                                   


                              PM3 CALCULATION
                                                       MOPAC2016 (Version: 18.184L)
                                                       Sat Jun 15 11:08:00 2019
                                                       No. of days remaining =  18




          FINAL HEAT OF FORMATION =        -63.44021 KCAL/MOL =    -265.43382 KJ/MOL


          TOTAL ENERGY            =      -1601.07595 EV
          ELECTRONIC ENERGY       =      -7198.25758 EV  POINT GROUP:     C1  
          CORE-CORE REPULSION     =       5597.18163 EV
          COSMO AREA              =        183.23 SQUARE ANGSTROMS
          COSMO VOLUME            =        176.19 CUBIC ANGSTROMS

          GRADIENT NORM           =          0.04657 = 0.01016 PER ATOM
          IONIZATION POTENTIAL    =         10.719947 EV
          HOMO LUMO ENERGIES (EV) =        -10.720  0.744
          NO. OF FILLED LEVELS    =         26
          MOLECULAR WEIGHT        =        128.1706

          MOLECULAR DIMENSIONS (Angstroms)

            Atom       Atom       Distance
            H    20    O     2     8.96427
            H    18    H    16     3.80917
            H    10    H    21     2.97400


          SCF CALCULATIONS        =        126
 
          WALL-CLOCK TIME         =          0.539 SECONDS
          COMPUTATION TIME        =          0.500 SECONDS




   ATOM   CHEMICAL          X               Y               Z
  NUMBER   SYMBOL      (ANGSTROMS)     (ANGSTROMS)     (ANGSTROMS)
 
     1       O          3.75175192  *  -0.63517043  *   0.09075918  *
     2       O         -4.72413800  *   0.15806888  *   0.62877042  *
     3       C          2.42194082  *  -0.74769751  *  -0.44565904  *
     4       C          1.28326049  *  -0.41187498  *   0.48695711  *
     5       C         -0.00830695  *  -0.23989202  *  -0.29633021  *
     6       C         -1.17320074  *   0.07010971  *   0.63005799  *
     7       C         -2.46411272  *   0.24106297  *  -0.15209208  *
     8       C          3.36559317  *   0.30215900  *  -0.91855390  *
     9       C         -3.60733192  *   0.60116891  *   0.76466590  *
    10       H          2.24197743  *  -1.64915229  *  -1.06337048  *
    11       H         -1.28869550  *  -0.74132069  *   1.37624962  *
    12       H         -0.95690479  *   0.98634832  *   1.21653631  *
    13       H         -0.22372944  *  -1.15682025  *  -0.88154734  *
    14       H          0.10816423  *   0.57009502  *  -1.04404746  *
    15       H          1.50350855  *   0.50553328  *   1.06974909  *
    16       H          1.17641996  *  -1.22211794  *   1.23586765  *
    17       H         -2.68416801  *  -0.67457956  *  -0.73719473  *
    18       H         -2.35834074  *   1.05388039  *  -0.89927259  *
    19       H          3.26902730  *   1.34668183  *  -0.59695878  *
    20       H          3.88087400  *   0.21999445  *  -1.88279945  *
    21       H         -3.38730545  *   1.30907945  *   1.58117088  *

                             CARTESIAN COORDINATES

   1    O        3.751751920    -0.635170434     0.090759184
   2    O       -4.724138000     0.158068877     0.628770416
   3    C        2.421940824    -0.747697514    -0.445659039
   4    C        1.283260495    -0.411874984     0.486957108
   5    C       -0.008306950    -0.239892023    -0.296330206
   6    C       -1.173200744     0.070109714     0.630057985
   7    C       -2.464112720     0.241062970    -0.152092084
   8    C        3.365593166     0.302158995    -0.918553904
   9    C       -3.607331924     0.601168912     0.764665900
  10    H        2.241977429    -1.649152285    -1.063370483
  11    H       -1.288695497    -0.741320686     1.376249624
  12    H       -0.956904792     0.986348319     1.216536305
  13    H       -0.223729438    -1.156820252    -0.881547343
  14    H        0.108164234     0.570095020    -1.044047459
  15    H        1.503508552     0.505533282     1.069749091
  16    H        1.176419964    -1.222117940     1.235867653
  17    H       -2.684168013    -0.674579556    -0.737194731
  18    H       -2.358340738     1.053880387    -0.899272593
  19    H        3.269027299     1.346681832    -0.596958782
  20    H        3.880873996     0.219994450    -1.882799449
  21    H       -3.387305446     1.309079454     1.581170878


           Empirical Formula: C7 H12 O2  =    21 atoms



      MOLECULAR POINT GROUP   :   C1  


                  EIGENVALUES  
 -41.30982 -39.17849 -36.54808 -31.46619 -26.39015 -24.82865 -21.68855 -21.55517
 -20.64507 -18.07334 -17.39194 -16.92789 -16.43123 -16.26922 -15.20535 -15.08874
 -14.42834 -13.80268 -13.49975 -13.11775 -12.91205 -12.58386 -11.98745 -11.69709
 -11.39587 -10.71995   0.74442   2.21926   2.37410   2.68382   3.05165   3.08467
   3.30006   3.40642   3.54285   3.57476   3.63509   3.69407   3.84796   4.10773
   4.17316   4.26407   4.36315   4.48568   4.62410   4.69182   4.77210   6.72958


              NET ATOMIC CHARGES AND DIPOLE CONTRIBUTIONS

  ATOM NO.   TYPE          CHARGE      No. of ELECS.   s-Pop       p-Pop       
    1          O          -0.263617        6.2636     1.89599     4.36763
    2          O          -0.312346        6.3123     1.86097     4.45138
    3          C           0.001303        3.9987     1.17948     2.81922
    4          C          -0.100268        4.1003     1.15900     2.94127
    5          C          -0.097108        4.0971     1.16070     2.93640
    6          C          -0.090581        4.0906     1.15938     2.93120
    7          C          -0.186606        4.1866     1.17562     3.01099
    8          C          -0.007824        4.0078     1.16292     2.84490
    9          C           0.277297        3.7227     1.20340     2.51931
   10          H           0.093586        0.9064     0.90641
   11          H           0.055806        0.9442     0.94419
   12          H           0.052163        0.9478     0.94784
   13          H           0.055051        0.9449     0.94495
   14          H           0.052504        0.9475     0.94750
   15          H           0.063436        0.9366     0.93656
   16          H           0.065061        0.9349     0.93494
   17          H           0.080713        0.9193     0.91929
   18          H           0.074191        0.9258     0.92581
   19          H           0.071620        0.9284     0.92838
   20          H           0.070036        0.9300     0.92996
   21          H           0.045585        0.9544     0.95441
 DIPOLE           X         Y         Z       TOTAL
 POINT-CHG.     0.550     1.271    -0.929     1.667
 HYBRID         0.449     0.121    -0.006     0.465
 SUM            0.999     1.391    -0.935     1.951


          ATOMIC ORBITAL ELECTRON POPULATIONS

     Atom    s        px        py        pz   
    1  O   1.89599   1.27568   1.53061   1.56134
    2  O   1.86097   1.29223   1.47498   1.68416
    3  C   1.17948   0.84569   0.98948   0.98404
    4  C   1.15900   0.94006   1.02863   0.97257
    5  C   1.16070   0.94113   1.01959   0.97568
    6  C   1.15938   0.93713   1.01856   0.97551
    7  C   1.17562   0.97157   1.04050   0.99891
    8  C   1.16292   0.98846   0.92129   0.93516
    9  C   1.20340   0.87328   0.80111   0.84492
   10  H   0.90641
   11  H   0.94419
   12  H   0.94784
   13  H   0.94495
   14  H   0.94750
   15  H   0.93656
   16  H   0.93494
   17  H   0.91929
   18  H   0.92581
   19  H   0.92838
   20  H   0.92996
   21  H   0.95441
 *******************************************************************************
 ** Site#: 14399        For non-commercial use only    Version 18.184L 64BITS **
 *******************************************************************************
 ** Cite this program as: MOPAC2016, Version: 18.184L, James J. P. Stewart,   **
 ** Stewart Computational Chemistry, web: HTTP://OpenMOPAC.net. Days left:  18**
 *******************************************************************************
 **                                                                           **
 **                                MOPAC2016                                  **
 **                                                                           **
 *******************************************************************************

                              PM3 CALCULATION RESULTS

 *******************************************************************************
 *  CALCULATION DONE:                                Sat Jun 15 11:08:00 2019  *
 *  PM3        - The PM3 Hamiltonian to be used
 *  OLDGEO     - PREVIOUS GEOMETRY TO BE USED
 *  PRECISE    - CRITERIA TO BE INCREASED BY 100 TIMES
 *  NOSYM      - POINT-GROUP SYMMETRY SET TO C1
 *  THREADS=1  - MULTI-THREADING NOT USED
 *  T=         - A TIME OF 172800.0 SECONDS REQUESTED
 *  DUMP=N     - RESTART FILE WRITTEN EVERY  7200.000 SECONDS
 *  THERMO     - THERMODYNAMIC QUANTITIES TO BE CALCULATED
 *******************************************************************************
oldgeo thermo nosym precise THREADS=1  pm3
 InChI=1S/C7H12O2/c8-5-3-1-2-4-7-6-9-7/h5,7H,1-4,6H2

   ATOM   CHEMICAL          X               Y               Z
  NUMBER   SYMBOL      (ANGSTROMS)     (ANGSTROMS)     (ANGSTROMS)
 
     1       O          3.75175192  *  -0.63517043  *   0.09075918  *
     2       O         -4.72413800  *   0.15806888  *   0.62877042  *
     3       C          2.42194082  *  -0.74769751  *  -0.44565904  *
     4       C          1.28326049  *  -0.41187498  *   0.48695711  *
     5       C         -0.00830695  *  -0.23989202  *  -0.29633021  *
     6       C         -1.17320074  *   0.07010971  *   0.63005799  *
     7       C         -2.46411272  *   0.24106297  *  -0.15209208  *
     8       C          3.36559317  *   0.30215900  *  -0.91855390  *
     9       C         -3.60733192  *   0.60116891  *   0.76466590  *
    10       H          2.24197743  *  -1.64915229  *  -1.06337048  *
    11       H         -1.28869550  *  -0.74132069  *   1.37624962  *
    12       H         -0.95690479  *   0.98634832  *   1.21653631  *
    13       H         -0.22372944  *  -1.15682025  *  -0.88154734  *
    14       H          0.10816423  *   0.57009502  *  -1.04404746  *
    15       H          1.50350855  *   0.50553328  *   1.06974909  *
    16       H          1.17641996  *  -1.22211794  *   1.23586765  *
    17       H         -2.68416801  *  -0.67457956  *  -0.73719473  *
    18       H         -2.35834074  *   1.05388039  *  -0.89927259  *
    19       H          3.26902730  *   1.34668183  *  -0.59695878  *
    20       H          3.88087400  *   0.21999445  *  -1.88279945  *
    21       H         -3.38730545  *   1.30907945  *   1.58117088  *
 


          CARTESIAN COORDINATES 

    NO.       ATOM           X           Y           Z

     1         O          3.7518     -0.6352      0.0908
     2         O         -4.7241      0.1581      0.6288
     3         C          2.4219     -0.7477     -0.4457
     4         C          1.2833     -0.4119      0.4870
     5         C         -0.0083     -0.2399     -0.2963
     6         C         -1.1732      0.0701      0.6301
     7         C         -2.4641      0.2411     -0.1521
     8         C          3.3656      0.3022     -0.9186
     9         C         -3.6073      0.6012      0.7647
    10         H          2.2420     -1.6492     -1.0634
    11         H         -1.2887     -0.7413      1.3762
    12         H         -0.9569      0.9863      1.2165
    13         H         -0.2237     -1.1568     -0.8815
    14         H          0.1082      0.5701     -1.0440
    15         H          1.5035      0.5055      1.0697
    16         H          1.1764     -1.2221      1.2359
    17         H         -2.6842     -0.6746     -0.7372
    18         H         -2.3583      1.0539     -0.8993
    19         H          3.2690      1.3467     -0.5970
    20         H          3.8809      0.2200     -1.8828
    21         H         -3.3873      1.3091      1.5812

  H: (PM3): J. J. P. STEWART, J. COMP. CHEM. 10, 209 (1989).
  C: (PM3): J. J. P. STEWART, J. COMP. CHEM. 10, 209 (1989).
  O: (PM3): J. J. P. STEWART, J. COMP. CHEM. 10, 209 (1989).

           Empirical Formula: C7 H12 O2  =    21 atoms



      MOLECULAR POINT GROUP   :   C1  


      RHF CALCULATION, NO. OF DOUBLY OCCUPIED LEVELS = 26



          HEAT OF FORMATION =     -63.440207 KCALS/MOLE


          CARTESIAN COORDINATE DERIVATIVES

   NUMBER  ATOM         X            Y            Z

     1       O     -0.006511     0.001989     0.005176
     2       O     -0.004323     0.006819    -0.010790
     3       C     -0.001155    -0.000452     0.008177
     4       C     -0.004376    -0.000628     0.004529
     5       C     -0.002335    -0.004201     0.000654
     6       C     -0.002430    -0.002096    -0.002098
     7       C     -0.004118     0.001973    -0.002940
     8       C      0.002603    -0.002696    -0.001292
     9       C      0.004185    -0.004622     0.005708
    10       H     -0.004235     0.006655     0.007205
    11       H     -0.019425    -0.004910    -0.011521
    12       H      0.006625    -0.002835    -0.003952
    13       H     -0.004231     0.003816     0.000616
    14       H      0.007695     0.004752    -0.000732
    15       H      0.012556    -0.001692     0.000300
    16       H     -0.008510    -0.001467     0.006386
    17       H     -0.001919    -0.000916    -0.003611
    18       H      0.010939    -0.004448    -0.003830
    19       H      0.000789    -0.003595    -0.009075
    20       H      0.012013     0.003071     0.002846
    21       H      0.006165     0.005482     0.008243
 


          GRADIENT NORM =   0.04680


          TIME FOR SCF CALCULATION =    0.00

          TIME FOR DERIVATIVES     =    0.00

          MOLECULAR WEIGHT =  128.17



          ROTATIONAL CONSTANTS IN CM(-1)

          A =    0.28580710   B =    0.01449326   C =    0.01432389



           PRINCIPAL MOMENTS OF INERTIA IN UNITS OF 10**(-40)*GRAM-CM**2

          A =       97.9429   B =     1931.4335   C =     1954.2711


          ORIENTATION OF MOLECULE IN FORCE CALCULATION

    NO.       ATOM         X         Y         Z

     1          O      -3.9079   -0.1594    0.2734
     2          O       4.6220   -0.1594    0.2734
     3          C      -2.6308    0.5023    0.2734
     4          C      -1.4093   -0.3800    0.3658
     5          C      -0.1593    0.4089    0.0102
     6          C       1.0855   -0.4561    0.1262
     7          C       2.3348    0.3320   -0.2280
     8          C      -3.5007    0.4896   -0.9347
     9          C       3.5620   -0.5436   -0.1636
    10          H      -2.5748    1.4099    0.9056
    11          H       1.1718   -0.8576    1.1557
    12          H       0.9927   -1.3431   -0.5332
    13          H      -0.0674    1.2949    0.6708
    14          H      -0.2469    0.8123   -1.0185
    15          H      -1.5061   -1.2643   -0.2963
    16          H      -1.3312   -0.7852    1.3946
    17          H       2.4314    1.2178    0.4316
    18          H       2.2581    0.7349   -1.2585
    19          H      -3.2873   -0.1665   -1.7878
    20          H      -4.0812    1.3700   -1.2346
    21          H       3.4607   -1.5726   -0.5472


    FIRST DERIVATIVES WILL BE USED IN THE CALCULATION OF SECOND DERIVATIVES

          ESTIMATED TIME TO COMPLETE CALCULATION =        1.97 SECONDS

    FOR POINT-GROUP C1   THERE ARE   1 UNIQUE SYMMETRY FUNCTIONS.

 STEP:   1 TIME =     0.02 SECS, INTEGRAL =      0.02 TIME LEFT: 172799.98
 STEP:   2 TIME =     0.02 SECS, INTEGRAL =      0.03 TIME LEFT: 172799.96
 STEP:   3 TIME =     0.02 SECS, INTEGRAL =      0.05 TIME LEFT: 172799.94
 STEP:   4 TIME =     0.02 SECS, INTEGRAL =      0.07 TIME LEFT: 172799.92
 STEP:   5 TIME =     0.02 SECS, INTEGRAL =      0.09 TIME LEFT: 172799.91
 STEP:   6 TIME =     0.02 SECS, INTEGRAL =      0.11 TIME LEFT: 172799.89
 STEP:   7 TIME =     0.02 SECS, INTEGRAL =      0.12 TIME LEFT: 172799.87
 STEP:   8 TIME =     0.02 SECS, INTEGRAL =      0.14 TIME LEFT: 172799.85
 STEP:   9 TIME =     0.02 SECS, INTEGRAL =      0.16 TIME LEFT: 172799.83
 STEP:  10 TIME =     0.02 SECS, INTEGRAL =      0.18 TIME LEFT: 172799.81
 STEP:  11 TIME =     0.02 SECS, INTEGRAL =      0.20 TIME LEFT: 172799.79
 STEP:  12 TIME =     0.02 SECS, INTEGRAL =      0.21 TIME LEFT: 172799.78
 STEP:  13 TIME =     0.02 SECS, INTEGRAL =      0.23 TIME LEFT: 172799.76
 STEP:  14 TIME =     0.02 SECS, INTEGRAL =      0.25 TIME LEFT: 172799.74
 STEP:  15 TIME =     0.02 SECS, INTEGRAL =      0.27 TIME LEFT: 172799.72
 STEP:  16 TIME =     0.02 SECS, INTEGRAL =      0.29 TIME LEFT: 172799.70
 STEP:  17 TIME =     0.02 SECS, INTEGRAL =      0.30 TIME LEFT: 172799.69
 STEP:  18 TIME =     0.02 SECS, INTEGRAL =      0.32 TIME LEFT: 172799.67
 STEP:  19 TIME =     0.02 SECS, INTEGRAL =      0.34 TIME LEFT: 172799.65
 STEP:  20 TIME =     0.02 SECS, INTEGRAL =      0.36 TIME LEFT: 172799.63
 STEP:  21 TIME =     0.02 SECS, INTEGRAL =      0.38 TIME LEFT: 172799.61
 STEP:  22 TIME =     0.02 SECS, INTEGRAL =      0.40 TIME LEFT: 172799.59
 STEP:  23 TIME =     0.02 SECS, INTEGRAL =      0.42 TIME LEFT: 172799.57
 STEP:  24 TIME =     0.02 SECS, INTEGRAL =      0.43 TIME LEFT: 172799.56
 STEP:  25 TIME =     0.02 SECS, INTEGRAL =      0.45 TIME LEFT: 172799.54
 STEP:  26 TIME =     0.02 SECS, INTEGRAL =      0.47 TIME LEFT: 172799.52
 STEP:  27 TIME =     0.02 SECS, INTEGRAL =      0.49 TIME LEFT: 172799.50
 STEP:  28 TIME =     0.02 SECS, INTEGRAL =      0.50 TIME LEFT: 172799.49
 STEP:  29 TIME =     0.02 SECS, INTEGRAL =      0.52 TIME LEFT: 172799.47
 STEP:  30 TIME =     0.02 SECS, INTEGRAL =      0.54 TIME LEFT: 172799.45
 STEP:  31 TIME =     0.02 SECS, INTEGRAL =      0.55 TIME LEFT: 172799.44
 STEP:  32 TIME =     0.02 SECS, INTEGRAL =      0.57 TIME LEFT: 172799.42
 STEP:  33 TIME =     0.02 SECS, INTEGRAL =      0.59 TIME LEFT: 172799.40
 STEP:  34 TIME =     0.02 SECS, INTEGRAL =      0.61 TIME LEFT: 172799.38
 STEP:  35 TIME =     0.02 SECS, INTEGRAL =      0.63 TIME LEFT: 172799.36
 STEP:  36 TIME =     0.02 SECS, INTEGRAL =      0.65 TIME LEFT: 172799.34
 STEP:  37 TIME =     0.02 SECS, INTEGRAL =      0.66 TIME LEFT: 172799.33
 STEP:  38 TIME =     0.02 SECS, INTEGRAL =      0.68 TIME LEFT: 172799.31
 STEP:  39 TIME =     0.02 SECS, INTEGRAL =      0.70 TIME LEFT: 172799.29
 STEP:  40 TIME =     0.02 SECS, INTEGRAL =      0.72 TIME LEFT: 172799.27
 STEP:  41 TIME =     0.02 SECS, INTEGRAL =      0.74 TIME LEFT: 172799.25
 STEP:  42 TIME =     0.02 SECS, INTEGRAL =      0.75 TIME LEFT: 172799.24
 STEP:  43 TIME =     0.02 SECS, INTEGRAL =      0.77 TIME LEFT: 172799.22
 STEP:  44 TIME =     0.02 SECS, INTEGRAL =      0.79 TIME LEFT: 172799.20
 STEP:  45 TIME =     0.02 SECS, INTEGRAL =      0.81 TIME LEFT: 172799.18
 STEP:  46 TIME =     0.02 SECS, INTEGRAL =      0.82 TIME LEFT: 172799.17
 STEP:  47 TIME =     0.02 SECS, INTEGRAL =      0.84 TIME LEFT: 172799.15
 STEP:  48 TIME =     0.02 SECS, INTEGRAL =      0.86 TIME LEFT: 172799.13
 STEP:  49 TIME =     0.02 SECS, INTEGRAL =      0.88 TIME LEFT: 172799.11
 STEP:  50 TIME =     0.02 SECS, INTEGRAL =      0.90 TIME LEFT: 172799.09
 STEP:  51 TIME =     0.02 SECS, INTEGRAL =      0.91 TIME LEFT: 172799.08
 STEP:  52 TIME =     0.02 SECS, INTEGRAL =      0.93 TIME LEFT: 172799.06
 STEP:  53 TIME =     0.02 SECS, INTEGRAL =      0.95 TIME LEFT: 172799.04
 STEP:  54 TIME =     0.02 SECS, INTEGRAL =      0.97 TIME LEFT: 172799.02
 STEP:  55 TIME =     0.02 SECS, INTEGRAL =      0.98 TIME LEFT: 172799.01
 STEP:  56 TIME =     0.02 SECS, INTEGRAL =      1.00 TIME LEFT: 172798.99
 STEP:  57 TIME =     0.02 SECS, INTEGRAL =      1.02 TIME LEFT: 172798.97
 STEP:  58 TIME =     0.02 SECS, INTEGRAL =      1.04 TIME LEFT: 172798.95
 STEP:  59 TIME =     0.02 SECS, INTEGRAL =      1.06 TIME LEFT: 172798.93
 STEP:  60 TIME =     0.02 SECS, INTEGRAL =      1.08 TIME LEFT: 172798.91
 STEP:  61 TIME =     0.02 SECS, INTEGRAL =      1.10 TIME LEFT: 172798.89
 STEP:  62 TIME =     0.02 SECS, INTEGRAL =      1.11 TIME LEFT: 172798.88
 STEP:  63 TIME =     0.02 SECS, INTEGRAL =      1.13 TIME LEFT: 172798.86

(To convert to Hartree/Bohr^2, multiply by (10^(-21) x N x a0^2)/(4.184 x 627.51) =  0.0642)


           FORCE MATRIX IN MILLIDYNES/ANGSTROM


                  O  1       O  2       C  3       C  4       C  5       C  6
 ------------------------------------------------------------------------------
     O    1   8.915237
     O    2   0.007219  16.294550
     C    3   5.130246   0.004555  15.371095
     C    4   0.705574   0.007238   4.371083  14.525205
     C    5   0.069350   0.018295   0.666691   4.190943  14.359644
     C    6   0.013218   0.085465   0.051355   0.650297   4.189358  14.352758
     C    7   0.006534   1.231864   0.009012   0.056117   0.659769   4.206625
     C    8   5.492766   0.002165   5.649751   0.522332   0.023736   0.003516
     C    9   0.009822  14.988035   0.006384   0.011025   0.051132   0.679735
     H   10   0.391817   0.001409   4.467777   0.417421   0.026004   0.001574
     H   11   0.001149   0.004055   0.001526   0.029507   0.443994   4.455304
     H   12   0.001290   0.007874   0.001305   0.029591   0.444364   4.422824
     H   13   0.003779   0.002205   0.036204   0.443754   4.435908   0.444239
     H   14   0.003625   0.001972   0.026410   0.442359   4.446549   0.444729
     H   15   0.035671   0.001141   0.465428   4.443626   0.442845   0.029327
     H   16   0.019822   0.000925   0.435106   4.457250   0.447857   0.028668
     H   17   0.000733   0.065517   0.000815   0.001964   0.029599   0.438479
     H   18   0.000728   0.065433   0.000700   0.002140   0.028103   0.452731
     H   19   0.418366   0.000491   0.446742   0.019274   0.002368   0.000728
     H   20   0.416365   0.000727   0.436517   0.043408   0.003150   0.000242
     H   21   0.000857   0.661869   0.000650   0.000531   0.002431   0.030339


                  C  7       C  8       C  9       H 10       H 11       H 12
 ------------------------------------------------------------------------------
     C    7  14.242639
     C    8   0.002275  15.349223
     C    9   4.084201   0.002939  20.163757
     H   10   0.001021   0.424253   0.001804   4.893172
     H   11   0.438002   0.000571   0.027279   0.000476   5.065043
     H   12   0.444269   0.000687   0.046679   0.000593   0.567565   5.045165
     H   13   0.028084   0.002694   0.003384   0.022210   0.024314   0.045738
     H   14   0.028146   0.003608   0.003014   0.001936   0.046068   0.023888
     H   15   0.002009   0.027783   0.001358   0.039414   0.001587   0.022929
     H   16   0.002100   0.048039   0.001346   0.021388   0.022510   0.001605
     H   17   4.472367   0.000356   0.486950   0.000313   0.024854   0.044702
     H   18   4.436857   0.000452   0.389860   0.000161   0.046402   0.023723
     H   19   0.000634   4.741197   0.000885   0.037878   0.000138   0.000268
     H   20   0.000380   4.769465   0.000737   0.015741   0.000153   0.000202
     H   21   0.462979   0.000472   4.388558   0.000136   0.002841   0.025540


                  H 13       H 14       H 15       H 16       H 17       H 18
 ------------------------------------------------------------------------------
     H   13   5.056172
     H   14   0.569572   5.062959
     H   15   0.045153   0.024202   5.063992
     H   16   0.023398   0.046093   0.567750   5.062599
     H   17   0.022959   0.001715   0.000376   0.000409   5.092137
     H   18   0.001752   0.022341   0.000384   0.000359   0.566288   5.032453
     H   19   0.000578   0.001629   0.016576   0.002725   0.000141   0.000204
     H   20   0.000474   0.000433   0.002192   0.008132   0.000069   0.000096
     H   21   0.000691   0.000439   0.000228   0.000160   0.038634   0.026113


                  H 19       H 20       H 21
 ------------------------------------------
     H   19   5.192835
     H   20   0.426713   5.215489
     H   21   0.000183   0.000110   4.806000


          HEAT OF FORMATION =     -63.440207 KCALS/MOLE

          ZERO POINT ENERGY     110.770 KCAL/MOL


           NORMAL COORDINATE ANALYSIS (Total motion = 1 Angstrom)


   Root No.       1         2         3         4         5         6         7         8

                 1 A       2 A       3 A       4 A       5 A       6 A       7 A       8 A   

                  35.7      44.7      57.3      94.5     104.2     122.0     247.7     289.9
  
           1    0.0051   -0.0011    0.0089    0.0034    0.0017   -0.0094    0.0018    0.0683
           2    0.0111    0.0050   -0.0211   -0.0234   -0.0003    0.0462   -0.0316   -0.0210
           3    0.0540    0.0154   -0.0160    0.0011    0.0008    0.0093   -0.0107    0.0117
           4   -0.0106    0.0117   -0.0336    0.0024   -0.0068   -0.0119    0.0129   -0.0560
           5   -0.0075   -0.0299   -0.0443   -0.0243    0.0111    0.0183    0.0217    0.0225
           6    0.0683   -0.0207    0.0489   -0.0042    0.0065    0.0122    0.0102   -0.0085
           7    0.0088   -0.0026   -0.0012   -0.0040    0.0004    0.0140   -0.0240    0.0379
           8    0.0041    0.0081   -0.0015   -0.0083    0.0024   -0.0010    0.0257    0.0271
           9   -0.0118   -0.0273    0.0143   -0.0058   -0.0108   -0.0179   -0.0085   -0.0042
          10    0.0071   -0.0001    0.0098    0.0045    0.0014   -0.0084   -0.0087    0.0229
          11   -0.0017    0.0137    0.0170    0.0003    0.0041   -0.0331    0.0452    0.0182
          12   -0.0451   -0.0065    0.0422   -0.0402   -0.0082   -0.0093    0.0097   -0.0287
          13    0.0070    0.0043   -0.0013    0.0040    0.0101    0.0035    0.0158    0.0144
          14   -0.0005    0.0197    0.0191    0.0184    0.0222   -0.0388    0.0015    0.0142
          15   -0.0430    0.0220    0.0075   -0.0032    0.0629    0.0218    0.0030   -0.0116
          16    0.0061   -0.0001    0.0032    0.0099   -0.0001    0.0121    0.0002   -0.0273
          17   -0.0026    0.0105    0.0242    0.0344   -0.0023   -0.0234   -0.0327   -0.0286
          18   -0.0480    0.0019   -0.0051    0.0561   -0.0106    0.0403    0.0111    0.0161
          19    0.0105    0.0074   -0.0027    0.0084   -0.0011   -0.0112    0.0062   -0.0443
          20    0.0044    0.0182    0.0211    0.0073   -0.0157   -0.0030   -0.0405   -0.0177
          21   -0.0175    0.0454   -0.0333   -0.0089   -0.0430   -0.0012    0.0088    0.0237
          22   -0.0424   -0.0180    0.0284   -0.0254   -0.0050    0.0041   -0.0396    0.0296
          23   -0.0126   -0.0427   -0.0164    0.0099   -0.0109    0.0004    0.0129   -0.0054
          24    0.0253   -0.0158   -0.0069    0.0094   -0.0071   -0.0109    0.0012    0.0043
          25    0.0103   -0.0018   -0.0104   -0.0027   -0.0000    0.0095    0.0356   -0.0463
          26    0.0058    0.0007    0.0085   -0.0087   -0.0103    0.0245   -0.0022   -0.0071
          27    0.0060   -0.0150   -0.0532   -0.0051    0.0087   -0.0451   -0.0267   -0.0038
          28    0.0396    0.0028   -0.0291   -0.0040    0.0015    0.0482   -0.0536    0.0341
          29    0.0151    0.0333    0.0001   -0.0218    0.0079    0.0125    0.0216    0.0269
          30   -0.0300   -0.0640    0.0143    0.0137   -0.0190   -0.0400   -0.0002   -0.0047
          31   -0.0047   -0.0125    0.0209    0.0153    0.0328    0.0288   -0.0091   -0.0455
          32   -0.0232   -0.0300    0.0348    0.1113   -0.0300    0.0114   -0.0308   -0.0275
          33   -0.0550   -0.0129   -0.0024    0.0857   -0.0242    0.0520    0.0120    0.0182
          34    0.0133    0.0024   -0.0061    0.0096   -0.0391    0.0205   -0.0113   -0.0323
          35    0.0108    0.0366    0.0174   -0.0153    0.0160   -0.0453   -0.0321   -0.0288
          36   -0.0668   -0.0337    0.0052    0.1225   -0.0297    0.0691    0.0131    0.0169
          37    0.0087    0.0049    0.0069   -0.0309    0.0186   -0.0112    0.0400    0.0215
          38   -0.0045   -0.0000    0.0284    0.0280   -0.0357   -0.0399    0.0062    0.0123
          39   -0.0377    0.0483   -0.0063   -0.0116    0.1393    0.0260   -0.0071   -0.0093
          40    0.0070    0.0109   -0.0228    0.0349    0.0164    0.0210    0.0294    0.0382
          41    0.0056    0.0502    0.0046    0.0036    0.1116   -0.0354   -0.0080    0.0169
          42   -0.0404    0.0334    0.0036   -0.0115    0.0974    0.0211   -0.0017   -0.0130
          43   -0.0040    0.0162    0.0174    0.0126    0.0233   -0.0129   -0.0108    0.0147
          44    0.0118    0.0163   -0.0082    0.0257    0.0317   -0.0198    0.0263    0.0354
          45   -0.0615   -0.0125    0.0746   -0.0755   -0.0487   -0.0258    0.0349   -0.0526
          46    0.0171   -0.0184    0.0193    0.0031   -0.0274   -0.0306   -0.0201    0.0214
          47   -0.0224    0.0094    0.0551   -0.0400   -0.0393   -0.0510    0.0737   -0.0118
          48   -0.0538   -0.0068    0.0564   -0.0558   -0.0233   -0.0150    0.0225   -0.0399
          49   -0.0064    0.0203    0.0137    0.0345   -0.0063   -0.0080    0.0040   -0.0447
          50    0.0008   -0.0237    0.0218    0.0339    0.0167   -0.0005   -0.0461   -0.0321
          51   -0.0101    0.0997   -0.0368   -0.0489   -0.0855   -0.0049    0.0177    0.0449
          52    0.0312    0.0075   -0.0205   -0.0120    0.0027   -0.0519   -0.0092   -0.0564
          53    0.0099    0.0829    0.0179   -0.0363   -0.0659   -0.0057   -0.0290    0.0080
          54   -0.0167    0.0706   -0.0329   -0.0244   -0.0628    0.0005    0.0139    0.0342
          55   -0.0824   -0.0274    0.0597   -0.0335   -0.0076   -0.0272   -0.0233    0.0497
          56   -0.0291   -0.0767   -0.0143    0.0328   -0.0186   -0.0299    0.0440    0.0045
          57    0.0279    0.0079   -0.0008   -0.0102   -0.0018    0.0045   -0.0182    0.0014
          58   -0.0502   -0.0240    0.0222   -0.0409   -0.0084    0.0343   -0.0829   -0.0114
          59   -0.0148   -0.0563   -0.0258    0.0105   -0.0151    0.0141   -0.0049   -0.0303
          60    0.0342   -0.0441   -0.0224    0.0410   -0.0129   -0.0292    0.0316    0.0114
          61    0.0296   -0.0212    0.0035   -0.0170    0.0064    0.0456    0.0841   -0.0302
          62    0.0191    0.0177    0.0480   -0.0080   -0.0268    0.0537    0.0189   -0.0063
          63   -0.0347   -0.0556   -0.1629   -0.0039    0.0519   -0.1327   -0.0939   -0.0087


   Root No.       9        10        11        12        13        14        15        16

                 9 A      10 A      11 A      12 A      13 A      14 A      15 A      16 A   

                 373.6     447.7     502.5     557.6     753.0     786.6     847.1     853.1
  
           1   -0.0248    0.0127   -0.0499   -0.0102   -0.0006   -0.0026   -0.0047   -0.0022
           2    0.0104   -0.0125    0.0076    0.0045   -0.0009   -0.0010   -0.0284    0.0017
           3    0.0033    0.0002   -0.0079    0.0006    0.0026    0.0046    0.0223    0.0087
           4    0.0081    0.0175   -0.0317    0.0412    0.0071   -0.0073   -0.0004    0.0032
           5    0.0124   -0.0213    0.0053   -0.0313   -0.0031    0.0031    0.0006   -0.0017
           6    0.0049   -0.0013   -0.0052   -0.0012    0.0054   -0.0070    0.0019    0.0071
           7   -0.0168   -0.0178   -0.0191    0.0062   -0.0007   -0.0026   -0.0085   -0.0023
           8   -0.0001    0.0490   -0.0190   -0.0238   -0.0012    0.0019   -0.0061   -0.0039
           9    0.0397    0.0219    0.0166   -0.0033   -0.0002   -0.0003   -0.0136   -0.0057
          10   -0.0064   -0.0335    0.0300    0.0234   -0.0015   -0.0046   -0.0287   -0.0026
          11    0.0085    0.0143    0.0325    0.0111    0.0010   -0.0038    0.0268   -0.0061
          12   -0.0267   -0.0156   -0.0099   -0.0034   -0.0068   -0.0180   -0.0165   -0.0232
          13   -0.0105    0.0001    0.0593    0.0091   -0.0028    0.0000   -0.0064   -0.0024
          14    0.0274   -0.0386   -0.0040    0.0242   -0.0014   -0.0087   -0.0061    0.0042
          15   -0.0144    0.0039   -0.0057   -0.0077   -0.0113   -0.0172    0.0007    0.0035
          16   -0.0188    0.0160    0.0413   -0.0293   -0.0060    0.0060    0.0013   -0.0021
          17    0.0075   -0.0181   -0.0296   -0.0323   -0.0091    0.0059   -0.0007    0.0012
          18    0.0021   -0.0004    0.0053    0.0066   -0.0129   -0.0008    0.0080    0.0224
          19    0.0052   -0.0047    0.0031   -0.0428   -0.0071    0.0082    0.0042   -0.0036
          20   -0.0297    0.0273    0.0182   -0.0048   -0.0011    0.0022    0.0056    0.0013
          21    0.0079   -0.0123   -0.0002   -0.0001   -0.0187    0.0224   -0.0025   -0.0115
          22    0.0376    0.0122   -0.0038    0.0020    0.0035    0.0045    0.0368    0.0035
          23   -0.0247   -0.0104   -0.0076   -0.0001    0.0010    0.0027   -0.0009    0.0064
          24    0.0040    0.0009    0.0052    0.0018    0.0016    0.0035    0.0043    0.0017
          25    0.0224   -0.0045   -0.0282    0.0008    0.0057   -0.0084    0.0036    0.0101
          26   -0.0116    0.0272   -0.0048    0.0580    0.0065   -0.0065   -0.0025    0.0027
          27   -0.0121    0.0112    0.0015    0.0163   -0.0040    0.0093   -0.0058   -0.0173
          28   -0.0257   -0.0376   -0.0382    0.0085    0.0016    0.0035   -0.0015    0.0107
          29   -0.0110    0.0426   -0.0311   -0.0248   -0.0039   -0.0095    0.0527   -0.0281
          30    0.0533    0.0288    0.0346   -0.0007    0.0037    0.0155   -0.0932    0.0274
          31   -0.0395    0.0366    0.0539   -0.0442    0.0074   -0.0264    0.0028    0.0031
          32    0.0179   -0.0158   -0.0350   -0.0386    0.1215    0.0051   -0.0356   -0.0954
          33    0.0079   -0.0018    0.0020    0.0048    0.0403    0.0019   -0.0071   -0.0183
          34   -0.0314    0.0355    0.0524   -0.0444   -0.0040    0.0434    0.0054   -0.0269
          35    0.0020   -0.0203   -0.0273   -0.0280   -0.0918    0.0065    0.0212    0.0617
          36    0.0118    0.0002    0.0004    0.0030    0.1038   -0.0069   -0.0229   -0.0592
          37   -0.0171    0.0056    0.0848    0.0259    0.0135   -0.0115   -0.0107   -0.0516
          38    0.0227   -0.0413   -0.0018    0.0206   -0.0671   -0.0801   -0.0079    0.0186
          39   -0.0081    0.0072   -0.0126   -0.0049    0.0791    0.0848    0.0037   -0.0100
          40    0.0009    0.0145    0.0897    0.0224   -0.0006    0.0280    0.0281    0.0467
          41    0.0336   -0.0347   -0.0100    0.0296    0.1027    0.1037   -0.0050   -0.0173
          42   -0.0125    0.0036   -0.0107   -0.0065    0.0322    0.0277   -0.0021   -0.0099
          43   -0.0145   -0.0764    0.0388    0.0470   -0.0097   -0.0223   -0.0445    0.0106
          44    0.0492    0.0477    0.0357   -0.0002   -0.0324   -0.0701    0.0123   -0.0666
          45   -0.0819   -0.0564   -0.0153    0.0087    0.0413    0.0777    0.0055    0.0592
          46    0.0227   -0.0472    0.0504    0.0417    0.0150    0.0182   -0.0566   -0.0020
          47   -0.0588   -0.0396    0.0275    0.0286    0.0546    0.1021    0.0608    0.0893
          48   -0.0562   -0.0366   -0.0133    0.0028    0.0145    0.0247   -0.0010    0.0164
          49    0.0137   -0.0274    0.0037   -0.1053   -0.0181    0.0052    0.0219    0.0306
          50   -0.0339    0.0434    0.0054    0.0463   -0.0719    0.0636    0.0067   -0.0175
          51    0.0131   -0.0327    0.0183   -0.0638    0.0828   -0.0634   -0.0069    0.0093
          52    0.0078   -0.0113   -0.0085   -0.0595   -0.0107    0.0394   -0.0142   -0.0779
          53   -0.0223    0.0004    0.0409   -0.0886    0.1175   -0.1018    0.0056    0.0365
          54    0.0103   -0.0222    0.0099   -0.0336    0.0311   -0.0231   -0.0012    0.0083
          55    0.0900    0.0916    0.0008   -0.0301    0.0097    0.0429   -0.1194    0.0839
          56   -0.0551   -0.0116   -0.0233   -0.0051    0.0018    0.0063   -0.0045    0.0189
          57    0.0387    0.0200    0.0177   -0.0019    0.0024    0.0095   -0.0276    0.0101
          58    0.0544   -0.0406    0.0298    0.0349    0.0062   -0.0100    0.2458   -0.0389
          59   -0.0377   -0.0597    0.0048    0.0247    0.0017   -0.0129    0.1569   -0.0319
          60   -0.0627   -0.0381   -0.0228    0.0095   -0.0012   -0.0116    0.0473   -0.0233
          61    0.0554   -0.0395   -0.0463   -0.0250   -0.0076    0.0089   -0.0023   -0.0105
          62    0.0007    0.0214   -0.0195    0.0746   -0.0189    0.0276   -0.0132   -0.0370
          63   -0.0513    0.0316    0.0458   -0.0296    0.0680   -0.0875    0.0252    0.0960


   Root No.      17        18        19        20        21        22        23        24

                17 A      18 A      19 A      20 A      21 A      22 A      23 A      24 A   

                 904.2     924.2     956.4     992.8    1029.6    1039.0    1096.8    1097.8
  
           1   -0.0377    0.0146    0.0082    0.0077   -0.0039    0.0034    0.0154    0.0054
           2   -0.0156    0.0025    0.0042    0.0146    0.0168   -0.0033    0.0028    0.0019
           3    0.0091    0.0276    0.0271    0.0063   -0.0108    0.0010   -0.0083   -0.0052
           4    0.0002    0.0001   -0.0026    0.0010   -0.0024   -0.0120    0.0001   -0.0009
           5    0.0002    0.0009   -0.0004    0.0003   -0.0000   -0.0027    0.0015   -0.0000
           6   -0.0029   -0.0054    0.0041   -0.0021    0.0018    0.0058   -0.0019    0.0013
           7    0.0092   -0.0191   -0.0216   -0.0151    0.0183   -0.0062   -0.0186   -0.0110
           8    0.0053   -0.0205   -0.0223   -0.0105    0.0005   -0.0001   -0.0233   -0.0023
           9   -0.0223   -0.0121   -0.0081    0.0166    0.0007    0.0045    0.0339    0.0182
          10    0.0021   -0.0078   -0.0012   -0.0024   -0.0132   -0.0052   -0.0263    0.0029
          11   -0.0051    0.0065    0.0063    0.0006    0.0115   -0.0119   -0.0114    0.0035
          12   -0.0018   -0.0123    0.0167    0.0031   -0.0163    0.0027   -0.0066   -0.0212
          13    0.0055    0.0012   -0.0025   -0.0010   -0.0002    0.0041    0.0105   -0.0206
          14    0.0043    0.0018    0.0010    0.0010   -0.0002    0.0103    0.0198    0.0117
          15    0.0092    0.0188   -0.0117   -0.0056    0.0115    0.0036   -0.0014    0.0176
          16   -0.0011    0.0024    0.0019    0.0038   -0.0059   -0.0021   -0.0045    0.0173
          17    0.0011   -0.0022   -0.0075    0.0002   -0.0036   -0.0092   -0.0141   -0.0131
          18   -0.0090   -0.0104   -0.0027    0.0096   -0.0091   -0.0072    0.0056   -0.0169
          19   -0.0011    0.0004    0.0049   -0.0015    0.0074    0.0277    0.0127   -0.0096
          20   -0.0031   -0.0027    0.0059   -0.0019    0.0028   -0.0146    0.0077    0.0069
          21   -0.0017   -0.0066    0.0135   -0.0092    0.0081    0.0244   -0.0121    0.0200
          22    0.0181    0.0039    0.0052    0.0086    0.0170   -0.0037    0.0065    0.0038
          23    0.0012    0.0158    0.0082   -0.0191   -0.0343    0.0073    0.0138    0.0031
          24    0.0224   -0.0202   -0.0262   -0.0237    0.0073   -0.0030   -0.0084   -0.0022
          25   -0.0046   -0.0080    0.0059   -0.0030    0.0017   -0.0022   -0.0058    0.0094
          26    0.0004   -0.0019    0.0014   -0.0014    0.0042    0.0345    0.0014   -0.0134
          27    0.0097    0.0185   -0.0177    0.0093   -0.0108   -0.0416    0.0110   -0.0088
          28    0.1109   -0.0536   -0.0327   -0.0302    0.0017    0.0087    0.1198    0.0317
          29    0.0906   -0.0779   -0.0130    0.0319   -0.0749    0.0254    0.0546    0.0466
          30   -0.1499    0.0716   -0.0212   -0.0427    0.1093   -0.0329   -0.0855   -0.0527
          31    0.0161    0.0611   -0.0750    0.0607   -0.0372    0.0188   -0.0607    0.1094
          32    0.0326    0.0330    0.0075   -0.0310    0.0272    0.0183   -0.0200    0.0274
          33    0.0026   -0.0009    0.0098   -0.0078    0.0057    0.0027    0.0077   -0.0083
          34   -0.0177   -0.0324    0.0747   -0.0398    0.0092   -0.0876   -0.0049    0.0615
          35   -0.0178   -0.0241   -0.0193    0.0195   -0.0228   -0.0264   -0.0153   -0.0460
          36    0.0198    0.0253    0.0033   -0.0110    0.0155    0.0290    0.0075    0.0220
          37    0.0190   -0.0063    0.0665   -0.0586    0.0422   -0.0358    0.1027   -0.0492
          38    0.0298    0.0434   -0.0237   -0.0075    0.0182    0.0243    0.0294    0.0433
          39   -0.0280   -0.0387    0.0126    0.0144   -0.0202   -0.0103   -0.0276   -0.0213
          40   -0.0099    0.0102   -0.0650    0.0719   -0.0268    0.0558    0.0361   -0.0895
          41   -0.0353   -0.0658    0.0394    0.0164   -0.0326   -0.0076    0.0126   -0.0299
          42   -0.0063   -0.0099    0.0096   -0.0052    0.0003   -0.0073   -0.0064    0.0064
          43    0.0380    0.0464    0.0372   -0.0717    0.0321   -0.0393    0.0004    0.0555
          44   -0.0039   -0.0151    0.0428    0.0064   -0.0111   -0.0157   -0.0334   -0.0263
          45   -0.0089    0.0090   -0.0399    0.0060    0.0087    0.0129    0.0199    0.0126
          46   -0.0508   -0.0595   -0.0180    0.1099   -0.1329    0.0293   -0.0729    0.0626
          47   -0.0044    0.0416   -0.0522   -0.0092    0.0605   -0.0128    0.0209    0.0535
          48    0.0013    0.0057   -0.0066   -0.0089    0.0122    0.0001    0.0099   -0.0060
          49   -0.0249   -0.0448    0.0450   -0.0220    0.0109   -0.0442    0.0734   -0.0688
          50   -0.0105   -0.0200    0.0361   -0.0192    0.0173    0.0107   -0.0031    0.0404
          51    0.0125    0.0245   -0.0346    0.0180   -0.0127   -0.0015   -0.0052   -0.0176
          52    0.0427    0.0866   -0.0682    0.0304    0.0288    0.1953    0.0033   -0.0620
          53    0.0066    0.0220   -0.0406    0.0261   -0.0239   -0.0877    0.0326   -0.0377
          54   -0.0008   -0.0024   -0.0004    0.0000   -0.0041   -0.0160   -0.0019    0.0061
          55    0.1771    0.0507    0.0722   -0.0205   -0.0547    0.0026   -0.0626   -0.0345
          56    0.1186    0.0061    0.0756    0.0944    0.0398   -0.0117   -0.0545   -0.0199
          57   -0.0306   -0.0033   -0.0628   -0.1158   -0.0646    0.0129    0.0287    0.0075
          58   -0.0449    0.0157   -0.0222   -0.0499   -0.0486    0.0068   -0.0672   -0.0210
          59   -0.0291    0.0076   -0.0012   -0.0075   -0.0253    0.0041   -0.0384   -0.0099
          60    0.0556   -0.0642   -0.0023    0.1181    0.1630   -0.0332   -0.0126    0.0088
          61    0.0055    0.0124   -0.0157    0.0080   -0.0211   -0.1210   -0.0087    0.0240
          62    0.0188    0.0327   -0.0286    0.0137   -0.0100   -0.0201    0.0194   -0.0277
          63   -0.0430   -0.0806    0.0686   -0.0340    0.0328    0.1320   -0.0361    0.0255


   Root No.      25        26        27        28        29        30        31        32

                25 A      26 A      27 A      28 A      29 A      30 A      31 A      32 A   

                1119.9    1125.1    1133.0    1137.9    1145.6    1155.7    1167.3    1173.2
  
           1   -0.0002    0.0012    0.0020   -0.0013   -0.0024    0.0043    0.0088    0.0131
           2    0.0019    0.0014   -0.0003   -0.0016   -0.0009    0.0007    0.0052    0.0078
           3   -0.0030   -0.0024    0.0019    0.0001    0.0013   -0.0014   -0.0053   -0.0108
           4    0.0036   -0.0026    0.0021   -0.0005    0.0011   -0.0002    0.0023   -0.0008
           5    0.0037   -0.0031   -0.0021    0.0029   -0.0008   -0.0028    0.0028   -0.0022
           6    0.0027   -0.0015    0.0014   -0.0001    0.0015    0.0000    0.0018   -0.0006
           7    0.0077   -0.0037   -0.0087    0.0139    0.0044   -0.0018   -0.0143    0.0054
           8   -0.0186   -0.0020    0.0018    0.0019   -0.0250    0.0012    0.0167   -0.0172
           9   -0.0030    0.0053    0.0091   -0.0174   -0.0059    0.0063    0.0244    0.0134
          10    0.0084    0.0025   -0.0027   -0.0257   -0.0055   -0.0085    0.0123   -0.0111
          11    0.0278    0.0047   -0.0170   -0.0134    0.0232   -0.0042   -0.0154    0.0243
          12    0.0038    0.0093    0.0063    0.0238    0.0077   -0.0073   -0.0031    0.0072
          13   -0.0184   -0.0127    0.0347   -0.0044    0.0028    0.0088    0.0057   -0.0136
          14   -0.0231    0.0034   -0.0016    0.0435   -0.0205    0.0025   -0.0112   -0.0072
          15    0.0055   -0.0184    0.0078   -0.0251   -0.0176    0.0015   -0.0184    0.0024
          16   -0.0396    0.0198   -0.0008    0.0169    0.0025    0.0040   -0.0109   -0.0002
          17   -0.0149    0.0014    0.0272   -0.0326    0.0269    0.0151    0.0034    0.0052
          18    0.0090    0.0187   -0.0269    0.0058    0.0018    0.0171    0.0071   -0.0117
          19   -0.0046   -0.0035   -0.0258    0.0040   -0.0129   -0.0161   -0.0017   -0.0017
          20    0.0473   -0.0165    0.0003    0.0247   -0.0122   -0.0011    0.0117   -0.0139
          21   -0.0036   -0.0136    0.0133    0.0047    0.0134   -0.0047    0.0052    0.0042
          22    0.0025    0.0081    0.0016   -0.0052    0.0189   -0.0154   -0.0215   -0.0341
          23    0.0076    0.0044    0.0025   -0.0049    0.0156   -0.0095   -0.0152   -0.0175
          24    0.0045    0.0024   -0.0053    0.0061    0.0005   -0.0048   -0.0033    0.0008
          25    0.0197   -0.0049    0.0102    0.0093    0.0029    0.0047    0.0072   -0.0068
          26   -0.0320    0.0095   -0.0122   -0.0216    0.0017   -0.0044   -0.0105    0.0123
          27   -0.0123   -0.0008   -0.0090   -0.0003   -0.0055   -0.0076   -0.0029    0.0018
          28    0.0354   -0.0128   -0.0332    0.0324    0.0540    0.0741   -0.0341    0.1685
          29   -0.0079    0.0202    0.0244   -0.0525   -0.0247   -0.0165    0.0511   -0.0315
          30   -0.0198   -0.0237   -0.0211    0.0576   -0.0100    0.0246   -0.0217    0.0222
          31   -0.0572   -0.0222   -0.0730    0.0982    0.1532   -0.0150    0.0731    0.0445
          32   -0.0208   -0.0478    0.0846   -0.0453    0.0126   -0.0213   -0.0138    0.0264
          33    0.0087    0.0028    0.0008   -0.0066   -0.0173    0.0054   -0.0070   -0.0082
          34   -0.0114    0.1231    0.0349   -0.0279   -0.1001    0.0508   -0.1403    0.0628
          35   -0.0202    0.0277    0.0089   -0.0419    0.0517    0.0439    0.0176   -0.0065
          36    0.0126   -0.0324   -0.0065    0.0251   -0.0163   -0.0259    0.0056   -0.0056
          37   -0.0214   -0.0983   -0.0367   -0.0337    0.0590    0.1442    0.0478   -0.0583
          38   -0.0341   -0.0189    0.0166    0.0404   -0.0576    0.0016   -0.0402   -0.0095
          39    0.0214    0.0244   -0.0061   -0.0158    0.0242   -0.0144    0.0125    0.0121
          40    0.0835    0.0026    0.1863    0.0470   -0.0161   -0.0814   -0.0094    0.0969
          41   -0.0266    0.0491   -0.0314    0.0913    0.0217    0.0029    0.0258   -0.0112
          42   -0.0040   -0.0014   -0.0174   -0.0116    0.0000    0.0100   -0.0034   -0.0088
          43    0.0422    0.1222   -0.0242   -0.0750   -0.0337   -0.0658    0.1748    0.0213
          44    0.0509    0.0179   -0.0209    0.0080    0.0526   -0.0169   -0.0342    0.0457
          45   -0.0320   -0.0246    0.0155    0.0018   -0.0282    0.0178   -0.0021   -0.0234
          46    0.0493   -0.1000   -0.0809   -0.0804   -0.0540    0.0342   -0.0883   -0.0068
          47    0.0107   -0.0101   -0.0199   -0.0594    0.0019    0.0108   -0.0012    0.0161
          48   -0.0055    0.0106    0.0117    0.0093    0.0015   -0.0045    0.0099    0.0040
          49   -0.0446   -0.0953   -0.1094   -0.0719   -0.0321   -0.1311   -0.0061    0.0710
          50    0.0747   -0.0456    0.0214    0.0521   -0.0061   -0.0084    0.0265   -0.0216
          51   -0.0348    0.0374   -0.0034   -0.0205    0.0086    0.0219   -0.0127    0.0032
          52    0.1318    0.0829   -0.0717   -0.0304   -0.0373    0.0806   -0.0025   -0.0266
          53    0.0431    0.0120   -0.0249    0.0145   -0.0342    0.0090    0.0039   -0.0231
          54   -0.0158   -0.0082    0.0051    0.0029    0.0073   -0.0074    0.0024    0.0025
          55    0.0053   -0.0281   -0.0175    0.0323   -0.0403    0.0318    0.0310    0.0878
          56   -0.0212   -0.0217   -0.0007    0.0086   -0.0458    0.0274    0.0386    0.0383
          57    0.0269    0.0149   -0.0071    0.0037    0.0330   -0.0228   -0.0307   -0.0140
          58   -0.0361   -0.0292   -0.0058    0.0213   -0.0817    0.0461    0.0735    0.0755
          59   -0.0246   -0.0164   -0.0010    0.0088   -0.0533    0.0280    0.0511    0.0457
          60   -0.0100    0.0158   -0.0029   -0.0042    0.0011   -0.0168    0.0003   -0.0263
          61    0.0565    0.0099    0.0628    0.0102   -0.0048    0.0552   -0.0188    0.0078
          62   -0.0430    0.0026   -0.0322   -0.0166   -0.0066   -0.0220   -0.0067    0.0084
          63    0.0113    0.0118    0.0327   -0.0141    0.0189    0.0275   -0.0058    0.0089


   Root No.      33        34        35        36        37        38        39        40

                33 A      34 A      35 A      36 A      37 A      38 A      39 A      40 A   

                1197.8    1215.5    1232.8    1286.9    1341.2    1376.1    1380.6    1395.2
  
           1   -0.0054   -0.0138   -0.0062   -0.0057    0.0060   -0.0016   -0.0008   -0.0028
           2   -0.0048   -0.0159   -0.0077   -0.0047    0.0024   -0.0015   -0.0008   -0.0031
           3    0.0044    0.0132    0.0068    0.0050   -0.0016    0.0022    0.0011    0.0035
           4   -0.0030    0.0039   -0.0069    0.0075    0.0055   -0.0040   -0.0053   -0.0021
           5   -0.0093    0.0065   -0.0081    0.0045    0.0023   -0.0012   -0.0030   -0.0005
           6   -0.0032    0.0033   -0.0052    0.0043    0.0028   -0.0020   -0.0024   -0.0010
           7   -0.0029   -0.0166   -0.0107   -0.0008   -0.0245   -0.0109   -0.0048   -0.0110
           8    0.0163    0.0350    0.0107    0.0045    0.0029    0.0049    0.0024    0.0092
           9   -0.0085   -0.0086    0.0063    0.0124   -0.0131    0.0010    0.0006    0.0016
          10   -0.0060   -0.0052    0.0141    0.0299   -0.0094    0.0295    0.0133    0.0295
          11   -0.0149   -0.0081    0.0046   -0.0027    0.0014    0.0060    0.0012   -0.0228
          12    0.0041    0.0093    0.0017   -0.0032    0.0038   -0.0041   -0.0015    0.0035
          13   -0.0080   -0.0059    0.0162    0.0145    0.0293   -0.0119   -0.0034   -0.0121
          14    0.0084   -0.0031   -0.0052    0.0039    0.0001    0.0101   -0.0009   -0.0180
          15   -0.0034    0.0001   -0.0030   -0.0018   -0.0033   -0.0017    0.0006    0.0067
          16   -0.0138   -0.0029    0.0134   -0.0192    0.0031   -0.0213   -0.0182   -0.0130
          17   -0.0021    0.0054   -0.0066   -0.0030   -0.0011    0.0099   -0.0110   -0.0038
          18   -0.0002   -0.0010   -0.0014    0.0021   -0.0005   -0.0004    0.0057    0.0025
          19   -0.0150    0.0014    0.0100   -0.0288   -0.0304    0.0288    0.0285    0.0164
          20   -0.0007   -0.0032    0.0071    0.0028    0.0022    0.0043   -0.0406    0.0064
          21    0.0065   -0.0024    0.0020    0.0009    0.0022   -0.0040    0.0085   -0.0034
          22    0.0103    0.0180    0.0040   -0.0003   -0.0013   -0.0018   -0.0008   -0.0021
          23    0.0028    0.0039    0.0013    0.0009    0.0028    0.0024    0.0011    0.0030
          24   -0.0010   -0.0189   -0.0148   -0.0086   -0.0140   -0.0132   -0.0061   -0.0164
          25   -0.0116    0.0087   -0.0120    0.0092    0.0060   -0.0040   -0.0069   -0.0019
          26    0.0166   -0.0096    0.0109   -0.0090   -0.0065    0.0041    0.0116    0.0014
          27   -0.0023   -0.0001    0.0021   -0.0040   -0.0030    0.0022    0.0015    0.0012
          28   -0.0269    0.1607    0.1217    0.0273    0.0441    0.0230    0.0102    0.0190
          29   -0.0032   -0.0495   -0.0210    0.0077   -0.0194   -0.0006   -0.0001    0.0006
          30    0.0210    0.1003    0.0434    0.0069    0.0118    0.0059    0.0028    0.0115
          31    0.1077   -0.0046   -0.0766    0.0662   -0.0063    0.0333    0.0447    0.0180
          32   -0.0030    0.0059   -0.0028   -0.0026    0.0189   -0.0817    0.0883    0.0167
          33   -0.0109   -0.0007    0.0081   -0.0049    0.0073   -0.0343    0.0310    0.0060
          34    0.0604    0.0227   -0.1217    0.0805   -0.0068    0.0459    0.0379    0.0167
          35   -0.0083    0.0059   -0.0059   -0.0063    0.0113   -0.0530    0.0578    0.0101
          36   -0.0023   -0.0061    0.0168   -0.0085   -0.0148    0.0646   -0.0817   -0.0171
          37    0.0765    0.0312   -0.1201   -0.0586   -0.0681    0.0302    0.0059    0.0180
          38    0.0068   -0.0062   -0.0061    0.0052    0.0056   -0.0580   -0.0041    0.0741
          39   -0.0134   -0.0004    0.0169    0.0072    0.0032    0.0731    0.0038   -0.1040
          40    0.0693    0.0659   -0.0875   -0.0487   -0.0584    0.0189    0.0045    0.0313
          41    0.0133   -0.0017    0.0007    0.0010    0.0074   -0.0890   -0.0056    0.1158
          42   -0.0086   -0.0052    0.0085    0.0023    0.0071   -0.0361   -0.0019    0.0446
          43    0.0570    0.1120   -0.0122   -0.0926    0.0153   -0.0522   -0.0233   -0.0559
          44   -0.0238   -0.0139    0.0082   -0.0033   -0.0221   -0.0379   -0.0094    0.0822
          45    0.0061    0.0011    0.0021    0.0158    0.0274    0.0579    0.0158   -0.1073
          46    0.0316    0.0916   -0.0277   -0.0976    0.0295   -0.0556   -0.0229   -0.0293
          47   -0.0243   -0.0312   -0.0018    0.0006   -0.0479   -0.0616   -0.0157    0.1275
          48   -0.0021   -0.0057    0.0028    0.0078   -0.0161   -0.0190   -0.0041    0.0557
          49    0.1177   -0.0351    0.0004    0.0882    0.0667   -0.0527   -0.0622   -0.0249
          50   -0.0026   -0.0048    0.0138    0.0024    0.0040   -0.0219    0.1490   -0.0235
          51   -0.0085    0.0037   -0.0039   -0.0156   -0.0134    0.0376   -0.2018    0.0371
          52    0.0635   -0.0261   -0.0039    0.0690    0.0549   -0.0494   -0.0132   -0.0266
          53   -0.0137    0.0028    0.0011    0.0088    0.0077   -0.0356    0.2308   -0.0376
          54   -0.0041    0.0017    0.0006   -0.0040   -0.0025   -0.0104    0.0967   -0.0137
          55   -0.0299   -0.0875   -0.0455   -0.0422    0.0933    0.0286    0.0125    0.0298
          56   -0.0070    0.0039    0.0155    0.0390   -0.1236   -0.0443   -0.0195   -0.0483
          57   -0.0029   -0.0465   -0.0401   -0.0519    0.1167    0.0337    0.0144    0.0341
          58   -0.0112   -0.0160   -0.0040   -0.0025    0.0055    0.0008    0.0003    0.0008
          59   -0.0069   -0.0141   -0.0073   -0.0160    0.0666    0.0277    0.0122    0.0304
          60    0.0103   -0.0147   -0.0313   -0.0650    0.1882    0.0643    0.0279    0.0665
          61    0.1781   -0.1303    0.1676   -0.0708   -0.0286    0.0173    0.0115    0.0095
          62   -0.0194    0.0132   -0.0149   -0.0004   -0.0039    0.0031    0.0084    0.0013
          63    0.0547   -0.0327    0.0352   -0.0110   -0.0029    0.0003    0.0067   -0.0004


   Root No.      41        42        43        44        45        46        47        48

                41 A      42 A      43 A      44 A      45 A      46 A      47 A      48 A   

                1404.5    1417.8    1427.4    1598.8    1984.7    2930.2    2939.3    2946.7
  
           1   -0.0003    0.0002    0.0035   -0.0590    0.0002   -0.0000    0.0001    0.0002
           2    0.0005    0.0009    0.0023   -0.0442    0.0001   -0.0000    0.0001    0.0003
           3   -0.0003   -0.0006   -0.0026    0.0422   -0.0001    0.0000   -0.0000   -0.0001
           4   -0.0015    0.0003   -0.0039   -0.0001   -0.2316    0.0040    0.0004   -0.0004
           5   -0.0000   -0.0003   -0.0008   -0.0001   -0.0832    0.0012    0.0001   -0.0001
           6   -0.0008    0.0002   -0.0018   -0.0000   -0.0952    0.0016    0.0001   -0.0001
           7    0.0009    0.0013    0.0041    0.1657   -0.0003    0.0000   -0.0003   -0.0012
           8   -0.0026   -0.0037   -0.0054    0.0033    0.0001    0.0002   -0.0041   -0.0138
           9    0.0014    0.0009   -0.0034    0.0868   -0.0001    0.0002   -0.0029   -0.0100
          10    0.0090    0.0035   -0.0415   -0.0490    0.0002   -0.0001    0.0012    0.0016
          11    0.0221    0.0198   -0.0038    0.0167   -0.0003   -0.0003    0.0033    0.0046
          12   -0.0070   -0.0058    0.0054   -0.0087    0.0001   -0.0011    0.0111    0.0152
          13   -0.0087   -0.0033    0.0673    0.0030    0.0015    0.0003   -0.0018   -0.0002
          14   -0.0104   -0.0288   -0.0085    0.0018   -0.0004    0.0009   -0.0050   -0.0010
          15    0.0038    0.0084   -0.0047   -0.0004   -0.0000    0.0029   -0.0167   -0.0029
          16   -0.0093    0.0027   -0.0664    0.0023   -0.0072   -0.0003    0.0018   -0.0014
          17   -0.0242    0.0246    0.0075    0.0002    0.0007   -0.0023    0.0051   -0.0042
          18    0.0078   -0.0072    0.0051   -0.0003    0.0006   -0.0063    0.0161   -0.0133
          19    0.0139   -0.0039    0.0392   -0.0007   -0.0255    0.0008   -0.0007    0.0011
          20    0.0148   -0.0110    0.0062   -0.0003    0.0057    0.0029   -0.0017    0.0025
          21   -0.0054    0.0033   -0.0055    0.0002   -0.0056    0.0094   -0.0075    0.0112
          22   -0.0002    0.0001    0.0019   -0.0410   -0.0001    0.0000   -0.0002   -0.0005
          23   -0.0001   -0.0003   -0.0020    0.0332   -0.0001   -0.0000    0.0002    0.0008
          24    0.0006    0.0019    0.0111   -0.1416    0.0001   -0.0000    0.0002    0.0008
          25   -0.0010   -0.0002   -0.0039    0.0001    0.3373   -0.0093   -0.0009    0.0006
          26   -0.0007    0.0019    0.0040    0.0001    0.0867   -0.0483   -0.0041    0.0027
          27    0.0013   -0.0006    0.0016    0.0001    0.1249   -0.0192   -0.0016    0.0011
          28    0.0024    0.0008   -0.0107   -0.0881    0.0003   -0.0002    0.0027    0.0088
          29    0.0010    0.0001   -0.0040    0.0822   -0.0004   -0.0028    0.0483    0.1645
          30   -0.0039   -0.0044   -0.0046    0.0157    0.0003   -0.0020    0.0348    0.1175
          31    0.0198   -0.0160    0.0918    0.0003   -0.0025    0.0043   -0.0095    0.0086
          32    0.1398   -0.1210   -0.0237   -0.0004    0.0008   -0.0176    0.0461   -0.0384
          33    0.0565   -0.0511   -0.0183   -0.0005   -0.0016    0.0431   -0.1149    0.0942
          34    0.0007    0.0001    0.0997   -0.0012   -0.0061    0.0061   -0.0115    0.0087
          35    0.0878   -0.0746   -0.0156   -0.0002    0.0015    0.0439   -0.1080    0.0896
          36   -0.1236    0.1085    0.0092    0.0006    0.0024    0.0330   -0.0798    0.0657
          37    0.0008   -0.0041   -0.1016   -0.0106   -0.0005   -0.0022    0.0116    0.0010
          38    0.0376    0.0895    0.0194    0.0002   -0.0008   -0.0185    0.1094    0.0194
          39   -0.0531   -0.1289   -0.0143    0.0033    0.0002   -0.0138    0.0808    0.0144
          40    0.0093    0.0153   -0.0946   -0.0116   -0.0000   -0.0017    0.0103    0.0032
          41    0.0602    0.1443    0.0295   -0.0024   -0.0007    0.0083   -0.0488   -0.0084
          42    0.0242    0.0611    0.0214   -0.0010    0.0003   -0.0210    0.1217    0.0201
          43   -0.0029    0.0070    0.0607    0.0757   -0.0000    0.0008   -0.0074   -0.0114
          44   -0.0797   -0.0571    0.0098   -0.0186    0.0001    0.0074   -0.0724   -0.1011
          45    0.1128    0.0829   -0.0235    0.0175   -0.0002    0.0056   -0.0536   -0.0743
          46   -0.0241   -0.0088    0.0612    0.0035    0.0001    0.0006   -0.0064   -0.0078
          47   -0.1254   -0.0914    0.0169    0.0150    0.0002   -0.0033    0.0323    0.0444
          48   -0.0510   -0.0398    0.0033   -0.0088    0.0001    0.0083   -0.0805   -0.1094
          49   -0.0136   -0.0010   -0.0588    0.0008    0.0645   -0.0097    0.0034   -0.0056
          50   -0.0460    0.0260   -0.0146    0.0000   -0.0156   -0.0646    0.0429   -0.0649
          51    0.0694   -0.0402    0.0312   -0.0004    0.0064   -0.0484    0.0311   -0.0467
          52   -0.0226    0.0051   -0.0533    0.0005    0.0098   -0.0047    0.0050   -0.0073
          53   -0.0734    0.0424   -0.0265    0.0001    0.0114    0.0255   -0.0231    0.0350
          54   -0.0299    0.0191   -0.0081    0.0002    0.0075   -0.0661    0.0593   -0.0888
          55   -0.0032   -0.0037   -0.0123    0.0734   -0.0002   -0.0000    0.0007    0.0026
          56    0.0052    0.0068    0.0217   -0.1208    0.0001    0.0001   -0.0015   -0.0052
          57   -0.0043   -0.0048   -0.0120    0.0007    0.0000    0.0001   -0.0020   -0.0066
          58   -0.0007   -0.0008    0.0006   -0.0627    0.0003   -0.0000    0.0008    0.0039
          59   -0.0025   -0.0042   -0.0155    0.0923   -0.0000    0.0001   -0.0016   -0.0071
          60   -0.0064   -0.0089   -0.0287    0.0671   -0.0000   -0.0000    0.0004    0.0020
          61    0.0091   -0.0031    0.0145   -0.0001   -0.0383    0.0450    0.0039   -0.0025
          62   -0.0002    0.0011    0.0035    0.0001    0.2203    0.5609    0.0474   -0.0320
          63   -0.0017    0.0019   -0.0003    0.0002    0.0664    0.2069    0.0171   -0.0113


   Root No.      49        50        51        52        53        54        55        56

                49 A      50 A      51 A      52 A      53 A      54 A      55 A      56 A   

                2952.4    2957.8    2960.6    3027.0    3030.4    3032.6    3034.4    3040.5
  
           1    0.0003   -0.0002    0.0001   -0.0000    0.0000   -0.0001    0.0000   -0.0003
           2    0.0003   -0.0001    0.0001    0.0000   -0.0000    0.0001   -0.0000    0.0001
           3   -0.0001    0.0001   -0.0000   -0.0000    0.0000   -0.0000    0.0000    0.0003
           4    0.0003    0.0004    0.0002   -0.0000   -0.0000    0.0000    0.0000   -0.0000
           5    0.0000    0.0000    0.0000   -0.0000   -0.0000    0.0000    0.0002   -0.0000
           6    0.0001    0.0001    0.0000   -0.0000   -0.0000    0.0000    0.0000   -0.0000
           7   -0.0014    0.0007   -0.0004   -0.0002    0.0002   -0.0002    0.0000    0.0005
           8   -0.0159    0.0073   -0.0044    0.0002   -0.0003    0.0006   -0.0001   -0.0029
           9   -0.0116    0.0053   -0.0032    0.0001   -0.0002    0.0002   -0.0000   -0.0018
          10   -0.0005    0.0015   -0.0015   -0.0002    0.0000    0.0003   -0.0001   -0.0001
          11   -0.0014    0.0044   -0.0043    0.0060   -0.0087    0.0219   -0.0043    0.0029
          12   -0.0053    0.0150   -0.0145   -0.0017    0.0026   -0.0067    0.0013   -0.0012
          13    0.0017    0.0004   -0.0017   -0.0002   -0.0003    0.0003    0.0000    0.0000
          14    0.0045    0.0013   -0.0050   -0.0118    0.0164    0.0113   -0.0041    0.0004
          15    0.0153    0.0040   -0.0165    0.0036   -0.0052   -0.0037    0.0012   -0.0001
          16    0.0006   -0.0013   -0.0014    0.0001   -0.0003    0.0001    0.0004    0.0000
          17    0.0018   -0.0039   -0.0044    0.0175    0.0135    0.0016    0.0056   -0.0001
          18    0.0055   -0.0119   -0.0132   -0.0065   -0.0049   -0.0006   -0.0019    0.0000
          19   -0.0015   -0.0019   -0.0010    0.0002    0.0000    0.0001    0.0008   -0.0000
          20   -0.0033   -0.0042   -0.0021   -0.0046   -0.0016    0.0051    0.0276   -0.0000
          21   -0.0147   -0.0190   -0.0094    0.0005    0.0001   -0.0008   -0.0044   -0.0000
          22   -0.0006    0.0002   -0.0001   -0.0001    0.0002   -0.0008    0.0002    0.0218
          23    0.0010   -0.0005    0.0003    0.0003   -0.0006    0.0020   -0.0005   -0.0460
          24    0.0008   -0.0003    0.0002    0.0002   -0.0005    0.0015   -0.0003   -0.0255
          25   -0.0006   -0.0005   -0.0002    0.0002    0.0001   -0.0001   -0.0005    0.0000
          26   -0.0022   -0.0018   -0.0006   -0.0002   -0.0001    0.0002    0.0010    0.0000
          27   -0.0009   -0.0008   -0.0003   -0.0001   -0.0001    0.0000    0.0002    0.0000
          28    0.0093   -0.0034    0.0015   -0.0002    0.0003    0.0006   -0.0002    0.0030
          29    0.1908   -0.0874    0.0527   -0.0023    0.0034   -0.0047    0.0008    0.0274
          30    0.1351   -0.0612    0.0366   -0.0016    0.0024   -0.0037    0.0006    0.0237
          31   -0.0050    0.0055    0.0085    0.0183    0.0140    0.0022    0.0048   -0.0000
          32    0.0163   -0.0349   -0.0391   -0.0665   -0.0499   -0.0048   -0.0189    0.0004
          33   -0.0393    0.0833    0.0919    0.2083    0.1566    0.0157    0.0608   -0.0011
          34   -0.0021    0.0102    0.0087   -0.0175   -0.0130   -0.0008   -0.0065    0.0002
          35   -0.0373    0.0828    0.0918   -0.1502   -0.1128   -0.0115   -0.0465    0.0008
          36   -0.0272    0.0597    0.0658   -0.1291   -0.0972   -0.0101   -0.0396    0.0007
          37   -0.0093   -0.0050    0.0112    0.0121   -0.0158   -0.0114    0.0050   -0.0004
          38   -0.1006   -0.0272    0.1097    0.1049   -0.1409   -0.0954    0.0357   -0.0035
          39   -0.0730   -0.0196    0.0783    0.0896   -0.1212   -0.0821    0.0304   -0.0031
          40   -0.0099   -0.0005    0.0102   -0.0117    0.0169    0.0107   -0.0032    0.0002
          41    0.0459    0.0117   -0.0499    0.0430   -0.0590   -0.0398    0.0147   -0.0013
          42   -0.1119   -0.0283    0.1184   -0.1349    0.1849    0.1256   -0.0461    0.0042
          43    0.0011   -0.0097    0.0109   -0.0063    0.0084   -0.0225    0.0043   -0.0039
          44    0.0318   -0.0975    0.0949   -0.0527    0.0774   -0.1884    0.0365   -0.0231
[...]
 RED. MASS   0.3506         C  7 -- H 18          +7.9% ( 35.8%)      0.1%
 EFF. MASS   4.5324

 VIBRATION   37   37A         ATOM PAIR      ENERGY CONTRIBUTION    RADIAL
 FREQ.      1341.24         C  8 -- H 20         +16.7% ( 47.6%)      1.0%
 T-DIPOLE    0.0737         C  8 -- H 19         +15.7% ( 46.2%)      1.6%
 TRAVEL      0.1185         C  7 -- H 17          +6.9% ( 30.7%)      0.0%
 RED. MASS   0.3627         C  5 -- H 13          +6.6% ( 29.9%)      0.0%
 EFF. MASS   3.5805

 VIBRATION   38   38A         ATOM PAIR      ENERGY CONTRIBUTION    RADIAL
 FREQ.      1376.07         C  4 -- H 15          +9.1% ( 36.3%)      0.9%
 T-DIPOLE    0.1304         C  4 -- H 16          +8.9% ( 35.8%)      0.7%
 TRAVEL      0.1076         C  6 -- C  7          +8.6% ( 35.3%)     60.0%
 RED. MASS   0.3557         C  7 -- H 17          +7.5% ( 33.0%)      0.5%
 EFF. MASS   4.2346

 VIBRATION   39   39A         ATOM PAIR      ENERGY CONTRIBUTION    RADIAL
 FREQ.      1380.61         C  7 -- H 17         +30.8% ( 58.6%)      3.9%
 T-DIPOLE    0.2901         C  7 -- H 18         +28.7% ( 56.6%)      4.1%
 TRAVEL      0.1270         C  7 -- C  9         +11.0% ( 35.0%)     87.5%
 RED. MASS   0.5175         C  6 -- C  7         +10.0% ( 33.4%)     16.2%
 EFF. MASS   3.0292

 VIBRATION   40   40A         ATOM PAIR      ENERGY CONTRIBUTION    RADIAL
 FREQ.      1395.15         C  4 -- H 15         +16.5% ( 46.5%)      2.9%
 T-DIPOLE    0.1371         C  4 -- H 16         +15.6% ( 45.2%)      3.1%
 TRAVEL      0.1126         C  5 -- H 13          +9.6% ( 35.5%)      3.8%
 RED. MASS   0.3592         C  3 -- C  4          +9.6% ( 35.4%)     99.8%
 EFF. MASS   3.8111

 VIBRATION   41   41A         ATOM PAIR      ENERGY CONTRIBUTION    RADIAL
 FREQ.      1404.49         C  6 -- H 11         +15.8% ( 40.9%)      4.6%
 T-DIPOLE    0.1080         C  6 -- H 12         +15.7% ( 40.7%)      4.7%
 TRAVEL      0.1311         C  4 -- H 15         +13.0% ( 37.1%)      4.6%
 RED. MASS   0.2281         C  4 -- H 16         +13.0% ( 37.0%)      4.6%
 EFF. MASS   2.7954

 VIBRATION   42   42A         ATOM PAIR      ENERGY CONTRIBUTION    RADIAL
 FREQ.      1417.82         C  5 -- H 14         +16.5% ( 42.1%)      5.3%
 T-DIPOLE    0.0183         C  5 -- H 13         +16.4% ( 42.0%)      5.4%
 TRAVEL      0.1266         C  6 -- H 11         +11.8% ( 35.6%)      5.3%
 RED. MASS   0.2513         C  6 -- H 12         +11.7% ( 35.4%)      5.6%
 EFF. MASS   2.9664

 VIBRATION   43   43A         ATOM PAIR      ENERGY CONTRIBUTION    RADIAL
 FREQ.      1427.41         C  5 -- C  6         +18.0% ( 63.9%)     76.2%
 T-DIPOLE    0.1514         C  4 -- C  5         +12.0% ( 52.2%)     66.8%
 TRAVEL      0.0747         C  6 -- C  7         +11.5% ( 51.1%)     69.7%
 RED. MASS   1.8086         C  5 -- H 13          +9.5% ( 46.5%)      0.1%
 EFF. MASS   8.4661

 VIBRATION   44   44A         ATOM PAIR      ENERGY CONTRIBUTION    RADIAL
 FREQ.      1598.78         C  3 -- C  8         +27.3% ( 84.3%)     97.7%
 T-DIPOLE    0.6942         O  1 -- C  3         +16.8% ( 66.0%)     91.6%
 TRAVEL      0.0592         C  3 -- C  4         +13.9% ( 60.1%)     63.4%
 RED. MASS   3.9941         O  1 -- C  8         +12.5% ( 57.1%)     96.9%
 EFF. MASS  12.0461         C  3 -- H 10         +12.0% ( 55.9%)      3.6%

 VIBRATION   45   45A         ATOM PAIR      ENERGY CONTRIBUTION    RADIAL
 FREQ.      1984.73         O  2 -- C  9         +56.5% ( 99.5%)     99.7%
 T-DIPOLE    3.7866         C  7 -- C  9         +21.9% ( 61.9%)     41.4%
 TRAVEL      0.0504         C  9 -- H 21         +21.4% ( 61.2%)      6.1%
 RED. MASS   6.5472         C  7 -- H 17          +0.1% (  4.2%)      0.0%
 EFF. MASS  13.3834

 VIBRATION   46   46A         ATOM PAIR      ENERGY CONTRIBUTION    RADIAL
 FREQ.      2930.15         C  9 -- H 21         +91.6% ( 97.5%)    100.0%
 T-DIPOLE    0.2006         C  7 -- H 17          +1.8% ( 13.7%)     96.6%
 TRAVEL      0.1218         O  2 -- C  9          +1.7% ( 13.4%)     40.9%
 RED. MASS   0.8421         C  7 -- C  9          +1.6% ( 12.9%)     11.6%
 EFF. MASS   1.5502

 VIBRATION   47   47A         ATOM PAIR      ENERGY CONTRIBUTION    RADIAL
 FREQ.      2939.29         C  5 -- H 13         +18.5% ( 44.8%)     96.5%
 T-DIPOLE    0.0211         C  6 -- H 12         +18.0% ( 44.2%)     96.7%
 TRAVEL      0.1214         C  5 -- H 14         +17.3% ( 43.3%)     96.1%
 RED. MASS   0.1482         C  6 -- H 11         +15.5% ( 41.0%)     95.8%
 EFF. MASS   1.5571

 VIBRATION   48   48A         ATOM PAIR      ENERGY CONTRIBUTION    RADIAL
 FREQ.      2946.74         C  3 -- H 10         +34.1% ( 60.3%)    100.0%
 T-DIPOLE    0.0612         C  4 -- H 15         +14.1% ( 38.8%)     96.7%
 TRAVEL      0.1226         C  4 -- H 16         +12.6% ( 36.6%)     96.0%
 RED. MASS   0.1930         C  6 -- H 12         +11.0% ( 34.2%)     96.8%
 EFF. MASS   1.5230

 VIBRATION   49   49A         ATOM PAIR      ENERGY CONTRIBUTION    RADIAL
 FREQ.      2952.38         C  3 -- H 10         +42.6% ( 67.1%)    100.0%
 T-DIPOLE    0.1921         C  7 -- H 18         +13.1% ( 37.2%)     97.3%
 TRAVEL      0.1231         C  5 -- H 13         +12.9% ( 36.9%)     96.6%
 RED. MASS   0.2501         C  5 -- H 14         +12.3% ( 36.0%)     96.4%
 EFF. MASS   1.5068

 VIBRATION   50   50A         ATOM PAIR      ENERGY CONTRIBUTION    RADIAL
 FREQ.      2957.80         C  7 -- H 18         +24.4% ( 51.0%)     97.4%
 T-DIPOLE    0.0341         C  7 -- H 17         +17.1% ( 42.7%)     95.6%
 TRAVEL      0.1224         C  4 -- H 15         +13.4% ( 37.9%)     96.7%
 RED. MASS   0.1598         C  4 -- H 16         +13.3% ( 37.6%)     96.5%
 EFF. MASS   1.5209

 VIBRATION   51   51A         ATOM PAIR      ENERGY CONTRIBUTION    RADIAL
 FREQ.      2960.60         C  5 -- H 13         +17.9% ( 43.7%)     97.0%
 T-DIPOLE    0.1591         C  5 -- H 14         +16.4% ( 41.8%)     96.5%
 TRAVEL      0.1224         C  4 -- H 15         +13.5% ( 37.9%)     96.8%
 RED. MASS   0.1365         C  4 -- H 16         +13.0% ( 37.3%)     96.5%
 EFF. MASS   1.5206         C  6 -- H 12         +12.5% ( 36.5%)     97.3%

 VIBRATION   52   52A         ATOM PAIR      ENERGY CONTRIBUTION    RADIAL
 FREQ.      3027.01         C  6 -- H 11         +33.5% ( 57.1%)     98.3%
 T-DIPOLE    0.0288         C  6 -- H 12         +27.2% ( 51.4%)     97.1%
 TRAVEL      0.1320         C  5 -- H 14         +14.0% ( 36.9%)     98.0%
 RED. MASS   0.2249         C  5 -- H 13         +13.2% ( 35.9%)     97.7%
 EFF. MASS   1.2781

 VIBRATION   53   53A         ATOM PAIR      ENERGY CONTRIBUTION    RADIAL
 FREQ.      3030.41         C  5 -- H 14         +26.0% ( 50.2%)     97.9%
 T-DIPOLE    0.0070         C  5 -- H 13         +23.8% ( 48.0%)     97.5%
 TRAVEL      0.1324         C  6 -- H 11         +18.7% ( 42.6%)     98.2%
 RED. MASS   0.1914         C  6 -- H 12         +15.2% ( 38.4%)     97.0%
 EFF. MASS   1.2696

 VIBRATION   54   54A         ATOM PAIR      ENERGY CONTRIBUTION    RADIAL
 FREQ.      3032.59         C  4 -- H 16         +38.4% ( 61.0%)     97.8%
 T-DIPOLE    0.1359         C  4 -- H 15         +36.2% ( 59.2%)     97.5%
 TRAVEL      0.1323         C  5 -- H 14         +10.2% ( 31.5%)     97.9%
 RED. MASS   0.2961         C  5 -- H 13          +9.3% ( 30.0%)     97.3%
 EFF. MASS   1.2701

 VIBRATION   55   55A         ATOM PAIR      ENERGY CONTRIBUTION    RADIAL
 FREQ.      3034.43         C  7 -- H 17         +53.2% ( 71.8%)     98.5%
 T-DIPOLE    0.1608         C  7 -- H 18         +37.4% ( 60.2%)     96.5%
 TRAVEL      0.1323         C  6 -- H 11          +1.9% ( 13.7%)     97.8%
 RED. MASS   0.4181         C  6 -- H 12          +1.8% ( 13.1%)     97.0%
 EFF. MASS   1.2704

 VIBRATION   56   56A         ATOM PAIR      ENERGY CONTRIBUTION    RADIAL
 FREQ.      3040.53         C  8 -- H 19         +68.3% ( 85.1%)     98.6%
 T-DIPOLE    0.1186         C  8 -- H 20         +28.5% ( 55.0%)     93.1%
 TRAVEL      0.1189         O  1 -- C  8          +1.2% ( 11.3%)      1.5%
 RED. MASS   0.5942         C  3 -- C  8          +1.2% ( 11.2%)      1.7%
 EFF. MASS   1.5683

 VIBRATION   57   57A         ATOM PAIR      ENERGY CONTRIBUTION    RADIAL
 FREQ.      3057.58         C  8 -- H 20         +70.3% ( 83.8%)     98.6%
 T-DIPOLE    0.1725         C  8 -- H 19         +27.7% ( 52.6%)     90.0%
 TRAVEL      0.1288         C  3 -- C  8          +1.0% (  9.9%)     83.6%
 RED. MASS   0.5647         O  1 -- C  8          +1.0% (  9.8%)     58.5%
 EFF. MASS   1.3304

      SYMMETRY NUMBER FOR POINT-GROUP C1  =  1


          SYSTEM IS A GROUND STATE



 InChI=1S/C7H12O2/c8-5-3-1-2-4-7-6-9-7/h5,7H,1-4,6H2


          MOLECULE IS NOT LINEAR

          THERE ARE 57 GENUINE VIBRATIONS IN THIS SYSTEM
          THIS THERMODYNAMICS CALCULATION IS LIMITED TO
          MOLECULES WHICH HAVE NO INTERNAL ROTATIONS




                    CALCULATED THERMODYNAMIC PROPERTIES
                                          *
   TEMP. (K)   PARTITION FUNCTION   H.O.F.    ENTHALPY  HEAT CAPACITY ENTROPY
                                   KCAL/MOL   CAL/MOLE    CAL/K/MOL  CAL/K/MOL


 298.00  VIB.     0.7734D+04                  4712.3871    29.5644    33.6057
         ROT.     0.6859D+06                   888.2813     2.9808    29.6859
         INT.     0.5305D+10                  5600.6684    32.5452    63.2916
         TRA.     0.1403D+28                  1480.4688     4.9680    40.4556
         TOT.                      -63.440    7081.1372    37.5132   103.7471

 200.00  VIB.     0.5135D+03                  2317.3760    19.7673    23.9897
         ROT.     0.3771D+06                   596.1620     2.9808    28.4972
         INT.     0.1937D+09                  2913.5379    22.7481    52.4868
         TRA.     0.7713D+27                   993.6033     4.9680    38.4745
         TOT.                      -66.614    3907.1412    27.7161    90.9613

 210.00  VIB.     0.6859D+03                  2519.3202    20.6277    24.9748
         ROT.     0.4058D+06                   625.9700     2.9808    28.6426
         INT.     0.2783D+09                  3145.2903    23.6085    53.6174
         TRA.     0.8299D+27                  1043.2834     4.9680    38.7168
         TOT.                      -66.333    4188.5737    28.5765    92.3342

 220.00  VIB.     0.9127D+03                  2730.0522    21.5248    25.9549
         ROT.     0.4351D+06                   655.7781     2.9808    28.7813
         INT.     0.3971D+09                  3385.8303    24.5056    54.7362
         TRA.     0.8899D+27                  1092.9636     4.9680    38.9480
         TOT.                      -66.043    4478.7939    29.4736    93.6842

 230.00  VIB.     0.1210D+04                  2949.9358    22.4578    26.9322
         ROT.     0.4651D+06                   685.5862     2.9808    28.9138
         INT.     0.5629D+09                  3635.5221    25.4386    55.8460
         TRA.     0.9512D+27                  1142.6437     4.9680    39.1688
         TOT.                      -65.743    4778.1658    30.4067    95.0148

 240.00  VIB.     0.1600D+04                  3179.3235    23.4252    27.9083
         ROT.     0.4957D+06                   715.3943     2.9808    29.0406
         INT.     0.7932D+09                  3894.7178    26.4061    56.9490
         TRA.     0.1014D+28                  1192.3239     4.9680    39.3802
         TOT.                      -65.434    5087.0417    31.3741    96.3292

 250.00  VIB.     0.2110D+04                  3418.5474    24.4246    28.8848
         ROT.     0.5270D+06                   745.2024     2.9808    29.1623
         INT.     0.1112D+10                  4163.7499    27.4054    58.0471
         TRA.     0.1078D+28                  1242.0041     4.9680    39.5830
         TOT.                      -65.116    5405.7539    32.3735    97.6301

 260.00  VIB.     0.2775D+04                  3667.9131    25.4531    29.8626
         ROT.     0.5590D+06                   775.0105     2.9808    29.2792
         INT.     0.1551D+10                  4442.9236    28.4339    59.1419
         TRA.     0.1143D+28                  1291.6842     4.9680    39.7779
         TOT.                      -64.787    5734.6079    33.4019    98.9198

 270.00  VIB.     0.3642D+04                  3927.6944    26.5072    30.8429
         ROT.     0.5915D+06                   804.8186     2.9808    29.3917
         INT.     0.2155D+10                  4732.5130    29.4880    60.2347
         TRA.     0.1210D+28                  1341.3644     4.9680    39.9654
         TOT.                      -64.447    6073.8774    34.4560   100.2001

 280.00  VIB.     0.4773D+04                  4198.1304    27.5834    31.8263
         ROT.     0.6247D+06                   834.6267     2.9808    29.5001
         INT.     0.2982D+10                  5032.7571    30.5642    61.3265
         TRA.     0.1278D+28                  1391.0445     4.9680    40.1461
         TOT.                      -64.098    6423.8016    35.5322   101.4725

 290.00  VIB.     0.6244D+04                  4479.4234    28.6780    32.8133
         ROT.     0.6585D+06                   864.4348     2.9808    29.6047
         INT.     0.4112D+10                  5343.8582    31.6588    62.4181
         TRA.     0.1347D+28                  1440.7247     4.9680    40.3204
         TOT.                      -63.737    6784.5829    36.6268   102.7385

 300.00  VIB.     0.8159D+04                  4771.7385    29.7872    33.8042
         ROT.     0.6928D+06                   894.2429     2.9808    29.7058
         INT.     0.5652D+10                  5665.9815    32.7680    63.5100
         TRA.     0.1417D+28                  1490.4049     4.9680    40.4888
         TOT.                      -63.365    7156.3863    37.7360   103.9988

 310.00  VIB.     0.1065D+05                  5075.2040    30.9074    34.7992
         ROT.     0.7277D+06                   924.0510     2.9808    29.8035
         INT.     0.7749D+10                  5999.2551    33.8883    64.6027
         TRA.     0.1488D+28                  1540.0850     4.9680    40.6517
         TOT.                      -62.982    7539.3401    38.8563   105.2544

 320.00  VIB.     0.1388D+05                  5389.9124    32.0352    35.7982
         ROT.     0.7632D+06                   953.8591     2.9808    29.8982
         INT.     0.1060D+11                  6343.7715    35.0160    65.6964
         TRA.     0.1561D+28                  1589.7652     4.9680    40.8094
         TOT.                      -62.588    7933.5367    39.9840   106.5058

 330.00  VIB.     0.1809D+05                  5715.9220    33.1672    36.8013
         ROT.     0.7993D+06                   983.6672     2.9808    29.9899
         INT.     0.1446D+11                  6699.5892    36.1480    66.7912
         TRA.     0.1635D+28                  1639.4454     4.9680    40.9623
         TOT.                      -62.182    8339.0345    41.1160   107.7535

 340.00  VIB.     0.2355D+05                  6053.2595    34.3003    37.8083
         ROT.     0.8359D+06                  1013.4753     2.9808    30.0789
         INT.     0.1968D+11                  7066.7348    37.2811    67.8872
         TRA.     0.1710D+28                  1689.1255     4.9680    41.1106
         TOT.                      -61.765    8755.8603    42.2491   108.9978

 350.00  VIB.     0.3064D+05                  6401.9222    35.4318    38.8189
         ROT.     0.8730D+06                  1043.2834     2.9808    30.1653
         INT.     0.2675D+11                  7445.2056    38.4126    68.9842
         TRA.     0.1786D+28                  1738.8057     4.9680    41.2546
         TOT.                      -61.337    9184.0113    43.3806   110.2388

 360.00  VIB.     0.3984D+05                  6761.8805    36.5590    39.8329
         ROT.     0.9107D+06                  1073.0915     2.9808    30.2493
         INT.     0.3629D+11                  7834.9720    39.5398    70.0821
         TRA.     0.1863D+28                  1788.4859     4.9680    41.3946
         TOT.                      -60.898    9623.4579    44.5078   111.4767

 370.00  VIB.     0.5180D+05                  7133.0810    37.6798    40.8498
         ROT.     0.9489D+06                  1102.8996     2.9808    30.3309
         INT.     0.4915D+11                  8235.9806    40.6606    71.1808
         TRA.     0.1941D+28                  1838.1660     4.9680    41.5307
         TOT.                      -60.447   10074.1466    45.6286   112.7115

 380.00  VIB.     0.6731D+05                  7515.4486    38.7921    41.8695
         ROT.     0.9877D+06                  1132.7077     2.9808    30.4104
         INT.     0.6648D+11                  8648.1563    41.7729    72.2799
         TRA.     0.2020D+28                  1887.8462     4.9680    41.6632
         TOT.                      -59.985   10536.0024    46.7410   113.9431

 390.00  VIB.     0.8746D+05                  7908.8895    39.8942    42.8914
         ROT.     0.1027D+07                  1162.5158     2.9808    30.4878
         INT.     0.8981D+11                  9071.4053    42.8750    73.3793
         TRA.     0.2100D+28                  1937.5263     4.9680    41.7923
         TOT.                      -59.512   11008.9317    47.8430   115.1715

 400.00  VIB.     0.1136D+06                  8313.2938    40.9846    43.9152
         ROT.     0.1067D+07                  1192.3239     2.9808    30.5633
         INT.     0.1212D+12                  9505.6177    43.9654    74.4785
         TRA.     0.2182D+28                  1987.2065     4.9680    41.9180
         TOT.                      -59.029   11492.8242    48.9334   116.3966

   *: NOTE: HEATS OF FORMATION ARE RELATIVE TO THE
            ELEMENTS IN THEIR STANDARD STATE AT 298K
              (=  Standard Enthalpy of Formation).

            Hvib:  Zero-point energy is not included.
                   frequencies of less than zero cm-1 are not included.
            Hrot = (3/2)RT
            Htra = (3/2)RT + pV = (5/2)RT

            Heat capacity is Cp, not Cv

          For more information, see: HTTP://OpenMOPAC.net/Manual/thermochemistry.html


           FORCE CONSTANT IN CARTESIAN COORDINATES (Millidynes/A)

    ATOM   CHEMICAL       X               Y               Z
   NUMBER   SYMBOL  FORCE CONSTANT  FORCE CONSTANT  FORCE CONSTANT

      1       O        5.223835        3.127145        4.121633
      2       O       12.819150        2.387967        2.375989
      3       C       10.087547        7.744309        7.231146
      4       C        8.531319        8.447062        8.173559
      5       C        8.378152        8.316318        8.175517
      6       C        8.367656        8.312260        8.178174
      7       C        8.456608        8.348343        7.844922
      8       C        5.702843        7.611368       11.540390
      9       C       15.303989        8.901683        4.944629
     10       H        0.752648        3.379519        1.964814
     11       H        0.766487        1.189642        4.441480
     12       H        0.795285        3.309627        2.294022
     13       H        0.790646        3.313902        2.303147
     14       H        0.766093        1.195442        4.434361
     15       H        0.797171        3.315454        2.305579
     16       H        0.736319        1.191488        4.440368
     17       H        0.793321        3.337790        2.300208
     18       H        0.693262        1.150932        4.425235
     19       H        0.712861        2.293533        3.343627
     20       H        1.845436        3.494056        1.030564
     21       H        0.785069        4.189713        0.854527

 **********************
 *                    *
 * JOB ENDED NORMALLY *
 *                    *
 **********************



 TOTAL JOB TIME:             2.25 SECONDS

 == MOPAC DONE ==
