 *******************************************************************************
 ** Site#: 14399        For non-commercial use only    Version 18.184L 64BITS **
 *******************************************************************************
 ** Cite this program as: MOPAC2016, Version: 18.184L, James J. P. Stewart,   **
 ** Stewart Computational Chemistry, web: HTTP://OpenMOPAC.net. Days left:  18**
 *******************************************************************************
 **                                                                           **
 **                                MOPAC2016                                  **
 **                                                                           **
 *******************************************************************************

                              PM3 CALCULATION RESULTS

 *******************************************************************************
 *  CALCULATION DONE:                                Sat Jun 15 10:15:51 2019  *
 *  PM3        - The PM3 Hamiltonian to be used
 *  PRECISE    - CRITERIA TO BE INCREASED BY 100 TIMES
 *  NOSYM      - POINT-GROUP SYMMETRY SET TO C1
 *  THREADS=1  - MULTI-THREADING NOT USED
 *  T=         - A TIME OF 172800.0 SECONDS REQUESTED
 *  DUMP=N     - RESTART FILE WRITTEN EVERY  7200.000 SECONDS
 *******************************************************************************
pm3  precise nosym THREADS=1
 InChI=1S/C10H10/c1-2-4-9-7(3-1)5-8-6-10(8)9/h1-4,8,10H,5-6H2

   ATOM   CHEMICAL          X               Y               Z
  NUMBER   SYMBOL      (ANGSTROMS)     (ANGSTROMS)     (ANGSTROMS)
 
     1       C          1.98890000  *   0.59810000  *  -0.28380000  *
     2       C          1.29320000  *  -0.64080000  *  -0.86160000  *
     3       C          2.31380000  *  -0.78470000  *   0.26080000  *
     4       C          0.93830000  *   1.42470000  *   0.48290000  *
     5       C         -0.12350000  *  -0.47180000  *  -0.45020000  *
     6       C         -0.32400000  *   0.67320000  *   0.28340000  *
     7       C         -1.18090000  *  -1.33750000  *  -0.73720000  *
     8       C         -1.58980000  *   1.00940000  *   0.76870000  *
     9       C         -2.46260000  *  -1.01780000  *  -0.26240000  *
    10       C         -2.66680000  *   0.15390000  *   0.48920000  *
    11       H          2.72110000  *   1.07670000  *  -0.96880000  *
    12       H          1.57390000  *  -0.79480000  *  -1.92510000  *
    13       H          1.88800000  *  -1.02240000  *   1.26000000  *
    14       H          3.29120000  *  -1.18880000  *  -0.07560000  *
    15       H          0.85250000  *   2.43990000  *   0.04140000  *
    16       H          1.19420000  *   1.49060000  *   1.56190000  *
    17       H         -1.01700000  *  -2.23810000  *  -1.31460000  *
    18       H         -3.65640000  *   0.39530000  *   0.85480000  *
    19       H         -1.73820000  *   1.91000000  *   1.35040000  *
    20       H         -3.29580000  *  -1.67510000  *  -0.47420000  *
 


          CARTESIAN COORDINATES 

    NO.       ATOM           X           Y           Z

     1         C          1.9889      0.5981     -0.2838
     2         C          1.2932     -0.6408     -0.8616
     3         C          2.3138     -0.7847      0.2608
     4         C          0.9383      1.4247      0.4829
     5         C         -0.1235     -0.4718     -0.4502
     6         C         -0.3240      0.6732      0.2834
     7         C         -1.1809     -1.3375     -0.7372
     8         C         -1.5898      1.0094      0.7687
     9         C         -2.4626     -1.0178     -0.2624
    10         C         -2.6668      0.1539      0.4892
    11         H          2.7211      1.0767     -0.9688
    12         H          1.5739     -0.7948     -1.9251
    13         H          1.8880     -1.0224      1.2600
    14         H          3.2912     -1.1888     -0.0756
    15         H          0.8525      2.4399      0.0414
    16         H          1.1942      1.4906      1.5619
    17         H         -1.0170     -2.2381     -1.3146
    18         H         -3.6564      0.3953      0.8548
    19         H         -1.7382      1.9100      1.3504
    20         H         -3.2958     -1.6751     -0.4742

  H: (PM3): J. J. P. STEWART, J. COMP. CHEM. 10, 209 (1989).
  C: (PM3): J. J. P. STEWART, J. COMP. CHEM. 10, 209 (1989).

           Empirical Formula: C10 H10  =    20 atoms



      MOLECULAR POINT GROUP   :   C1  


      RHF CALCULATION, NO. OF DOUBLY OCCUPIED LEVELS = 25


          Geometry optimization using EF

          DIAGONAL MATRIX USED AS START HESSIAN

 CYCLE:     1 TIME:   0.004 TIME LEFT:  2.00D  GRAD.:   114.181 HEAT:  54.30090
 CYCLE:     2 TIME:   0.008 TIME LEFT:  2.00D  GRAD.:   137.243 HEAT:  53.45312
 CYCLE:     3 TIME:   0.004 TIME LEFT:  2.00D  GRAD.:   101.764 HEAT:  50.19309
 CYCLE:     4 TIME:   0.008 TIME LEFT:  2.00D  GRAD.:    83.190 HEAT:  49.02674
 CYCLE:     5 TIME:   0.004 TIME LEFT:  2.00D  GRAD.:    48.751 HEAT:  47.47368
 CYCLE:     6 TIME:   0.008 TIME LEFT:  2.00D  GRAD.:    42.400 HEAT:  46.84755
 CYCLE:     7 TIME:   0.008 TIME LEFT:  2.00D  GRAD.:    54.736 HEAT:  46.65248
 CYCLE:     8 TIME:   0.004 TIME LEFT:  2.00D  GRAD.:    57.670 HEAT:  46.53947
 CYCLE:     9 TIME:   0.004 TIME LEFT:  2.00D  GRAD.:    52.345 HEAT:  46.26152
 CYCLE:    10 TIME:   0.008 TIME LEFT:  2.00D  GRAD.:    19.295 HEAT:  45.71867
 CYCLE:    11 TIME:   0.004 TIME LEFT:  2.00D  GRAD.:    15.264 HEAT:  45.62847
 CYCLE:    12 TIME:   0.008 TIME LEFT:  2.00D  GRAD.:    12.964 HEAT:  45.56102
 CYCLE:    13 TIME:   0.004 TIME LEFT:  2.00D  GRAD.:    16.592 HEAT:  45.53329
 CYCLE:    14 TIME:   0.004 TIME LEFT:  2.00D  GRAD.:    18.556 HEAT:  45.52802
 CYCLE:    15 TIME:   0.008 TIME LEFT:  2.00D  GRAD.:     8.618 HEAT:  45.45026
 CYCLE:    16 TIME:   0.008 TIME LEFT:  2.00D  GRAD.:     4.412 HEAT:  45.42912
 CYCLE:    17 TIME:   0.004 TIME LEFT:  2.00D  GRAD.:     6.729 HEAT:  45.42750
 CYCLE:    18 TIME:   0.004 TIME LEFT:  2.00D  GRAD.:     6.299 HEAT:  45.42434
 CYCLE:    19 TIME:   0.008 TIME LEFT:  2.00D  GRAD.:     4.229 HEAT:  45.41432
 CYCLE:    20 TIME:   0.008 TIME LEFT:  2.00D  GRAD.:     2.657 HEAT:  45.40919
 CYCLE:    21 TIME:   0.004 TIME LEFT:  2.00D  GRAD.:     3.440 HEAT:  45.40606
 CYCLE:    22 TIME:   0.004 TIME LEFT:  2.00D  GRAD.:     2.409 HEAT:  45.39939
 CYCLE:    23 TIME:   0.004 TIME LEFT:  2.00D  GRAD.:     2.837 HEAT:  45.39567
 CYCLE:    24 TIME:   0.004 TIME LEFT:  2.00D  GRAD.:     2.592 HEAT:  45.39394
 CYCLE:    25 TIME:   0.004 TIME LEFT:  2.00D  GRAD.:     1.388 HEAT:  45.39172
 CYCLE:    26 TIME:   0.004 TIME LEFT:  2.00D  GRAD.:     0.890 HEAT:  45.39043
 CYCLE:    27 TIME:   0.004 TIME LEFT:  2.00D  GRAD.:     1.177 HEAT:  45.38888
 CYCLE:    28 TIME:   0.004 TIME LEFT:  2.00D  GRAD.:     1.373 HEAT:  45.38722
 CYCLE:    29 TIME:   0.004 TIME LEFT:  2.00D  GRAD.:     0.821 HEAT:  45.38629
 CYCLE:    30 TIME:   0.004 TIME LEFT:  2.00D  GRAD.:     0.652 HEAT:  45.38563
 CYCLE:    31 TIME:   0.008 TIME LEFT:  2.00D  GRAD.:     0.590 HEAT:  45.38517
 CYCLE:    32 TIME:   0.004 TIME LEFT:  2.00D  GRAD.:     0.555 HEAT:  45.38478
 CYCLE:    33 TIME:   0.004 TIME LEFT:  2.00D  GRAD.:     0.573 HEAT:  45.38428
 CYCLE:    34 TIME:   0.004 TIME LEFT:  2.00D  GRAD.:     0.564 HEAT:  45.38372
 CYCLE:    35 TIME:   0.004 TIME LEFT:  2.00D  GRAD.:     0.468 HEAT:  45.38330
 CYCLE:    36 TIME:   0.004 TIME LEFT:  2.00D  GRAD.:     0.493 HEAT:  45.38304
 CYCLE:    37 TIME:   0.004 TIME LEFT:  2.00D  GRAD.:     0.410 HEAT:  45.38283
 CYCLE:    38 TIME:   0.004 TIME LEFT:  2.00D  GRAD.:     0.267 HEAT:  45.38270
 CYCLE:    39 TIME:   0.004 TIME LEFT:  2.00D  GRAD.:     0.175 HEAT:  45.38263
 CYCLE:    40 TIME:   0.004 TIME LEFT:  2.00D  GRAD.:     0.115 HEAT:  45.38260
 CYCLE:    41 TIME:   0.008 TIME LEFT:  2.00D  GRAD.:     0.088 HEAT:  45.38257
 CYCLE:    42 TIME:   0.004 TIME LEFT:  2.00D  GRAD.:     0.080 HEAT:  45.38255
 CYCLE:    43 TIME:   0.004 TIME LEFT:  2.00D  GRAD.:     0.074 HEAT:  45.38254
 CYCLE:    44 TIME:   0.004 TIME LEFT:  2.00D  GRAD.:     0.074 HEAT:  45.38253
 CYCLE:    45 TIME:   0.004 TIME LEFT:  2.00D  GRAD.:     0.061 HEAT:  45.38252
 CYCLE:    46 TIME:   0.004 TIME LEFT:  2.00D  GRAD.:     0.072 HEAT:  45.38250
 CYCLE:    47 TIME:   0.004 TIME LEFT:  2.00D  GRAD.:     0.067 HEAT:  45.38249
 CYCLE:    48 TIME:   0.004 TIME LEFT:  2.00D  GRAD.:     0.078 HEAT:  45.38247
 CYCLE:    49 TIME:   0.004 TIME LEFT:  2.00D  GRAD.:     0.088 HEAT:  45.38246
 CYCLE:    50 TIME:   0.004 TIME LEFT:  2.00D  GRAD.:     0.061 HEAT:  45.38245
 CYCLE:    51 TIME:   0.004 TIME LEFT:  2.00D  GRAD.:     0.063 HEAT:  45.38244
 CYCLE:    52 TIME:   0.004 TIME LEFT:  2.00D  GRAD.:     0.047 HEAT:  45.38244

     GRADIENT =  0.04714  IS LESS THAN CUTOFF =  0.05000



 -------------------------------------------------------------------------------
 pm3  precise nosym THREADS=1
 InChI=1S/C10H10/c1-2-4-9-7(3-1)5-8-6-10(8)9/h1-4,8,10H,5-6H2



     GEOMETRY OPTIMISED USING EIGENVECTOR FOLLOWING (EF).     
     SCF FIELD WAS ACHIEVED                                   


                              PM3 CALCULATION
                                                       MOPAC2016 (Version: 18.184L)
                                                       Sat Jun 15 10:15:52 2019
                                                       No. of days remaining =  18




          FINAL HEAT OF FORMATION =         45.38244 KCAL/MOL =     189.88011 KJ/MOL


          TOTAL ENERGY            =      -1337.76297 EV
          ELECTRONIC ENERGY       =      -7164.76548 EV  POINT GROUP:     C1  
          CORE-CORE REPULSION     =       5827.00251 EV
          COSMO AREA              =        168.95 SQUARE ANGSTROMS
          COSMO VOLUME            =        169.30 CUBIC ANGSTROMS

          GRADIENT NORM           =          0.04714 = 0.01054 PER ATOM
          IONIZATION POTENTIAL    =          9.257881 EV
          HOMO LUMO ENERGIES (EV) =         -9.258  0.332
          NO. OF FILLED LEVELS    =         25
          MOLECULAR WEIGHT        =        130.1890

          MOLECULAR DIMENSIONS (Angstroms)

            Atom       Atom       Distance
            H    18    H    14     7.13601
            H    17    H    15     5.22804
            H    12    H    13     3.00752


          SCF CALCULATIONS        =         62
 
          WALL-CLOCK TIME         =          0.262 SECONDS
          COMPUTATION TIME        =          0.241 SECONDS




   ATOM   CHEMICAL          X               Y               Z
  NUMBER   SYMBOL      (ANGSTROMS)     (ANGSTROMS)     (ANGSTROMS)
 
     1       C          1.98794372  *   0.61054746  *  -0.29050125  *
     2       C          1.28859216  *  -0.60718812  *  -0.87866587  *
     3       C          2.28374139  *  -0.76395491  *   0.24223427  *
     4       C          0.95578479  *   1.43678823  *   0.46639690  *
     5       C         -0.13288179  *  -0.49484767  *  -0.46902497  *
     6       C         -0.32635029  *   0.67555013  *   0.29415968  *
     7       C         -1.18875898  *  -1.34048618  *  -0.75411578  *
     8       C         -1.58141474  *   0.99697635  *   0.77844490  *
     9       C         -2.45485204  *  -1.00997560  *  -0.26320474  *
    10       C         -2.64759943  *   0.14036179  *   0.49131484  *
    11       H          2.75992816  *   1.17636849  *  -0.82984631  *
    12       H          1.49082426  *  -1.01295121  *  -1.87919642  *
    13       H          1.94796435  *  -1.05136490  *   1.24528207  *
    14       H          3.25501991  *  -1.22305877  *   0.02850129  *
    15       H          0.87038200  *   2.45741198  *   0.05159154  *
    16       H          1.22184040  *   1.54700271  *   1.53371875  *
    17       H         -1.03638369  *  -2.24582551  *  -1.34938848  *
    18       H         -3.64738115  *   0.38238116  *   0.86642016  *
    19       H         -1.73694548  *   1.90309537  *   1.37183908  *
    20       H         -3.30348033  *  -1.66773309  *  -0.47754142  *

                             CARTESIAN COORDINATES

   1    C        1.987943720     0.610547456    -0.290501250
   2    C        1.288592164    -0.607188118    -0.878665868
   3    C        2.283741388    -0.763954912     0.242234267
   4    C        0.955784787     1.436788230     0.466396902
   5    C       -0.132881786    -0.494847665    -0.469024965
   6    C       -0.326350286     0.675550135     0.294159684
   7    C       -1.188758981    -1.340486177    -0.754115776
   8    C       -1.581414741     0.996976353     0.778444896
   9    C       -2.454852040    -1.009975602    -0.263204737
  10    C       -2.647599430     0.140361795     0.491314843
  11    H        2.759928155     1.176368487    -0.829846311
  12    H        1.490824263    -1.012951214    -1.879196420
  13    H        1.947964347    -1.051364897     1.245282067
  14    H        3.255019912    -1.223058766     0.028501293
  15    H        0.870382001     2.457411984     0.051591542
  16    H        1.221840400     1.547002713     1.533718750
  17    H       -1.036383688    -2.245825514    -1.349388477
  18    H       -3.647381152     0.382381164     0.866420159
  19    H       -1.736945477     1.903095365     1.371839080
  20    H       -3.303480327    -1.667733087    -0.477541417


           Empirical Formula: C10 H10  =    20 atoms



      MOLECULAR POINT GROUP   :   C1  


                  EIGENVALUES  
 -42.49879 -36.82313 -31.06344 -28.73256 -26.48617 -22.71225 -21.20247 -20.21960
 -19.93168 -17.90170 -16.62358 -16.11715 -15.64094 -14.84796 -14.51960 -14.12308
 -13.37672 -13.19434 -12.91110 -12.36858 -12.10132 -11.69633 -11.24500  -9.59129
  -9.25788   0.33198   0.43961   2.55710   2.94677   3.06135   3.18795   3.29635
   3.40857   3.52765   3.62107   3.75967   3.85657   3.98085   4.20004   4.26196
   4.46883   4.77743   4.85637   5.00804   5.13563   5.21834   5.35883   5.51609
   6.19202   6.42993


              NET ATOMIC CHARGES AND DIPOLE CONTRIBUTIONS

  ATOM NO.   TYPE          CHARGE      No. of ELECS.   s-Pop       p-Pop       
    1          C          -0.145728        4.1457     1.18679     2.95894
    2          C          -0.090927        4.0909     1.16720     2.92372
    3          C          -0.131554        4.1316     1.16316     2.96839
    4          C          -0.017098        4.0171     1.14242     2.87468
    5          C          -0.060580        4.0606     1.17806     2.88251
    6          C          -0.090016        4.0900     1.19127     2.89875
    7          C          -0.079159        4.0792     1.17146     2.90770
    8          C          -0.088711        4.0887     1.17209     2.91662
    9          C          -0.106178        4.1062     1.17941     2.92677
   10          C          -0.102744        4.1027     1.17915     2.92359
   11          H           0.103449        0.8966     0.89655
   12          H           0.107666        0.8923     0.89233
   13          H           0.084661        0.9153     0.91534
   14          H           0.076585        0.9234     0.92341
   15          H           0.061135        0.9389     0.93886
   16          H           0.064285        0.9357     0.93571
   17          H           0.106896        0.8931     0.89310
   18          H           0.101003        0.8990     0.89900
   19          H           0.105664        0.8943     0.89434
   20          H           0.101351        0.8986     0.89865
 DIPOLE           X         Y         Z       TOTAL
 POINT-CHG.     0.362     0.154     0.065     0.398
 HYBRID        -0.011    -0.020    -0.007     0.023
 SUM            0.351     0.135     0.057     0.380


          ATOMIC ORBITAL ELECTRON POPULATIONS

     Atom    s        px        py        pz   
    1  C   1.18679   1.01203   0.90999   1.03692
    2  C   1.16720   0.90805   1.03154   0.98414
    3  C   1.16316   0.99399   0.98811   0.98629
    4  C   1.14242   0.91097   0.96974   0.99397
    5  C   1.17806   0.94129   0.95844   0.98278
    6  C   1.19127   0.95127   0.96430   0.98318
    7  C   1.17146   0.93186   0.97982   0.99603
    8  C   1.17209   0.93109   0.98663   0.99891
    9  C   1.17941   0.96598   0.97264   0.98815
   10  C   1.17915   0.97598   0.95766   0.98996
   11  H   0.89655
   12  H   0.89233
   13  H   0.91534
   14  H   0.92341
   15  H   0.93886
   16  H   0.93571
   17  H   0.89310
   18  H   0.89900
   19  H   0.89434
   20  H   0.89865
 *******************************************************************************
 ** Site#: 14399        For non-commercial use only    Version 18.184L 64BITS **
 *******************************************************************************
 ** Cite this program as: MOPAC2016, Version: 18.184L, James J. P. Stewart,   **
 ** Stewart Computational Chemistry, web: HTTP://OpenMOPAC.net. Days left:  18**
 *******************************************************************************
 **                                                                           **
 **                                MOPAC2016                                  **
 **                                                                           **
 *******************************************************************************

                              PM3 CALCULATION RESULTS

 *******************************************************************************
 *  CALCULATION DONE:                                Sat Jun 15 10:15:52 2019  *
 *  PM3        - The PM3 Hamiltonian to be used
 *  OLDGEO     - PREVIOUS GEOMETRY TO BE USED
 *  PRECISE    - CRITERIA TO BE INCREASED BY 100 TIMES
 *  NOSYM      - POINT-GROUP SYMMETRY SET TO C1
 *  THREADS=1  - MULTI-THREADING NOT USED
 *  T=         - A TIME OF 172800.0 SECONDS REQUESTED
 *  DUMP=N     - RESTART FILE WRITTEN EVERY  7200.000 SECONDS
 *  THERMO     - THERMODYNAMIC QUANTITIES TO BE CALCULATED
 *******************************************************************************
oldgeo thermo nosym precise THREADS=1  pm3
 InChI=1S/C10H10/c1-2-4-9-7(3-1)5-8-6-10(8)9/h1-4,8,10H,5-6H2

   ATOM   CHEMICAL          X               Y               Z
  NUMBER   SYMBOL      (ANGSTROMS)     (ANGSTROMS)     (ANGSTROMS)
 
     1       C          1.98794372  *   0.61054746  *  -0.29050125  *
     2       C          1.28859216  *  -0.60718812  *  -0.87866587  *
     3       C          2.28374139  *  -0.76395491  *   0.24223427  *
     4       C          0.95578479  *   1.43678823  *   0.46639690  *
     5       C         -0.13288179  *  -0.49484767  *  -0.46902497  *
     6       C         -0.32635029  *   0.67555013  *   0.29415968  *
     7       C         -1.18875898  *  -1.34048618  *  -0.75411578  *
     8       C         -1.58141474  *   0.99697635  *   0.77844490  *
     9       C         -2.45485204  *  -1.00997560  *  -0.26320474  *
    10       C         -2.64759943  *   0.14036179  *   0.49131484  *
    11       H          2.75992816  *   1.17636849  *  -0.82984631  *
    12       H          1.49082426  *  -1.01295121  *  -1.87919642  *
    13       H          1.94796435  *  -1.05136490  *   1.24528207  *
    14       H          3.25501991  *  -1.22305877  *   0.02850129  *
    15       H          0.87038200  *   2.45741198  *   0.05159154  *
    16       H          1.22184040  *   1.54700271  *   1.53371875  *
    17       H         -1.03638369  *  -2.24582551  *  -1.34938848  *
    18       H         -3.64738115  *   0.38238116  *   0.86642016  *
    19       H         -1.73694548  *   1.90309537  *   1.37183908  *
    20       H         -3.30348033  *  -1.66773309  *  -0.47754142  *
 


          CARTESIAN COORDINATES 

    NO.       ATOM           X           Y           Z

     1         C          1.9879      0.6105     -0.2905
     2         C          1.2886     -0.6072     -0.8787
     3         C          2.2837     -0.7640      0.2422
     4         C          0.9558      1.4368      0.4664
     5         C         -0.1329     -0.4948     -0.4690
     6         C         -0.3264      0.6756      0.2942
     7         C         -1.1888     -1.3405     -0.7541
     8         C         -1.5814      0.9970      0.7784
     9         C         -2.4549     -1.0100     -0.2632
    10         C         -2.6476      0.1404      0.4913
    11         H          2.7599      1.1764     -0.8298
    12         H          1.4908     -1.0130     -1.8792
    13         H          1.9480     -1.0514      1.2453
    14         H          3.2550     -1.2231      0.0285
    15         H          0.8704      2.4574      0.0516
    16         H          1.2218      1.5470      1.5337
    17         H         -1.0364     -2.2458     -1.3494
    18         H         -3.6474      0.3824      0.8664
    19         H         -1.7369      1.9031      1.3718
    20         H         -3.3035     -1.6677     -0.4775

  H: (PM3): J. J. P. STEWART, J. COMP. CHEM. 10, 209 (1989).
  C: (PM3): J. J. P. STEWART, J. COMP. CHEM. 10, 209 (1989).

           Empirical Formula: C10 H10  =    20 atoms



      MOLECULAR POINT GROUP   :   C1  


      RHF CALCULATION, NO. OF DOUBLY OCCUPIED LEVELS = 25



          HEAT OF FORMATION =      45.382438 KCALS/MOLE


          CARTESIAN COORDINATE DERIVATIVES

   NUMBER  ATOM         X            Y            Z

     1       C     -0.001886     0.008432    -0.008946
     2       C      0.005448     0.003486     0.003423
     3       C      0.001922     0.008894    -0.010721
     4       C     -0.003477     0.008845    -0.003780
     5       C     -0.029364     0.008978     0.001628
     6       C      0.009558     0.004344    -0.023471
     7       C      0.017242    -0.020310     0.028640
     8       C      0.011839    -0.007314     0.017667
     9       C      0.009592    -0.002963    -0.011700
    10       C     -0.027128    -0.017870     0.007099
    11       H      0.000917    -0.005854     0.006334
    12       H      0.000603     0.000641     0.000154
    13       H     -0.002701     0.003334    -0.012787
    14       H      0.000168     0.003869    -0.004991
    15       H      0.002519    -0.003475     0.008870
    16       H     -0.003547    -0.012816     0.012059
    17       H      0.003882     0.007016    -0.001026
    18       H      0.002666     0.006612    -0.000610
    19       H      0.001836     0.003316    -0.000740
    20       H     -0.000089     0.002835    -0.007100
 


          GRADIENT NORM =   0.08002


          TIME FOR SCF CALCULATION =    0.00

          TIME FOR DERIVATIVES     =    0.00

          MOLECULAR WEIGHT =  130.19



          ROTATIONAL CONSTANTS IN CM(-1)

          A =    0.10248919   B =    0.03998598   C =    0.03083086



           PRINCIPAL MOMENTS OF INERTIA IN UNITS OF 10**(-40)*GRAM-CM**2

          A =      273.1290   B =      700.0647   C =      907.9467


          ORIENTATION OF MOLECULE IN FORCE CALCULATION

    NO.       ATOM         X         Y         Z

     1          C      -1.3964    0.5172   -1.6872
     2          C       0.1261    0.5172   -1.6872
     3          C      -0.6387    1.8158   -1.6872
     4          C      -1.8755   -0.0024   -0.3376
     5          C       0.5309    0.0063   -0.3545
     6          C      -0.6112   -0.2971    0.4157
     7          C       1.8025   -0.1980    0.1482
     8          C      -0.4788   -0.8017    1.6967
     9          C       1.9301   -0.7092    1.4426
    10          C       0.8070   -1.0059    2.2045
    11          H      -1.9952    0.2223   -2.5599
    12          H       0.7443    0.2216   -2.5458
    13          H      -0.6420    2.4570   -0.7982
    14          H      -0.6350    2.4332   -2.5921
    15          H      -2.4924   -0.9123   -0.4494
    16          H      -2.4982    0.7428    0.1907
    17          H       2.6866    0.0349   -0.4529
    18          H       0.9278   -1.4064    3.2164
    19          H      -1.3614   -1.0378    2.2989
    20          H       2.9288   -0.8770    1.8587


    FIRST DERIVATIVES WILL BE USED IN THE CALCULATION OF SECOND DERIVATIVES

          ESTIMATED TIME TO COMPLETE CALCULATION =        1.88 SECONDS

    FOR POINT-GROUP C1   THERE ARE   1 UNIQUE SYMMETRY FUNCTIONS.

 STEP:   1 TIME =     0.02 SECS, INTEGRAL =      0.02 TIME LEFT: 172799.97
 STEP:   2 TIME =     0.02 SECS, INTEGRAL =      0.04 TIME LEFT: 172799.96
 STEP:   3 TIME =     0.02 SECS, INTEGRAL =      0.05 TIME LEFT: 172799.94
 STEP:   4 TIME =     0.02 SECS, INTEGRAL =      0.07 TIME LEFT: 172799.92
 STEP:   5 TIME =     0.02 SECS, INTEGRAL =      0.09 TIME LEFT: 172799.90
 STEP:   6 TIME =     0.02 SECS, INTEGRAL =      0.11 TIME LEFT: 172799.88
 STEP:   7 TIME =     0.02 SECS, INTEGRAL =      0.13 TIME LEFT: 172799.86
 STEP:   8 TIME =     0.02 SECS, INTEGRAL =      0.15 TIME LEFT: 172799.84
 STEP:   9 TIME =     0.02 SECS, INTEGRAL =      0.16 TIME LEFT: 172799.83
 STEP:  10 TIME =     0.02 SECS, INTEGRAL =      0.18 TIME LEFT: 172799.81
 STEP:  11 TIME =     0.02 SECS, INTEGRAL =      0.20 TIME LEFT: 172799.79
 STEP:  12 TIME =     0.02 SECS, INTEGRAL =      0.22 TIME LEFT: 172799.77
 STEP:  13 TIME =     0.02 SECS, INTEGRAL =      0.24 TIME LEFT: 172799.75
 STEP:  14 TIME =     0.02 SECS, INTEGRAL =      0.26 TIME LEFT: 172799.73
 STEP:  15 TIME =     0.02 SECS, INTEGRAL =      0.28 TIME LEFT: 172799.71
 STEP:  16 TIME =     0.02 SECS, INTEGRAL =      0.30 TIME LEFT: 172799.70
 STEP:  17 TIME =     0.02 SECS, INTEGRAL =      0.32 TIME LEFT: 172799.68
 STEP:  18 TIME =     0.02 SECS, INTEGRAL =      0.33 TIME LEFT: 172799.66
 STEP:  19 TIME =     0.02 SECS, INTEGRAL =      0.35 TIME LEFT: 172799.64
 STEP:  20 TIME =     0.02 SECS, INTEGRAL =      0.37 TIME LEFT: 172799.62
 STEP:  21 TIME =     0.02 SECS, INTEGRAL =      0.39 TIME LEFT: 172799.61
 STEP:  22 TIME =     0.02 SECS, INTEGRAL =      0.41 TIME LEFT: 172799.59
 STEP:  23 TIME =     0.02 SECS, INTEGRAL =      0.43 TIME LEFT: 172799.57
 STEP:  24 TIME =     0.02 SECS, INTEGRAL =      0.45 TIME LEFT: 172799.55
 STEP:  25 TIME =     0.02 SECS, INTEGRAL =      0.46 TIME LEFT: 172799.53
 STEP:  26 TIME =     0.02 SECS, INTEGRAL =      0.48 TIME LEFT: 172799.51
 STEP:  27 TIME =     0.02 SECS, INTEGRAL =      0.50 TIME LEFT: 172799.49
 STEP:  28 TIME =     0.02 SECS, INTEGRAL =      0.52 TIME LEFT: 172799.47
 STEP:  29 TIME =     0.02 SECS, INTEGRAL =      0.54 TIME LEFT: 172799.45
 STEP:  30 TIME =     0.02 SECS, INTEGRAL =      0.56 TIME LEFT: 172799.43
 STEP:  31 TIME =     0.02 SECS, INTEGRAL =      0.58 TIME LEFT: 172799.41
 STEP:  32 TIME =     0.02 SECS, INTEGRAL =      0.60 TIME LEFT: 172799.39
 STEP:  33 TIME =     0.02 SECS, INTEGRAL =      0.62 TIME LEFT: 172799.38
 STEP:  34 TIME =     0.02 SECS, INTEGRAL =      0.64 TIME LEFT: 172799.36
 STEP:  35 TIME =     0.02 SECS, INTEGRAL =      0.66 TIME LEFT: 172799.34
 STEP:  36 TIME =     0.02 SECS, INTEGRAL =      0.68 TIME LEFT: 172799.32
 STEP:  37 TIME =     0.02 SECS, INTEGRAL =      0.70 TIME LEFT: 172799.30
 STEP:  38 TIME =     0.02 SECS, INTEGRAL =      0.71 TIME LEFT: 172799.28
 STEP:  39 TIME =     0.02 SECS, INTEGRAL =      0.73 TIME LEFT: 172799.27
 STEP:  40 TIME =     0.02 SECS, INTEGRAL =      0.75 TIME LEFT: 172799.25
 STEP:  41 TIME =     0.02 SECS, INTEGRAL =      0.77 TIME LEFT: 172799.23
 STEP:  42 TIME =     0.02 SECS, INTEGRAL =      0.79 TIME LEFT: 172799.21
 STEP:  43 TIME =     0.02 SECS, INTEGRAL =      0.80 TIME LEFT: 172799.19
 STEP:  44 TIME =     0.02 SECS, INTEGRAL =      0.82 TIME LEFT: 172799.17
 STEP:  45 TIME =     0.02 SECS, INTEGRAL =      0.84 TIME LEFT: 172799.15
 STEP:  46 TIME =     0.02 SECS, INTEGRAL =      0.86 TIME LEFT: 172799.13
 STEP:  47 TIME =     0.02 SECS, INTEGRAL =      0.88 TIME LEFT: 172799.11
 STEP:  48 TIME =     0.02 SECS, INTEGRAL =      0.90 TIME LEFT: 172799.09
 STEP:  49 TIME =     0.02 SECS, INTEGRAL =      0.92 TIME LEFT: 172799.07
 STEP:  50 TIME =     0.02 SECS, INTEGRAL =      0.94 TIME LEFT: 172799.05
 STEP:  51 TIME =     0.02 SECS, INTEGRAL =      0.96 TIME LEFT: 172799.04
 STEP:  52 TIME =     0.02 SECS, INTEGRAL =      0.97 TIME LEFT: 172799.02
 STEP:  53 TIME =     0.02 SECS, INTEGRAL =      0.99 TIME LEFT: 172799.00
 STEP:  54 TIME =     0.02 SECS, INTEGRAL =      1.01 TIME LEFT: 172798.98
 STEP:  55 TIME =     0.02 SECS, INTEGRAL =      1.03 TIME LEFT: 172798.96
 STEP:  56 TIME =     0.02 SECS, INTEGRAL =      1.05 TIME LEFT: 172798.95
 STEP:  57 TIME =     0.02 SECS, INTEGRAL =      1.07 TIME LEFT: 172798.93
 STEP:  58 TIME =     0.02 SECS, INTEGRAL =      1.08 TIME LEFT: 172798.91
 STEP:  59 TIME =     0.02 SECS, INTEGRAL =      1.10 TIME LEFT: 172798.89
 STEP:  60 TIME =     0.02 SECS, INTEGRAL =      1.12 TIME LEFT: 172798.87

(To convert to Hartree/Bohr^2, multiply by (10^(-21) x N x a0^2)/(4.184 x 627.51) =  0.0642)


           FORCE MATRIX IN MILLIDYNES/ANGSTROM


                  C  1       C  2       C  3       C  4       C  5       C  6
 ------------------------------------------------------------------------------
     C    1  15.337801
     C    2   4.170458  15.741091
     C    3   4.872561   4.705064  15.271279
     C    4   3.997708   0.730053   0.559432  14.729328
     C    5   0.923487   4.927461   0.639899   0.921674  18.618897
     C    6   0.929967   1.037012   0.082214   4.495765   6.232531  18.307632
     C    7   0.046768   0.599343   0.020513   0.081818   7.393685   2.204230
     C    8   0.047747   0.083799   0.013997   0.557275   2.225623   7.382889
     C    9   0.015826   0.104599   0.016979   0.014018   2.431804   1.677614
     C   10   0.009247   0.017766   0.006802   0.096973   1.742816   2.428935
     H   11   4.770696   0.417610   0.430765   0.413870   0.038692   0.035841
     H   12   0.402632   4.767733   0.430761   0.037774   0.426109   0.035174
     H   13   0.464792   0.459538   4.820874   0.022093   0.027515   0.007019
     H   14   0.457447   0.458686   4.841868   0.046296   0.046509   0.005427
     H   15   0.436016   0.011978   0.043569   4.542592   0.028333   0.433338
     H   16   0.438583   0.039575   0.017795   4.516495   0.030672   0.434694
     H   17   0.003802   0.040392   0.006411   0.007895   0.447158   0.089236
     H   18   0.002087   0.007262   0.001521   0.006972   0.008160   0.086336
     H   19   0.001912   0.008105   0.001086   0.037567   0.089362   0.447685
     H   20   0.001472   0.007164   0.000910   0.007103   0.087167   0.008459


                  C  7       C  8       C  9       C 10       H 11       H 12
 ------------------------------------------------------------------------------
     C    7  17.551098
     C    8   1.623290  17.579465
     C    9   6.825711   2.308097  17.299251
     C   10   2.361766   6.831988   7.142443  17.236723
     H   11   0.005412   0.005850   0.001615   0.000967   5.305329
     H   12   0.010269   0.008180   0.005369   0.001171   0.013796   5.300214
     H   13   0.003089   0.002245   0.001936   0.001169   0.035823   0.034834
     H   14   0.001615   0.003610   0.003451   0.000738   0.018604   0.018093
     H   15   0.009852   0.018855   0.003544   0.011358   0.031870   0.001448
     H   16   0.010200   0.015027   0.001342   0.009782   0.014042   0.006058
     H   17   4.884555   0.010307   0.436085   0.085473   0.000593   0.005635
     H   18   0.087323   0.433234   0.435326   4.859234   0.000356   0.000525
     H   19   0.010018   4.880685   0.084568   0.437260   0.000376   0.001147
     H   20   0.433601   0.087898   4.861423   0.436025   0.000283   0.000494


                  H 13       H 14       H 15       H 16       H 17       H 18
 ------------------------------------------------------------------------------
     H   13   5.429405
     H   14   0.486570   5.437874
     H   15   0.004647   0.006546   5.132427
     H   16   0.009697   0.003621   0.550547   5.117906
     H   17   0.000509   0.001495   0.000931   0.000901   5.251644
     H   18   0.000324   0.000387   0.000630   0.000722   0.006648   5.223841
     H   19   0.000414   0.000357   0.005451   0.005320   0.008229   0.038843
     H   20   0.000317   0.000228   0.001001   0.000936   0.038886   0.043267


                  H 19       H 20
 ------------------------------
     H   19   5.248054
     H   20   0.006521   5.224930


          HEAT OF FORMATION =      45.382438 KCALS/MOLE

          ZERO POINT ENERGY     106.720 KCAL/MOL


           NORMAL COORDINATE ANALYSIS (Total motion = 1 Angstrom)


   Root No.       1         2         3         4         5         6         7         8

                 1 A       2 A       3 A       4 A       5 A       6 A       7 A       8 A   

                 144.2     179.2     314.5     375.3     392.8     436.9     505.2     550.9
  
           1   -0.0009   -0.0108   -0.0045   -0.0030   -0.0251   -0.0014    0.0021   -0.0317
           2    0.0183    0.0263    0.0108   -0.0265    0.0242   -0.0120   -0.0130    0.0126
           3    0.0006    0.0140    0.0046   -0.0053    0.0274    0.0010    0.0169   -0.0400
           4   -0.0014   -0.0114   -0.0057    0.0000   -0.0194   -0.0002    0.0045   -0.0286
           5    0.0019   -0.0336   -0.0279   -0.0137    0.0028   -0.0174   -0.0158   -0.0186
           6   -0.0049   -0.0124   -0.0059   -0.0187   -0.0225   -0.0075    0.0006   -0.0153
           7    0.0123    0.0426    0.0345   -0.0177   -0.0079    0.0058    0.0170   -0.0103
           8    0.0111   -0.0033   -0.0085   -0.0213    0.0122   -0.0162   -0.0180   -0.0035
           9    0.0566    0.0030    0.0063    0.0426   -0.0257    0.0224    0.0157    0.0053
          10   -0.0017   -0.0076   -0.0085    0.0074    0.0188   -0.0010   -0.0034   -0.0189
          11   -0.0362    0.0232   -0.0271    0.0210   -0.0239   -0.0006   -0.0039    0.0182
          12   -0.0212    0.0141   -0.0112    0.0116    0.0181    0.0024    0.0141   -0.0335
          13   -0.0014   -0.0082   -0.0108    0.0215    0.0280    0.0066    0.0084   -0.0013
          14   -0.0327   -0.0288    0.0088   -0.0145    0.0094    0.0287    0.0452    0.0134
          15   -0.0184   -0.0117    0.0079   -0.0242   -0.0236    0.0062    0.0160    0.0033
          16   -0.0020   -0.0058   -0.0105    0.0181    0.0360    0.0034    0.0030   -0.0086
          17   -0.0211   -0.0311    0.0183    0.0073    0.0026    0.0723   -0.0020    0.0180
          18   -0.0145   -0.0095    0.0121   -0.0191   -0.0149    0.0195   -0.0080   -0.0126
          19   -0.0013   -0.0055   -0.0067    0.0148    0.0147    0.0059    0.0118   -0.0102
          20   -0.0319    0.0233    0.0424    0.0223   -0.0060   -0.0315    0.0287   -0.0055
          21   -0.0189    0.0019    0.0074    0.0107    0.0147   -0.0178   -0.0056    0.0455
          22   -0.0018   -0.0001   -0.0001   -0.0073   -0.0014   -0.0063   -0.0179    0.0444
          23    0.0252   -0.0430    0.0309    0.0301    0.0041   -0.0183   -0.0271   -0.0063
          24    0.0035   -0.0144    0.0160   -0.0113   -0.0127   -0.0176   -0.0213   -0.0217
          25   -0.0014   -0.0002    0.0018   -0.0092   -0.0152   -0.0039   -0.0100    0.0378
          26    0.0097    0.0516   -0.0107   -0.0007   -0.0100    0.0333   -0.0364   -0.0300
          27   -0.0026    0.0121   -0.0153    0.0060    0.0209    0.0084   -0.0304    0.0358
          28   -0.0016    0.0024    0.0048   -0.0169   -0.0189   -0.0077   -0.0154    0.0304
          29    0.0478    0.0013   -0.0254   -0.0172   -0.0053   -0.0097    0.0539    0.0049
          30    0.0120   -0.0032   -0.0166   -0.0119    0.0171   -0.0134   -0.0017    0.0326
          31   -0.0075   -0.0375   -0.0179   -0.0097   -0.0600   -0.0078   -0.0020   -0.0403
          32    0.0648    0.0585    0.0472   -0.0229    0.0387    0.0014   -0.0053    0.0470
          33   -0.0106    0.0212    0.0009   -0.0004    0.0452    0.0013    0.0174   -0.0457
          34   -0.0065   -0.0370   -0.0168   -0.0080   -0.0627   -0.0053   -0.0040   -0.0399
          35    0.0294   -0.0645   -0.0590    0.0211   -0.0260   -0.0237   -0.0446   -0.0298
          36   -0.0175   -0.0199   -0.0026   -0.0355   -0.0437   -0.0081    0.0052   -0.0188
          37    0.0237    0.0887    0.0712   -0.0226    0.0420    0.0203    0.0477   -0.0158
          38   -0.0308   -0.0048   -0.0146   -0.0742    0.0415   -0.0460   -0.0319   -0.0469
          39    0.0870    0.0043    0.0109    0.0827   -0.0479    0.0452    0.0269    0.0384
          40    0.0146    0.0496    0.0396   -0.0310   -0.0429   -0.0010    0.0018    0.0197
          41    0.0536   -0.0017   -0.0027    0.0334   -0.0172    0.0138   -0.0042    0.0421
          42    0.0859    0.0042    0.0105    0.0816   -0.0471    0.0441    0.0261    0.0380
          43    0.0311   -0.0469    0.0522   -0.0398    0.0689    0.0648   -0.0243   -0.0220
          44   -0.0542    0.0506   -0.0648    0.0473   -0.0566   -0.0475    0.0085    0.0204
          45   -0.0584    0.0100   -0.0475    0.0673   -0.0049    0.0125    0.0314   -0.0292
          46   -0.0346    0.0328   -0.0705    0.0605   -0.0144   -0.0647    0.0206   -0.0188
          47   -0.0738    0.0400   -0.0766    0.0701   -0.0802   -0.0305    0.0117    0.0256
          48   -0.0077    0.0385   -0.0168    0.0080    0.0567   -0.0323    0.0221   -0.0437
          49   -0.0016   -0.0085   -0.0129    0.0281    0.0383    0.0080    0.0129   -0.0072
          50   -0.0529    0.0482    0.0860    0.0594   -0.0172   -0.1310    0.0303   -0.0075
          51   -0.0275    0.0073    0.0153    0.0448    0.0451   -0.0533   -0.0030    0.0483
          52   -0.0014    0.0072    0.0114   -0.0317   -0.0378   -0.0111   -0.0136   -0.0053
          53    0.0923    0.0044   -0.0751   -0.0514   -0.0032   -0.0487    0.1444    0.0308
          54    0.0296   -0.0026   -0.0370   -0.0239    0.0199   -0.0285    0.0337    0.0475
          55   -0.0016    0.0027    0.0062   -0.0209   -0.0243   -0.0103   -0.0225    0.0488
          56    0.0480   -0.0712    0.0607    0.0784    0.0151   -0.1077   -0.0972   -0.0531
          57    0.0127   -0.0215    0.0368   -0.0124   -0.0419   -0.0587   -0.0559   -0.0331
          58   -0.0015    0.0016    0.0041   -0.0160   -0.0217   -0.0070   -0.0168    0.0449
          59    0.0177    0.1086   -0.0400   -0.0049   -0.0177    0.0804   -0.1505   -0.0681
          60    0.0008    0.0307   -0.0329    0.0208    0.0343    0.0346   -0.0602    0.0043


   Root No.       9        10        11        12        13        14        15        16

                 9 A      10 A      11 A      12 A      13 A      14 A      15 A      16 A   

                 590.3     687.7     714.7     783.1     818.3     863.7     870.0     883.2
  
           1    0.0172   -0.0270   -0.0131   -0.0030   -0.0161    0.0154    0.0068   -0.0135
           2   -0.0068    0.0193    0.0017   -0.0024   -0.0061    0.0024    0.0031    0.0039
           3   -0.0232   -0.0432   -0.0127   -0.0038   -0.0061    0.0123    0.0015   -0.0008
           4    0.0050   -0.0378   -0.0150   -0.0030   -0.0055   -0.0042    0.0045    0.0182
           5    0.0051   -0.0211   -0.0065   -0.0016    0.0064   -0.0063   -0.0050   -0.0036
           6   -0.0537    0.0297    0.0025    0.0001    0.0294    0.0081   -0.0052    0.0008
           7    0.0040   -0.0155    0.0074    0.0029    0.0230   -0.0095   -0.0050   -0.0065
           8    0.0061    0.0045   -0.0022   -0.0039   -0.0082    0.0106   -0.0016   -0.0265
           9    0.0016   -0.0017    0.0015    0.0002    0.0059   -0.0001   -0.0047    0.0114
          10    0.0459    0.0446    0.0088    0.0010   -0.0158   -0.0337    0.0094   -0.0115
          11    0.0009    0.0169   -0.0175    0.0045   -0.0072    0.0175    0.0268    0.0095
          12    0.0019   -0.0223   -0.0127   -0.0001    0.0171   -0.0164    0.0157   -0.0112
          13   -0.0274    0.0177    0.0033    0.0005    0.0008    0.0192   -0.0058    0.0072
          14    0.0159   -0.0241    0.0644    0.0294    0.0036   -0.0040   -0.0049   -0.0045
          15   -0.0295    0.0161    0.0256    0.0101   -0.0133   -0.0010   -0.0031    0.0018
          16    0.0204    0.0204    0.0073    0.0019    0.0115   -0.0020   -0.0005   -0.0017
          17    0.0013    0.0028   -0.0452    0.0021    0.0073   -0.0041   -0.0081    0.0045
          18    0.0329    0.0278   -0.0149   -0.0001   -0.0176   -0.0027   -0.0033    0.0007
          19   -0.0478    0.0414    0.0053   -0.0005   -0.0101    0.0327   -0.0120    0.0163
          20    0.0124    0.0104   -0.0049   -0.0131    0.0047    0.0094    0.0168    0.0145
          21   -0.0107   -0.0154   -0.0061   -0.0068   -0.0134   -0.0207    0.0135   -0.0052
          22    0.0126   -0.0287   -0.0008    0.0022    0.0319    0.0149   -0.0034    0.0064
          23   -0.0225   -0.0175    0.0131   -0.0160    0.0100   -0.0055   -0.0222   -0.0128
          24    0.0382    0.0311    0.0108   -0.0067   -0.0236    0.0050   -0.0120   -0.0003
          25   -0.0441   -0.0075   -0.0050   -0.0033   -0.0335   -0.0316    0.0081   -0.0143
          26   -0.0015    0.0005    0.0188   -0.0231    0.0046    0.0083    0.0144    0.0086
          27   -0.0148   -0.0153    0.0047   -0.0103   -0.0110   -0.0102    0.0091   -0.0042
          28    0.0070   -0.0114   -0.0012    0.0002    0.0025    0.0048   -0.0008    0.0020
          29   -0.0129    0.0072   -0.0120   -0.0281   -0.0114   -0.0124   -0.0027   -0.0125
          30    0.0550   -0.0059    0.0004   -0.0071    0.0317    0.0360   -0.0120    0.0138
          31   -0.0151   -0.0408   -0.0197   -0.0002    0.0193    0.1075    0.0196   -0.1043
          32    0.0104    0.0332    0.0290   -0.0057   -0.0516   -0.0752   -0.0594    0.1449
          33   -0.0059   -0.0382   -0.0171   -0.0045   -0.0129   -0.0274    0.0141    0.0137
          34    0.0173   -0.0370   -0.0195   -0.0074    0.0263   -0.0910   -0.0060    0.1087
          35    0.0267   -0.0261   -0.0540   -0.0321    0.0493   -0.1076   -0.0140    0.1163
          36   -0.0515    0.0314    0.0163    0.0079    0.0359   -0.0202   -0.0097    0.0257
          37    0.0307   -0.1095    0.0242    0.0126   -0.1158    0.0278   -0.0615    0.0278
          38   -0.0469   -0.0051   -0.0238   -0.0242    0.0183   -0.0068   -0.0364    0.0411
          39    0.0417    0.0051    0.0185    0.0161   -0.0146    0.0135    0.0220   -0.0409
          40   -0.0332    0.1079    0.0235    0.0025    0.2405   -0.0845    0.0314   -0.0626
          41    0.0606    0.0132    0.0204    0.0166   -0.0366    0.0260    0.0328   -0.0969
          42    0.0404    0.0052    0.0182    0.0153   -0.0136    0.0117    0.0208   -0.0406
          43    0.0398    0.0763   -0.0841    0.0185   -0.0018   -0.0268    0.1003   -0.0098
          44    0.0039   -0.0034    0.0460   -0.0078   -0.0201    0.0190   -0.0309    0.0091
          45    0.0209   -0.0274    0.0055    0.0009    0.0422   -0.0784   -0.0377   -0.0196
          46    0.0551    0.0293    0.1085   -0.0149   -0.0124   -0.0832   -0.0722   -0.0298
          47    0.0229    0.0001    0.0383   -0.0045   -0.0242   -0.0005   -0.0548    0.0139
          48   -0.0185   -0.0188    0.0304   -0.0070    0.0446   -0.0506    0.0289   -0.0378
          49   -0.0406    0.0450    0.0077    0.0012   -0.0006    0.0616   -0.0218    0.0274
          50    0.0096    0.0407   -0.1726    0.0859    0.0055   -0.0163   -0.1163   -0.0600
          51   -0.0009    0.0016   -0.0675    0.0340    0.0011    0.0102   -0.0519   -0.0188
          52    0.0494    0.0240    0.0050    0.0028   -0.0044    0.0364   -0.0101    0.0210
          53   -0.0015    0.0216   -0.0816    0.2161   -0.0177   -0.0225    0.0481    0.0365
          54    0.0544   -0.0040   -0.0278    0.0889    0.0298    0.0293    0.0088    0.0315
          55    0.0055   -0.0269   -0.0035    0.0003    0.0036    0.0119   -0.0023    0.0063
          56   -0.0512   -0.0410    0.0849    0.1584    0.0169    0.0147    0.1346    0.0589
          57    0.0170    0.0246    0.0350    0.0588   -0.0639    0.0086    0.0509    0.0276
          58   -0.0226   -0.0208   -0.0058   -0.0012   -0.0207   -0.0321    0.0094   -0.0151
          59   -0.0103   -0.0190   -0.0012    0.2186    0.0130   -0.0198   -0.1014   -0.0375
          60   -0.0698    0.0096   -0.0013    0.0820   -0.0405   -0.0202   -0.0408   -0.0210


   Root No.      17        18        19        20        21        22        23        24

                17 A      18 A      19 A      20 A      21 A      22 A      23 A      24 A   

                 922.2     928.0     956.2     983.5    1000.3    1021.5    1037.7    1084.1
  
           1   -0.0002    0.0172   -0.0104   -0.0245    0.0033    0.0040   -0.0082   -0.0166
           2    0.0122   -0.0003   -0.0083   -0.0011   -0.0123    0.0090    0.0141    0.0081
           3    0.0049    0.0133   -0.0090   -0.0181    0.0040   -0.0062   -0.0001   -0.0116
           4    0.0202   -0.0122   -0.0115   -0.0167   -0.0142    0.0126    0.0013    0.0186
           5   -0.0121   -0.0177    0.0087    0.0071   -0.0007    0.0007   -0.0104    0.0175
           6    0.0046    0.0298    0.0101    0.0217   -0.0080    0.0111   -0.0050    0.0095
           7   -0.0141   -0.0120    0.0074    0.0048    0.0042   -0.0026   -0.0055    0.0026
           8   -0.0248    0.0054    0.0017   -0.0034    0.0035    0.0081   -0.0102   -0.0137
           9   -0.0002    0.0278    0.0001   -0.0068    0.0180   -0.0237    0.0093    0.0088
          10    0.0124    0.0399    0.0046    0.0089    0.0021   -0.0046    0.0002    0.0038
          11    0.0344   -0.0012   -0.0011    0.0137    0.0135   -0.0188   -0.0115    0.0019
          12    0.0027   -0.0216   -0.0007    0.0026   -0.0023    0.0079   -0.0107    0.0001
          13   -0.0038   -0.0110   -0.0016   -0.0038    0.0020   -0.0029    0.0006   -0.0019
          14    0.0184   -0.0102    0.0082   -0.0127    0.0061   -0.0239   -0.0037   -0.0020
          15    0.0121    0.0040    0.0058    0.0052   -0.0074    0.0059   -0.0067   -0.0102
          16    0.0000    0.0056    0.0028    0.0045    0.0012   -0.0029    0.0025   -0.0034
          17   -0.0230    0.0118    0.0057   -0.0084   -0.0110    0.0170    0.0330    0.0018
          18   -0.0139   -0.0071    0.0005   -0.0071   -0.0010    0.0026    0.0135   -0.0069
          19   -0.0096   -0.0286   -0.0008    0.0008   -0.0019    0.0055   -0.0032   -0.0150
          20   -0.0174    0.0053   -0.0337    0.0140    0.0176    0.0205    0.0032   -0.0026
          21   -0.0079    0.0037   -0.0131    0.0036    0.0094    0.0031    0.0042    0.0144
          22    0.0066    0.0155    0.0020    0.0057   -0.0058    0.0090   -0.0044    0.0080
          23    0.0136    0.0083   -0.0310    0.0151   -0.0148   -0.0140   -0.0224    0.0014
          24   -0.0042   -0.0271   -0.0152   -0.0014    0.0007   -0.0161   -0.0033   -0.0025
          25   -0.0059   -0.0065    0.0001   -0.0021    0.0045   -0.0057    0.0020   -0.0214
          26   -0.0072    0.0038    0.0205   -0.0060   -0.0335   -0.0194   -0.0084    0.0019
          27   -0.0073   -0.0027    0.0076   -0.0049   -0.0092   -0.0123   -0.0025   -0.0071
          28    0.0007    0.0001   -0.0007   -0.0017    0.0012   -0.0018    0.0005    0.0009
          29    0.0150   -0.0065    0.0207   -0.0070    0.0316    0.0183    0.0143    0.0088
          30    0.0100   -0.0004    0.0087    0.0013    0.0079    0.0143    0.0031   -0.0217
          31   -0.0350    0.0261    0.0005    0.0517    0.0075   -0.0319    0.0931    0.0304
          32    0.0260    0.0201   -0.0146   -0.1062   -0.0310    0.0749   -0.0723    0.0092
          33    0.0239   -0.0007   -0.0140   -0.0356    0.0070   -0.0024   -0.0429   -0.0443
          34    0.0493   -0.0515    0.0132    0.0752   -0.0397    0.0403    0.0108   -0.0202
          35   -0.0344   -0.1068    0.0071    0.0728    0.0555   -0.0811    0.0648   -0.0996
          36    0.0350    0.0330    0.0290    0.0670   -0.0472    0.0606   -0.0243    0.0221
          37   -0.0531    0.0030    0.0984    0.2101    0.0193   -0.0391    0.0256   -0.0005
          38   -0.0458    0.0977    0.0002   -0.0322    0.0657   -0.0641    0.0186    0.0070
          39    0.0164   -0.0433    0.0017    0.0164   -0.0305    0.0323   -0.0131   -0.0064
          40   -0.0451   -0.0750   -0.0202   -0.0651    0.0445   -0.0569   -0.0013   -0.0309
          41   -0.0084   -0.0970    0.0042    0.0264   -0.0627    0.0894   -0.0448   -0.0378
          42    0.0124   -0.0452    0.0018    0.0146   -0.0296    0.0343   -0.0156   -0.0087
          43    0.0770    0.0267    0.0278    0.0633    0.0435   -0.0228   -0.0915    0.0392
          44    0.0023    0.0080   -0.0247   -0.0259   -0.0180   -0.0135    0.0690   -0.0301
          45   -0.1093   -0.0024    0.0662    0.0212    0.0183    0.0740   -0.1498    0.0737
          46   -0.0427    0.0728   -0.0075   -0.0096   -0.0589    0.0328    0.1091    0.0195
          47   -0.0606    0.0401    0.0205   -0.0259    0.0246    0.0059   -0.0594   -0.0092
          48    0.0670   -0.0412   -0.0457    0.0330   -0.0915    0.0194    0.1865    0.0337
          49   -0.0209   -0.0591   -0.0040   -0.0128    0.0086   -0.0129    0.0014    0.0879
          50    0.0838   -0.0100    0.1520   -0.0513   -0.0730   -0.0496   -0.0050   -0.0681
          51    0.0152   -0.0452    0.0542   -0.0415   -0.0102   -0.0514    0.0080    0.1433
          52   -0.0049   -0.0348   -0.0065   -0.0140    0.0074   -0.0215    0.0155    0.0899
          53   -0.0993    0.0322   -0.1000    0.0219   -0.1138   -0.0702   -0.0365    0.0118
          54   -0.0347    0.0181   -0.0384    0.0141   -0.0502   -0.0183   -0.0188   -0.0323
          55   -0.0015   -0.0127   -0.0045   -0.0110    0.0044   -0.0097    0.0023    0.1104
          56   -0.0367    0.0320    0.1493   -0.0453    0.0331    0.0689    0.0662   -0.0525
          57   -0.0367   -0.0613    0.0457   -0.0502    0.0351   -0.0120    0.0417    0.1246
          58    0.0019    0.0103   -0.0001   -0.0009    0.0041   -0.0061    0.0045   -0.0333
          59    0.0642    0.0001   -0.0916    0.0304    0.1191    0.0683    0.0226   -0.0044
          60    0.0016   -0.0473   -0.0373    0.0061    0.0544    0.0226    0.0046    0.0167


   Root No.      25        26        27        28        29        30        31        32

                25 A      26 A      27 A      28 A      29 A      30 A      31 A      32 A   

                1092.9    1102.3    1113.4    1142.3    1150.7    1161.3    1183.5    1196.4
  
           1   -0.0358   -0.0130    0.0143   -0.0233    0.0032   -0.0146    0.0131    0.0006
           2    0.0103   -0.0055   -0.0016    0.0694   -0.0075   -0.0094    0.0027   -0.0118
           3   -0.0012    0.0342    0.0091    0.0277    0.0002   -0.0050    0.0072   -0.0063
           4    0.0351    0.0045   -0.0169    0.0176   -0.0020   -0.0221    0.0046   -0.0105
           5    0.0424    0.0249   -0.0222   -0.0384    0.0040    0.0057   -0.0154   -0.0002
           6    0.0063    0.0154    0.0048   -0.0155   -0.0013    0.0104    0.0108   -0.0057
           7    0.0066   -0.0022   -0.0058   -0.0091   -0.0003    0.0793   -0.0140    0.0078
           8   -0.0330   -0.0152    0.0149   -0.0099    0.0029   -0.0008   -0.0018    0.0171
           9    0.0041   -0.0173   -0.0081   -0.0009    0.0021   -0.0023   -0.0145    0.0103
          10   -0.0075    0.0230   -0.0019    0.0041    0.0000    0.0056    0.0034   -0.0105
          11    0.0021   -0.0050   -0.0033   -0.0173    0.0017    0.0027    0.0016    0.0022
          12   -0.0121   -0.0257    0.0013   -0.0146   -0.0014   -0.0106   -0.0069   -0.0038
          13    0.0079    0.0005    0.0026    0.0008   -0.0082   -0.0027    0.0098    0.0181
          14   -0.0046   -0.0103    0.0014    0.0090   -0.0017   -0.0015   -0.0028    0.0017
          15   -0.0089   -0.0004   -0.0021    0.0000    0.0014    0.0115    0.0228   -0.0139
          16    0.0133   -0.0069    0.0051    0.0048    0.0033   -0.0087   -0.0144    0.0142
          17    0.0016    0.0098    0.0010   -0.0029    0.0033    0.0011    0.0028    0.0076
          18    0.0003    0.0033   -0.0020   -0.0037   -0.0061   -0.0012   -0.0132   -0.0155
          19   -0.0050   -0.0050   -0.0114   -0.0010   -0.0039    0.0031    0.0054    0.0052
          20    0.0012    0.0036   -0.0067   -0.0033   -0.0020   -0.0005   -0.0053   -0.0034
          21    0.0079    0.0015    0.0152    0.0003    0.0063   -0.0003    0.0096    0.0104
          22   -0.0276    0.0086   -0.0123   -0.0003    0.0080    0.0025   -0.0013   -0.0165
          23   -0.0068    0.0002    0.0005   -0.0007    0.0009    0.0017    0.0062   -0.0002
          24    0.0172   -0.0106   -0.0015    0.0027   -0.0024   -0.0046   -0.0150   -0.0002
          25    0.0194   -0.0108   -0.0005   -0.0005   -0.0063   -0.0029   -0.0154   -0.0012
          26   -0.0020   -0.0006    0.0021    0.0004   -0.0007    0.0008   -0.0006   -0.0048
          27    0.0023   -0.0023   -0.0053    0.0008    0.0013   -0.0014    0.0024    0.0118
          28    0.0014    0.0013    0.0052   -0.0018    0.0036    0.0013   -0.0069   -0.0128
          29   -0.0042    0.0033    0.0028   -0.0005    0.0021   -0.0008   -0.0019   -0.0025
          30    0.0113   -0.0039   -0.0069   -0.0002   -0.0050    0.0018    0.0046    0.0067
          31    0.0157   -0.1289   -0.0133    0.1083   -0.0264   -0.0541    0.0160   -0.0653
          32   -0.0113   -0.0922    0.0006   -0.1525   -0.0059   -0.0838    0.0544   -0.0552
          33   -0.0296    0.1452    0.0276    0.0122    0.0204    0.0491   -0.0124    0.0544
          34   -0.0977   -0.0311    0.0749    0.1112    0.0004   -0.0627   -0.1027    0.0872
          35   -0.0880    0.0062    0.0324    0.0538   -0.0172    0.1098    0.1188   -0.0740
          36   -0.0461   -0.0028    0.0540    0.0220    0.0080   -0.0567   -0.1145    0.0915
          37    0.0067    0.0536    0.0013   -0.0854    0.0095   -0.1997    0.0361   -0.0140
          38   -0.0291   -0.0839   -0.0074   -0.0186    0.0074   -0.0076   -0.0319    0.0448
          39    0.0020    0.0369    0.0090    0.0067   -0.0011    0.0018    0.0076   -0.0097
          40    0.0028    0.0772    0.0055   -0.0220    0.0121   -0.2456    0.0264   -0.0145
          41   -0.0451    0.0443    0.0415   -0.0035   -0.0012    0.0056    0.0305    0.0015
          42   -0.0047    0.0276    0.0114    0.0039   -0.0006    0.0010    0.0083   -0.0010
          43   -0.0043   -0.0350   -0.0201   -0.0037   -0.0027    0.0181    0.0419   -0.0242
          44   -0.0053    0.0449    0.0118   -0.0257    0.0054   -0.0077   -0.0326    0.0103
          45    0.0315   -0.1158   -0.0252    0.1114   -0.0193    0.0022    0.0689   -0.0110
          46   -0.0082    0.0315   -0.0111    0.0087    0.0004    0.0242    0.0355   -0.0192
          47    0.0103    0.0492    0.0105    0.0719   -0.0041   -0.0097   -0.0059   -0.0207
          48   -0.0222   -0.0911   -0.0289   -0.1319    0.0068    0.0279    0.0403    0.0196
          49   -0.0490    0.0141    0.0912   -0.0304   -0.0718    0.0178   -0.0500   -0.0851
          50    0.0065   -0.0205   -0.0557    0.0239    0.0299   -0.0064    0.0278    0.0403
          51   -0.0556    0.0213    0.1484   -0.0321   -0.0779    0.0191   -0.0584   -0.1065
          52    0.0813   -0.0146    0.1549    0.0163    0.2990    0.0213    0.1040    0.0809
          53   -0.0015   -0.0007    0.0088    0.0008    0.0127    0.0001    0.0023    0.0007
          54    0.0030   -0.0039   -0.0242   -0.0016   -0.0357   -0.0002   -0.0070   -0.0023
          55   -0.1159    0.0506   -0.0847    0.0154   -0.0629   -0.0064    0.0549    0.0767
          56    0.0351   -0.0075    0.0379   -0.0076    0.0377    0.0074   -0.0217   -0.0469
          57   -0.0926    0.0464   -0.0935    0.0229   -0.0955   -0.0160    0.0551    0.1194
          58    0.0762   -0.0149    0.0613   -0.0136   -0.1268    0.0008    0.0236    0.0427
          59    0.0454    0.0001    0.0514   -0.0111   -0.0986    0.0036    0.0318    0.0307
          60   -0.1111    0.0057   -0.1314    0.0270    0.2520   -0.0092   -0.0807   -0.0787


   Root No.      33        34        35        36        37        38        39        40

                33 A      34 A      35 A      36 A      37 A      38 A      39 A      40 A   

                1201.2    1296.1    1324.1    1363.0    1383.5    1392.0    1454.0    1537.1
  
           1   -0.0053    0.0048    0.0212   -0.0197   -0.0163   -0.0192    0.0191   -0.0757
           2   -0.0079   -0.0206    0.0060   -0.0239   -0.0080   -0.0158    0.0109   -0.0534
           3    0.0184    0.0517   -0.0050    0.0286   -0.0049    0.0245   -0.0065    0.0152
           4   -0.0200   -0.0236    0.0093   -0.0011    0.0245   -0.0016    0.0014    0.0673
           5    0.0025    0.0092   -0.0203    0.0109   -0.0190    0.0052   -0.0083   -0.0440
           6    0.0255   -0.0011    0.0345   -0.0351    0.0196   -0.0147    0.0308    0.0068
           7    0.0132    0.0047   -0.0074    0.0047   -0.0012    0.0034   -0.0029    0.0022
           8   -0.0149   -0.0048    0.0044    0.0019   -0.0129   -0.0115   -0.0199    0.0942
           9   -0.0197   -0.0097   -0.0046    0.0012   -0.0007   -0.0015   -0.0024   -0.0024
          10    0.0004   -0.0096   -0.0289   -0.0195   -0.0168    0.0483    0.0149    0.0126
          11   -0.0027    0.0202    0.0135    0.0109   -0.0015    0.0111   -0.0092    0.0048
          12    0.0165   -0.0514   -0.0441   -0.0215    0.0054   -0.0229    0.0206    0.0004
          13    0.0123   -0.0005    0.0094   -0.0270    0.0180   -0.0041   -0.0602    0.0078
          14    0.0050    0.0062    0.0075   -0.0128    0.0062   -0.0053    0.0071   -0.0047
          15   -0.0217   -0.0258   -0.0162    0.0323   -0.0136    0.0120   -0.0156    0.0188
          16    0.0369   -0.0138    0.0499    0.0265    0.0015   -0.0135    0.0131    0.0078
          17   -0.0009    0.0029   -0.0007    0.0045   -0.0030   -0.0012    0.0244    0.0072
          18    0.0025   -0.0062    0.0017   -0.0119    0.0068    0.0027   -0.0617   -0.0222
          19   -0.0218   -0.0022   -0.0293    0.0254   -0.0189    0.0037    0.0102   -0.0221
          20   -0.0026    0.0091   -0.0053   -0.0188    0.0053    0.0019    0.0030    0.0001
          21    0.0096   -0.0212    0.0133    0.0481   -0.0141   -0.0047   -0.0076   -0.0011
          22   -0.0006   -0.0235    0.0075    0.0452   -0.0154   -0.0006   -0.0138   -0.0267
          23   -0.0006   -0.0023   -0.0116   -0.0114    0.0016    0.0037   -0.0047    0.0019
          24    0.0018    0.0057    0.0295    0.0298   -0.0044   -0.0095    0.0129   -0.0048
          25   -0.0046    0.0205   -0.0014   -0.0097   -0.0010   -0.0019    0.0693    0.0134
          26   -0.0014   -0.0040    0.0070    0.0147   -0.0036   -0.0014    0.0141    0.0106
          27    0.0034    0.0101   -0.0180   -0.0380    0.0093    0.0037   -0.0369   -0.0276
          28   -0.0043    0.0123    0.0042   -0.0373    0.0196    0.0024   -0.0561    0.0171
          29    0.0060   -0.0076    0.0063    0.0071   -0.0004   -0.0010   -0.0195   -0.0080
          30   -0.0150    0.0192   -0.0164   -0.0179    0.0008    0.0027    0.0496    0.0202
          31    0.1171    0.0632   -0.0822    0.0424   -0.0224    0.0525   -0.0106   -0.0002
          32    0.1346    0.0708   -0.0260    0.0214   -0.0076    0.0326    0.0017    0.0130
          33   -0.1160   -0.0194    0.0785   -0.0313   -0.0020   -0.0423    0.0203   -0.0651
          34   -0.0011    0.0618   -0.0483    0.0370   -0.0153    0.0246   -0.0490    0.0094
          35    0.0522   -0.0083    0.0412   -0.0176    0.0103   -0.0069    0.0259    0.0067
          36    0.0225    0.0685   -0.0286    0.0024   -0.0208    0.0088   -0.0152   -0.0569
          37   -0.0314   -0.0281    0.0250   -0.0234    0.0092   -0.0157    0.0116   -0.0035
          38   -0.0718   -0.0539   -0.0141    0.0738    0.2000    0.0935    0.0283   -0.0485
          39    0.0219    0.0258    0.0091   -0.0475   -0.1437   -0.0725   -0.0345    0.0970
          40   -0.0356    0.0311   -0.0155    0.0318   -0.0128    0.0177   -0.0143    0.0012
          41    0.0234   -0.0007    0.0114    0.0684    0.2089    0.1033    0.0440   -0.0421
          42    0.0087   -0.0036    0.0015    0.0428    0.1400    0.0717    0.0396   -0.0908
          43   -0.0428    0.1099   -0.0649    0.0716    0.0722   -0.1530   -0.0256   -0.0010
          44    0.0417   -0.0704    0.0095   -0.0415   -0.0456    0.1109    0.0220    0.0177
          45   -0.0986    0.0722    0.1271   -0.0408   -0.0613    0.1143   -0.0186   -0.0458
          46   -0.0502    0.1048   -0.0607    0.0659    0.0708   -0.1579   -0.0219   -0.0109
          47    0.0363    0.0110   -0.0874    0.0513    0.0702   -0.1627   -0.0020    0.0007
          48   -0.0975    0.0888    0.0715    0.0105   -0.0076    0.0138   -0.0317   -0.0185
          49   -0.0586    0.0300   -0.0316   -0.0263   -0.0034    0.0107    0.0626    0.0004
          50    0.0107   -0.0089   -0.0054    0.0059   -0.0021   -0.0018   -0.0211   -0.0111
          51   -0.0360    0.0158    0.0164   -0.0155    0.0073    0.0034    0.0539    0.0332
          52    0.0011   -0.0003   -0.0795   -0.0342   -0.0108    0.0116    0.0426   -0.0194
          53    0.0065   -0.0089    0.0041    0.0085   -0.0016   -0.0008   -0.0188   -0.0106
          54   -0.0167    0.0236   -0.0091   -0.0216    0.0046    0.0020    0.0470    0.0279
          55    0.0368   -0.0121   -0.0217   -0.0041   -0.0071    0.0050    0.0320   -0.0001
          56   -0.0200   -0.0101    0.0029    0.0138   -0.0029    0.0011   -0.0307   -0.0132
          57    0.0477    0.0245   -0.0066   -0.0371    0.0079   -0.0034    0.0771    0.0339
          58   -0.0092    0.0060   -0.0316   -0.0097   -0.0078    0.0021    0.0307   -0.0209
          59   -0.0043   -0.0189   -0.0154    0.0184   -0.0093    0.0016   -0.0242   -0.0170
          60    0.0106    0.0470    0.0400   -0.0462    0.0237   -0.0042    0.0617    0.0443


   Root No.      41        42        43        44        45        46        47        48

                41 A      42 A      43 A      44 A      45 A      46 A      47 A      48 A   

                1590.7    1612.7    1799.4    1829.5    2981.3    3051.3    3055.7    3065.0
  
           1   -0.0153    0.0218   -0.0031    0.0005    0.0014    0.0019    0.0000   -0.0001
           2   -0.0106    0.0163    0.0036    0.0024    0.0005    0.0009    0.0000   -0.0001
           3    0.0041   -0.0029   -0.0055   -0.0000    0.0015    0.0037    0.0000   -0.0002
           4    0.0269   -0.0321   -0.0085   -0.0169   -0.0001   -0.0003   -0.0000    0.0002
           5   -0.0100    0.0345    0.0062    0.0104   -0.0001    0.0004   -0.0000   -0.0001
           6    0.0009   -0.0529   -0.0100   -0.0227    0.0001    0.0006   -0.0000   -0.0002
           7   -0.0009   -0.0008    0.0006   -0.0006    0.0002    0.0001   -0.0000    0.0000
           8    0.0192   -0.0271   -0.0019   -0.0026    0.0000    0.0002    0.0000    0.0000
           9   -0.0005    0.0032    0.0006    0.0006   -0.0001    0.0001    0.0000    0.0001
          10   -0.0242   -0.0304   -0.0076    0.0101    0.0012   -0.0373   -0.0005   -0.0000
          11    0.0095   -0.0007    0.0041   -0.0059   -0.0556   -0.0064   -0.0001   -0.0000
          12   -0.0228   -0.0015   -0.0108    0.0148   -0.0218    0.0120    0.0002    0.0001
          13   -0.0552    0.0082    0.1114    0.1275   -0.0000    0.0006    0.0002   -0.0006
          14   -0.0047   -0.0455    0.0055   -0.0310   -0.0002   -0.0000    0.0001    0.0001
          15    0.0158    0.1141   -0.0170    0.0758   -0.0001    0.0000   -0.0001   -0.0004
          16    0.0661    0.0900   -0.0463   -0.0425    0.0000   -0.0006    0.0002   -0.0002
          17   -0.0228    0.0032   -0.0460    0.0412   -0.0001    0.0001    0.0001    0.0003
          18    0.0574   -0.0067    0.1173   -0.1049   -0.0001   -0.0003   -0.0002   -0.0007
          19   -0.0032   -0.0477   -0.0473   -0.1061    0.0000    0.0000   -0.0076    0.0149
          20    0.0292    0.0066   -0.0102    0.0374   -0.0000    0.0000   -0.0016    0.0035
          21   -0.0751   -0.0162    0.0270   -0.0940   -0.0000   -0.0001    0.0042   -0.0090
          22    0.0366   -0.0653    0.0253    0.0721   -0.0000    0.0003   -0.0076   -0.0145
          23    0.0127    0.0219    0.0232   -0.0426   -0.0001    0.0000   -0.0024   -0.0043
          24   -0.0334   -0.0555   -0.0597    0.1088   -0.0000   -0.0001    0.0062    0.0110
          25    0.0180    0.0087    0.0736    0.0194   -0.0000   -0.0005    0.0260   -0.0211
          26   -0.0298    0.0119    0.0376   -0.0170    0.0000    0.0001   -0.0046    0.0030
          27    0.0759   -0.0301   -0.0963    0.0434   -0.0000   -0.0003    0.0115   -0.0074
          28   -0.0753    0.0458   -0.1073   -0.0668    0.0000   -0.0000   -0.0040   -0.0008
          29    0.0061   -0.0115   -0.0163    0.0084   -0.0000   -0.0002    0.0111    0.0074
          30   -0.0149    0.0290    0.0425   -0.0212   -0.0000    0.0004   -0.0280   -0.0188
          31   -0.0096    0.0100   -0.0041    0.0069   -0.0151   -0.0282   -0.0002    0.0016
          32   -0.0029   -0.0105   -0.0034   -0.0007   -0.0090   -0.0135   -0.0001    0.0008
          33   -0.0043    0.0146   -0.0064   -0.0036   -0.0177   -0.0371   -0.0003    0.0022
          34   -0.0118    0.0130    0.0210    0.0204   -0.0004    0.0074   -0.0002   -0.0017
          35    0.0060   -0.0090   -0.0106   -0.0050    0.0002   -0.0032    0.0001    0.0008
          36   -0.0347   -0.0045    0.0136    0.0103    0.0005   -0.0095    0.0002    0.0025
          37    0.0008   -0.0066   -0.0011   -0.0029    0.0004   -0.0005    0.0000   -0.0000
          38   -0.0051    0.0077    0.0019    0.0004    0.0006   -0.0016   -0.0002   -0.0005
          39    0.0169   -0.0230   -0.0027   -0.0027    0.0001   -0.0015   -0.0002   -0.0007
          40    0.0013    0.0169    0.0007    0.0058    0.0004    0.0002    0.0000   -0.0000
          41   -0.0035   -0.0114   -0.0026   -0.0048    0.0017   -0.0002    0.0001    0.0004
          42   -0.0154    0.0117   -0.0006   -0.0019   -0.0019    0.0006   -0.0001   -0.0005
          43    0.0019   -0.0074    0.0075   -0.0013    0.2520    0.2281    0.0032    0.0004
          44   -0.0092   -0.0124   -0.0103    0.0022    0.3591    0.3783    0.0052    0.0005
          45    0.0030   -0.0062    0.0170   -0.0121    0.0404    0.0571    0.0008    0.0001
          46   -0.0005   -0.0051    0.0074   -0.0003   -0.2686    0.2187    0.0030    0.0003
          47    0.0026    0.0184   -0.0028    0.0070    0.3101   -0.3020   -0.0042   -0.0004
          48    0.0110   -0.0037    0.0180   -0.0101    0.2239   -0.2016   -0.0028   -0.0002
          49    0.0797    0.0099   -0.0503    0.0051   -0.0000   -0.0010    0.0840   -0.1677
          50   -0.0071   -0.0285   -0.0163   -0.0246    0.0000   -0.0003    0.0213   -0.0436
          51    0.0191    0.0711    0.0406    0.0617    0.0000    0.0007   -0.0549    0.1124
          52    0.1035   -0.0131    0.0544    0.0101   -0.0000   -0.0006    0.0402    0.0226
          53    0.0144   -0.0160   -0.0124    0.0128    0.0000    0.0021   -0.1288   -0.0840
          54   -0.0375    0.0409    0.0317   -0.0335   -0.0000   -0.0054    0.3260    0.2126
          55    0.0697    0.0381    0.0677   -0.0437    0.0002   -0.0041    0.0939    0.1750
          56    0.0037   -0.0302    0.0099    0.0116    0.0001   -0.0010    0.0260    0.0473
          57   -0.0086    0.0770   -0.0249   -0.0306   -0.0001    0.0024   -0.0664   -0.1207
          58    0.0824   -0.0334    0.0053    0.0393    0.0000    0.0063   -0.3043    0.2344
          59    0.0147   -0.0212   -0.0223   -0.0065    0.0000   -0.0011    0.0517   -0.0383
          60   -0.0377    0.0546    0.0568    0.0150    0.0000    0.0027   -0.1283    0.0951


   Root No.      49        50        51        52        53        54

                49 A      50 A      51 A      52 A      53 A      54 A   

                3073.3    3075.0    3075.5    3081.2    3093.4    3130.4
  
           1   -0.0201    0.0016   -0.0134   -0.0000   -0.0066   -0.0014
           2   -0.0095    0.0008   -0.0066    0.0000   -0.0033   -0.0003
           3   -0.0280    0.0022   -0.0182   -0.0000   -0.0095   -0.0007
           4   -0.0197   -0.0009    0.0146   -0.0001    0.0067    0.0013
           5    0.0088    0.0004   -0.0069    0.0000   -0.0032   -0.0002
           6    0.0266    0.0010   -0.0194   -0.0001   -0.0094   -0.0006
           7   -0.0004    0.0000   -0.0000   -0.0000    0.0002    0.0001
           8    0.0000   -0.0001    0.0010    0.0001   -0.0018    0.0431
           9    0.0008   -0.0013    0.0167    0.0002   -0.0417   -0.0036
          10   -0.0014    0.0002   -0.0019    0.0000   -0.0011    0.0000
          11   -0.0016    0.0001   -0.0010    0.0001   -0.0009   -0.0003
          12   -0.0003    0.0001    0.0002   -0.0001    0.0002   -0.0001
          13    0.0002    0.0014    0.0006    0.0012    0.0004    0.0001
          14    0.0001   -0.0002   -0.0000   -0.0004   -0.0003   -0.0001
          15    0.0001    0.0004    0.0002    0.0010    0.0002    0.0001
          16    0.0001   -0.0001   -0.0001    0.0006   -0.0000    0.0000
          17    0.0001    0.0006   -0.0002   -0.0004   -0.0002   -0.0000
          18   -0.0001   -0.0015    0.0005    0.0011    0.0003    0.0000
          19   -0.0008   -0.0220   -0.0017   -0.0193   -0.0002    0.0000
          20   -0.0002   -0.0057   -0.0004   -0.0053   -0.0001    0.0000
          21    0.0006    0.0149    0.0011    0.0137    0.0001   -0.0000
          22   -0.0008   -0.0240   -0.0016    0.0164    0.0000   -0.0000
          23   -0.0002   -0.0064   -0.0004    0.0042    0.0000   -0.0000
          24    0.0006    0.0163    0.0011   -0.0106   -0.0001    0.0000
          25   -0.0002   -0.0057   -0.0002   -0.0186   -0.0001    0.0000
          26    0.0001    0.0015    0.0001    0.0031    0.0000   -0.0000
          27   -0.0002   -0.0039   -0.0003   -0.0077   -0.0001    0.0000
          28    0.0001    0.0026    0.0002   -0.0018   -0.0000    0.0000
          29   -0.0001   -0.0041   -0.0004    0.0069    0.0000   -0.0000
          30    0.0003    0.0104    0.0010   -0.0175   -0.0000    0.0001
          31    0.2375   -0.0188    0.1530   -0.0001    0.0778    0.0048
          32    0.1169   -0.0091    0.0737   -0.0001    0.0399    0.0021
          33    0.3403   -0.0268    0.2181   -0.0001    0.1092    0.0074
          34    0.2346    0.0090   -0.1691   -0.0002   -0.0797   -0.0042
          35   -0.1125   -0.0042    0.0794    0.0001    0.0397    0.0018
          36   -0.3199   -0.0124    0.2296    0.0001    0.1065    0.0063
          37    0.0028   -0.0001    0.0003    0.0000   -0.0008    0.0011
          38   -0.0030    0.0059   -0.0752   -0.0013    0.2021   -0.2475
          39   -0.0040    0.0079   -0.1011   -0.0018    0.2636   -0.3682
          40   -0.0022    0.0000    0.0005    0.0001   -0.0010   -0.0017
          41    0.0035   -0.0058    0.0726    0.0007   -0.1741   -0.2625
          42   -0.0050    0.0082   -0.1028   -0.0009    0.2383    0.4106
          43    0.0167   -0.0012    0.0146   -0.0007    0.0078    0.0005
          44    0.0262   -0.0020    0.0232   -0.0011    0.0126    0.0005
          45    0.0010    0.0000    0.0016   -0.0002    0.0012    0.0001
          46    0.0023   -0.0001    0.0057   -0.0007    0.0025   -0.0011
          47   -0.0056    0.0003   -0.0093    0.0010   -0.0051    0.0021
          48   -0.0029    0.0002   -0.0055    0.0006   -0.0027    0.0010
          49    0.0092    0.2471    0.0189    0.2148    0.0021   -0.0004
          50    0.0023    0.0653    0.0051    0.0571    0.0006   -0.0001
          51   -0.0060   -0.1685   -0.0132   -0.1474   -0.0015    0.0002
          52   -0.0005   -0.0162   -0.0015    0.0223    0.0000   -0.0001
          53    0.0016    0.0460    0.0044   -0.0739   -0.0001    0.0002
          54   -0.0039   -0.1165   -0.0112    0.1871    0.0004   -0.0006
          55    0.0096    0.2691    0.0184   -0.1773   -0.0004    0.0003
          56    0.0026    0.0716    0.0049   -0.0469   -0.0001    0.0000
          57   -0.0066   -0.1827   -0.0125    0.1197    0.0002   -0.0002
          58    0.0027    0.0699    0.0028    0.1990    0.0008   -0.0005
          59   -0.0005   -0.0127   -0.0006   -0.0335   -0.0001    0.0001
          60    0.0012    0.0315    0.0014    0.0833    0.0003   -0.0002


           MASS-WEIGHTED COORDINATE ANALYSIS (NORMAL COORDINATES)


   Root No.       1         2         3         4         5         6         7         8

                 1 A       2 A       3 A       4 A       5 A       6 A       7 A       8 A   

                 144.2     179.2     314.5     375.3     392.8     436.9     505.2     550.9
  
           1   -0.0073   -0.0831   -0.0389   -0.0248   -0.2091   -0.0110    0.0156   -0.2211
           2    0.1413    0.2023    0.0943   -0.2222    0.2022   -0.0924   -0.0963    0.0881
           3    0.0044    0.1075    0.0397   -0.0443    0.2287    0.0078    0.1245   -0.2794
           4   -0.0111   -0.0874   -0.0496    0.0002   -0.1616   -0.0013    0.0331   -0.2000
           5    0.0150   -0.2584   -0.2428   -0.1146    0.0235   -0.1340   -0.1163   -0.1295
           6   -0.0377   -0.0953   -0.0511   -0.1566   -0.1881   -0.0575    0.0048   -0.1068
           7    0.0950    0.3277    0.3004   -0.1484   -0.0661    0.0447    0.1255   -0.0722
           8    0.0854   -0.0255   -0.0735   -0.1790    0.1015   -0.1242   -0.1326   -0.0245
           9    0.4357    0.0234    0.0549    0.3577   -0.2147    0.1721    0.1159    0.0373
          10   -0.0130   -0.0581   -0.0741    0.0622    0.1567   -0.0076   -0.0250   -0.1321
          11   -0.2792    0.1784   -0.2353    0.1761   -0.1992   -0.0046   -0.0291    0.1271
          12   -0.1633    0.1086   -0.0978    0.0971    0.1509    0.0181    0.1043   -0.2339
          13   -0.0107   -0.0629   -0.0937    0.1801    0.2335    0.0504    0.0618   -0.0091
          14   -0.2520   -0.2210    0.0766   -0.1220    0.0787    0.2204    0.3340    0.0939
          15   -0.1419   -0.0898    0.0684   -0.2030   -0.1970    0.0477    0.1181    0.0233
          16   -0.0152   -0.0442   -0.0912    0.1515    0.3001    0.0260    0.0218   -0.0602
          17   -0.1626   -0.2387    0.1588    0.0614    0.0215    0.5548   -0.0144    0.1256
          18   -0.1117   -0.0731    0.1050   -0.1602   -0.1241    0.1494   -0.0593   -0.0882
          19   -0.0100   -0.0422   -0.0583    0.1242    0.1226    0.0453    0.0869   -0.0711
          20   -0.2459    0.1789    0.3688    0.1872   -0.0496   -0.2419    0.2117   -0.0381
          21   -0.1459    0.0148    0.0640    0.0900    0.1229   -0.1366   -0.0413    0.3174
          22   -0.0141   -0.0007   -0.0006   -0.0613   -0.0115   -0.0482   -0.1322    0.3103
          23    0.1939   -0.3300    0.2683    0.2527    0.0344   -0.1408   -0.1999   -0.0439
          24    0.0268   -0.1108    0.1395   -0.0949   -0.1059   -0.1348   -0.1573   -0.1513
          25   -0.0109   -0.0015    0.0154   -0.0773   -0.1266   -0.0302   -0.0737    0.2641
          26    0.0748    0.3961   -0.0928   -0.0057   -0.0830    0.2558   -0.2689   -0.2098
          27   -0.0200    0.0928   -0.1327    0.0505    0.1741    0.0648   -0.2242    0.2502
          28   -0.0121    0.0185    0.0421   -0.1421   -0.1578   -0.0590   -0.1137    0.2124
          29    0.3686    0.0097   -0.2210   -0.1440   -0.0440   -0.0744    0.3976    0.0343
          30    0.0926   -0.0248   -0.1446   -0.1003    0.1422   -0.1031   -0.0126    0.2279
          31   -0.0167   -0.0835   -0.0450   -0.0237   -0.1449   -0.0174   -0.0042   -0.0814
          32    0.1445    0.1302    0.1189   -0.0556    0.0936    0.0032   -0.0114    0.0950
          33   -0.0237    0.0472    0.0023   -0.0011    0.1092    0.0028    0.0372   -0.0925
          34   -0.0144   -0.0823   -0.0424   -0.0195   -0.1515   -0.0119   -0.0086   -0.0808
          35    0.0656   -0.1435   -0.1487    0.0512   -0.0627   -0.0527   -0.0953   -0.0602
          36   -0.0390   -0.0444   -0.0065   -0.0864   -0.1057   -0.0180    0.0110   -0.0380
          37    0.0529    0.1974    0.1793   -0.0550    0.1016    0.0451    0.1019   -0.0319
          38   -0.0686   -0.0108   -0.0369   -0.1804    0.1002   -0.1022   -0.0682   -0.0949
          39    0.1942    0.0096    0.0275    0.2010   -0.1157    0.1006    0.0575    0.0776
          40    0.0326    0.1103    0.0997   -0.0753   -0.1037   -0.0022    0.0038    0.0399
          41    0.1197   -0.0038   -0.0068    0.0813   -0.0415    0.0306   -0.0089    0.0853
          42    0.1916    0.0093    0.0263    0.1984   -0.1137    0.0981    0.0558    0.0769
          43    0.0694   -0.1044    0.1314   -0.0967    0.1664    0.1440   -0.0520   -0.0444
          44   -0.1209    0.1127   -0.1634    0.1150   -0.1367   -0.1056    0.0182    0.0413
          45   -0.1304    0.0222   -0.1196    0.1636   -0.0118    0.0279    0.0671   -0.0590
          46   -0.0773    0.0730   -0.1776    0.1470   -0.0347   -0.1439    0.0440   -0.0381
          47   -0.1647    0.0889   -0.1930    0.1703   -0.1938   -0.0678    0.0249    0.0519
          48   -0.0172    0.0857   -0.0423    0.0193    0.1370   -0.0719    0.0473   -0.0884
          49   -0.0036   -0.0188   -0.0325    0.0684    0.0926    0.0177    0.0276   -0.0146
          50   -0.1181    0.1074    0.2166    0.1443   -0.0416   -0.2914    0.0648   -0.0151
          51   -0.0614    0.0162    0.0385    0.1090    0.1090   -0.1184   -0.0063    0.0977
          52   -0.0032    0.0160    0.0287   -0.0771   -0.0914   -0.0247   -0.0290   -0.0107
          53    0.2061    0.0097   -0.1893   -0.1249   -0.0078   -0.1083    0.3089    0.0624
          54    0.0660   -0.0057   -0.0932   -0.0580    0.0480   -0.0634    0.0721    0.0960
          55   -0.0036    0.0060    0.0155   -0.0509   -0.0587   -0.0230   -0.0481    0.0987
          56    0.1071   -0.1584    0.1529    0.1906    0.0365   -0.2396   -0.2078   -0.1075
          57    0.0284   -0.0478    0.0928   -0.0302   -0.1012   -0.1305   -0.1195   -0.0669
          58   -0.0034    0.0036    0.0104   -0.0388   -0.0526   -0.0155   -0.0360    0.0909
          59    0.0394    0.2417   -0.1007   -0.0118   -0.0427    0.1787   -0.3218   -0.1377
          60    0.0019    0.0683   -0.0828    0.0505    0.0829    0.0769   -0.1288    0.0086


   Root No.       9        10        11        12        13        14        15        16

                 9 A      10 A      11 A      12 A      13 A      14 A      15 A      16 A   

                 590.3     687.7     714.7     783.1     818.3     863.7     870.0     883.2
  
           1    0.1145   -0.1921   -0.1031   -0.0240   -0.1298    0.1331    0.0665   -0.1278
           2   -0.0454    0.1375    0.0132   -0.0196   -0.0490    0.0206    0.0301    0.0368
           3   -0.1544   -0.3072   -0.0997   -0.0301   -0.0490    0.1058    0.0147   -0.0074
           4    0.0332   -0.2691   -0.1180   -0.0242   -0.0445   -0.0360    0.0441    0.1728
           5    0.0343   -0.1501   -0.0509   -0.0129    0.0518   -0.0539   -0.0493   -0.0344
           6   -0.3581    0.2110    0.0199    0.0011    0.2368    0.0699   -0.0509    0.0071
           7    0.0264   -0.1105    0.0583    0.0228    0.1854   -0.0816   -0.0493   -0.0612
           8    0.0406    0.0317   -0.0170   -0.0310   -0.0657    0.0911   -0.0161   -0.2511
           9    0.0107   -0.0119    0.0122    0.0014    0.0478   -0.0012   -0.0461    0.1086
          10    0.3057    0.3169    0.0690    0.0078   -0.1274   -0.2902    0.0920   -0.1095
          11    0.0058    0.1204   -0.1383    0.0359   -0.0577    0.1503    0.2631    0.0901
          12    0.0127   -0.1585   -0.1003   -0.0010    0.1377   -0.1412    0.1539   -0.1065
          13   -0.1824    0.1258    0.0262    0.0038    0.0067    0.1652   -0.0572    0.0686
          14    0.1060   -0.1716    0.5073    0.2352    0.0291   -0.0342   -0.0478   -0.0423
          15   -0.1969    0.1143    0.2016    0.0807   -0.1068   -0.0083   -0.0303    0.0169
          16    0.1356    0.1450    0.0572    0.0151    0.0929   -0.0169   -0.0053   -0.0165
          17    0.0084    0.0197   -0.3563    0.0165    0.0587   -0.0353   -0.0797    0.0427
[...]
 FREQ.      1201.23         C  1 -- H 11         +16.8% ( 56.7%)      0.8%
 T-DIPOLE    0.0946         C  2 -- C  5          +8.9% ( 41.2%)     36.1%
 TRAVEL      0.1007         C  2 -- C  3          +8.5% ( 40.4%)     29.4%
 RED. MASS   0.4208         C  5 -- C  7          +6.2% ( 34.3%)     16.2%
 EFF. MASS   5.5314

 VIBRATION   34   34A         ATOM PAIR      ENERGY CONTRIBUTION    RADIAL
 FREQ.      1296.10         C  1 -- C  4         +16.8% ( 61.4%)     81.2%
 T-DIPOLE    0.0990         C  4 -- H 15         +10.7% ( 49.1%)      0.1%
 TRAVEL      0.0801         C  4 -- H 16          +9.9% ( 47.1%)      0.1%
 RED. MASS   1.0419         C  1 -- C  2          +8.4% ( 43.4%)     18.0%
 EFF. MASS   8.0998

 VIBRATION   35   35A         ATOM PAIR      ENERGY CONTRIBUTION    RADIAL
 FREQ.      1324.12         C  4 -- C  6         +15.0% ( 57.0%)     99.8%
 T-DIPOLE    0.2427         C  4 -- H 15          +9.3% ( 44.9%)      0.4%
 TRAVEL      0.0791         C  4 -- H 16          +8.3% ( 42.6%)      0.0%
 RED. MASS   0.9238         C  6 -- C  8          +7.8% ( 41.2%)     24.6%
 EFF. MASS   8.1481

 VIBRATION   36   36A         ATOM PAIR      ENERGY CONTRIBUTION    RADIAL
 FREQ.      1362.99         C  7 -- C  9         +12.5% ( 57.6%)     92.8%
 T-DIPOLE    0.1404         C  8 -- C 10         +12.1% ( 56.7%)     97.7%
 TRAVEL      0.0697         C  5 -- C  7          +8.3% ( 47.0%)     99.2%
 RED. MASS   1.0676         C  5 -- C  6          +6.5% ( 41.5%)     99.0%
 EFF. MASS  10.1850

 VIBRATION   37   37A         ATOM PAIR      ENERGY CONTRIBUTION    RADIAL
 FREQ.      1383.45         C  3 -- H 14         +18.4% ( 48.6%)      0.8%
 T-DIPOLE    0.0888         C  3 -- H 13         +17.7% ( 47.7%)      1.0%
 TRAVEL      0.1166         C  2 -- C  5          +7.6% ( 31.2%)     91.2%
 RED. MASS   0.3363         C  1 -- C  2          +7.4% ( 30.9%)     69.9%
 EFF. MASS   3.5826

 VIBRATION   38   38A         ATOM PAIR      ENERGY CONTRIBUTION    RADIAL
 FREQ.      1391.98         C  4 -- H 16         +22.2% ( 55.8%)      5.5%
 T-DIPOLE    0.0545         C  4 -- H 15         +21.0% ( 54.3%)      6.8%
 TRAVEL      0.1073         C  1 -- C  4         +15.5% ( 46.6%)     69.6%
 RED. MASS   0.5968         C  4 -- C  6         +10.5% ( 38.4%)     29.2%
 EFF. MASS   4.2102

 VIBRATION   39   39A         ATOM PAIR      ENERGY CONTRIBUTION    RADIAL
 FREQ.      1454.03         C  9 -- C 10         +21.9% ( 75.9%)    100.0%
 T-DIPOLE    0.3998         C  5 -- C  6         +12.1% ( 56.3%)     99.9%
 TRAVEL      0.0650         C  6 -- C  8          +7.7% ( 45.1%)     83.4%
 RED. MASS   1.8613         C  4 -- C  6          +7.2% ( 43.3%)     30.9%
 EFF. MASS  10.9883

 VIBRATION   40   40A         ATOM PAIR      ENERGY CONTRIBUTION    RADIAL
 FREQ.      1537.14         C  1 -- C  3         +18.8% ( 70.9%)     98.7%
 T-DIPOLE    0.1868         C  2 -- C  3         +16.2% ( 65.9%)     98.8%
 TRAVEL      0.0623         C  1 -- C  2         +14.8% ( 62.8%)     99.2%
 RED. MASS   2.4094         C  3 -- H 13          +7.5% ( 44.7%)     11.8%
 EFF. MASS  11.2936

 VIBRATION   41   41A         ATOM PAIR      ENERGY CONTRIBUTION    RADIAL
 FREQ.      1590.67         C  7 -- C  9         +15.9% ( 59.5%)     99.8%
 T-DIPOLE    0.5091         C  5 -- C  6         +11.0% ( 49.6%)     30.5%
 TRAVEL      0.0610         C  6 -- C  8         +10.8% ( 49.0%)     96.1%
 RED. MASS   1.6693         C  9 -- C 10         +10.2% ( 47.8%)      1.8%
 EFF. MASS  11.4068

 VIBRATION   42   42A         ATOM PAIR      ENERGY CONTRIBUTION    RADIAL
 FREQ.      1612.72         C  5 -- C  6         +16.9% ( 62.0%)     86.0%
 T-DIPOLE    0.5825         C  2 -- C  5         +15.6% ( 59.5%)     99.0%
 TRAVEL      0.0601         C  5 -- C  7         +13.3% ( 55.1%)     49.7%
 RED. MASS   2.1562         C  6 -- C  8         +10.8% ( 49.6%)     16.7%
 EFF. MASS  11.5709

 VIBRATION   43   43A         ATOM PAIR      ENERGY CONTRIBUTION    RADIAL
 FREQ.      1799.40         C  9 -- C 10         +16.7% ( 57.1%)     99.7%
 T-DIPOLE    0.0969         C  5 -- C  6         +16.2% ( 56.3%)     98.7%
 TRAVEL      0.0562         C  6 -- C  8         +13.3% ( 51.0%)     80.6%
 RED. MASS   2.3374         C  7 -- C  9          +9.0% ( 42.1%)     45.3%
 EFF. MASS  11.8713

 VIBRATION   44   44A         ATOM PAIR      ENERGY CONTRIBUTION    RADIAL
 FREQ.      1829.51         C  5 -- C  7         +21.0% ( 65.2%)     93.3%
 T-DIPOLE    0.2348         C  6 -- C  8         +15.2% ( 55.3%)     87.1%
 TRAVEL      0.0556         C  5 -- C  6         +14.2% ( 53.5%)      0.8%
 RED. MASS   2.4844         C  8 -- C 10          +9.1% ( 42.8%)     85.9%
 EFF. MASS  11.9042

 VIBRATION   45   45A         ATOM PAIR      ENERGY CONTRIBUTION    RADIAL
 FREQ.      2981.26         C  4 -- H 16         +51.4% ( 74.4%)     96.9%
 T-DIPOLE    0.0667         C  4 -- H 15         +46.2% ( 70.5%)     96.3%
 TRAVEL      0.1210         C  1 -- C  4          +1.1% ( 11.1%)      0.1%
 RED. MASS   0.5189         C  4 -- C  6          +1.1% ( 11.0%)      0.0%
 EFF. MASS   1.5439

 VIBRATION   46   46A         ATOM PAIR      ENERGY CONTRIBUTION    RADIAL
 FREQ.      3051.32         C  4 -- H 15         +51.5% ( 70.9%)     97.8%
 T-DIPOLE    0.1130         C  4 -- H 16         +46.3% ( 67.3%)     97.0%
 TRAVEL      0.1312         C  1 -- C  4          +0.7% (  8.2%)     29.5%
 RED. MASS   0.4785         C  4 -- C  6          +0.7% (  8.2%)     35.7%
 EFF. MASS   1.2843

 VIBRATION   47   47A         ATOM PAIR      ENERGY CONTRIBUTION    RADIAL
 FREQ.      3055.73         C 10 -- H 18         +46.4% ( 69.3%)    100.0%
 T-DIPOLE    0.0827         C  9 -- H 20         +41.7% ( 65.6%)    100.0%
 TRAVEL      0.1216         C  8 -- H 19          +5.2% ( 23.2%)     99.9%
 RED. MASS   0.3871         C  7 -- H 17          +3.9% ( 20.2%)     99.9%
 EFF. MASS   1.4931

 VIBRATION   48   48A         ATOM PAIR      ENERGY CONTRIBUTION    RADIAL
 FREQ.      3064.97         C  9 -- H 20         +30.5% ( 56.1%)    100.0%
 T-DIPOLE    0.3051         C 10 -- H 18         +24.5% ( 50.3%)     99.9%
 TRAVEL      0.1208         C  8 -- H 19         +22.1% ( 47.8%)    100.0%
 RED. MASS   0.2389         C  7 -- H 17         +19.9% ( 45.3%)    100.0%
 EFF. MASS   1.5087

 VIBRATION   49   49A         ATOM PAIR      ENERGY CONTRIBUTION    RADIAL
 FREQ.      3073.27         C  1 -- H 11         +50.2% ( 72.2%)    100.0%
 T-DIPOLE    0.2705         C  2 -- H 12         +45.9% ( 69.0%)    100.0%
 TRAVEL      0.1229         C  1 -- C  2          +1.1% ( 10.8%)      0.0%
 RED. MASS   0.4623         C  1 -- C  3          +0.6% (  8.1%)     25.1%
 EFF. MASS   1.4526

 VIBRATION   50   50A         ATOM PAIR      ENERGY CONTRIBUTION    RADIAL
 FREQ.      3075.02         C  8 -- H 19         +47.0% ( 69.6%)    100.0%
 T-DIPOLE    0.5407         C  7 -- H 17         +39.7% ( 64.0%)    100.0%
 TRAVEL      0.1193         C 10 -- H 18          +6.7% ( 26.4%)     99.8%
 RED. MASS   0.3817         C  9 -- H 20          +2.5% ( 16.2%)     99.5%
 EFF. MASS   1.5400

 VIBRATION   51   51A         ATOM PAIR      ENERGY CONTRIBUTION    RADIAL
 FREQ.      3075.54         C  2 -- H 12         +42.1% ( 66.5%)    100.0%
 T-DIPOLE    0.2199         C  1 -- H 11         +36.7% ( 62.0%)    100.0%
 TRAVEL      0.1206         C  3 -- H 13          +8.2% ( 29.4%)     97.3%
 RED. MASS   0.3331         C  3 -- H 14          +8.1% ( 29.2%)     96.4%
 EFF. MASS   1.5068

 VIBRATION   52   52A         ATOM PAIR      ENERGY CONTRIBUTION    RADIAL
 FREQ.      3081.21         C  7 -- H 17         +33.1% ( 58.3%)    100.0%
 T-DIPOLE    0.3188         C  8 -- H 19         +22.3% ( 47.9%)    100.0%
 TRAVEL      0.1174         C  9 -- H 20         +22.1% ( 47.7%)    100.0%
 RED. MASS   0.2441         C 10 -- H 18         +19.0% ( 44.2%)    100.0%
 EFF. MASS   1.5871

 VIBRATION   53   53A         ATOM PAIR      ENERGY CONTRIBUTION    RADIAL
 FREQ.      3093.39         C  3 -- H 13         +45.6% ( 69.5%)     97.7%
 T-DIPOLE    0.3007         C  3 -- H 14         +36.7% ( 62.4%)     96.6%
 TRAVEL      0.1190         C  1 -- H 11          +7.6% ( 28.4%)    100.0%
 RED. MASS   0.3814         C  2 -- H 12          +7.5% ( 28.2%)    100.0%
 EFF. MASS   1.5390

 VIBRATION   54   54A         ATOM PAIR      ENERGY CONTRIBUTION    RADIAL
 FREQ.      3130.35         C  3 -- H 14         +53.9% ( 73.0%)     97.0%
 T-DIPOLE    0.2172         C  3 -- H 13         +44.3% ( 66.2%)     95.5%
 TRAVEL      0.1287         C  1 -- C  3          +0.8% (  9.1%)     77.1%
 RED. MASS   0.4881         C  2 -- C  3          +0.8% (  9.1%)     76.3%
 EFF. MASS   1.3006

      SYMMETRY NUMBER FOR POINT-GROUP C1  =  1


          SYSTEM IS A GROUND STATE



 InChI=1S/C10H10/c1-2-4-9-7(3-1)5-8-6-10(8)9/h1-4,8,10H,5-6H2


          MOLECULE IS NOT LINEAR

          THERE ARE 54 GENUINE VIBRATIONS IN THIS SYSTEM
          THIS THERMODYNAMICS CALCULATION IS LIMITED TO
          MOLECULES WHICH HAVE NO INTERNAL ROTATIONS




                    CALCULATED THERMODYNAMIC PROPERTIES
                                          *
   TEMP. (K)   PARTITION FUNCTION   H.O.F.    ENTHALPY  HEAT CAPACITY ENTROPY
                                   KCAL/MOL   CAL/MOLE    CAL/K/MOL  CAL/K/MOL


 298.00  VIB.     0.1157D+02                  2677.9653    24.0332    13.8527
         ROT.     0.4700D+06                   888.2813     2.9808    28.9348
         INT.     0.5440D+07                  3566.2466    27.0140    42.7875
         TRA.     0.1436D+28                  1480.4688     4.9680    40.5022
         TOT.                       45.382    5046.7154    31.9820    83.2896

 200.00  VIB.     0.3126D+01                   907.3154    12.4399     6.8013
         ROT.     0.2584D+06                   596.1620     2.9808    27.7461
         INT.     0.8078D+06                  1503.4773    15.4207    34.5474
         TRA.     0.7896D+27                   993.6033     4.9680    38.5210
         TOT.                       42.833    2497.0806    20.3887    73.0684

 210.00  VIB.     0.3511D+01                  1037.0309    13.5092     7.4339
         ROT.     0.2781D+06                   625.9700     2.9808    27.8916
         INT.     0.9762D+06                  1663.0009    16.4900    35.3255
         TRA.     0.8496D+27                  1043.2834     4.9680    38.7634
         TOT.                       43.042    2706.2843    21.4581    74.0889

 220.00  VIB.     0.3960D+01                  1177.6159    14.6133     8.0878
         ROT.     0.2981D+06                   655.7781     2.9808    28.0302
         INT.     0.1181D+07                  1833.3940    17.5942    36.1180
         TRA.     0.9110D+27                  1092.9636     4.9680    38.9945
         TOT.                       43.262    2926.3576    22.5622    75.1125

 230.00  VIB.     0.4485D+01                  1329.4040    15.7493     8.7623
         ROT.     0.3187D+06                   685.5862     2.9808    28.1627
         INT.     0.1429D+07                  2014.9903    18.7301    36.9250
         TRA.     0.9738D+27                  1142.6437     4.9680    39.2154
         TOT.                       43.493    3157.6340    23.6981    76.1404

 240.00  VIB.     0.5100D+01                  1492.6971    16.9138     9.4571
         ROT.     0.3397D+06                   715.3943     2.9808    28.2896
         INT.     0.1732D+07                  2208.0915    19.8946    37.7467
         TRA.     0.1038D+28                  1192.3239     4.9680    39.4268
         TOT.                       43.736    3400.4154    24.8626    77.1735

 250.00  VIB.     0.5821D+01                  1667.7617    18.1030    10.1716
         ROT.     0.3612D+06                   745.2024     2.9808    28.4113
         INT.     0.2102D+07                  2412.9641    21.0838    38.5829
         TRA.     0.1103D+28                  1242.0041     4.9680    39.6296
         TOT.                       43.991    3654.9682    26.0518    78.2125

 260.00  VIB.     0.6671D+01                  1854.8263    19.3131    10.9051
         ROT.     0.3831D+06                   775.0105     2.9808    28.5282
         INT.     0.2555D+07                  2629.8368    22.2939    39.4333
         TRA.     0.1170D+28                  1291.6842     4.9680    39.8245
         TOT.                       44.257    3921.5210    27.2619    79.2578

 270.00  VIB.     0.7673D+01                  2054.0802    20.5402    11.6569
         ROT.     0.4054D+06                   804.8186     2.9808    28.6407
         INT.     0.3110D+07                  2858.8988    23.5210    40.2976
         TRA.     0.1239D+28                  1341.3644     4.9680    40.0120
         TOT.                       44.536    4200.2632    28.4890    80.3096

 280.00  VIB.     0.8858D+01                  2265.6731    21.7803    12.4263
         ROT.     0.4281D+06                   834.6267     2.9808    28.7491
         INT.     0.3792D+07                  3100.2998    24.7611    41.1754
         TRA.     0.1308D+28                  1391.0445     4.9680    40.1926
         TOT.                       44.827    4491.3444    29.7291    81.3680

 290.00  VIB.     0.1026D+02                  2489.7162    23.0296    13.2124
         ROT.     0.4512D+06                   864.4348     2.9808    28.8537
         INT.     0.4631D+07                  3354.1510    26.0104    42.0661
         TRA.     0.1379D+28                  1440.7247     4.9680    40.3670
         TOT.                       45.131    4794.8757    30.9784    82.4331

 300.00  VIB.     0.1193D+02                  2726.2828    24.2844    14.0143
         ROT.     0.4748D+06                   894.2429     2.9808    28.9548
         INT.     0.5665D+07                  3620.5257    27.2652    42.9690
         TRA.     0.1451D+28                  1490.4049     4.9680    40.5354
         TOT.                       45.447    5110.9306    32.2332    83.5044

 310.00  VIB.     0.1392D+02                  2975.4110    25.5413    14.8310
         ROT.     0.4987D+06                   924.0510     2.9808    29.0525
         INT.     0.6942D+07                  3899.4620    28.5221    43.8835
         TRA.     0.1524D+28                  1540.0850     4.9680    40.6983
         TOT.                       45.775    5439.5470    33.4901    84.5818

 320.00  VIB.     0.1629D+02                  3237.1054    26.7971    15.6618
         ROT.     0.5230D+06                   953.8591     2.9808    29.1471
         INT.     0.8522D+07                  4190.9645    29.7779    44.8089
         TRA.     0.1598D+28                  1589.7652     4.9680    40.8560
         TOT.                       46.116    5780.7297    34.7460    85.6649

 330.00  VIB.     0.1913D+02                  3511.3400    28.0489    16.5055
         ROT.     0.5477D+06                   983.6672     2.9808    29.2389
         INT.     0.1048D+08                  4495.0072    31.0297    45.7444
         TRA.     0.1674D+28                  1639.4454     4.9680    41.0089
         TOT.                       46.470    6134.4526    35.9977    86.7533

 340.00  VIB.     0.2254D+02                  3798.0608    29.2939    17.3614
         ROT.     0.5728D+06                  1013.4753     2.9808    29.3278
         INT.     0.1291D+08                  4811.5361    32.2747    46.6892
         TRA.     0.1750D+28                  1689.1255     4.9680    41.1572
         TOT.                       46.836    6500.6616    37.2428    87.8464

 350.00  VIB.     0.2663D+02                  4097.1883    30.5299    18.2284
         ROT.     0.5983D+06                  1043.2834     2.9808    29.4142
         INT.     0.1593D+08                  5140.4717    33.5107    47.6427
         TRA.     0.1828D+28                  1738.8057     4.9680    41.3012
         TOT.                       47.215    6879.2774    38.4787    88.9439

 360.00  VIB.     0.3156D+02                  4408.6209    31.7546    19.1057
         ROT.     0.6241D+06                  1073.0915     2.9808    29.4982
         INT.     0.1970D+08                  5481.7124    34.7354    48.6039
         TRA.     0.1907D+28                  1788.4859     4.9680    41.4412
         TOT.                       47.606    7270.1983    39.7034    90.0451

 370.00  VIB.     0.3750D+02                  4732.2370    32.9663    19.9923
         ROT.     0.6503D+06                  1102.8996     2.9808    29.5799
         INT.     0.2439D+08                  5835.1366    35.9471    49.5721
         TRA.     0.1987D+28                  1838.1660     4.9680    41.5773
         TOT.                       48.009    7673.3026    40.9151    91.1494

 380.00  VIB.     0.4469D+02                  5067.8977    34.1633    20.8873
         ROT.     0.6768D+06                  1132.7077     2.9808    29.6594
         INT.     0.3025D+08                  6200.6054    37.1441    50.5467
         TRA.     0.2068D+28                  1887.8462     4.9680    41.7098
         TOT.                       48.424    8088.4515    42.1121    92.2565

 390.00  VIB.     0.5339D+02                  5415.4495    35.3443    21.7901
         ROT.     0.7037D+06                  1162.5158     2.9808    29.7368
         INT.     0.3757D+08                  6577.9653    38.3251    51.5269
         TRA.     0.2150D+28                  1937.5263     4.9680    41.8388
         TOT.                       48.851    8515.4916    43.2931    93.3657

 400.00  VIB.     0.6394D+02                  5774.7264    36.5082    22.6996
         ROT.     0.7310D+06                  1192.3239     2.9808    29.8123
         INT.     0.4674D+08                  6967.0503    39.4890    52.5119
         TRA.     0.2233D+28                  1987.2065     4.9680    41.9646
         TOT.                       49.290    8954.2568    44.4570    94.4765

   *: NOTE: HEATS OF FORMATION ARE RELATIVE TO THE
            ELEMENTS IN THEIR STANDARD STATE AT 298K
              (=  Standard Enthalpy of Formation).

            Hvib:  Zero-point energy is not included.
                   frequencies of less than zero cm-1 are not included.
            Hrot = (3/2)RT
            Htra = (3/2)RT + pV = (5/2)RT

            Heat capacity is Cp, not Cv

          For more information, see: HTTP://OpenMOPAC.net/Manual/thermochemistry.html


           FORCE CONSTANT IN CARTESIAN COORDINATES (Millidynes/A)

    ATOM   CHEMICAL       X               Y               Z
   NUMBER   SYMBOL  FORCE CONSTANT  FORCE CONSTANT  FORCE CONSTANT

      1       C        9.332653        6.680080        9.176597
      2       C        9.337729        6.461144        9.979272
      3       C        4.423343       11.589000        8.905955
      4       C        9.448379        8.172465        7.770540
      5       C       13.819172        3.996013       10.726350
      6       C       11.077979        4.278185       12.760809
      7       C       12.598109        3.634985       10.712136
      8       C       12.059286        3.702919       11.231532
      9       C       12.160433        3.663369       10.787211
     10       C       12.103638        3.665993       10.738689
     11       H        2.048230        0.931912        3.530144
     12       H        2.129905        0.915938        3.423991
     13       H        0.527345        2.349541        3.763389
     14       H        0.528297        2.219536        3.893934
     15       H        1.943421        3.699990        0.741586
     16       H        1.971653        2.723670        1.650095
     17       H        3.640778        0.610099        2.028276
     18       H        0.814184        0.998747        4.462276
     19       H        3.631534        0.613772        2.030049
     20       H        4.419230        0.510850        1.341243

 **********************
 *                    *
 * JOB ENDED NORMALLY *
 *                    *
 **********************



 TOTAL JOB TIME:             1.69 SECONDS

 == MOPAC DONE ==
