 *******************************************************************************
 ** Site#: 14399        For non-commercial use only    Version 18.184L 64BITS **
 *******************************************************************************
 ** Cite this program as: MOPAC2016, Version: 18.184L, James J. P. Stewart,   **
 ** Stewart Computational Chemistry, web: HTTP://OpenMOPAC.net. Days left:  18**
 *******************************************************************************
 **                                                                           **
 **                                MOPAC2016                                  **
 **                                                                           **
 *******************************************************************************

                              PM3 CALCULATION RESULTS

 *******************************************************************************
 *  CALCULATION DONE:                                Sat Jun 15 10:30:04 2019  *
 *  PM3        - The PM3 Hamiltonian to be used
 *  PRECISE    - CRITERIA TO BE INCREASED BY 100 TIMES
 *  NOSYM      - POINT-GROUP SYMMETRY SET TO C1
 *  THREADS=1  - MULTI-THREADING NOT USED
 *  T=         - A TIME OF 172800.0 SECONDS REQUESTED
 *  DUMP=N     - RESTART FILE WRITTEN EVERY  7200.000 SECONDS
 *******************************************************************************
pm3  precise nosym THREADS=1
 InChI=1S/C7H12O4/c8-6-2-1-3-7(5-4-6)10-11-9/h4-9H,1-3H2

   ATOM   CHEMICAL          X               Y               Z
  NUMBER   SYMBOL      (ANGSTROMS)     (ANGSTROMS)     (ANGSTROMS)
 
     1       O          2.33470000  *  -0.29630000  *  -1.15810000  *
     2       O         -2.67890000  *   1.63600000  *   0.86190000  *
     3       O          3.14580000  *   0.68720000  *  -0.80590000  *
     4       O          4.14320000  *   0.09390000  *  -0.18090000  *
     5       C          0.36540000  *  -1.44310000  *  -0.43570000  *
     6       C         -0.68770000  *  -1.52530000  *   0.67910000  *
     7       C          1.13150000  *  -0.10860000  *  -0.44660000  *
     8       C         -1.88100000  *  -0.58240000  *   0.46810000  *
     9       C         -1.50770000  *   0.90290000  *   0.61180000  *
    10       C          0.31630000  *   0.97290000  *  -1.12020000  *
    11       C         -0.85670000  *   1.42340000  *  -0.64860000  *
    12       H         -1.07580000  *  -2.56680000  *   0.70650000  *
    13       H         -0.21600000  *  -1.33150000  *   1.66750000  *
    14       H          1.09430000  *  -2.26510000  *  -0.26130000  *
    15       H         -0.10640000  *  -1.63250000  *  -1.42560000  *
    16       H          1.35260000  *   0.18770000  *   0.60670000  *
    17       H         -2.63940000  *  -0.83140000  *   1.24280000  *
    18       H         -2.35240000  *  -0.77380000  *  -0.52160000  *
    19       H         -0.81040000  *   1.03000000  *   1.47290000  *
    20       H          0.70220000  *   1.41780000  *  -2.03360000  *
    21       H         -1.36030000  *   2.21030000  *  -1.20370000  *
    22       H         -2.39610000  *   2.52070000  *   1.21420000  *
    23       H          3.98290000  *   0.27410000  *   0.78060000  *
 


          CARTESIAN COORDINATES 

    NO.       ATOM           X           Y           Z

     1         O          2.3347     -0.2963     -1.1581
     2         O         -2.6789      1.6360      0.8619
     3         O          3.1458      0.6872     -0.8059
     4         O          4.1432      0.0939     -0.1809
     5         C          0.3654     -1.4431     -0.4357
     6         C         -0.6877     -1.5253      0.6791
     7         C          1.1315     -0.1086     -0.4466
     8         C         -1.8810     -0.5824      0.4681
     9         C         -1.5077      0.9029      0.6118
    10         C          0.3163      0.9729     -1.1202
    11         C         -0.8567      1.4234     -0.6486
    12         H         -1.0758     -2.5668      0.7065
    13         H         -0.2160     -1.3315      1.6675
    14         H          1.0943     -2.2651     -0.2613
    15         H         -0.1064     -1.6325     -1.4256
    16         H          1.3526      0.1877      0.6067
    17         H         -2.6394     -0.8314      1.2428
    18         H         -2.3524     -0.7738     -0.5216
    19         H         -0.8104      1.0300      1.4729
    20         H          0.7022      1.4178     -2.0336
    21         H         -1.3603      2.2103     -1.2037
    22         H         -2.3961      2.5207      1.2142
    23         H          3.9829      0.2741      0.7806

  H: (PM3): J. J. P. STEWART, J. COMP. CHEM. 10, 209 (1989).
  C: (PM3): J. J. P. STEWART, J. COMP. CHEM. 10, 209 (1989).
  O: (PM3): J. J. P. STEWART, J. COMP. CHEM. 10, 209 (1989).

           Empirical Formula: C7 H12 O4  =    23 atoms



      MOLECULAR POINT GROUP   :   C1  


      RHF CALCULATION, NO. OF DOUBLY OCCUPIED LEVELS = 32


          Geometry optimization using EF

          DIAGONAL MATRIX USED AS START HESSIAN

 CYCLE:     1 TIME:   0.008 TIME LEFT:  2.00D  GRAD.:   197.923 HEAT: -39.81424
 CYCLE:     2 TIME:   0.008 TIME LEFT:  2.00D  GRAD.:   229.747 HEAT: -43.04594
 CYCLE:     3 TIME:   0.008 TIME LEFT:  2.00D  GRAD.:    74.289 HEAT: -50.38083
 CYCLE:     4 TIME:   0.012 TIME LEFT:  2.00D  GRAD.:    67.948 HEAT: -51.62163
 CYCLE:     5 TIME:   0.004 TIME LEFT:  2.00D  GRAD.:    60.124 HEAT: -51.92020
 CYCLE:     6 TIME:   0.008 TIME LEFT:  2.00D  GRAD.:    61.157 HEAT: -52.24589
 CYCLE:     7 TIME:   0.008 TIME LEFT:  2.00D  GRAD.:    28.148 HEAT: -53.02202
 CYCLE:     8 TIME:   0.012 TIME LEFT:  2.00D  GRAD.:    25.725 HEAT: -53.18195
 CYCLE:     9 TIME:   0.004 TIME LEFT:  2.00D  GRAD.:    33.170 HEAT: -53.20482
 CYCLE:    10 TIME:   0.004 TIME LEFT:  2.00D  GRAD.:    25.914 HEAT: -53.32236
 CYCLE:    11 TIME:   0.008 TIME LEFT:  2.00D  GRAD.:    26.361 HEAT: -53.37576
 CYCLE:    12 TIME:   0.004 TIME LEFT:  2.00D  GRAD.:    25.009 HEAT: -53.43792
 CYCLE:    13 TIME:   0.004 TIME LEFT:  2.00D  GRAD.:    23.931 HEAT: -53.49380
 CYCLE:    14 TIME:   0.008 TIME LEFT:  2.00D  GRAD.:    24.840 HEAT: -53.51205
 CYCLE:    15 TIME:   0.004 TIME LEFT:  2.00D  GRAD.:    21.635 HEAT: -53.57074
 CYCLE:    16 TIME:   0.012 TIME LEFT:  2.00D  GRAD.:     7.993 HEAT: -53.70154
 CYCLE:    17 TIME:   0.008 TIME LEFT:  2.00D  GRAD.:     6.633 HEAT: -53.72108
 CYCLE:    18 TIME:   0.008 TIME LEFT:  2.00D  GRAD.:     4.672 HEAT: -53.74758
 CYCLE:    19 TIME:   0.004 TIME LEFT:  2.00D  GRAD.:    10.151 HEAT: -53.76116
 CYCLE:    20 TIME:   0.004 TIME LEFT:  2.00D  GRAD.:     8.081 HEAT: -53.79866
 CYCLE:    21 TIME:   0.008 TIME LEFT:  2.00D  GRAD.:    10.549 HEAT: -53.81315
 CYCLE:    22 TIME:   0.004 TIME LEFT:  2.00D  GRAD.:     6.985 HEAT: -53.84898
 CYCLE:    23 TIME:   0.012 TIME LEFT:  2.00D  GRAD.:     8.196 HEAT: -53.85033
 CYCLE:    24 TIME:   0.004 TIME LEFT:  2.00D  GRAD.:     3.262 HEAT: -53.87622
 CYCLE:    25 TIME:   0.004 TIME LEFT:  2.00D  GRAD.:     4.550 HEAT: -53.88579
 CYCLE:    26 TIME:   0.004 TIME LEFT:  2.00D  GRAD.:     3.520 HEAT: -53.90123
 CYCLE:    27 TIME:   0.008 TIME LEFT:  2.00D  GRAD.:     3.231 HEAT: -53.91670
 CYCLE:    28 TIME:   0.004 TIME LEFT:  2.00D  GRAD.:     2.543 HEAT: -53.93242
 CYCLE:    29 TIME:   0.004 TIME LEFT:  2.00D  GRAD.:     3.425 HEAT: -53.94592
 CYCLE:    30 TIME:   0.008 TIME LEFT:  2.00D  GRAD.:     4.177 HEAT: -53.95458
 CYCLE:    31 TIME:   0.004 TIME LEFT:  2.00D  GRAD.:     2.280 HEAT: -53.96415
 CYCLE:    32 TIME:   0.008 TIME LEFT:  2.00D  GRAD.:     2.852 HEAT: -53.96935
 CYCLE:    33 TIME:   0.004 TIME LEFT:  2.00D  GRAD.:     1.989 HEAT: -53.97384
 CYCLE:    34 TIME:   0.004 TIME LEFT:  2.00D  GRAD.:     2.025 HEAT: -53.97838
 CYCLE:    35 TIME:   0.008 TIME LEFT:  2.00D  GRAD.:     2.510 HEAT: -53.98641
 CYCLE:    36 TIME:   0.004 TIME LEFT:  2.00D  GRAD.:     2.653 HEAT: -53.99621
 CYCLE:    37 TIME:   0.004 TIME LEFT:  2.00D  GRAD.:     3.430 HEAT: -54.00363
 CYCLE:    38 TIME:   0.008 TIME LEFT:  2.00D  GRAD.:     2.998 HEAT: -54.01448
 CYCLE:    39 TIME:   0.004 TIME LEFT:  2.00D  GRAD.:     2.646 HEAT: -54.02601
 CYCLE:    40 TIME:   0.008 TIME LEFT:  2.00D  GRAD.:     2.554 HEAT: -54.04045
 CYCLE:    41 TIME:   0.004 TIME LEFT:  2.00D  GRAD.:     2.413 HEAT: -54.04606
 CYCLE:    42 TIME:   0.008 TIME LEFT:  2.00D  GRAD.:     2.169 HEAT: -54.05579
 CYCLE:    43 TIME:   0.004 TIME LEFT:  2.00D  GRAD.:     2.555 HEAT: -54.07593
 CYCLE:    44 TIME:   0.004 TIME LEFT:  2.00D  GRAD.:     2.598 HEAT: -54.08540
 CYCLE:    45 TIME:   0.008 TIME LEFT:  2.00D  GRAD.:     2.767 HEAT: -54.10185
 CYCLE:    46 TIME:   0.004 TIME LEFT:  2.00D  GRAD.:     2.685 HEAT: -54.12354
 CYCLE:    47 TIME:   0.004 TIME LEFT:  2.00D  GRAD.:     2.882 HEAT: -54.13705
 CYCLE:    48 TIME:   0.008 TIME LEFT:  2.00D  GRAD.:     3.569 HEAT: -54.15057
 CYCLE:    49 TIME:   0.004 TIME LEFT:  2.00D  GRAD.:     7.865 HEAT: -54.15670
 CYCLE:    50 TIME:   0.008 TIME LEFT:  2.00D  GRAD.:     3.156 HEAT: -54.18778
 CYCLE:    51 TIME:   0.004 TIME LEFT:  2.00D  GRAD.:     2.757 HEAT: -54.21666
 CYCLE:    52 TIME:   0.008 TIME LEFT:  2.00D  GRAD.:     6.780 HEAT: -54.25260
 CYCLE:    53 TIME:   0.004 TIME LEFT:  2.00D  GRAD.:     4.335 HEAT: -54.27042
 CYCLE:    54 TIME:   0.008 TIME LEFT:  2.00D  GRAD.:     4.728 HEAT: -54.30276
 CYCLE:    55 TIME:   0.004 TIME LEFT:  2.00D  GRAD.:     4.289 HEAT: -54.32885
 CYCLE:    56 TIME:   0.008 TIME LEFT:  2.00D  GRAD.:     6.864 HEAT: -54.35021
 CYCLE:    57 TIME:   0.008 TIME LEFT:  2.00D  GRAD.:     4.323 HEAT: -54.38217
 CYCLE:    58 TIME:   0.004 TIME LEFT:  2.00D  GRAD.:     4.282 HEAT: -54.41220
 CYCLE:    59 TIME:   0.004 TIME LEFT:  2.00D  GRAD.:     4.987 HEAT: -54.44860
 CYCLE:    60 TIME:   0.008 TIME LEFT:  2.00D  GRAD.:     4.118 HEAT: -54.46494
 CYCLE:    61 TIME:   0.004 TIME LEFT:  2.00D  GRAD.:    10.998 HEAT: -54.46984
 CYCLE:    62 TIME:   0.008 TIME LEFT:  2.00D  GRAD.:     3.614 HEAT: -54.50163
 CYCLE:    63 TIME:   0.004 TIME LEFT:  2.00D  GRAD.:     2.761 HEAT: -54.51844
 CYCLE:    64 TIME:   0.004 TIME LEFT:  2.00D  GRAD.:     9.270 HEAT: -54.54853
 CYCLE:    65 TIME:   0.008 TIME LEFT:  2.00D  GRAD.:     2.506 HEAT: -54.56683
 CYCLE:    66 TIME:   0.004 TIME LEFT:  2.00D  GRAD.:     2.413 HEAT: -54.57974
 CYCLE:    67 TIME:   0.004 TIME LEFT:  2.00D  GRAD.:     7.976 HEAT: -54.60925
 CYCLE:    68 TIME:   0.008 TIME LEFT:  2.00D  GRAD.:     2.816 HEAT: -54.62384
 CYCLE:    69 TIME:   0.004 TIME LEFT:  2.00D  GRAD.:     2.194 HEAT: -54.63631
 CYCLE:    70 TIME:   0.008 TIME LEFT:  2.00D  GRAD.:     4.114 HEAT: -54.65345
 CYCLE:    71 TIME:   0.004 TIME LEFT:  2.00D  GRAD.:     2.522 HEAT: -54.66456
 CYCLE:    72 TIME:   0.004 TIME LEFT:  2.00D  GRAD.:     2.568 HEAT: -54.67823
 CYCLE:    73 TIME:   0.008 TIME LEFT:  2.00D  GRAD.:     2.463 HEAT: -54.69437
 CYCLE:    74 TIME:   0.004 TIME LEFT:  2.00D  GRAD.:     3.693 HEAT: -54.70168
 CYCLE:    75 TIME:   0.004 TIME LEFT:  2.00D  GRAD.:     2.101 HEAT: -54.71520
 CYCLE:    76 TIME:   0.008 TIME LEFT:  2.00D  GRAD.:     2.412 HEAT: -54.71979
 CYCLE:    77 TIME:   0.004 TIME LEFT:  2.00D  GRAD.:     2.332 HEAT: -54.72506
 CYCLE:    78 TIME:   0.008 TIME LEFT:  2.00D  GRAD.:     2.529 HEAT: -54.73354
 CYCLE:    79 TIME:   0.004 TIME LEFT:  2.00D  GRAD.:     2.113 HEAT: -54.73995
 CYCLE:    80 TIME:   0.004 TIME LEFT:  2.00D  GRAD.:     2.721 HEAT: -54.75318
 CYCLE:    81 TIME:   0.008 TIME LEFT:  2.00D  GRAD.:     3.953 HEAT: -54.75467
 CYCLE:    82 TIME:   0.004 TIME LEFT:  2.00D  GRAD.:     2.554 HEAT: -54.76717
 CYCLE:    83 TIME:   0.004 TIME LEFT:  2.00D  GRAD.:     7.299 HEAT: -54.77624
 CYCLE:    84 TIME:   0.008 TIME LEFT:  2.00D  GRAD.:     2.749 HEAT: -54.79042
 CYCLE:    85 TIME:   0.004 TIME LEFT:  2.00D  GRAD.:     1.694 HEAT: -54.80299
 CYCLE:    86 TIME:   0.008 TIME LEFT:  2.00D  GRAD.:     1.876 HEAT: -54.81774
 CYCLE:    87 TIME:   0.004 TIME LEFT:  2.00D  GRAD.:     2.135 HEAT: -54.82379
 CYCLE:    88 TIME:   0.008 TIME LEFT:  2.00D  GRAD.:     1.222 HEAT: -54.82753
 CYCLE:    89 TIME:   0.004 TIME LEFT:  2.00D  GRAD.:     1.910 HEAT: -54.83273
 CYCLE:    90 TIME:   0.004 TIME LEFT:  2.00D  GRAD.:     1.647 HEAT: -54.83979
 CYCLE:    91 TIME:   0.008 TIME LEFT:  2.00D  GRAD.:     2.330 HEAT: -54.84512
 CYCLE:    92 TIME:   0.004 TIME LEFT:  2.00D  GRAD.:     1.262 HEAT: -54.85135
 CYCLE:    93 TIME:   0.008 TIME LEFT:  2.00D  GRAD.:     3.035 HEAT: -54.85443
 CYCLE:    94 TIME:   0.004 TIME LEFT:  2.00D  GRAD.:     1.523 HEAT: -54.85778
 CYCLE:    95 TIME:   0.004 TIME LEFT:  2.00D  GRAD.:     1.119 HEAT: -54.85990
 CYCLE:    96 TIME:   0.008 TIME LEFT:  2.00D  GRAD.:     1.206 HEAT: -54.86405
 CYCLE:    97 TIME:   0.004 TIME LEFT:  2.00D  GRAD.:     1.017 HEAT: -54.86585
 CYCLE:    98 TIME:   0.004 TIME LEFT:  2.00D  GRAD.:     1.213 HEAT: -54.87009
 CYCLE:    99 TIME:   0.008 TIME LEFT:  2.00D  GRAD.:     1.198 HEAT: -54.87184
 CYCLE:   100 TIME:   0.004 TIME LEFT:  2.00D  GRAD.:     2.037 HEAT: -54.87918
 CYCLE:   101 TIME:   0.008 TIME LEFT:  2.00D  GRAD.:     1.282 HEAT: -54.88277
 CYCLE:   102 TIME:   0.004 TIME LEFT:  2.00D  GRAD.:     1.261 HEAT: -54.88627
 CYCLE:   103 TIME:   0.008 TIME LEFT:  2.00D  GRAD.:     1.252 HEAT: -54.88939
 CYCLE:   104 TIME:   0.004 TIME LEFT:  2.00D  GRAD.:     1.257 HEAT: -54.89150
 CYCLE:   105 TIME:   0.004 TIME LEFT:  2.00D  GRAD.:     1.122 HEAT: -54.89539
 CYCLE:   106 TIME:   0.008 TIME LEFT:  2.00D  GRAD.:     2.455 HEAT: -54.89640
 CYCLE:   107 TIME:   0.004 TIME LEFT:  2.00D  GRAD.:     1.081 HEAT: -54.89956
 CYCLE:   108 TIME:   0.008 TIME LEFT:  2.00D  GRAD.:     0.754 HEAT: -54.90196
 CYCLE:   109 TIME:   0.004 TIME LEFT:  2.00D  GRAD.:     1.138 HEAT: -54.90509
 CYCLE:   110 TIME:   0.004 TIME LEFT:  2.00D  GRAD.:     0.995 HEAT: -54.90750
 CYCLE:   111 TIME:   0.008 TIME LEFT:  2.00D  GRAD.:     0.525 HEAT: -54.90905
 CYCLE:   112 TIME:   0.004 TIME LEFT:  2.00D  GRAD.:     0.738 HEAT: -54.90945
 CYCLE:   113 TIME:   0.008 TIME LEFT:  2.00D  GRAD.:     0.747 HEAT: -54.90981
 CYCLE:   114 TIME:   0.004 TIME LEFT:  2.00D  GRAD.:     0.434 HEAT: -54.91039
 CYCLE:   115 TIME:   0.008 TIME LEFT:  2.00D  GRAD.:     0.577 HEAT: -54.91088
 CYCLE:   116 TIME:   0.004 TIME LEFT:  2.00D  GRAD.:     0.662 HEAT: -54.91150
 CYCLE:   117 TIME:   0.004 TIME LEFT:  2.00D  GRAD.:     0.461 HEAT: -54.91196
 CYCLE:   118 TIME:   0.008 TIME LEFT:  2.00D  GRAD.:     0.366 HEAT: -54.91220
 CYCLE:   119 TIME:   0.004 TIME LEFT:  2.00D  GRAD.:     0.366 HEAT: -54.91270
 CYCLE:   120 TIME:   0.004 TIME LEFT:  2.00D  GRAD.:     0.309 HEAT: -54.91292
 CYCLE:   121 TIME:   0.008 TIME LEFT:  2.00D  GRAD.:     0.449 HEAT: -54.91348
 CYCLE:   122 TIME:   0.004 TIME LEFT:  2.00D  GRAD.:     0.522 HEAT: -54.91370
 CYCLE:   123 TIME:   0.008 TIME LEFT:  2.00D  GRAD.:     0.738 HEAT: -54.91439
 CYCLE:   124 TIME:   0.004 TIME LEFT:  2.00D  GRAD.:     0.411 HEAT: -54.91470
 CYCLE:   125 TIME:   0.004 TIME LEFT:  2.00D  GRAD.:     0.324 HEAT: -54.91517
 CYCLE:   126 TIME:   0.008 TIME LEFT:  2.00D  GRAD.:     0.330 HEAT: -54.91542
 CYCLE:   127 TIME:   0.004 TIME LEFT:  2.00D  GRAD.:     0.483 HEAT: -54.91609
 CYCLE:   128 TIME:   0.004 TIME LEFT:  2.00D  GRAD.:     0.526 HEAT: -54.91644
 CYCLE:   129 TIME:   0.008 TIME LEFT:  2.00D  GRAD.:     0.516 HEAT: -54.91696
 CYCLE:   130 TIME:   0.004 TIME LEFT:  2.00D  GRAD.:     0.652 HEAT: -54.91734
 CYCLE:   131 TIME:   0.008 TIME LEFT:  2.00D  GRAD.:     0.814 HEAT: -54.91802
 CYCLE:   132 TIME:   0.004 TIME LEFT:  2.00D  GRAD.:     0.652 HEAT: -54.91867
 CYCLE:   133 TIME:   0.008 TIME LEFT:  2.00D  GRAD.:     0.708 HEAT: -54.91968
 CYCLE:   134 TIME:   0.004 TIME LEFT:  2.00D  GRAD.:     0.851 HEAT: -54.92037
 CYCLE:   135 TIME:   0.004 TIME LEFT:  2.00D  GRAD.:     1.724 HEAT: -54.92015
 CYCLE:   136 TIME:   0.008 TIME LEFT:  2.00D  GRAD.:     0.373 HEAT: -54.92120
 CYCLE:   137 TIME:   0.004 TIME LEFT:  2.00D  GRAD.:     0.233 HEAT: -54.92137
 CYCLE:   138 TIME:   0.008 TIME LEFT:  2.00D  GRAD.:     0.437 HEAT: -54.92157
 CYCLE:   139 TIME:   0.004 TIME LEFT:  2.00D  GRAD.:     0.253 HEAT: -54.92161
 CYCLE:   140 TIME:   0.004 TIME LEFT:  2.00D  GRAD.:     0.138 HEAT: -54.92166
 CYCLE:   141 TIME:   0.008 TIME LEFT:  2.00D  GRAD.:     0.131 HEAT: -54.92167
 CYCLE:   142 TIME:   0.004 TIME LEFT:  2.00D  GRAD.:     0.445 HEAT: -54.92160
 CYCLE:   143 TIME:   0.004 TIME LEFT:  2.00D  GRAD.:     0.175 HEAT: -54.92172
 CYCLE:   144 TIME:   0.008 TIME LEFT:  2.00D  GRAD.:     0.148 HEAT: -54.92175
 CYCLE:   145 TIME:   0.004 TIME LEFT:  2.00D  GRAD.:     0.270 HEAT: -54.92173
 CYCLE:   146 TIME:   0.008 TIME LEFT:  2.00D  GRAD.:     0.115 HEAT: -54.92183
 CYCLE:   147 TIME:   0.004 TIME LEFT:  2.00D  GRAD.:     0.127 HEAT: -54.92184
 CYCLE:   148 TIME:   0.004 TIME LEFT:  2.00D  GRAD.:     0.218 HEAT: -54.92190
 CYCLE:   149 TIME:   0.008 TIME LEFT:  2.00D  GRAD.:     0.180 HEAT: -54.92194
 CYCLE:   150 TIME:   0.004 TIME LEFT:  2.00D  GRAD.:     0.193 HEAT: -54.92208
 CYCLE:   151 TIME:   0.004 TIME LEFT:  2.00D  GRAD.:     0.177 HEAT: -54.92217
 CYCLE:   152 TIME:   0.008 TIME LEFT:  2.00D  GRAD.:     0.453 HEAT: -54.92249
 CYCLE:   153 TIME:   0.004 TIME LEFT:  2.00D  GRAD.:     0.157 HEAT: -54.92262
 CYCLE:   154 TIME:   0.008 TIME LEFT:  2.00D  GRAD.:     0.186 HEAT: -54.92268
 CYCLE:   155 TIME:   0.004 TIME LEFT:  2.00D  GRAD.:     0.495 HEAT: -54.92281
 CYCLE:   156 TIME:   0.004 TIME LEFT:  2.00D  GRAD.:     0.483 HEAT: -54.92289
 CYCLE:   157 TIME:   0.008 TIME LEFT:  2.00D  GRAD.:     0.370 HEAT: -54.92305
 CYCLE:   158 TIME:   0.004 TIME LEFT:  2.00D  GRAD.:     0.148 HEAT: -54.92320
 CYCLE:   159 TIME:   0.008 TIME LEFT:  2.00D  GRAD.:     0.164 HEAT: -54.92337
 CYCLE:   160 TIME:   0.004 TIME LEFT:  2.00D  GRAD.:     1.059 HEAT: -54.92357
 CYCLE:   161 TIME:   0.008 TIME LEFT:  2.00D  GRAD.:     0.275 HEAT: -54.92395
 CYCLE:   162 TIME:   0.004 TIME LEFT:  2.00D  GRAD.:     0.327 HEAT: -54.92439
 CYCLE:   163 TIME:   0.016 TIME LEFT:  2.00D  GRAD.:     2.585 HEAT: -54.92388
 CYCLE:   164 TIME:   0.004 TIME LEFT:  2.00D  GRAD.:     0.390 HEAT: -54.92505
 CYCLE:   165 TIME:   0.008 TIME LEFT:  2.00D  GRAD.:     0.177 HEAT: -54.92540
 CYCLE:   166 TIME:   0.004 TIME LEFT:  2.00D  GRAD.:     1.280 HEAT: -54.92569
 CYCLE:   167 TIME:   0.008 TIME LEFT:  2.00D  GRAD.:     0.616 HEAT: -54.92597
 CYCLE:   168 TIME:   0.004 TIME LEFT:  2.00D  GRAD.:     0.445 HEAT: -54.92651
 CYCLE:   169 TIME:   0.004 TIME LEFT:  2.00D  GRAD.:     5.201 HEAT: -54.92105
 CYCLE:   170 TIME:   0.031 TIME LEFT:  2.00D  GRAD.:     6.581 HEAT: -54.91656
 CYCLE:   171 TIME:   0.004 TIME LEFT:  2.00D  GRAD.:     1.576 HEAT: -54.92805
 CYCLE:   172 TIME:   0.004 TIME LEFT:  2.00D  GRAD.:     1.031 HEAT: -54.92939
 CYCLE:   173 TIME:   0.008 TIME LEFT:  2.00D  GRAD.:     0.700 HEAT: -54.93029
 CYCLE:   174 TIME:   0.004 TIME LEFT:  2.00D  GRAD.:     0.955 HEAT: -54.93198
 CYCLE:   175 TIME:   0.012 TIME LEFT:  2.00D  GRAD.:     2.260 HEAT: -54.93394
 CYCLE:   176 TIME:   0.004 TIME LEFT:  2.00D  GRAD.:     2.128 HEAT: -54.93401
 CYCLE:   177 TIME:   0.008 TIME LEFT:  2.00D  GRAD.:     2.204 HEAT: -54.93656
 CYCLE:   178 TIME:   0.004 TIME LEFT:  2.00D  GRAD.:     0.825 HEAT: -54.93724
 CYCLE:   179 TIME:   0.004 TIME LEFT:  2.00D  GRAD.:     0.938 HEAT: -54.93887
 CYCLE:   180 TIME:   0.008 TIME LEFT:  2.00D  GRAD.:     2.671 HEAT: -54.93967
 CYCLE:   181 TIME:   0.004 TIME LEFT:  2.00D  GRAD.:     0.845 HEAT: -54.94128
 CYCLE:   182 TIME:   0.008 TIME LEFT:  2.00D  GRAD.:     0.586 HEAT: -54.94293
 CYCLE:   183 TIME:   0.004 TIME LEFT:  2.00D  GRAD.:     6.495 HEAT: -54.93678
 CYCLE:   184 TIME:   0.008 TIME LEFT:  2.00D  GRAD.:     0.689 HEAT: -54.94550
 CYCLE:   185 TIME:   0.004 TIME LEFT:  2.00D  GRAD.:     0.290 HEAT: -54.94725
 CYCLE:   186 TIME:   0.008 TIME LEFT:  2.00D  GRAD.:     3.794 HEAT: -54.94747
 CYCLE:   187 TIME:   0.004 TIME LEFT:  2.00D  GRAD.:     0.436 HEAT: -54.94952
 CYCLE:   188 TIME:   0.004 TIME LEFT:  2.00D  GRAD.:     0.805 HEAT: -54.95084
 CYCLE:   189 TIME:   0.008 TIME LEFT:  2.00D  GRAD.:     3.282 HEAT: -54.95138
 CYCLE:   190 TIME:   0.004 TIME LEFT:  2.00D  GRAD.:     1.553 HEAT: -54.94995
 CYCLE:   191 TIME:   0.008 TIME LEFT:  2.00D  GRAD.:     0.264 HEAT: -54.95333
 CYCLE:   192 TIME:   0.004 TIME LEFT:  2.00D  GRAD.:     5.597 HEAT: -54.94742
 CYCLE:   193 TIME:   0.008 TIME LEFT:  2.00D  GRAD.:     0.193 HEAT: -54.95431
 CYCLE:   194 TIME:   0.004 TIME LEFT:  2.00D  GRAD.:     0.561 HEAT: -54.95510
 CYCLE:   195 TIME:   0.004 TIME LEFT:  2.00D  GRAD.:     0.884 HEAT: -54.95591
 CYCLE:   196 TIME:   0.008 TIME LEFT:  2.00D  GRAD.:     3.184 HEAT: -54.95553
 CYCLE:   197 TIME:   0.004 TIME LEFT:  2.00D  GRAD.:     0.983 HEAT: -54.95509
 CYCLE:   198 TIME:   0.008 TIME LEFT:  2.00D  GRAD.:     0.307 HEAT: -54.95676
 CYCLE:   199 TIME:   0.008 TIME LEFT:  2.00D  GRAD.:     3.398 HEAT: -54.95550
 CYCLE:   200 TIME:   0.008 TIME LEFT:  2.00D  GRAD.:     0.254 HEAT: -54.95765
 CYCLE:   201 TIME:   0.004 TIME LEFT:  2.00D  GRAD.:     0.634 HEAT: -54.95811
 CYCLE:   202 TIME:   0.008 TIME LEFT:  2.00D  GRAD.:     0.802 HEAT: -54.95842
 CYCLE:   203 TIME:   0.004 TIME LEFT:  2.00D  GRAD.:     1.451 HEAT: -54.95870
 CYCLE:   204 TIME:   0.004 TIME LEFT:  2.00D  GRAD.:     0.577 HEAT: -54.95887
 CYCLE:   205 TIME:   0.008 TIME LEFT:  2.00D  GRAD.:     0.265 HEAT: -54.95935
 CYCLE:   206 TIME:   0.004 TIME LEFT:  2.00D  GRAD.:     0.178 HEAT: -54.95944
 CYCLE:   207 TIME:   0.008 TIME LEFT:  2.00D  GRAD.:     0.947 HEAT: -54.95915
 CYCLE:   208 TIME:   0.004 TIME LEFT:  2.00D  GRAD.:     0.148 HEAT: -54.95959
 CYCLE:   209 TIME:   0.008 TIME LEFT:  2.00D  GRAD.:     0.097 HEAT: -54.95965
 CYCLE:   210 TIME:   0.004 TIME LEFT:  2.00D  GRAD.:     0.110 HEAT: -54.95972
 CYCLE:   211 TIME:   0.004 TIME LEFT:  2.00D  GRAD.:     0.054 HEAT: -54.95973
 CYCLE:   212 TIME:   0.008 TIME LEFT:  2.00D  GRAD.:     0.220 HEAT: -54.95973
 CYCLE:   213 TIME:   0.004 TIME LEFT:  2.00D  GRAD.:     0.092 HEAT: -54.95975
 CYCLE:   214 TIME:   0.008 TIME LEFT:  2.00D  GRAD.:     0.017 HEAT: -54.95976

     GRADIENT =  0.01727  IS LESS THAN CUTOFF =  0.05000



 -------------------------------------------------------------------------------
 pm3  precise nosym THREADS=1
 InChI=1S/C7H12O4/c8-6-2-1-3-7(5-4-6)10-11-9/h4-9H,1-3H2



     GEOMETRY OPTIMISED USING EIGENVECTOR FOLLOWING (EF).     
     SCF FIELD WAS ACHIEVED                                   


                              PM3 CALCULATION
                                                       MOPAC2016 (Version: 18.184L)
                                                       Sat Jun 15 10:30:05 2019
                                                       No. of days remaining =  18




          FINAL HEAT OF FORMATION =        -54.95976 KCAL/MOL =    -229.95162 KJ/MOL


          TOTAL ENERGY            =      -2184.55806 EV
          ELECTRONIC ENERGY       =     -10966.15574 EV  POINT GROUP:     C1  
          CORE-CORE REPULSION     =       8781.59768 EV
          COSMO AREA              =        187.00 SQUARE ANGSTROMS
          COSMO VOLUME            =        191.44 CUBIC ANGSTROMS

          GRADIENT NORM           =          0.01727 = 0.00360 PER ATOM
          IONIZATION POTENTIAL    =         10.100356 EV
          HOMO LUMO ENERGIES (EV) =        -10.100  0.684
          NO. OF FILLED LEVELS    =         32
          MOLECULAR WEIGHT        =        160.1694

          MOLECULAR DIMENSIONS (Angstroms)

            Atom       Atom       Distance
            H    23    H    17     8.02336
            H    22    H    14     5.39959
            H    21    H    13     2.84642


          SCF CALCULATIONS        =        232
 
          WALL-CLOCK TIME         =          1.258 SECONDS
          COMPUTATION TIME        =          1.175 SECONDS




   ATOM   CHEMICAL          X               Y               Z
  NUMBER   SYMBOL      (ANGSTROMS)     (ANGSTROMS)     (ANGSTROMS)
 
     1       O          2.39893512  *  -0.55166003  *  -0.65058327  *
     2       O         -2.76330477  *   1.68101299  *   0.61595489  *
     3       O          3.43106666  *   0.36313484  *  -0.02550010  *
     4       O          3.99865602  *   0.85656929  *  -1.19081569  *
     5       C          0.29423961  *  -1.52192395  *  -0.22250851  *
     6       C         -0.89536223  *  -1.51201834  *   0.72448200  *
     7       C          1.12000490  *  -0.22312893  *  -0.12850011  *
     8       C         -1.99205177  *  -0.53824736  *   0.32424900  *
     9       C         -1.56687954  *   0.92801706  *   0.50990645  *
    10       C          0.48499604  *   0.88469092  *  -0.92002217  *
    11       C         -0.71234183  *   1.39683853  *  -0.63492632  *
    12       H         -1.32531912  *  -2.53333560  *   0.75732787  *
    13       H         -0.55670139  *  -1.30099042  *   1.75978990  *
    14       H          0.93509374  *  -2.39478053  *   0.01823966  *
    15       H         -0.04787071  *  -1.67740755  *  -1.26494959  *
    16       H          1.21331676  *   0.09260493  *   0.94236616  *
    17       H         -2.89432113  *  -0.74371929  *   0.93611680  *
    18       H         -2.29784668  *  -0.71340634  *  -0.72622119  *
    19       H         -0.99480076  *   1.04157224  *   1.46696962  *
    20       H          1.06281428  *   1.27181535  *  -1.76946830  *
    21       H         -1.12344465  *   2.19752852  *  -1.26346436  *
    22       H         -2.50756334  *   2.59069897  *   0.68843618  *
    23       H          4.74069735  *   0.27818657  *  -1.30808560  *

                             CARTESIAN COORDINATES

   1    O        2.398935121    -0.551660033    -0.650583266
   2    O       -2.763304771     1.681012985     0.615954887
   3    O        3.431066662     0.363134841    -0.025500096
   4    O        3.998656021     0.856569290    -1.190815685
   5    C        0.294239611    -1.521923948    -0.222508508
   6    C       -0.895362232    -1.512018343     0.724481999
   7    C        1.120004904    -0.223128934    -0.128500108
   8    C       -1.992051768    -0.538247362     0.324249001
   9    C       -1.566879543     0.928017060     0.509906449
  10    C        0.484996036     0.884690916    -0.920022172
  11    C       -0.712341829     1.396838530    -0.634926320
  12    H       -1.325319120    -2.533335604     0.757327866
  13    H       -0.556701388    -1.300990421     1.759789899
  14    H        0.935093738    -2.394780532     0.018239663
  15    H       -0.047870710    -1.677407546    -1.264949591
  16    H        1.213316756     0.092604928     0.942366164
  17    H       -2.894321134    -0.743719288     0.936116797
  18    H       -2.297846677    -0.713406336    -0.726221187
  19    H       -0.994800761     1.041572242     1.466969617
  20    H        1.062814277     1.271815350    -1.769468299
  21    H       -1.123444646     2.197528517    -1.263464355
  22    H       -2.507563343     2.590698967     0.688436182
  23    H        4.740697351     0.278186571    -1.308085600


           Empirical Formula: C7 H12 O4  =    23 atoms



      MOLECULAR POINT GROUP   :   C1  


                  EIGENVALUES  
 -41.52549 -37.27270 -36.01806 -34.13803 -31.76176 -31.19608 -28.92278 -23.56167
 -23.20485 -20.77393 -19.10363 -18.79207 -18.25155 -17.87528 -17.23769 -16.86997
 -16.23963 -15.41943 -15.22497 -14.74174 -14.67804 -13.78303 -13.57877 -13.06474
 -12.72378 -12.37216 -12.30726 -12.13805 -11.97940 -11.46200 -11.03538 -10.10036
   0.68421   0.80585   2.37537   2.98487   2.99117   3.26207   3.44371   3.46733
   3.54891   3.62850   3.75195   3.97384   4.02994   4.19057   4.19912   4.36218
   4.41262   4.61383   4.77734   4.86130   4.94399   5.28762   5.60826   5.81480


              NET ATOMIC CHARGES AND DIPOLE CONTRIBUTIONS

  ATOM NO.   TYPE          CHARGE      No. of ELECS.   s-Pop       p-Pop       
    1          O          -0.155720        6.1557     1.91024     4.24548
    2          O          -0.310210        6.3102     1.81095     4.49926
    3          O          -0.037637        6.0376     1.94951     4.08812
    4          O          -0.155281        6.1553     1.84985     4.30543
    5          C          -0.107746        4.1077     1.16534     2.94240
    6          C          -0.092538        4.0925     1.16065     2.93188
    7          C           0.092613        3.9074     1.16629     2.74109
    8          C          -0.110032        4.1100     1.16430     2.94574
    9          C           0.117753        3.8822     1.15899     2.72326
   10          C          -0.154745        4.1547     1.20535     2.94939
   11          C          -0.186678        4.1867     1.20838     2.97830
   12          H           0.052503        0.9475     0.94750
   13          H           0.053328        0.9467     0.94667
   14          H           0.064536        0.9355     0.93546
   15          H           0.066538        0.9335     0.93346
   16          H           0.075336        0.9247     0.92466
   17          H           0.068249        0.9318     0.93175
   18          H           0.064947        0.9351     0.93505
   19          H           0.046658        0.9533     0.95334
   20          H           0.119594        0.8804     0.88041
   21          H           0.109155        0.8908     0.89085
   22          H           0.188098        0.8119     0.81190
   23          H           0.191278        0.8087     0.80872
 DIPOLE           X         Y         Z       TOTAL
 POINT-CHG.     0.369    -0.508     0.302     0.697
 HYBRID         0.727     0.239    -0.029     0.766
 SUM            1.096    -0.268     0.274     1.161


          ATOMIC ORBITAL ELECTRON POPULATIONS

     Atom    s        px        py        pz   
    1  O   1.91024   1.14777   1.47025   1.62746
    2  O   1.81095   1.30343   1.22628   1.96955
    3  O   1.94951   1.42492   1.60804   1.05516
    4  O   1.84985   1.46170   1.51970   1.32403
    5  C   1.16534   0.97072   0.96082   1.01086
    6  C   1.16065   0.95502   0.99424   0.98262
    7  C   1.16629   0.83405   0.93723   0.96982
    8  C   1.16430   0.98010   0.93478   1.03085
    9  C   1.15899   0.86371   0.91681   0.94273
   10  C   1.20535   0.97009   0.97834   1.00096
   11  C   1.20838   0.97084   1.00963   0.99783
   12  H   0.94750
   13  H   0.94667
   14  H   0.93546
   15  H   0.93346
   16  H   0.92466
   17  H   0.93175
   18  H   0.93505
   19  H   0.95334
   20  H   0.88041
   21  H   0.89085
   22  H   0.81190
   23  H   0.80872
 *******************************************************************************
 ** Site#: 14399        For non-commercial use only    Version 18.184L 64BITS **
 *******************************************************************************
 ** Cite this program as: MOPAC2016, Version: 18.184L, James J. P. Stewart,   **
 ** Stewart Computational Chemistry, web: HTTP://OpenMOPAC.net. Days left:  18**
 *******************************************************************************
 **                                                                           **
 **                                MOPAC2016                                  **
 **                                                                           **
 *******************************************************************************

                              PM3 CALCULATION RESULTS

 *******************************************************************************
 *  CALCULATION DONE:                                Sat Jun 15 10:30:05 2019  *
 *  PM3        - The PM3 Hamiltonian to be used
 *  OLDGEO     - PREVIOUS GEOMETRY TO BE USED
 *  PRECISE    - CRITERIA TO BE INCREASED BY 100 TIMES
 *  NOSYM      - POINT-GROUP SYMMETRY SET TO C1
 *  THREADS=1  - MULTI-THREADING NOT USED
 *  T=         - A TIME OF 172800.0 SECONDS REQUESTED
 *  DUMP=N     - RESTART FILE WRITTEN EVERY  7200.000 SECONDS
 *  THERMO     - THERMODYNAMIC QUANTITIES TO BE CALCULATED
 *******************************************************************************
oldgeo thermo nosym precise THREADS=1  pm3
 InChI=1S/C7H12O4/c8-6-2-1-3-7(5-4-6)10-11-9/h4-9H,1-3H2

   ATOM   CHEMICAL          X               Y               Z
  NUMBER   SYMBOL      (ANGSTROMS)     (ANGSTROMS)     (ANGSTROMS)
 
     1       O          2.39893512  *  -0.55166003  *  -0.65058327  *
     2       O         -2.76330477  *   1.68101299  *   0.61595489  *
     3       O          3.43106666  *   0.36313484  *  -0.02550010  *
     4       O          3.99865602  *   0.85656929  *  -1.19081569  *
     5       C          0.29423961  *  -1.52192395  *  -0.22250851  *
     6       C         -0.89536223  *  -1.51201834  *   0.72448200  *
     7       C          1.12000490  *  -0.22312893  *  -0.12850011  *
     8       C         -1.99205177  *  -0.53824736  *   0.32424900  *
     9       C         -1.56687954  *   0.92801706  *   0.50990645  *
    10       C          0.48499604  *   0.88469092  *  -0.92002217  *
    11       C         -0.71234183  *   1.39683853  *  -0.63492632  *
    12       H         -1.32531912  *  -2.53333560  *   0.75732787  *
    13       H         -0.55670139  *  -1.30099042  *   1.75978990  *
    14       H          0.93509374  *  -2.39478053  *   0.01823966  *
    15       H         -0.04787071  *  -1.67740755  *  -1.26494959  *
    16       H          1.21331676  *   0.09260493  *   0.94236616  *
    17       H         -2.89432113  *  -0.74371929  *   0.93611680  *
    18       H         -2.29784668  *  -0.71340634  *  -0.72622119  *
    19       H         -0.99480076  *   1.04157224  *   1.46696962  *
    20       H          1.06281428  *   1.27181535  *  -1.76946830  *
    21       H         -1.12344465  *   2.19752852  *  -1.26346436  *
    22       H         -2.50756334  *   2.59069897  *   0.68843618  *
    23       H          4.74069735  *   0.27818657  *  -1.30808560  *
 


          CARTESIAN COORDINATES 

    NO.       ATOM           X           Y           Z

     1         O          2.3989     -0.5517     -0.6506
     2         O         -2.7633      1.6810      0.6160
     3         O          3.4311      0.3631     -0.0255
     4         O          3.9987      0.8566     -1.1908
     5         C          0.2942     -1.5219     -0.2225
     6         C         -0.8954     -1.5120      0.7245
     7         C          1.1200     -0.2231     -0.1285
     8         C         -1.9921     -0.5382      0.3242
     9         C         -1.5669      0.9280      0.5099
    10         C          0.4850      0.8847     -0.9200
    11         C         -0.7123      1.3968     -0.6349
    12         H         -1.3253     -2.5333      0.7573
    13         H         -0.5567     -1.3010      1.7598
    14         H          0.9351     -2.3948      0.0182
    15         H         -0.0479     -1.6774     -1.2649
    16         H          1.2133      0.0926      0.9424
    17         H         -2.8943     -0.7437      0.9361
    18         H         -2.2978     -0.7134     -0.7262
    19         H         -0.9948      1.0416      1.4670
    20         H          1.0628      1.2718     -1.7695
    21         H         -1.1234      2.1975     -1.2635
    22         H         -2.5076      2.5907      0.6884
    23         H          4.7407      0.2782     -1.3081

  H: (PM3): J. J. P. STEWART, J. COMP. CHEM. 10, 209 (1989).
  C: (PM3): J. J. P. STEWART, J. COMP. CHEM. 10, 209 (1989).
  O: (PM3): J. J. P. STEWART, J. COMP. CHEM. 10, 209 (1989).

           Empirical Formula: C7 H12 O4  =    23 atoms



      MOLECULAR POINT GROUP   :   C1  


      RHF CALCULATION, NO. OF DOUBLY OCCUPIED LEVELS = 32



          HEAT OF FORMATION =     -54.959757 KCALS/MOLE


          CARTESIAN COORDINATE DERIVATIVES

   NUMBER  ATOM         X            Y            Z

     1       O     -0.002930    -0.002219     0.000510
     2       O     -0.002062     0.002872    -0.003594
     3       O      0.008337     0.001540     0.005093
     4       O     -0.007976    -0.002730    -0.010229
     5       C      0.000186     0.001477    -0.003543
     6       C     -0.000402     0.005448    -0.002288
     7       C     -0.003130     0.002069    -0.000808
     8       C      0.000263    -0.000374    -0.002708
     9       C      0.002599    -0.003069     0.004019
    10       C      0.000150    -0.002552     0.001564
    11       C     -0.001792     0.001698    -0.001092
    12       H     -0.000153    -0.000920    -0.000283
    13       H      0.000744    -0.003211     0.002891
    14       H      0.002686    -0.000769     0.001362
    15       H     -0.000990    -0.001970     0.002261
    16       H      0.000063    -0.001034    -0.000319
    17       H     -0.001604    -0.000198     0.000727
    18       H     -0.000730    -0.000770     0.000440
    19       H     -0.000000     0.001231    -0.000653
    20       H      0.000442     0.001177     0.000179
    21       H      0.000276     0.001099    -0.000154
    22       H      0.000520    -0.001522     0.001387
    23       H      0.005505     0.002727     0.005238
 


          GRADIENT NORM =   0.02352


          TIME FOR SCF CALCULATION =    0.00

          TIME FOR DERIVATIVES     =    0.00

          MOLECULAR WEIGHT =  160.17



          ROTATIONAL CONSTANTS IN CM(-1)

          A =    0.07220346   B =    0.01954646   C =    0.01648943



           PRINCIPAL MOMENTS OF INERTIA IN UNITS OF 10**(-40)*GRAM-CM**2

          A =      387.6930   B =     1432.1148   C =     1697.6196


          ORIENTATION OF MOLECULE IN FORCE CALCULATION

    NO.       ATOM         X         Y         Z

     1          O      -2.1498    0.0783    0.0805
     2          O       3.6154    0.0783    0.0805
     3          O      -2.5824    1.5294    0.0805
     4          O      -3.1556    1.5714    1.3428
     5          C      -0.5470   -1.3681   -0.8645
     6          C       0.7301   -1.4194   -1.6882
     7          C      -0.7627    0.0142   -0.2161
     8          C       2.0013   -1.3790   -0.8554
     9          C       2.2292   -0.0043   -0.2046
    10          C       0.0610    0.1655    1.0311
    11          C       1.3941    0.1569    1.0353
    12          H       0.7268   -2.3559   -2.2815
    13          H       0.7360   -0.5977   -2.4338
    14          H      -1.4059   -1.6149   -1.5216
    15          H      -0.5299   -2.1534   -0.0829
    16          H      -0.4888    0.8226   -0.9418
    17          H       2.8640   -1.6295   -1.5062
    18          H       1.9765   -2.1668   -0.0766
    19          H       1.9712    0.8095   -0.9307
    20          H      -0.4931    0.2894    1.9707
    21          H       1.9342    0.2596    1.9855
    22          H       3.7546    0.9064    0.5199
    23          H      -4.0698    1.4115    1.1489


    FIRST DERIVATIVES WILL BE USED IN THE CALCULATION OF SECOND DERIVATIVES

          ESTIMATED TIME TO COMPLETE CALCULATION =        2.16 SECONDS

    FOR POINT-GROUP C1   THERE ARE   1 UNIQUE SYMMETRY FUNCTIONS.

 STEP:   1 TIME =     0.02 SECS, INTEGRAL =      0.02 TIME LEFT: 172799.97
 STEP:   2 TIME =     0.03 SECS, INTEGRAL =      0.05 TIME LEFT: 172799.94
 STEP:   3 TIME =     0.02 SECS, INTEGRAL =      0.07 TIME LEFT: 172799.92
 STEP:   4 TIME =     0.02 SECS, INTEGRAL =      0.10 TIME LEFT: 172799.89
 STEP:   5 TIME =     0.02 SECS, INTEGRAL =      0.12 TIME LEFT: 172799.87
 STEP:   6 TIME =     0.03 SECS, INTEGRAL =      0.15 TIME LEFT: 172799.84
 STEP:   7 TIME =     0.02 SECS, INTEGRAL =      0.17 TIME LEFT: 172799.82
 STEP:   8 TIME =     0.02 SECS, INTEGRAL =      0.20 TIME LEFT: 172799.80
 STEP:   9 TIME =     0.02 SECS, INTEGRAL =      0.22 TIME LEFT: 172799.77
 STEP:  10 TIME =     0.02 SECS, INTEGRAL =      0.24 TIME LEFT: 172799.75
 STEP:  11 TIME =     0.02 SECS, INTEGRAL =      0.27 TIME LEFT: 172799.73
 STEP:  12 TIME =     0.02 SECS, INTEGRAL =      0.29 TIME LEFT: 172799.70
 STEP:  13 TIME =     0.02 SECS, INTEGRAL =      0.31 TIME LEFT: 172799.68
 STEP:  14 TIME =     0.02 SECS, INTEGRAL =      0.34 TIME LEFT: 172799.66
 STEP:  15 TIME =     0.02 SECS, INTEGRAL =      0.36 TIME LEFT: 172799.63
 STEP:  16 TIME =     0.02 SECS, INTEGRAL =      0.38 TIME LEFT: 172799.61
 STEP:  17 TIME =     0.02 SECS, INTEGRAL =      0.41 TIME LEFT: 172799.59
 STEP:  18 TIME =     0.02 SECS, INTEGRAL =      0.43 TIME LEFT: 172799.56
 STEP:  19 TIME =     0.02 SECS, INTEGRAL =      0.45 TIME LEFT: 172799.54
 STEP:  20 TIME =     0.03 SECS, INTEGRAL =      0.48 TIME LEFT: 172799.51
 STEP:  21 TIME =     0.02 SECS, INTEGRAL =      0.50 TIME LEFT: 172799.49
 STEP:  22 TIME =     0.02 SECS, INTEGRAL =      0.53 TIME LEFT: 172799.46
 STEP:  23 TIME =     0.02 SECS, INTEGRAL =      0.55 TIME LEFT: 172799.44
 STEP:  24 TIME =     0.02 SECS, INTEGRAL =      0.57 TIME LEFT: 172799.42
 STEP:  25 TIME =     0.02 SECS, INTEGRAL =      0.60 TIME LEFT: 172799.39
 STEP:  26 TIME =     0.02 SECS, INTEGRAL =      0.62 TIME LEFT: 172799.37
 STEP:  27 TIME =     0.02 SECS, INTEGRAL =      0.64 TIME LEFT: 172799.35
 STEP:  28 TIME =     0.02 SECS, INTEGRAL =      0.67 TIME LEFT: 172799.32
 STEP:  29 TIME =     0.02 SECS, INTEGRAL =      0.69 TIME LEFT: 172799.30
 STEP:  30 TIME =     0.02 SECS, INTEGRAL =      0.71 TIME LEFT: 172799.28
 STEP:  31 TIME =     0.02 SECS, INTEGRAL =      0.74 TIME LEFT: 172799.25
 STEP:  32 TIME =     0.03 SECS, INTEGRAL =      0.77 TIME LEFT: 172799.23
 STEP:  33 TIME =     0.02 SECS, INTEGRAL =      0.79 TIME LEFT: 172799.20
 STEP:  34 TIME =     0.02 SECS, INTEGRAL =      0.81 TIME LEFT: 172799.18
 STEP:  35 TIME =     0.02 SECS, INTEGRAL =      0.84 TIME LEFT: 172799.16
 STEP:  36 TIME =     0.02 SECS, INTEGRAL =      0.86 TIME LEFT: 172799.13
 STEP:  37 TIME =     0.02 SECS, INTEGRAL =      0.88 TIME LEFT: 172799.11
 STEP:  38 TIME =     0.02 SECS, INTEGRAL =      0.91 TIME LEFT: 172799.09
 STEP:  39 TIME =     0.02 SECS, INTEGRAL =      0.93 TIME LEFT: 172799.06
 STEP:  40 TIME =     0.02 SECS, INTEGRAL =      0.95 TIME LEFT: 172799.04
 STEP:  41 TIME =     0.02 SECS, INTEGRAL =      0.98 TIME LEFT: 172799.02
 STEP:  42 TIME =     0.02 SECS, INTEGRAL =      1.00 TIME LEFT: 172799.00
 STEP:  43 TIME =     0.03 SECS, INTEGRAL =      1.02 TIME LEFT: 172798.97
 STEP:  44 TIME =     0.02 SECS, INTEGRAL =      1.05 TIME LEFT: 172798.95
 STEP:  45 TIME =     0.02 SECS, INTEGRAL =      1.07 TIME LEFT: 172798.92
 STEP:  46 TIME =     0.02 SECS, INTEGRAL =      1.09 TIME LEFT: 172798.90
 STEP:  47 TIME =     0.02 SECS, INTEGRAL =      1.12 TIME LEFT: 172798.88
 STEP:  48 TIME =     0.02 SECS, INTEGRAL =      1.14 TIME LEFT: 172798.85
 STEP:  49 TIME =     0.02 SECS, INTEGRAL =      1.16 TIME LEFT: 172798.83
 STEP:  50 TIME =     0.02 SECS, INTEGRAL =      1.19 TIME LEFT: 172798.80
 STEP:  51 TIME =     0.02 SECS, INTEGRAL =      1.21 TIME LEFT: 172798.78
 STEP:  52 TIME =     0.02 SECS, INTEGRAL =      1.23 TIME LEFT: 172798.76
 STEP:  53 TIME =     0.02 SECS, INTEGRAL =      1.26 TIME LEFT: 172798.73
 STEP:  54 TIME =     0.02 SECS, INTEGRAL =      1.28 TIME LEFT: 172798.71
 STEP:  55 TIME =     0.02 SECS, INTEGRAL =      1.30 TIME LEFT: 172798.69
 STEP:  56 TIME =     0.02 SECS, INTEGRAL =      1.32 TIME LEFT: 172798.67
 STEP:  57 TIME =     0.02 SECS, INTEGRAL =      1.35 TIME LEFT: 172798.64
 STEP:  58 TIME =     0.02 SECS, INTEGRAL =      1.37 TIME LEFT: 172798.62
 STEP:  59 TIME =     0.02 SECS, INTEGRAL =      1.39 TIME LEFT: 172798.60
 STEP:  60 TIME =     0.02 SECS, INTEGRAL =      1.42 TIME LEFT: 172798.57
 STEP:  61 TIME =     0.02 SECS, INTEGRAL =      1.44 TIME LEFT: 172798.55
 STEP:  62 TIME =     0.02 SECS, INTEGRAL =      1.46 TIME LEFT: 172798.53
 STEP:  63 TIME =     0.02 SECS, INTEGRAL =      1.49 TIME LEFT: 172798.50
 STEP:  64 TIME =     0.02 SECS, INTEGRAL =      1.51 TIME LEFT: 172798.48
 STEP:  65 TIME =     0.02 SECS, INTEGRAL =      1.54 TIME LEFT: 172798.46
 STEP:  66 TIME =     0.02 SECS, INTEGRAL =      1.56 TIME LEFT: 172798.43
 STEP:  67 TIME =     0.02 SECS, INTEGRAL =      1.58 TIME LEFT: 172798.41
 STEP:  68 TIME =     0.02 SECS, INTEGRAL =      1.61 TIME LEFT: 172798.39
 STEP:  69 TIME =     0.02 SECS, INTEGRAL =      1.63 TIME LEFT: 172798.36

(To convert to Hartree/Bohr^2, multiply by (10^(-21) x N x a0^2)/(4.184 x 627.51) =  0.0642)


           FORCE MATRIX IN MILLIDYNES/ANGSTROM


                  O  1       O  2       O  3       O  4       C  5       C  6
 ------------------------------------------------------------------------------
     O    1   6.907893
     O    2   0.008711  11.948685
     O    3   2.142302   0.004465   4.818211
     O    4   0.870918   0.005665   2.474469   9.468295
     C    5   0.863974   0.003738   0.086684   0.047494  14.048691
     C    6   0.058867   0.063083   0.011974   0.010197   4.153352  14.269220
     C    7   4.742031   0.016862   0.985412   0.177845   3.475500   0.608675
     C    8   0.004144   0.852796   0.002435   0.003322   0.605384   4.171064
     C    9   0.014174   5.042907   0.006865   0.007979   0.033222   0.603110
     C   10   0.922323   0.079946   0.053110   0.011774   0.615115   0.028505
     C   11   0.072835   0.923636   0.011842   0.009580   0.043952   0.028224
     H   12   0.009962   0.010558   0.001531   0.003008   0.425510   4.456276
     H   13   0.003225   0.003702   0.001130   0.001098   0.444140   4.407375
     H   14   0.104531   0.001236   0.004502   0.004140   4.447429   0.429277
     H   15   0.034185   0.001741   0.003043   0.003129   4.474932   0.446264
     H   16   0.433890   0.003492   0.096399   0.009288   0.428335   0.043653
     H   17   0.001071   0.098602   0.000390   0.000380   0.049549   0.429412
     H   18   0.001219   0.027295   0.000704   0.001088   0.022370   0.446880
     H   19   0.001727   0.414740   0.000587   0.000682   0.005928   0.043164
     H   20   0.071397   0.010272   0.014151   0.009307   0.023472   0.001511
     H   21   0.009687   0.069144   0.002284   0.002406   0.014850   0.001628
     H   22   0.002766   8.330759   0.001412   0.001423   0.002157   0.016155
     H   23   0.111010   0.001581   1.514032   8.370469   0.004611   0.001349


                  C  7       C  8       C  9       C 10       C 11       H 12
 ------------------------------------------------------------------------------
     C    7  14.414781
     C    8   0.034444  14.187552
     C    9   0.123029   3.637719  14.610105
     C   10   4.414940   0.042938   0.747447  18.111487
     C   11   0.751339   0.621106   4.372863  10.718891  18.087682
     H   12   0.050351   0.426694   0.049554   0.002782   0.002523   5.051639
     H   13   0.031973   0.443365   0.034166   0.001960   0.002232   0.572370
     H   14   0.466110   0.049467   0.004992   0.042533   0.002083   0.039902
     H   15   0.453977   0.022823   0.005666   0.033595   0.004825   0.026024
     H   16   4.074903   0.006324   0.030248   0.408653   0.029474   0.002398
     H   17   0.004877   4.449741   0.470124   0.002362   0.043055   0.039857
     H   18   0.005613   4.475115   0.456603   0.005116   0.032974   0.025810
     H   19   0.026985   0.430750   4.022483   0.028606   0.412295   0.001998
     H   20   0.463829   0.014563   0.122478   4.792148   0.436936   0.000386
     H   21   0.123756   0.021618   0.455611   0.439666   4.778108   0.000375
     H   22   0.005143   0.107156   0.792489   0.009864   0.085327   0.002652
     H   23   0.023487   0.000627   0.001749   0.003993   0.001693   0.000493


                  H 13       H 14       H 15       H 16       H 17       H 18
 ------------------------------------------------------------------------------
     H   13   5.035228
     H   14   0.025828   5.060978
     H   15   0.045194   0.559953   5.091446
     H   16   0.030105   0.012249   0.039663   4.480325
     H   17   0.025841   0.007879   0.002518   0.000582   5.064278
     H   18   0.045227   0.002590   0.023727   0.000995   0.566218   5.096134
     H   19   0.029917   0.000594   0.000849   0.021758   0.012223   0.041404
     H   20   0.000460   0.003793   0.003078   0.024048   0.002254   0.000984
     H   21   0.000444   0.002281   0.000923   0.011279   0.003756   0.002927
     H   22   0.000839   0.000610   0.000485   0.001558   0.004590   0.001625
     H   23   0.000343   0.000633   0.000619   0.002900   0.000142   0.000160


                  H 19       H 20       H 21       H 22       H 23
 ------------------------------------------------------------------
     H   19   4.442229
     H   20   0.011447   5.160142
     H   21   0.025769   0.077364   5.156478
     H   22   0.043994   0.002381   0.039567   8.576075
     H   23   0.000259   0.001675   0.000674   0.000604   8.901709


          HEAT OF FORMATION =     -54.959757 KCALS/MOLE

          ZERO POINT ENERGY     117.077 KCAL/MOL


           NORMAL COORDINATE ANALYSIS (Total motion = 1 Angstrom)


   Root No.       1         2         3         4         5         6         7         8

                 1 A       2 A       3 A       4 A       5 A       6 A       7 A       8 A   

                  30.4      37.2      79.6     156.3     193.4     233.9     250.8     288.1
  
           1   -0.0209   -0.0000    0.0015    0.0089   -0.0109   -0.0072   -0.0094   -0.0041
           2   -0.0102   -0.0276    0.0108    0.0033   -0.0328   -0.0001   -0.0084    0.0118
           3   -0.0527    0.0537   -0.0234    0.0137    0.0282   -0.0005   -0.0055    0.0297
           4   -0.0187   -0.0013   -0.0262    0.0008    0.0026    0.0076    0.0209    0.0044
           5    0.0155    0.0088    0.0604    0.0236   -0.0055    0.0208    0.0089    0.0086
           6    0.0267   -0.0016   -0.0237   -0.0310    0.0245    0.0178   -0.0534    0.0208
           7   -0.0226   -0.0377    0.0568   -0.0167    0.0395   -0.0364    0.0012    0.0004
           8   -0.0176   -0.0397    0.0313   -0.0068    0.0003    0.0154    0.0008   -0.0086
           9   -0.0121   -0.0576    0.0118   -0.0030    0.0330    0.0262    0.0071   -0.0133
          10    0.1242    0.0346    0.0098   -0.0036   -0.0111   -0.0298   -0.0036    0.0067
          11    0.0061    0.0733    0.0091   -0.0001    0.0396    0.0489    0.0102   -0.0261
          12    0.0583   -0.0281   -0.0107    0.0038    0.0009    0.0201    0.0026    0.0050
          13   -0.0011    0.0018   -0.0020   -0.0103   -0.0071    0.0145    0.0007   -0.0171
          14   -0.0097    0.0014   -0.0232    0.0305   -0.0223   -0.0000   -0.0103    0.0131
          15   -0.0144   -0.0031    0.0050   -0.0441   -0.0378   -0.0014    0.0015   -0.0106
          16    0.0102   -0.0050   -0.0015    0.0188    0.0133    0.0227    0.0050   -0.0037
          17   -0.0131    0.0318   -0.0228   -0.0077    0.0062   -0.0318    0.0046   -0.0271
          18    0.0032   -0.0157    0.0044    0.0035   -0.0115    0.0078    0.0068    0.0111
          19   -0.0143   -0.0036    0.0047    0.0077   -0.0198   -0.0093   -0.0094   -0.0068
          20   -0.0043   -0.0158   -0.0229    0.0139   -0.0393    0.0098   -0.0084    0.0108
          21   -0.0308    0.0318    0.0071   -0.0012   -0.0103   -0.0212   -0.0066   -0.0060
          22   -0.0009    0.0021    0.0030   -0.0090   -0.0033    0.0413   -0.0002    0.0123
          23    0.0000    0.0209    0.0078   -0.0298    0.0050   -0.0122    0.0049    0.0079
          24    0.0197   -0.0260   -0.0028    0.0472    0.0150   -0.0186    0.0131   -0.0126
          25   -0.0145   -0.0030   -0.0281   -0.0026    0.0071    0.0139    0.0074    0.0083
          26    0.0076    0.0059    0.0107   -0.0098    0.0144   -0.0147    0.0062    0.0055
          27    0.0084    0.0073    0.0034    0.0029   -0.0073   -0.0069    0.0095   -0.0066
          28   -0.0313    0.0056   -0.0128    0.0075   -0.0077   -0.0021   -0.0062    0.0020
          29    0.0106   -0.0392   -0.0512   -0.0115   -0.0137   -0.0025    0.0032   -0.0015
          30   -0.0217    0.0288    0.0224    0.0034   -0.0226   -0.0253   -0.0097   -0.0122
          31   -0.0314    0.0057   -0.0126    0.0077   -0.0085   -0.0029   -0.0052    0.0006
          32    0.0169   -0.0309   -0.0353   -0.0077    0.0384   -0.0388    0.0052   -0.0077
          33   -0.0042    0.0180    0.0203    0.0087   -0.0227   -0.0159    0.0017   -0.0118
          34    0.0216   -0.0029    0.0083    0.0149    0.0356    0.0137    0.0139   -0.0066
          35   -0.0192    0.0467   -0.0331   -0.0132    0.0166   -0.0529    0.0101   -0.0585
          36    0.0127   -0.0392    0.0206    0.0122   -0.0280    0.0404   -0.0017    0.0595
          37    0.0170   -0.0180   -0.0137    0.0651    0.0206    0.0219    0.0044   -0.0028
          38   -0.0206    0.0505   -0.0355   -0.0147    0.0189   -0.0571    0.0115   -0.0643
          39   -0.0050    0.0048   -0.0097   -0.0039    0.0024   -0.0198    0.0144   -0.0296
          40    0.0088   -0.0024   -0.0026    0.0066    0.0070    0.0227    0.0050   -0.0087
          41   -0.0193    0.0108   -0.0209    0.0911   -0.0025   -0.0149   -0.0205    0.0402
          42   -0.0238   -0.0010    0.0051   -0.0895   -0.0631   -0.0063    0.0001   -0.0324
          43   -0.0087    0.0151   -0.0027   -0.0772   -0.0230    0.0079    0.0056   -0.0555
          44   -0.0020   -0.0175   -0.0242    0.0026   -0.0438    0.0158   -0.0074    0.0087
          45   -0.0066   -0.0224    0.0039   -0.0707   -0.0598    0.0148    0.0042   -0.0144
          46   -0.0103   -0.0120    0.0338    0.0062   -0.0396   -0.0237   -0.0132   -0.0127
          47   -0.0091    0.0019   -0.0245    0.0311   -0.0339    0.0073   -0.0116    0.0112
          48   -0.0344    0.0481    0.0157    0.0178   -0.0136   -0.0273   -0.0120   -0.0075
          49    0.0086   -0.0017    0.0051    0.0076    0.0069    0.0333    0.0011    0.0018
          50   -0.0037    0.0446    0.0326   -0.0826   -0.0226    0.0230   -0.0041    0.0315
          51    0.0337   -0.0403   -0.0095    0.0902    0.0392   -0.0428    0.0178   -0.0360
          52   -0.0085    0.0155    0.0278   -0.0656   -0.0327    0.0812   -0.0071    0.0484
          53    0.0080    0.0007    0.0037   -0.0009    0.0214   -0.0241    0.0090    0.0033
          54    0.0275   -0.0461   -0.0062    0.0747    0.0308   -0.0299    0.0172   -0.0163
          55   -0.0080   -0.0146   -0.0686   -0.0260    0.0305    0.0057    0.0186    0.0158
          56   -0.0008    0.0224    0.0081   -0.0292    0.0065   -0.0170    0.0137    0.0072
          57   -0.0034    0.0299    0.0148   -0.0108   -0.0240   -0.0065    0.0144   -0.0067
          58   -0.0441    0.0123   -0.0204    0.0050   -0.0039    0.0002   -0.0091    0.0063
          59    0.0175   -0.0641   -0.0896   -0.0251   -0.0158   -0.0030    0.0105   -0.0122
          60   -0.0300    0.0360    0.0224    0.0039   -0.0194   -0.0236   -0.0119   -0.0077
          61   -0.0443    0.0127   -0.0052    0.0104   -0.0175   -0.0121   -0.0270   -0.0044
          62    0.0287   -0.0502   -0.0611   -0.0157    0.0890   -0.0791    0.0113   -0.0264
          63    0.0018    0.0161    0.0184    0.0076   -0.0227   -0.0060    0.0140   -0.0065
          64   -0.0271   -0.0037   -0.0515   -0.0102    0.0123   -0.0241   -0.0377   -0.0117
          65    0.0229   -0.0009    0.0561    0.0244    0.0187    0.0267   -0.2892   -0.0033
          66    0.0153    0.0175   -0.0075   -0.0290   -0.0243    0.0169    0.5292    0.0487
          67    0.1024    0.0273    0.0112   -0.0024   -0.0075   -0.0114   -0.0045   -0.0357
          68    0.0010    0.0312    0.0496   -0.0218    0.0560   -0.0961    0.0180    0.2766
          69    0.1668    0.0410   -0.0509    0.0163   -0.0314    0.0504   -0.0004   -0.0399


   Root No.       9        10        11        12        13        14        15        16

                 9 A      10 A      11 A      12 A      13 A      14 A      15 A      16 A   

                 298.3     319.0     359.8     420.4     432.3     439.9     462.9     540.5
  
           1   -0.0081    0.0260    0.0018   -0.0134   -0.0323    0.0217   -0.0179   -0.0193
           2   -0.0123   -0.0110   -0.0181   -0.0190    0.0106    0.0149   -0.0105   -0.0255
           3    0.0009    0.0299   -0.0370   -0.0111    0.0269    0.0372   -0.0013   -0.0031
           4   -0.0087   -0.0338   -0.0079    0.0301    0.0008   -0.0089   -0.0133    0.0105
           5    0.0136    0.0030   -0.0356   -0.0006   -0.0217   -0.0217   -0.0178    0.0014
           6   -0.0111    0.0115   -0.0265   -0.0210   -0.0300   -0.0153    0.0016    0.0093
           7    0.0076    0.0275   -0.0147    0.0241    0.0029   -0.0110    0.0345   -0.0123
           8   -0.0079   -0.0163   -0.0134   -0.0242    0.0314    0.0133   -0.0330    0.0356
           9    0.0055    0.0048    0.0129    0.0062   -0.0091   -0.0033    0.0035    0.0069
          10   -0.0028    0.0058   -0.0181    0.0001    0.0163    0.0015    0.0023    0.0125
          11    0.0034    0.0023    0.0242    0.0082   -0.0222   -0.0071    0.0057   -0.0107
          12    0.0046   -0.0100    0.0163   -0.0047   -0.0141    0.0019   -0.0065   -0.0171
          13    0.0251    0.0056    0.0217   -0.0315    0.0103    0.0198    0.0180    0.0137
          14    0.0009    0.0142    0.0105    0.0022    0.0075   -0.0187    0.0420   -0.0002
          15    0.0105   -0.0176   -0.0092   -0.0040   -0.0084    0.0025    0.0214   -0.0061
          16    0.0140   -0.0012    0.0180   -0.0172    0.0334    0.0133    0.0099    0.0031
          17    0.0265   -0.0255   -0.0226    0.0063    0.0035   -0.0032    0.0068   -0.0144
          18   -0.0109   -0.0227   -0.0092    0.0259    0.0185   -0.0110    0.0170   -0.0282
          19   -0.0063    0.0175    0.0164   -0.0114   -0.0334    0.0035   -0.0119   -0.0147
          20    0.0036    0.0099    0.0030    0.0041   -0.0122    0.0049    0.0348   -0.0148
          21   -0.0032   -0.0046    0.0104   -0.0160    0.0187   -0.0407    0.0030    0.0308
          22    0.0074   -0.0035    0.0067   -0.0044    0.0429   -0.0115    0.0053   -0.0189
          23   -0.0284   -0.0026    0.0182    0.0252   -0.0030    0.0243    0.0034    0.0176
          24    0.0027   -0.0220   -0.0052    0.0060   -0.0056    0.0187    0.0122    0.0034
          25   -0.0070   -0.0297   -0.0168    0.0160   -0.0059   -0.0140   -0.0062    0.0087
          26   -0.0287   -0.0113    0.0136    0.0057   -0.0079    0.0255    0.0224    0.0184
          27    0.0055    0.0064    0.0104    0.0311    0.0098    0.0123   -0.0333   -0.0145
          28   -0.0078   -0.0060   -0.0036    0.0000   -0.0242   -0.0082   -0.0138    0.0080
          29    0.0302    0.0450   -0.0002    0.0270    0.0028   -0.0074   -0.0101    0.0295
          30   -0.0055    0.0042    0.0272   -0.0220    0.0109   -0.0311    0.0036    0.0165
          31   -0.0079   -0.0098   -0.0015    0.0025   -0.0217   -0.0104   -0.0147    0.0097
          32   -0.0197    0.0048    0.0207   -0.0299    0.0087   -0.0137   -0.0135   -0.0297
          33    0.0039    0.0156    0.0236    0.0261    0.0007    0.0161   -0.0327   -0.0048
          34    0.0002   -0.0095    0.0219   -0.0031    0.0287    0.0389   -0.0123    0.0127
          35    0.0601   -0.0505   -0.0546   -0.0017    0.0049   -0.0096   -0.0108   -0.0498
          36   -0.0626    0.0160    0.0401    0.0379    0.0158   -0.0008    0.0449    0.0259
          37    0.0222    0.0030    0.0181   -0.0245    0.0427    0.0051    0.0232    0.0001
          38    0.0662   -0.0555   -0.0604   -0.0022    0.0059   -0.0110   -0.0138   -0.0565
          39    0.0323   -0.0551   -0.0498    0.0159    0.0202   -0.0186   -0.0049   -0.0713
          40    0.0197   -0.0011    0.0222   -0.0183    0.0348    0.0105    0.0188    0.0061
          41   -0.0361    0.0386    0.0247    0.0218    0.0282   -0.0805    0.0130    0.0050
          42    0.0323   -0.0190   -0.0162   -0.0304   -0.0480    0.0411    0.0312    0.0018
          43    0.0653   -0.0111    0.0084   -0.0669   -0.0176    0.0710    0.0279    0.0297
          44    0.0126    0.0089    0.0046   -0.0022   -0.0127    0.0168    0.0627   -0.0142
          45    0.0218   -0.0227   -0.0144   -0.0085   -0.0292    0.0385    0.0442   -0.0201
          46   -0.0223    0.0026    0.0301   -0.0274   -0.0396   -0.0178   -0.0209   -0.0285
          47    0.0010    0.0101    0.0145   -0.0026   -0.0055   -0.0104    0.0504   -0.0113
          48   -0.0128   -0.0111    0.0287   -0.0308    0.0229   -0.0632    0.0166    0.0294
          49    0.0151    0.0023    0.0145   -0.0215    0.0365    0.0072    0.0085    0.0017
          50   -0.0360    0.0357    0.0460    0.0486    0.0513    0.0042   -0.0358   -0.0504
          51    0.0168   -0.0298   -0.0078   -0.0268   -0.0381    0.0507    0.0321    0.0590
          52   -0.0195    0.0188    0.0300    0.0277    0.0947   -0.0354   -0.0106   -0.0833
          53   -0.0351   -0.0199    0.0120    0.0091   -0.0275    0.0407    0.0349    0.0570
          54   -0.0055   -0.0393   -0.0104   -0.0095   -0.0304    0.0365    0.0452    0.0445
          55   -0.0268   -0.0385   -0.0219   -0.0028   -0.0168   -0.0189    0.0153    0.0164
          56   -0.0358   -0.0086    0.0241    0.0262   -0.0063    0.0398    0.0191    0.0311
          57    0.0029    0.0115    0.0241    0.0607    0.0141    0.0314   -0.0424   -0.0005
          58   -0.0093   -0.0166   -0.0137   -0.0123   -0.0163   -0.0320    0.0011    0.0309
          59    0.0782    0.1039   -0.0072    0.0697    0.0303   -0.0483   -0.0880    0.0914
          60   -0.0126   -0.0095    0.0215   -0.0342    0.0123   -0.0386    0.0220    0.0212
          61   -0.0091   -0.0074    0.0091   -0.0155   -0.0220   -0.0257   -0.0030    0.0250
          62   -0.0297    0.0124    0.0446   -0.0769    0.0515   -0.0689   -0.0938   -0.1031
          63    0.0055    0.0134    0.0143    0.0403   -0.0041    0.0293   -0.0302   -0.0049
          64   -0.0286   -0.0504    0.0466    0.0554    0.0344    0.0383    0.0056    0.0105
          65    0.0255   -0.0218   -0.0309    0.0234   -0.0163   -0.0162   -0.0249    0.0021
          66   -0.0268    0.0641   -0.0538   -0.0754   -0.0519   -0.0417    0.0087    0.0078
          67   -0.0242    0.0252   -0.0350    0.0090    0.0197   -0.0029    0.0152    0.0024
          68    0.1655   -0.1162    0.1479   -0.0323   -0.0662    0.0121   -0.0513    0.0088
          69   -0.0265   -0.0060   -0.0035   -0.0136    0.0029    0.0063   -0.0198    0.0068


   Root No.      17        18        19        20        21        22        23        24

                17 A      18 A      19 A      20 A      21 A      22 A      23 A      24 A   

                 570.1     607.0     688.4     772.1     837.5     869.9     875.1     911.8
  
           1   -0.0263   -0.0275   -0.0582    0.0094   -0.0192   -0.0026    0.0052    0.0097
           2    0.0083    0.0763    0.0055   -0.0012    0.0611   -0.0012    0.0171   -0.0059
           3    0.0079    0.0004   -0.0068   -0.0009   -0.0020    0.0006   -0.0030   -0.0018
           4    0.0338    0.0037   -0.0514   -0.0096    0.0008   -0.0040   -0.0049   -0.0078
           5    0.0163   -0.0029   -0.0079   -0.0020   -0.0011    0.0002   -0.0003   -0.0034
           6   -0.0031    0.0015    0.0093    0.0003    0.0015   -0.0011   -0.0032   -0.0013
           7    0.0119    0.0240    0.0083   -0.0014   -0.0294   -0.0003   -0.0075    0.0015
           8   -0.0092   -0.0455   -0.0011    0.0003   -0.0534    0.0015   -0.0110    0.0014
           9   -0.0037   -0.0377   -0.0063    0.0002    0.0915   -0.0007    0.0160   -0.0036
          10    0.0002   -0.0271   -0.0001   -0.0005    0.0332   -0.0003    0.0046   -0.0013
          11   -0.0005    0.0115   -0.0014    0.0003    0.0016   -0.0001    0.0010    0.0001
          12    0.0008    0.0484    0.0018    0.0005   -0.0861    0.0007   -0.0137    0.0035
          13    0.0155    0.0045    0.0046    0.0012   -0.0149    0.0174    0.0087   -0.0534
          14    0.0213   -0.0320    0.0094    0.0170   -0.0196   -0.0021   -0.0025   -0.0045
          15    0.0012   -0.0103   -0.0025    0.0045   -0.0030    0.0379    0.0024   -0.0245
          16   -0.0086    0.0184    0.0105    0.0004    0.0082    0.0022    0.0037   -0.0003
          17   -0.0156   -0.0077    0.0021    0.0197   -0.0254    0.0061    0.0442    0.0282
          18   -0.0390   -0.0211    0.0012    0.0159   -0.0158    0.0017    0.0103    0.0050
          19   -0.0167    0.0003   -0.0271    0.0024   -0.0007    0.0038    0.0027   -0.0070
          20    0.0119   -0.0294   -0.0025   -0.0052    0.0159   -0.0019   -0.0212   -0.0020
          21   -0.0036    0.0211   -0.0028   -0.0046   -0.0023   -0.0025    0.0070   -0.0058
          22   -0.0163    0.0043    0.0021   -0.0008    0.0185    0.0143   -0.0138    0.0538
          23   -0.0067    0.0111   -0.0015    0.0186   -0.0025    0.0038    0.0112   -0.0069
          24   -0.0089    0.0004    0.0049    0.0037   -0.0099   -0.0359    0.0126   -0.0236
          25    0.0188    0.0030   -0.0253   -0.0014   -0.0001    0.0029   -0.0006    0.0046
          26   -0.0209    0.0133    0.0017   -0.0044    0.0139   -0.0053   -0.0272   -0.0014
          27    0.0293   -0.0120    0.0029   -0.0058   -0.0042    0.0039    0.0063   -0.0066
          28   -0.0096   -0.0042    0.0818    0.0025    0.0003   -0.0021    0.0012   -0.0021
          29   -0.0196    0.0194   -0.0099   -0.0402   -0.0043    0.0024    0.0077    0.0103
          30   -0.0007    0.0159   -0.0469   -0.0110    0.0090   -0.0152   -0.0078    0.0197
          31   -0.0058   -0.0027    0.0812   -0.0008    0.0027   -0.0025   -0.0015    0.0025
          32    0.0185   -0.0201    0.0119   -0.0422   -0.0066    0.0012    0.0080    0.0112
          33    0.0145   -0.0072    0.0429   -0.0113    0.0100    0.0125   -0.0158    0.0203
          34   -0.0258    0.0459    0.0075    0.0012    0.0266   -0.0254    0.0262   -0.0043
          35   -0.0567   -0.0051   -0.0040   -0.0214    0.0288   -0.0067   -0.0489   -0.0261
          36    0.0238   -0.0254    0.0107    0.0797   -0.0980    0.0213    0.1518    0.0909
          37   -0.0030    0.0101    0.0233   -0.0011   -0.0030   -0.0593    0.0011    0.0013
          38   -0.0655   -0.0061   -0.0051   -0.0270    0.0367   -0.0088   -0.0670   -0.0381
          39   -0.0899   -0.0187   -0.0064   -0.0335    0.0509   -0.0147   -0.1081   -0.0624
          40   -0.0111    0.0056    0.0118    0.0036   -0.0235    0.0538    0.0188   -0.0795
          41   -0.0432   -0.0040   -0.0265   -0.0146   -0.0229    0.1189    0.0070   -0.1305
          42    0.0622   -0.0201    0.0031    0.0137    0.0121   -0.0605   -0.0148    0.0588
          43    0.0872    0.0051    0.0274    0.0201   -0.0204   -0.1197    0.0307    0.0531
          44    0.0545   -0.0616    0.0223    0.0320   -0.0033   -0.0569   -0.0441    0.0519
          45    0.0365   -0.0424    0.0111    0.0217    0.0118   -0.0182   -0.0395    0.0340
          46   -0.0204    0.0494   -0.0793    0.0196    0.0410   -0.0153    0.0196    0.0054
          47    0.0253   -0.0598    0.0023    0.0181    0.0074   -0.0313   -0.0540   -0.0058
          48    0.0108    0.0040   -0.0164    0.0262    0.0053   -0.0433   -0.0241   -0.0041
          49   -0.0058    0.0243    0.0097   -0.0020    0.0425    0.0454   -0.0248    0.0779
          50   -0.0148   -0.0300    0.0332   -0.0186   -0.0382   -0.1117    0.0472   -0.1304
          51    0.0096    0.0436   -0.0002    0.0170    0.0371    0.0547   -0.0186    0.0577
          52   -0.0523   -0.0375    0.0239   -0.0241   -0.0122   -0.1250   -0.0117   -0.0493
          53   -0.0190    0.0388   -0.0147    0.0380    0.0336    0.0464   -0.0403    0.0494
          54   -0.0219    0.0292   -0.0084    0.0253    0.0263    0.0070   -0.0390    0.0340
          55    0.0140    0.0094   -0.0762   -0.0187   -0.0065   -0.0146    0.0064   -0.0180
          56   -0.0248    0.0248   -0.0031    0.0205    0.0321    0.0163   -0.0586   -0.0059
          57    0.0264   -0.0001    0.0132    0.0261    0.0195    0.0346   -0.0337   -0.0027
          58   -0.0173    0.0091    0.0925    0.0107    0.0011   -0.0244    0.0131   -0.0179
          59   -0.0501    0.1138   -0.0362    0.2216    0.0473   -0.0624   -0.0468   -0.0244
          60   -0.0006    0.0111   -0.0388   -0.0410    0.0025   -0.0192    0.0060    0.0158
          61   -0.0251    0.0099    0.0842   -0.0063    0.0100   -0.0248   -0.0041    0.0178
          62    0.0889   -0.0406    0.0172    0.2307    0.0519    0.0390   -0.0610   -0.0264
          63    0.0175   -0.0118    0.0422   -0.0380   -0.0002    0.0203   -0.0069    0.0164
          64    0.0120    0.0123   -0.0426   -0.0110    0.0182   -0.0058   -0.0345    0.0031
          65    0.0254   -0.0035   -0.0196   -0.0020   -0.0041    0.0012    0.0047   -0.0068
          66   -0.0132   -0.0003    0.0299    0.0009    0.0011   -0.0021   -0.0024    0.0015
          67    0.0064    0.0011    0.0051   -0.0010   -0.0106   -0.0001   -0.0035    0.0006
          68   -0.0259   -0.0505   -0.0226    0.0036    0.0422   -0.0006    0.0098   -0.0006
          69   -0.0057   -0.0109   -0.0035    0.0005    0.0460    0.0003    0.0107   -0.0032


   Root No.      25        26        27        28        29        30        31        32

                25 A      26 A      27 A      28 A      29 A      30 A      31 A      32 A   

                 965.1     994.1    1015.8    1051.5    1073.3    1097.0    1097.9    1114.2
  
           1   -0.0002   -0.0024   -0.0100    0.0056   -0.0145   -0.0063   -0.0002   -0.0162
           2    0.0041   -0.0029    0.0035    0.0051   -0.0046   -0.0039    0.0005   -0.0025
           3    0.0005    0.0021    0.0050   -0.0008    0.0050    0.0033    0.0012    0.0074
           4   -0.0003   -0.0009    0.0083   -0.0112   -0.0090   -0.0196    0.0085    0.0229
           5    0.0008   -0.0007    0.0015    0.0020   -0.0021    0.0049    0.0005   -0.0026
           6    0.0004   -0.0023    0.0037   -0.0032   -0.0052   -0.0069    0.0064    0.0077
           7   -0.0034    0.0017   -0.0000   -0.0004   -0.0003   -0.0005    0.0011   -0.0027
           8   -0.0009    0.0011   -0.0005   -0.0020    0.0035    0.0019   -0.0002    0.0034
           9    0.0033   -0.0014    0.0014    0.0011   -0.0004   -0.0002   -0.0003    0.0011
          10    0.0005   -0.0001    0.0005    0.0001    0.0002    0.0000    0.0002    0.0001
          11    0.0002   -0.0003   -0.0001    0.0002   -0.0005   -0.0002   -0.0001   -0.0003
          12   -0.0024    0.0009   -0.0013   -0.0006   -0.0002    0.0000    0.0001   -0.0009
          13    0.0085   -0.0003    0.0239    0.0129   -0.0004   -0.0108    0.0078   -0.0015
          14    0.0215   -0.0091   -0.0082   -0.0022    0.0023   -0.0001   -0.0211    0.0203
          15    0.0077    0.0025   -0.0163   -0.0199    0.0001    0.0054   -0.0032   -0.0020
          16   -0.0109    0.0073    0.0002   -0.0009   -0.0042    0.0139   -0.0082    0.0054
          17    0.0047   -0.0030    0.0076   -0.0078   -0.0029    0.0020    0.0152   -0.0021
          18   -0.0001    0.0018    0.0258    0.0242   -0.0037   -0.0010   -0.0017    0.0064
          19    0.0073   -0.0029   -0.0025   -0.0040    0.0165    0.0028   -0.0018    0.0189
          20   -0.0279    0.0145    0.0050   -0.0083   -0.0031   -0.0063    0.0120   -0.0350
          21    0.0003   -0.0060   -0.0301    0.0150    0.0050   -0.0031    0.0051   -0.0095
          22    0.0065   -0.0008   -0.0242   -0.0115    0.0075   -0.0082    0.0047   -0.0071
          23   -0.0255    0.0134   -0.0058    0.0014    0.0147   -0.0132   -0.0321    0.0105
          24   -0.0049   -0.0057   -0.0153   -0.0199    0.0062   -0.0043    0.0082   -0.0034
          25    0.0025   -0.0007    0.0056    0.0092    0.0102    0.0083   -0.0049   -0.0156
          26    0.0258   -0.0158    0.0030   -0.0109   -0.0110    0.0194    0.0380   -0.0066
          27   -0.0024    0.0045   -0.0323    0.0139   -0.0107    0.0090   -0.0098   -0.0147
          28   -0.0035    0.0005   -0.0065    0.0024   -0.0017    0.0023   -0.0012   -0.0015
          29   -0.0292   -0.0268    0.0010    0.0096    0.0089    0.0089    0.0089    0.0136
          30   -0.0146    0.0041    0.0366   -0.0191   -0.0173    0.0006   -0.0136   -0.0038
          31   -0.0029    0.0015    0.0065   -0.0031   -0.0014    0.0011   -0.0009    0.0019
          32    0.0279    0.0272   -0.0020    0.0087   -0.0084   -0.0127   -0.0117   -0.0013
          33    0.0150   -0.0022    0.0387   -0.0127    0.0208    0.0013    0.0093   -0.0019
          34   -0.1344    0.0960    0.0046   -0.0059    0.0479   -0.0106    0.0045   -0.0220
          35   -0.0030    0.0020   -0.0046   -0.0041    0.0056   -0.0061   -0.0150    0.0125
          36    0.0121   -0.0061    0.0412    0.0169   -0.0155    0.0111    0.0419   -0.0137
          37    0.0609   -0.0874    0.0028    0.0122   -0.0469    0.0798   -0.1019    0.0316
          38   -0.0064    0.0052    0.0006    0.0123    0.0063   -0.0068   -0.0245    0.0150
          39   -0.0114    0.0097    0.0158    0.0467    0.0056   -0.0088   -0.0441    0.0227
          40   -0.0141    0.0341    0.0957    0.0458   -0.0537    0.0191    0.0324    0.0208
          41    0.0507   -0.0306   -0.0649   -0.0649    0.0491   -0.0400   -0.0246   -0.0264
          42    0.0240   -0.0331   -0.0874   -0.0361    0.0520   -0.0176   -0.0340   -0.0123
          43    0.0338   -0.0628    0.0002    0.0432    0.0349   -0.0659    0.0009   -0.0550
          44   -0.0086    0.0334    0.0158    0.0196   -0.0264    0.0572   -0.0438    0.1111
          45   -0.0215    0.0460    0.0080    0.0033   -0.0295    0.0655   -0.0261    0.0923
          46    0.0337    0.0145   -0.0422    0.0550    0.0948    0.0911    0.0315    0.1619
          47   -0.0362    0.0651   -0.0135    0.0725    0.0348   -0.0234    0.1027   -0.0361
          48   -0.0009    0.0576   -0.0635    0.1271    0.0744    0.0096    0.1195    0.0385
          49   -0.0180    0.0309   -0.1035   -0.0658   -0.0108    0.0254    0.0005    0.0234
          50   -0.0433    0.0213   -0.0674   -0.0850   -0.0089    0.0365   -0.0060    0.0391
          51   -0.0287    0.0322   -0.0955   -0.0555   -0.0103    0.0193   -0.0069    0.0263
          52    0.0322   -0.0625    0.0108   -0.0156    0.0512   -0.0800   -0.0102   -0.0325
          53   -0.0125   -0.0131    0.0247    0.0504    0.0602   -0.1067   -0.0977    0.0025
          54    0.0073   -0.0336    0.0165    0.0319    0.0539   -0.1024   -0.0598   -0.0130
          55    0.0208    0.0206    0.0545    0.0069    0.1128    0.2144   -0.0933   -0.1606
          56    0.0206   -0.0513   -0.0126    0.0797   -0.0634    0.0606   -0.0179   -0.0315
          57   -0.0125   -0.0436   -0.0646    0.1177   -0.1038   -0.0101   -0.0445    0.0010
          58   -0.0445    0.0059   -0.0754    0.0396   -0.0758    0.0081   -0.0198   -0.0649
          59    0.1362    0.1196    0.0117   -0.0331   -0.0375   -0.0203   -0.0169   -0.0438
          60   -0.0596   -0.0122   -0.0034    0.0076   -0.0534    0.0075   -0.0208   -0.0336
          61   -0.0341    0.0063    0.0655   -0.0566   -0.0460   -0.0018   -0.0297    0.0371
          62   -0.1317   -0.1164    0.0267   -0.0267    0.0294    0.0330    0.0398   -0.0039
          63    0.0490    0.0110    0.0039    0.0206    0.0410   -0.0013    0.0189   -0.0223
          64    0.0316   -0.0243   -0.0291   -0.0253   -0.0481    0.0261    0.0870   -0.0084
          65   -0.0040    0.0036    0.0078    0.0070    0.0070   -0.0012   -0.0158    0.0011
          66   -0.0016   -0.0023    0.0049   -0.0062   -0.0080   -0.0095    0.0083    0.0095
          67   -0.0017    0.0009   -0.0001   -0.0004    0.0002   -0.0001    0.0006   -0.0013
          68    0.0029   -0.0016   -0.0007    0.0010   -0.0021   -0.0009   -0.0008   -0.0007
          69    0.0048   -0.0021    0.0013    0.0008    0.0014    0.0011   -0.0016    0.0056


   Root No.      33        34        35        36        37        38        39        40

                33 A      34 A      35 A      36 A      37 A      38 A      39 A      40 A   

                1129.4    1147.4    1148.4    1157.8    1186.9    1222.1    1233.2    1255.7
  
           1   -0.0307    0.0125    0.0005    0.0045   -0.0070    0.0001    0.0204   -0.0045
           2   -0.0138    0.0000    0.0024   -0.0005   -0.0066    0.0037   -0.0003    0.0042
           3    0.0111   -0.0049   -0.0021   -0.0005    0.0032   -0.0008   -0.0032    0.0008
           4   -0.0021    0.0112   -0.0059   -0.0080   -0.0051   -0.0136    0.0197    0.0150
           5    0.0016   -0.0019    0.0015   -0.0002   -0.0001    0.0059    0.0037   -0.0036
           6    0.0011    0.0033    0.0004   -0.0015    0.0003    0.0002    0.0040    0.0005
           7    0.0011    0.0011   -0.0015   -0.0001    0.0003   -0.0005    0.0004   -0.0010
           8    0.0070   -0.0016   -0.0003   -0.0004    0.0021   -0.0005   -0.0025    0.0000
           9   -0.0017   -0.0008    0.0008   -0.0001   -0.0006    0.0004   -0.0003    0.0005
          10    0.0004   -0.0001   -0.0001   -0.0001    0.0000   -0.0000   -0.0005   -0.0001
          11   -0.0011    0.0002    0.0001    0.0001   -0.0003    0.0001    0.0004    0.0001
          12    0.0002    0.0007   -0.0005    0.0002    0.0004   -0.0003    0.0011   -0.0003
          13   -0.0055   -0.0213   -0.0009   -0.0041    0.0003    0.0026   -0.0060    0.0130
          14   -0.0206   -0.0100    0.0285   -0.0049    0.0025   -0.0040    0.0179   -0.0084
          15    0.0103    0.0200   -0.0075    0.0152   -0.0051    0.0015    0.0154   -0.0068
          16    0.0052    0.0269    0.0047   -0.0009    0.0022    0.0085   -0.0021    0.0125
          17    0.0135    0.0029   -0.0050    0.0178   -0.0082   -0.0022   -0.0011    0.0082
          18   -0.0050   -0.0054    0.0058   -0.0410    0.0108   -0.0014    0.0006    0.0042
          19    0.0229   -0.0089    0.0093   -0.0080   -0.0012    0.0065   -0.0393    0.0090
          20    0.0304    0.0098   -0.0205   -0.0038    0.0157   -0.0157   -0.0042   -0.0259
          21   -0.0260    0.0212    0.0101    0.0026   -0.0036   -0.0080    0.0017   -0.0344
          22   -0.0027   -0.0190   -0.0029    0.0069   -0.0006    0.0039   -0.0067   -0.0023
          23   -0.0128    0.0005   -0.0176   -0.0121    0.0094    0.0107   -0.0147   -0.0037
          24    0.0018   -0.0137   -0.0003    0.0185   -0.0107   -0.0045   -0.0152    0.0008
          25    0.0015   -0.0000    0.0090    0.0090    0.0073    0.0033   -0.0365   -0.0131
          26   -0.0041    0.0021    0.0120    0.0015    0.0125    0.0048    0.0007    0.0013
          27    0.0024   -0.0207   -0.0024    0.0062    0.0139    0.0339   -0.0007   -0.0182
          28   -0.0006   -0.0007    0.0006    0.0009    0.0006   -0.0034   -0.0107   -0.0071
          29   -0.0076   -0.0038    0.0001    0.0007   -0.0033    0.0036   -0.0010    0.0049
          30    0.0136   -0.0124    0.0003   -0.0005    0.0011   -0.0020   -0.0254    0.0033
          31    0.0029   -0.0009   -0.0006   -0.0014   -0.0038   -0.0032   -0.0090   -0.0087
          32    0.0095    0.0026   -0.0003   -0.0003   -0.0036   -0.0042    0.0017    0.0008
          33   -0.0135    0.0133   -0.0031   -0.0010   -0.0008   -0.0101    0.0239    0.0178
          34    0.0740    0.1076    0.1958    0.0102    0.0057   -0.0032    0.1090   -0.0295
          35   -0.0082   -0.0029    0.0011    0.0018    0.0094    0.0005    0.0006   -0.0092
          36    0.0276    0.0026   -0.0046   -0.0181   -0.0187   -0.0059   -0.0028    0.0364
          37    0.0392    0.1971   -0.1359   -0.0336    0.0291    0.0432   -0.0030   -0.0257
          38   -0.0166   -0.0068    0.0073   -0.0246    0.0048    0.0012    0.0009    0.0095
          39   -0.0364   -0.0144    0.0181   -0.0910    0.0227    0.0023    0.0025    0.0077
          40   -0.0539   -0.0363   -0.0440    0.0619    0.0026   -0.0501    0.0230   -0.1012
          41    0.0496    0.0083    0.0383   -0.0310   -0.0081    0.0445    0.0167    0.0960
          42    0.0464    0.0347    0.0463   -0.0613   -0.0029    0.0506   -0.0199    0.0987
          43    0.0039   -0.0446    0.0218   -0.1472    0.0372   -0.0381    0.0504   -0.0552
[...]
 FREQ.      1314.35         C  5 -- C  7         +11.8% ( 51.3%)     69.6%
 T-DIPOLE    0.2507         C  7 -- C 10         +10.4% ( 48.2%)     73.0%
 TRAVEL      0.0778         C  7 -- H 16         +10.1% ( 47.6%)      0.0%
 RED. MASS   1.2623         O  2 -- C  9          +8.8% ( 44.5%)     94.5%
 EFF. MASS   8.4846

 VIBRATION   43   43A         ATOM PAIR      ENERGY CONTRIBUTION    RADIAL
 FREQ.      1355.73         C  8 -- H 17          +9.7% ( 41.4%)      0.1%
 T-DIPOLE    0.1145         C  7 -- C 10          +9.2% ( 40.3%)     80.5%
 TRAVEL      0.0907         C  7 -- H 16          +9.2% ( 40.2%)      0.1%
 RED. MASS   0.6244         O  1 -- C  7          +9.0% ( 39.7%)     87.1%
 EFF. MASS   6.0514

 VIBRATION   44   44A         ATOM PAIR      ENERGY CONTRIBUTION    RADIAL
 FREQ.      1365.00         C  5 -- C  6         +15.5% ( 53.8%)     79.6%
 T-DIPOLE    0.0684         C  5 -- H 15         +14.0% ( 51.3%)      0.4%
 TRAVEL      0.0871         C  5 -- H 14         +12.7% ( 48.7%)      0.2%
 RED. MASS   0.9937         C  5 -- C  7         +11.9% ( 47.1%)     80.5%
 EFF. MASS   6.5077

 VIBRATION   45   45A         ATOM PAIR      ENERGY CONTRIBUTION    RADIAL
 FREQ.      1392.79         C  9 -- C 11         +10.3% ( 39.6%)     61.3%
 T-DIPOLE    0.3002         C  7 -- C 10          +8.4% ( 35.8%)     94.7%
 TRAVEL      0.0967         C  5 -- H 14          +8.2% ( 35.5%)      2.7%
 RED. MASS   0.4401         C  8 -- C  9          +7.8% ( 34.5%)     47.9%
 EFF. MASS   5.1730

 VIBRATION   46   46A         ATOM PAIR      ENERGY CONTRIBUTION    RADIAL
 FREQ.      1399.64         C  8 -- H 18         +23.1% ( 46.9%)      3.9%
 T-DIPOLE    0.1185         C  8 -- H 17         +21.3% ( 45.0%)      4.2%
 TRAVEL      0.1449         C  5 -- H 15         +12.5% ( 34.4%)      3.4%
 RED. MASS   0.2296         C  5 -- H 14         +10.4% ( 31.5%)      5.2%
 EFF. MASS   2.2930

 VIBRATION   47   47A         ATOM PAIR      ENERGY CONTRIBUTION    RADIAL
 FREQ.      1408.01         C  5 -- C  6         +11.3% ( 44.5%)     92.0%
 T-DIPOLE    0.2780         C  5 -- H 15          +9.4% ( 40.6%)      2.8%
 TRAVEL      0.0883         C  8 -- C  9          +9.2% ( 40.2%)     64.1%
 RED. MASS   0.6775         C  6 -- C  8          +9.1% ( 39.9%)     75.9%
 EFF. MASS   6.1436

 VIBRATION   48   48A         ATOM PAIR      ENERGY CONTRIBUTION    RADIAL
 FREQ.      1414.86         C  6 -- H 13         +24.9% ( 56.6%)      4.3%
 T-DIPOLE    0.0416         C  6 -- H 12         +20.9% ( 51.8%)      6.7%
 TRAVEL      0.1105         C  6 -- C  8         +13.8% ( 42.2%)     76.6%
 RED. MASS   0.5359         C  5 -- C  6          +7.7% ( 31.5%)     25.7%
 EFF. MASS   3.9004

 VIBRATION   49   49A         ATOM PAIR      ENERGY CONTRIBUTION    RADIAL
 FREQ.      1420.11         C  9 -- C 11         +15.0% ( 52.2%)     85.4%
 T-DIPOLE    0.8683         O  2 -- H 22         +13.0% ( 48.6%)      1.9%
 TRAVEL      0.0820         C  8 -- C  9         +12.4% ( 47.5%)     55.0%
 RED. MASS   1.0758         O  2 -- C  9         +10.5% ( 43.7%)     13.6%
 EFF. MASS   7.0566

 VIBRATION   50   50A         ATOM PAIR      ENERGY CONTRIBUTION    RADIAL
 FREQ.      1583.25         O  4 -- H 23         +96.4% ( 94.5%)      3.7%
 T-DIPOLE    0.3440         O  3 -- O  4          +2.7% ( 15.7%)     10.5%
 TRAVEL      0.1509         O  1 -- O  3          +0.9% (  9.2%)      0.7%
 RED. MASS   0.8952
 EFF. MASS   1.8692

 VIBRATION   51   51A         ATOM PAIR      ENERGY CONTRIBUTION    RADIAL
 FREQ.      1883.45         C 10 -- C 11         +44.7% ( 98.7%)    100.0%
 T-DIPOLE    0.1602         C  9 -- C 11         +14.0% ( 55.3%)     48.5%
 TRAVEL      0.0549         C  7 -- C 10         +14.0% ( 55.2%)     48.4%
 RED. MASS   5.4810         C 11 -- H 21         +13.3% ( 53.8%)      4.5%
 EFF. MASS  11.8690         C 10 -- H 20         +13.2% ( 53.7%)      4.7%

 VIBRATION   52   52A         ATOM PAIR      ENERGY CONTRIBUTION    RADIAL
 FREQ.      2799.82         C  9 -- H 19         +91.3% ( 97.2%)     99.9%
 T-DIPOLE    0.0796         C  7 -- H 16          +5.3% ( 23.5%)     99.9%
 TRAVEL      0.1288         O  2 -- C  9          +1.0% ( 10.3%)      9.3%
 RED. MASS   0.8318         C  8 -- C  9          +1.0% ( 10.2%)     11.3%
 EFF. MASS   1.4515

 VIBRATION   53   53A         ATOM PAIR      ENERGY CONTRIBUTION    RADIAL
 FREQ.      2813.33         C  7 -- H 16         +91.3% ( 97.1%)    100.0%
 T-DIPOLE    0.0912         C  9 -- H 19          +5.3% ( 23.3%)    100.0%
 TRAVEL      0.1280         O  1 -- C  7          +1.1% ( 10.5%)     11.8%
 RED. MASS   0.8318         C  5 -- C  7          +1.1% ( 10.5%)     11.1%
 EFF. MASS   1.4629

 VIBRATION   54   54A         ATOM PAIR      ENERGY CONTRIBUTION    RADIAL
 FREQ.      2943.93         C  6 -- H 13         +51.1% ( 74.4%)     97.1%
 T-DIPOLE    0.0427         C  6 -- H 12         +40.0% ( 65.8%)     95.7%
 TRAVEL      0.1217         C  5 -- H 15          +2.1% ( 15.2%)     97.6%
 RED. MASS   0.4599         C  8 -- H 18          +2.1% ( 15.2%)     97.5%
 EFF. MASS   1.5478

 VIBRATION   55   55A         ATOM PAIR      ENERGY CONTRIBUTION    RADIAL
 FREQ.      2956.47         C  5 -- H 14         +28.8% ( 55.7%)     97.3%
 T-DIPOLE    0.0954         C  8 -- H 17         +27.0% ( 54.0%)     97.3%
 TRAVEL      0.1219         C  5 -- H 15         +21.6% ( 48.2%)     95.6%
 RED. MASS   0.2637         C  8 -- H 18         +20.3% ( 46.7%)     95.6%
 EFF. MASS   1.5358

 VIBRATION   56   56A         ATOM PAIR      ENERGY CONTRIBUTION    RADIAL
 FREQ.      2957.35         C  8 -- H 17         +27.0% ( 53.9%)     97.3%
 T-DIPOLE    0.1216         C  5 -- H 14         +25.2% ( 52.1%)     97.3%
 TRAVEL      0.1213         C  8 -- H 18         +20.1% ( 46.5%)     95.6%
 RED. MASS   0.2330         C  5 -- H 15         +18.8% ( 45.0%)     95.6%
 EFF. MASS   1.5499

 VIBRATION   57   57A         ATOM PAIR      ENERGY CONTRIBUTION    RADIAL
 FREQ.      3025.81         C  6 -- H 12         +45.4% ( 66.3%)     98.1%
 T-DIPOLE    0.0490         C  6 -- H 13         +41.1% ( 63.1%)     97.3%
 TRAVEL      0.1322         C  5 -- H 15          +5.8% ( 23.8%)     99.1%
 RED. MASS   0.3769         C  8 -- H 18          +3.5% ( 18.4%)     99.3%
 EFF. MASS   1.2746

 VIBRATION   58   58A         ATOM PAIR      ENERGY CONTRIBUTION    RADIAL
 FREQ.      3030.58         C 11 -- H 21         +54.6% ( 75.0%)    100.0%
 T-DIPOLE    0.3308         C 10 -- H 20         +43.1% ( 66.6%)    100.0%
 TRAVEL      0.1236         C 10 -- C 11          +1.1% ( 10.5%)      0.1%
 RED. MASS   0.4712         C  9 -- C 11          +0.7% (  8.5%)     19.5%
 EFF. MASS   1.4561

 VIBRATION   59   59A         ATOM PAIR      ENERGY CONTRIBUTION    RADIAL
 FREQ.      3033.99         C  5 -- H 15         +50.6% ( 70.1%)     98.2%
 T-DIPOLE    0.1226         C  5 -- H 14         +40.4% ( 62.6%)     96.9%
 TRAVEL      0.1323         C  6 -- H 12          +5.1% ( 22.3%)     99.0%
 RED. MASS   0.4177         C  6 -- H 13          +2.4% ( 15.1%)     94.8%
 EFF. MASS   1.2702

 VIBRATION   60   60A         ATOM PAIR      ENERGY CONTRIBUTION    RADIAL
 FREQ.      3036.52         C  8 -- H 18         +52.8% ( 71.5%)     98.2%
 T-DIPOLE    0.1282         C  8 -- H 17         +41.5% ( 63.4%)     96.9%
 TRAVEL      0.1322         C  6 -- H 12          +3.3% ( 17.8%)     99.2%
 RED. MASS   0.4465         C  6 -- H 13          +1.2% ( 10.9%)     93.7%
 EFF. MASS   1.2711

 VIBRATION   61   61A         ATOM PAIR      ENERGY CONTRIBUTION    RADIAL
 FREQ.      3050.50         C 10 -- H 20         +54.0% ( 74.5%)     99.9%
 T-DIPOLE    0.3993         C 11 -- H 21         +42.5% ( 66.1%)     99.9%
 TRAVEL      0.1183         C 10 -- C 11          +2.0% ( 14.3%)     99.4%
 RED. MASS   0.4722         C  7 -- C 10          +0.9% (  9.4%)     10.9%
 EFF. MASS   1.5792

 VIBRATION   62   62A         ATOM PAIR      ENERGY CONTRIBUTION    RADIAL
 FREQ.      3901.31         O  2 -- H 22         +99.6% (100.0%)    100.0%
 T-DIPOLE    0.2121         O  2 -- C  9          +0.4% (  6.3%)      7.5%
 TRAVEL      0.1115
 RED. MASS   0.9481
 EFF. MASS   1.3892

 VIBRATION   63   63A         ATOM PAIR      ENERGY CONTRIBUTION    RADIAL
 FREQ.      3957.22         O  4 -- H 23         +99.7% (100.0%)     99.9%
 T-DIPOLE    0.3460         O  3 -- O  4          +0.3% (  5.7%)      0.9%
 TRAVEL      0.1119
 RED. MASS   0.9478
 EFF. MASS   1.3612

      SYMMETRY NUMBER FOR POINT-GROUP C1  =  1


          SYSTEM IS A GROUND STATE



 InChI=1S/C7H12O4/c8-6-2-1-3-7(5-4-6)10-11-9/h4-9H,1-3H2


          MOLECULE IS NOT LINEAR

          THERE ARE 63 GENUINE VIBRATIONS IN THIS SYSTEM
          THIS THERMODYNAMICS CALCULATION IS LIMITED TO
          MOLECULES WHICH HAVE NO INTERNAL ROTATIONS




                    CALCULATED THERMODYNAMIC PROPERTIES
                                          *
   TEMP. (K)   PARTITION FUNCTION   H.O.F.    ENTHALPY  HEAT CAPACITY ENTROPY
                                   KCAL/MOL   CAL/MOLE    CAL/K/MOL  CAL/K/MOL


 298.00  VIB.     0.6202D+04                  5551.3322    37.7702    35.9820
         ROT.     0.1095D+07                   888.2813     2.9808    30.6158
         INT.     0.6792D+10                  6439.6135    40.7510    66.5978
         TRA.     0.1960D+28                  1480.4688     4.9680    41.1199
         TOT.                      -54.960    7920.0824    45.7190   107.7177

 200.00  VIB.     0.2885D+03                  2474.0831    25.1187    23.6276
         ROT.     0.6022D+06                   596.1620     2.9808    29.4271
         INT.     0.1737D+09                  3070.2450    28.0995    53.0547
         TRA.     0.1077D+28                   993.6033     4.9680    39.1388
         TOT.                      -58.816    4063.8483    33.0676    92.1935

 210.00  VIB.     0.3940D+03                  2731.5796    26.3815    24.8837
         ROT.     0.6479D+06                   625.9700     2.9808    29.5726
         INT.     0.2553D+09                  3357.5496    29.3623    54.4562
         TRA.     0.1159D+28                  1043.2834     4.9680    39.3812
         TOT.                      -58.479    4400.8330    34.3304    93.8374

 220.00  VIB.     0.5382D+03                  3001.7358    27.6509    26.1402
         ROT.     0.6947D+06                   655.7781     2.9808    29.7112
         INT.     0.3739D+09                  3657.5139    30.6317    55.8514
         TRA.     0.1243D+28                  1092.9636     4.9680    39.6123
         TOT.                      -58.129    4750.4775    35.5998    95.4637

 230.00  VIB.     0.7354D+03                  3284.6241    28.9281    27.3975
         ROT.     0.7426D+06                   685.5862     2.9808    29.8437
         INT.     0.5461D+09                  3970.2103    31.9089    57.2412
         TRA.     0.1329D+28                  1142.6437     4.9680    39.8331
         TOT.                      -57.767    5112.8540    36.8769    97.0743

 240.00  VIB.     0.1005D+04                  3580.3236    30.2132    28.6558
         ROT.     0.7916D+06                   715.3943     2.9808    29.9706
         INT.     0.7958D+09                  4295.7179    33.1940    58.6263
         TRA.     0.1416D+28                  1192.3239     4.9680    40.0446
         TOT.                      -57.392    5488.0418    38.1620    98.6709

 250.00  VIB.     0.1375D+04                  3888.9124    31.5058    29.9153
         ROT.     0.8415D+06                   745.2024     2.9808    30.0923
         INT.     0.1157D+10                  4634.1148    34.4866    60.0076
         TRA.     0.1506D+28                  1242.0041     4.9680    40.2474
         TOT.                      -57.004    5876.1189    39.4546   100.2549

 260.00  VIB.     0.1881D+04                  4210.4610    32.8049    31.1763
         ROT.     0.8925D+06                   775.0105     2.9808    30.2092
         INT.     0.1678D+10                  4985.4715    35.7857    61.3854
         TRA.     0.1597D+28                  1291.6842     4.9680    40.4422
         TOT.                      -56.603    6277.1557    40.7537   101.8277

 270.00  VIB.     0.2573D+04                  4545.0269    34.1090    32.4388
         ROT.     0.9445D+06                   804.8186     2.9808    30.3217
         INT.     0.2430D+10                  5349.8455    37.0898    62.7604
         TRA.     0.1690D+28                  1341.3644     4.9680    40.6297
         TOT.                      -56.189    6691.2099    42.0578   103.3902

 280.00  VIB.     0.3522D+04                  4892.6508    35.4161    33.7029
         ROT.     0.9975D+06                   834.6267     2.9808    30.4301
         INT.     0.3513D+10                  5727.2775    38.3970    64.1329
         TRA.     0.1785D+28                  1391.0445     4.9680    40.8104
         TOT.                      -55.762    7118.3220    43.3650   104.9433

 290.00  VIB.     0.4822D+04                  5253.3533    36.7243    34.9685
         ROT.     0.1051D+07                   864.4348     2.9808    30.5347
         INT.     0.5070D+10                  6117.7881    39.7052    65.5032
         TRA.     0.1881D+28                  1440.7247     4.9680    40.9847
         TOT.                      -55.321    7558.5128    44.6732   106.4879

 300.00  VIB.     0.6604D+04                  5627.1338    38.0314    36.2355
         ROT.     0.1106D+07                   894.2429     2.9808    30.6357
         INT.     0.7306D+10                  6521.3767    41.0122    66.8713
         TRA.     0.1979D+28                  1490.4049     4.9680    41.1532
         TOT.                      -54.868    8011.7816    45.9802   108.0244

 310.00  VIB.     0.9048D+04                  6013.9691    39.3349    37.5038
         ROT.     0.1162D+07                   924.0510     2.9808    30.7335
         INT.     0.1051D+11                  6938.0201    42.3158    68.2373
         TRA.     0.2079D+28                  1540.0850     4.9680    41.3161
         TOT.                      -54.402    8478.1052    47.2838   109.5534

 320.00  VIB.     0.1240D+05                  6413.8138    40.6329    38.7732
         ROT.     0.1219D+07                   953.8591     2.9808    30.8281
         INT.     0.1511D+11                  7367.6729    43.6137    69.6013
         TRA.     0.2181D+28                  1589.7652     4.9680    41.4738
         TOT.                      -53.922    8957.4381    48.5817   111.0751

 330.00  VIB.     0.1699D+05                  6826.6005    41.9230    40.0433
         ROT.     0.1276D+07                   983.6672     2.9808    30.9198
         INT.     0.2169D+11                  7810.2677    44.9038    70.9631
         TRA.     0.2284D+28                  1639.4454     4.9680    41.6267
         TOT.                      -53.430    9449.7131    49.8718   112.5898

 340.00  VIB.     0.2330D+05                  7252.2411    43.2033    41.3139
         ROT.     0.1335D+07                  1013.4753     2.9808    31.0088
         INT.     0.3110D+11                  8265.7165    46.1841    72.3227
         TRA.     0.2388D+28                  1689.1255     4.9680    41.7750
         TOT.                      -52.925    9954.8420    51.1522   114.0976

 350.00  VIB.     0.3195D+05                  7690.6283    44.4720    42.5845
         ROT.     0.1394D+07                  1043.2834     2.9808    31.0952
         INT.     0.4454D+11                  8733.9117    47.4528    73.6798
         TRA.     0.2494D+28                  1738.8057     4.9680    41.9190
         TOT.                      -52.407   10472.7174    52.4208   115.5988

 360.00  VIB.     0.4383D+05                  8141.6366    45.7273    43.8550
         ROT.     0.1454D+07                  1073.0915     2.9808    31.1792
         INT.     0.6374D+11                  9214.7282    48.7081    75.0342
         TRA.     0.2602D+28                  1788.4859     4.9680    42.0589
         TOT.                      -51.877   11003.2140    53.6761   117.0931

 370.00  VIB.     0.6013D+05                  8605.1250    46.9678    45.1248
         ROT.     0.1515D+07                  1102.8996     2.9808    31.2609
         INT.     0.9111D+11                  9708.0246    49.9486    76.3857
         TRA.     0.2711D+28                  1838.1660     4.9680    42.1951
         TOT.                      -51.334   11546.1906    54.9166   118.5808

 380.00  VIB.     0.8251D+05                  9080.9380    48.1920    46.3937
         ROT.     0.1577D+07                  1132.7077     2.9808    31.3404
         INT.     0.1301D+12                 10213.6457    51.1728    77.7340
         TRA.     0.2822D+28                  1887.8462     4.9680    42.3275
         TOT.                      -50.778   12101.4918    56.1409   120.0616

 390.00  VIB.     0.1132D+06                  9568.9079    49.3990    47.6611
         ROT.     0.1640D+07                  1162.5158     2.9808    31.4178
         INT.     0.1857D+12                 10731.4237    52.3798    79.0789
         TRA.     0.2934D+28                  1937.5263     4.9680    42.4566
         TOT.                      -50.211   12668.9500    57.3478   121.5355

 400.00  VIB.     0.1554D+06                 10068.8566    50.5877    48.9268
         ROT.     0.1703D+07                  1192.3239     2.9808    31.4933
         INT.     0.2647D+12                 11261.1805    53.5685    80.4201
         TRA.     0.3048D+28                  1987.2065     4.9680    42.5824
         TOT.                      -49.631   13248.3870    58.5365   123.0024

   *: NOTE: HEATS OF FORMATION ARE RELATIVE TO THE
            ELEMENTS IN THEIR STANDARD STATE AT 298K
              (=  Standard Enthalpy of Formation).

            Hvib:  Zero-point energy is not included.
                   frequencies of less than zero cm-1 are not included.
            Hrot = (3/2)RT
            Htra = (3/2)RT + pV = (5/2)RT

            Heat capacity is Cp, not Cv

          For more information, see: HTTP://OpenMOPAC.net/Manual/thermochemistry.html


           FORCE CONSTANT IN CARTESIAN COORDINATES (Millidynes/A)

    ATOM   CHEMICAL       X               Y               Z
   NUMBER   SYMBOL  FORCE CONSTANT  FORCE CONSTANT  FORCE CONSTANT

      1       O        5.863372        3.084838        1.099128
      2       O        6.597568        7.633507        2.730672
      3       O        2.109690        2.114576        2.794819
      4       O        8.485172        0.647568        3.257690
      5       C        8.433868        7.702323        8.169353
      6       C        8.083022        8.398486        8.229109
      7       C        8.766643        7.996493        8.166337
      8       C        8.485349        7.845277        8.225303
      9       C        9.102124        7.860240        8.290511
     10       C       15.481647        2.653274        8.912367
     11       C       15.463052        2.610603        8.918341
     12       H        0.746526        3.821279        1.812322
     13       H        0.745506        3.120287        2.528395
     14       H        3.221316        0.912875        2.292418
     15       H        0.718905        2.821142        2.895984
     16       H        0.920754        2.670640        2.206771
     17       H        3.245370        0.915586        2.267134
     18       H        0.720775        2.832045        2.884202
     19       H        0.855275        2.678219        2.193923
     20       H        1.853357        0.405634        3.984104
     21       H        1.813823        0.379314        4.055570
     22       H        1.148601        6.488089        1.861137
     23       H        8.422843        0.301441        1.467407

 **********************
 *                    *
 * JOB ENDED NORMALLY *
 *                    *
 **********************



 TOTAL JOB TIME:             4.18 SECONDS

 == MOPAC DONE ==
