 *******************************************************************************
 ** Site#: 14399        For non-commercial use only    Version 18.184L 64BITS **
 *******************************************************************************
 ** Cite this program as: MOPAC2016, Version: 18.184L, James J. P. Stewart,   **
 ** Stewart Computational Chemistry, web: HTTP://OpenMOPAC.net. Days left:  18**
 *******************************************************************************
 **                                                                           **
 **                                MOPAC2016                                  **
 **                                                                           **
 *******************************************************************************

                              PM3 CALCULATION RESULTS

 *******************************************************************************
 *  CALCULATION DONE:                                Sat Jun 15 10:16:52 2019  *
 *  PM3        - The PM3 Hamiltonian to be used
 *  PRECISE    - CRITERIA TO BE INCREASED BY 100 TIMES
 *  NOSYM      - POINT-GROUP SYMMETRY SET TO C1
 *  THREADS=1  - MULTI-THREADING NOT USED
 *  T=         - A TIME OF 172800.0 SECONDS REQUESTED
 *  DUMP=N     - RESTART FILE WRITTEN EVERY  7200.000 SECONDS
 *******************************************************************************
pm3  precise nosym THREADS=1
 InChI=1S/C10H12/c1-2-3-4-7-10-8-5-6-9-10/h2,4-8H,1,3,9H2

   ATOM   CHEMICAL          X               Y               Z
  NUMBER   SYMBOL      (ANGSTROMS)     (ANGSTROMS)     (ANGSTROMS)
 
     1       C         -2.28350000  *  -0.71740000  *   0.11460000  *
     2       C          2.25150000  *  -0.93790000  *   0.65680000  *
     3       C         -1.30930000  *   0.42110000  *   0.11080000  *
     4       C         -3.57180000  *   0.00340000  *  -0.10700000  *
     5       C          0.76520000  *  -0.85660000  *   0.47760000  *
     6       C          2.95390000  *  -0.62290000  *  -0.63540000  *
     7       C          0.15090000  *   0.31590000  *   0.28810000  *
     8       C         -1.94240000  *   1.56950000  *  -0.07900000  *
     9       C         -3.36260000  *   1.30490000  *  -0.21540000  *
    10       C          3.79230000  *   0.41090000  *  -0.75000000  *
    11       H         -2.28810000  *  -1.23710000  *   1.09600000  *
    12       H         -2.07910000  *  -1.42180000  *  -0.71930000  *
    13       H          2.56590000  *  -0.25500000  *   1.47690000  *
    14       H          2.52410000  *  -1.97180000  *   0.95670000  *
    15       H         -4.54520000  *  -0.46470000  *  -0.17140000  *
    16       H          0.19490000  *  -1.77670000  *   0.51390000  *
    17       H          2.77310000  *  -1.25590000  *  -1.49950000  *
    18       H          0.74090000  *   1.22540000  *   0.26160000  *
    19       H         -1.47520000  *   2.54490000  *  -0.12520000  *
    20       H         -4.13290000  *   2.04640000  *  -0.37960000  *
    21       H          3.99560000  *   1.06630000  *   0.09140000  *
    22       H          4.28180000  *   0.60890000  *  -1.69800000  *
 


          CARTESIAN COORDINATES 

    NO.       ATOM           X           Y           Z

     1         C         -2.2835     -0.7174      0.1146
     2         C          2.2515     -0.9379      0.6568
     3         C         -1.3093      0.4211      0.1108
     4         C         -3.5718      0.0034     -0.1070
     5         C          0.7652     -0.8566      0.4776
     6         C          2.9539     -0.6229     -0.6354
     7         C          0.1509      0.3159      0.2881
     8         C         -1.9424      1.5695     -0.0790
     9         C         -3.3626      1.3049     -0.2154
    10         C          3.7923      0.4109     -0.7500
    11         H         -2.2881     -1.2371      1.0960
    12         H         -2.0791     -1.4218     -0.7193
    13         H          2.5659     -0.2550      1.4769
    14         H          2.5241     -1.9718      0.9567
    15         H         -4.5452     -0.4647     -0.1714
    16         H          0.1949     -1.7767      0.5139
    17         H          2.7731     -1.2559     -1.4995
    18         H          0.7409      1.2254      0.2616
    19         H         -1.4752      2.5449     -0.1252
    20         H         -4.1329      2.0464     -0.3796
    21         H          3.9956      1.0663      0.0914
    22         H          4.2818      0.6089     -1.6980

  H: (PM3): J. J. P. STEWART, J. COMP. CHEM. 10, 209 (1989).
  C: (PM3): J. J. P. STEWART, J. COMP. CHEM. 10, 209 (1989).

           Empirical Formula: C10 H12  =    22 atoms



      MOLECULAR POINT GROUP   :   C1  


      RHF CALCULATION, NO. OF DOUBLY OCCUPIED LEVELS = 26


          Geometry optimization using EF

          DIAGONAL MATRIX USED AS START HESSIAN

 CYCLE:     1 TIME:   0.008 TIME LEFT:  2.00D  GRAD.:   132.329 HEAT:  61.96175
 CYCLE:     2 TIME:   0.016 TIME LEFT:  2.00D  GRAD.:    55.469 HEAT:  59.50156
 CYCLE:     3 TIME:   0.004 TIME LEFT:  2.00D  GRAD.:    48.611 HEAT:  58.76380
 CYCLE:     4 TIME:   0.008 TIME LEFT:  2.00D  GRAD.:    31.273 HEAT:  58.18861
 CYCLE:     5 TIME:   0.008 TIME LEFT:  2.00D  GRAD.:    32.292 HEAT:  58.03819
 CYCLE:     6 TIME:   0.008 TIME LEFT:  2.00D  GRAD.:    15.152 HEAT:  57.71856
 CYCLE:     7 TIME:   0.008 TIME LEFT:  2.00D  GRAD.:    16.898 HEAT:  57.62787
 CYCLE:     8 TIME:   0.004 TIME LEFT:  2.00D  GRAD.:    18.608 HEAT:  57.54028
 CYCLE:     9 TIME:   0.004 TIME LEFT:  2.00D  GRAD.:    22.835 HEAT:  57.53745
 CYCLE:    10 TIME:   0.004 TIME LEFT:  2.00D  GRAD.:    20.184 HEAT:  57.49352
 CYCLE:    11 TIME:   0.012 TIME LEFT:  2.00D  GRAD.:    15.650 HEAT:  57.43253
 CYCLE:    12 TIME:   0.004 TIME LEFT:  2.00D  GRAD.:    13.199 HEAT:  57.41516
 CYCLE:    13 TIME:   0.008 TIME LEFT:  2.00D  GRAD.:     4.517 HEAT:  57.37919
 CYCLE:    14 TIME:   0.008 TIME LEFT:  2.00D  GRAD.:     3.411 HEAT:  57.37282
 CYCLE:    15 TIME:   0.004 TIME LEFT:  2.00D  GRAD.:     2.420 HEAT:  57.36672
 CYCLE:    16 TIME:   0.008 TIME LEFT:  2.00D  GRAD.:     4.655 HEAT:  57.36227
 CYCLE:    17 TIME:   0.008 TIME LEFT:  2.00D  GRAD.:     5.266 HEAT:  57.35786
 CYCLE:    18 TIME:   0.008 TIME LEFT:  2.00D  GRAD.:     3.281 HEAT:  57.35415
 CYCLE:    19 TIME:   0.004 TIME LEFT:  2.00D  GRAD.:     2.181 HEAT:  57.35113
 CYCLE:    20 TIME:   0.008 TIME LEFT:  2.00D  GRAD.:     3.407 HEAT:  57.34943
 CYCLE:    21 TIME:   0.004 TIME LEFT:  2.00D  GRAD.:     6.248 HEAT:  57.35354
 CYCLE:    22 TIME:   0.004 TIME LEFT:  2.00D  GRAD.:     3.221 HEAT:  57.34523
 CYCLE:    23 TIME:   0.004 TIME LEFT:  2.00D  GRAD.:     3.446 HEAT:  57.34371
 CYCLE:    24 TIME:   0.004 TIME LEFT:  2.00D  GRAD.:     1.853 HEAT:  57.33852
 CYCLE:    25 TIME:   0.004 TIME LEFT:  2.00D  GRAD.:     2.742 HEAT:  57.33528
 CYCLE:    26 TIME:   0.008 TIME LEFT:  2.00D  GRAD.:     2.146 HEAT:  57.32986
 CYCLE:    27 TIME:   0.004 TIME LEFT:  2.00D  GRAD.:     2.452 HEAT:  57.32076
 CYCLE:    28 TIME:   0.004 TIME LEFT:  2.00D  GRAD.:     2.139 HEAT:  57.31629
 CYCLE:    29 TIME:   0.004 TIME LEFT:  2.00D  GRAD.:     2.276 HEAT:  57.30848
 CYCLE:    30 TIME:   0.008 TIME LEFT:  2.00D  GRAD.:     2.962 HEAT:  57.29816
 CYCLE:    31 TIME:   0.004 TIME LEFT:  2.00D  GRAD.:     2.995 HEAT:  57.28932
 CYCLE:    32 TIME:   0.004 TIME LEFT:  2.00D  GRAD.:     2.811 HEAT:  57.27968
 CYCLE:    33 TIME:   0.004 TIME LEFT:  2.00D  GRAD.:     2.741 HEAT:  57.26886
 CYCLE:    34 TIME:   0.004 TIME LEFT:  2.00D  GRAD.:     2.170 HEAT:  57.25867
 CYCLE:    35 TIME:   0.004 TIME LEFT:  2.00D  GRAD.:     1.909 HEAT:  57.25256
 CYCLE:    36 TIME:   0.008 TIME LEFT:  2.00D  GRAD.:     2.229 HEAT:  57.24589
 CYCLE:    37 TIME:   0.004 TIME LEFT:  2.00D  GRAD.:     2.857 HEAT:  57.23791
 CYCLE:    38 TIME:   0.004 TIME LEFT:  2.00D  GRAD.:     2.427 HEAT:  57.22574
 CYCLE:    39 TIME:   0.008 TIME LEFT:  2.00D  GRAD.:     2.895 HEAT:  57.21524
 CYCLE:    40 TIME:   0.004 TIME LEFT:  2.00D  GRAD.:     4.406 HEAT:  57.20124
 CYCLE:    41 TIME:   0.004 TIME LEFT:  2.00D  GRAD.:     3.371 HEAT:  57.18423
 CYCLE:    42 TIME:   0.004 TIME LEFT:  2.00D  GRAD.:     2.904 HEAT:  57.16170
 CYCLE:    43 TIME:   0.004 TIME LEFT:  2.00D  GRAD.:     3.125 HEAT:  57.14598
 CYCLE:    44 TIME:   0.004 TIME LEFT:  2.00D  GRAD.:     3.726 HEAT:  57.12153
 CYCLE:    45 TIME:   0.008 TIME LEFT:  2.00D  GRAD.:     5.373 HEAT:  57.10193
 CYCLE:    46 TIME:   0.004 TIME LEFT:  2.00D  GRAD.:     5.305 HEAT:  57.08290
 CYCLE:    47 TIME:   0.004 TIME LEFT:  2.00D  GRAD.:     4.885 HEAT:  57.05866
 CYCLE:    48 TIME:   0.008 TIME LEFT:  2.00D  GRAD.:     3.635 HEAT:  57.03698
 CYCLE:    49 TIME:   0.004 TIME LEFT:  2.00D  GRAD.:     3.241 HEAT:  57.01689
 CYCLE:    50 TIME:   0.004 TIME LEFT:  2.00D  GRAD.:     3.969 HEAT:  56.97698
 CYCLE:    51 TIME:   0.004 TIME LEFT:  2.00D  GRAD.:     5.540 HEAT:  56.93191
 CYCLE:    52 TIME:   0.004 TIME LEFT:  2.00D  GRAD.:     9.600 HEAT:  56.91256
 CYCLE:    53 TIME:   0.004 TIME LEFT:  2.00D  GRAD.:     7.443 HEAT:  56.87697
 CYCLE:    54 TIME:   0.008 TIME LEFT:  2.00D  GRAD.:     3.312 HEAT:  56.84899
 CYCLE:    55 TIME:   0.004 TIME LEFT:  2.00D  GRAD.:     2.607 HEAT:  56.83215
 CYCLE:    56 TIME:   0.004 TIME LEFT:  2.00D  GRAD.:     2.555 HEAT:  56.80865
 CYCLE:    57 TIME:   0.008 TIME LEFT:  2.00D  GRAD.:     2.494 HEAT:  56.79465
 CYCLE:    58 TIME:   0.004 TIME LEFT:  2.00D  GRAD.:     1.957 HEAT:  56.77952
 CYCLE:    59 TIME:   0.004 TIME LEFT:  2.00D  GRAD.:     2.143 HEAT:  56.76912
 CYCLE:    60 TIME:   0.004 TIME LEFT:  2.00D  GRAD.:     2.200 HEAT:  56.75666
 CYCLE:    61 TIME:   0.004 TIME LEFT:  2.00D  GRAD.:     2.353 HEAT:  56.74477
 CYCLE:    62 TIME:   0.004 TIME LEFT:  2.00D  GRAD.:     1.722 HEAT:  56.73600
 CYCLE:    63 TIME:   0.008 TIME LEFT:  2.00D  GRAD.:     2.368 HEAT:  56.72997
 CYCLE:    64 TIME:   0.004 TIME LEFT:  2.00D  GRAD.:     1.890 HEAT:  56.72390
 CYCLE:    65 TIME:   0.004 TIME LEFT:  2.00D  GRAD.:     2.088 HEAT:  56.71686
 CYCLE:    66 TIME:   0.004 TIME LEFT:  2.00D  GRAD.:     1.926 HEAT:  56.70630
 CYCLE:    67 TIME:   0.008 TIME LEFT:  2.00D  GRAD.:     1.770 HEAT:  56.69932
 CYCLE:    68 TIME:   0.004 TIME LEFT:  2.00D  GRAD.:     1.479 HEAT:  56.69274
 CYCLE:    69 TIME:   0.004 TIME LEFT:  2.00D  GRAD.:     1.646 HEAT:  56.68745
 CYCLE:    70 TIME:   0.004 TIME LEFT:  2.00D  GRAD.:     2.168 HEAT:  56.67966
 CYCLE:    71 TIME:   0.008 TIME LEFT:  2.00D  GRAD.:     2.708 HEAT:  56.66843
 CYCLE:    72 TIME:   0.004 TIME LEFT:  2.00D  GRAD.:     3.885 HEAT:  56.64543
 CYCLE:    73 TIME:   0.004 TIME LEFT:  2.00D  GRAD.:     3.307 HEAT:  56.62977
 CYCLE:    74 TIME:   0.004 TIME LEFT:  2.00D  GRAD.:     4.738 HEAT:  56.61399
 CYCLE:    75 TIME:   0.004 TIME LEFT:  2.00D  GRAD.:     4.230 HEAT:  56.59275
 CYCLE:    76 TIME:   0.008 TIME LEFT:  2.00D  GRAD.:     3.369 HEAT:  56.57881
 CYCLE:    77 TIME:   0.004 TIME LEFT:  2.00D  GRAD.:     5.664 HEAT:  56.54874
 CYCLE:    78 TIME:   0.004 TIME LEFT:  2.00D  GRAD.:     2.849 HEAT:  56.53032
 CYCLE:    79 TIME:   0.004 TIME LEFT:  2.00D  GRAD.:     2.980 HEAT:  56.51298
 CYCLE:    80 TIME:   0.008 TIME LEFT:  2.00D  GRAD.:     2.969 HEAT:  56.49414
 CYCLE:    81 TIME:   0.004 TIME LEFT:  2.00D  GRAD.:     2.647 HEAT:  56.48238
 CYCLE:    82 TIME:   0.004 TIME LEFT:  2.00D  GRAD.:     2.632 HEAT:  56.46583
 CYCLE:    83 TIME:   0.004 TIME LEFT:  2.00D  GRAD.:     2.669 HEAT:  56.44532
 CYCLE:    84 TIME:   0.008 TIME LEFT:  2.00D  GRAD.:     3.689 HEAT:  56.42590
 CYCLE:    85 TIME:   0.004 TIME LEFT:  2.00D  GRAD.:     3.930 HEAT:  56.40575
 CYCLE:    86 TIME:   0.004 TIME LEFT:  2.00D  GRAD.:     9.128 HEAT:  56.40370
 CYCLE:    87 TIME:   0.004 TIME LEFT:  2.00D  GRAD.:     4.534 HEAT:  56.37179
 CYCLE:    88 TIME:   0.004 TIME LEFT:  2.00D  GRAD.:     3.038 HEAT:  56.35356
 CYCLE:    89 TIME:   0.008 TIME LEFT:  2.00D  GRAD.:     3.635 HEAT:  56.32223
 CYCLE:    90 TIME:   0.004 TIME LEFT:  2.00D  GRAD.:     6.693 HEAT:  56.30783
 CYCLE:    91 TIME:   0.004 TIME LEFT:  2.00D  GRAD.:     2.905 HEAT:  56.28686
 CYCLE:    92 TIME:   0.004 TIME LEFT:  2.00D  GRAD.:     2.999 HEAT:  56.27492
 CYCLE:    93 TIME:   0.008 TIME LEFT:  2.00D  GRAD.:     3.040 HEAT:  56.25667
 CYCLE:    94 TIME:   0.004 TIME LEFT:  2.00D  GRAD.:     3.597 HEAT:  56.24182
 CYCLE:    95 TIME:   0.004 TIME LEFT:  2.00D  GRAD.:     2.731 HEAT:  56.22950
 CYCLE:    96 TIME:   0.004 TIME LEFT:  2.00D  GRAD.:     2.636 HEAT:  56.21579
 CYCLE:    97 TIME:   0.004 TIME LEFT:  2.00D  GRAD.:     3.544 HEAT:  56.21203
 CYCLE:    98 TIME:   0.008 TIME LEFT:  2.00D  GRAD.:     2.067 HEAT:  56.20605
 CYCLE:    99 TIME:   0.004 TIME LEFT:  2.00D  GRAD.:     1.676 HEAT:  56.20357
 CYCLE:   100 TIME:   0.004 TIME LEFT:  2.00D  GRAD.:     0.869 HEAT:  56.20140
 CYCLE:   101 TIME:   0.004 TIME LEFT:  2.00D  GRAD.:     1.433 HEAT:  56.19765
 CYCLE:   102 TIME:   0.004 TIME LEFT:  2.00D  GRAD.:     1.755 HEAT:  56.19515
 CYCLE:   103 TIME:   0.008 TIME LEFT:  2.00D  GRAD.:     1.291 HEAT:  56.19300
 CYCLE:   104 TIME:   0.004 TIME LEFT:  2.00D  GRAD.:     1.374 HEAT:  56.19086
 CYCLE:   105 TIME:   0.004 TIME LEFT:  2.00D  GRAD.:     1.601 HEAT:  56.18825
 CYCLE:   106 TIME:   0.004 TIME LEFT:  2.00D  GRAD.:     1.688 HEAT:  56.18559
 CYCLE:   107 TIME:   0.008 TIME LEFT:  2.00D  GRAD.:     1.584 HEAT:  56.18177
 CYCLE:   108 TIME:   0.004 TIME LEFT:  2.00D  GRAD.:     1.610 HEAT:  56.17815
 CYCLE:   109 TIME:   0.004 TIME LEFT:  2.00D  GRAD.:     1.657 HEAT:  56.17405
 CYCLE:   110 TIME:   0.004 TIME LEFT:  2.00D  GRAD.:     2.050 HEAT:  56.16895
 CYCLE:   111 TIME:   0.004 TIME LEFT:  2.00D  GRAD.:     1.958 HEAT:  56.16338
 CYCLE:   112 TIME:   0.008 TIME LEFT:  2.00D  GRAD.:     1.564 HEAT:  56.15976
 CYCLE:   113 TIME:   0.004 TIME LEFT:  2.00D  GRAD.:     1.128 HEAT:  56.15821
 CYCLE:   114 TIME:   0.004 TIME LEFT:  2.00D  GRAD.:     0.908 HEAT:  56.15729
 CYCLE:   115 TIME:   0.004 TIME LEFT:  2.00D  GRAD.:     0.795 HEAT:  56.15665
 CYCLE:   116 TIME:   0.008 TIME LEFT:  2.00D  GRAD.:     0.433 HEAT:  56.15633
 CYCLE:   117 TIME:   0.004 TIME LEFT:  2.00D  GRAD.:     0.313 HEAT:  56.15616
 CYCLE:   118 TIME:   0.004 TIME LEFT:  2.00D  GRAD.:     0.268 HEAT:  56.15607
 CYCLE:   119 TIME:   0.004 TIME LEFT:  2.00D  GRAD.:     0.235 HEAT:  56.15598
 CYCLE:   120 TIME:   0.004 TIME LEFT:  2.00D  GRAD.:     0.208 HEAT:  56.15592
 CYCLE:   121 TIME:   0.004 TIME LEFT:  2.00D  GRAD.:     0.201 HEAT:  56.15587
 CYCLE:   122 TIME:   0.008 TIME LEFT:  2.00D  GRAD.:     0.199 HEAT:  56.15582
 CYCLE:   123 TIME:   0.004 TIME LEFT:  2.00D  GRAD.:     0.252 HEAT:  56.15573
 CYCLE:   124 TIME:   0.004 TIME LEFT:  2.00D  GRAD.:     0.221 HEAT:  56.15566
 CYCLE:   125 TIME:   0.004 TIME LEFT:  2.00D  GRAD.:     0.726 HEAT:  56.15552
 CYCLE:   126 TIME:   0.008 TIME LEFT:  2.00D  GRAD.:     0.423 HEAT:  56.15515
 CYCLE:   127 TIME:   0.004 TIME LEFT:  2.00D  GRAD.:     0.338 HEAT:  56.15477
 CYCLE:   128 TIME:   0.004 TIME LEFT:  2.00D  GRAD.:     0.374 HEAT:  56.15391
 CYCLE:   129 TIME:   0.004 TIME LEFT:  2.00D  GRAD.:     0.612 HEAT:  56.15287
 CYCLE:   130 TIME:   0.004 TIME LEFT:  2.00D  GRAD.:     0.588 HEAT:  56.15204
 CYCLE:   131 TIME:   0.008 TIME LEFT:  2.00D  GRAD.:     0.473 HEAT:  56.15107
 CYCLE:   132 TIME:   0.004 TIME LEFT:  2.00D  GRAD.:     0.587 HEAT:  56.15053
 CYCLE:   133 TIME:   0.004 TIME LEFT:  2.00D  GRAD.:     0.543 HEAT:  56.15015
 CYCLE:   134 TIME:   0.004 TIME LEFT:  2.00D  GRAD.:     0.496 HEAT:  56.14958
 CYCLE:   135 TIME:   0.008 TIME LEFT:  2.00D  GRAD.:     0.362 HEAT:  56.14901
 CYCLE:   136 TIME:   0.004 TIME LEFT:  2.00D  GRAD.:     0.263 HEAT:  56.14887
 CYCLE:   137 TIME:   0.004 TIME LEFT:  2.00D  GRAD.:     0.422 HEAT:  56.14887
 CYCLE:   138 TIME:   0.004 TIME LEFT:  2.00D  GRAD.:     0.117 HEAT:  56.14874
 CYCLE:   139 TIME:   0.004 TIME LEFT:  2.00D  GRAD.:     0.092 HEAT:  56.14872
 CYCLE:   140 TIME:   0.008 TIME LEFT:  2.00D  GRAD.:     0.088 HEAT:  56.14870
 CYCLE:   141 TIME:   0.004 TIME LEFT:  2.00D  GRAD.:     0.091 HEAT:  56.14869
 CYCLE:   142 TIME:   0.004 TIME LEFT:  2.00D  GRAD.:     0.080 HEAT:  56.14868
 CYCLE:   143 TIME:   0.004 TIME LEFT:  2.00D  GRAD.:     0.061 HEAT:  56.14868
 CYCLE:   144 TIME:   0.004 TIME LEFT:  2.00D  GRAD.:     0.061 HEAT:  56.14867
 CYCLE:   145 TIME:   0.008 TIME LEFT:  2.00D  GRAD.:     0.054 HEAT:  56.14867
 CYCLE:   146 TIME:   0.004 TIME LEFT:  2.00D  GRAD.:     0.107 HEAT:  56.14867
 CYCLE:   147 TIME:   0.004 TIME LEFT:  2.00D  GRAD.:     0.066 HEAT:  56.14866
 CYCLE:   148 TIME:   0.004 TIME LEFT:  2.00D  GRAD.:     0.090 HEAT:  56.14866
 CYCLE:   149 TIME:   0.004 TIME LEFT:  2.00D  GRAD.:     0.042 HEAT:  56.14865

     GRADIENT =  0.04248  IS LESS THAN CUTOFF =  0.05000



 -------------------------------------------------------------------------------
 pm3  precise nosym THREADS=1
 InChI=1S/C10H12/c1-2-3-4-7-10-8-5-6-9-10/h2,4-8H,1,3,9H2



     GEOMETRY OPTIMISED USING EIGENVECTOR FOLLOWING (EF).     
     SCF FIELD WAS ACHIEVED                                   


                              PM3 CALCULATION
                                                       MOPAC2016 (Version: 18.184L)
                                                       Sat Jun 15 10:16:52 2019
                                                       No. of days remaining =  18




          FINAL HEAT OF FORMATION =         56.14865 KCAL/MOL =     234.92597 KJ/MOL


          TOTAL ENERGY            =      -1367.96146 EV
          ELECTRONIC ENERGY       =      -6976.67053 EV  POINT GROUP:     C1  
          CORE-CORE REPULSION     =       5608.70906 EV
          COSMO AREA              =        197.27 SQUARE ANGSTROMS
          COSMO VOLUME            =        191.76 CUBIC ANGSTROMS

          GRADIENT NORM           =          0.04248 = 0.00906 PER ATOM
          IONIZATION POTENTIAL    =          8.612182 EV
          HOMO LUMO ENERGIES (EV) =         -8.612 -0.226
          NO. OF FILLED LEVELS    =         26
          MOLECULAR WEIGHT        =        132.2048

          MOLECULAR DIMENSIONS (Angstroms)

            Atom       Atom       Distance
            H    22    H    20     9.80499
            H    13    H    15     4.28810
            H    21    H    14     2.74507


          SCF CALCULATIONS        =        160
 
          WALL-CLOCK TIME         =          0.762 SECONDS
          COMPUTATION TIME        =          0.704 SECONDS




   ATOM   CHEMICAL          X               Y               Z
  NUMBER   SYMBOL      (ANGSTROMS)     (ANGSTROMS)     (ANGSTROMS)
 
     1       C         -2.14920611  *  -0.63934125  *  -0.31814447  *
     2       C          2.27968220  *  -0.37048579  *   0.62375178  *
     3       C         -1.41896843  *   0.55028584  *   0.25156172  *
     4       C         -3.56720045  *  -0.15305444  *  -0.39817644  *
     5       C          0.82617959  *  -0.43338071  *   0.31259250  *
     6       C          3.09352388  *  -0.94245206  *  -0.48556021  *
     7       C         -0.00176647  *   0.59597037  *   0.52632150  *
     8       C         -2.30689802  *   1.56113980  *   0.45999201  *
     9       C         -3.63836340  *   1.11980063  *   0.05550093  *
    10       C          4.16328550  *  -0.33524400  *  -0.98505371  *
    11       H         -2.05909904  *  -1.52797409  *   0.33325732  *
    12       H         -1.75876978  *  -0.92315441  *  -1.31273099  *
    13       H          2.59737488  *   0.66546459  *   0.86147482  *
    14       H          2.46904771  *  -0.96330280  *   1.54300127  *
    15       H         -4.37763258  *  -0.77360613  *  -0.77351662  *
    16       H          0.45601173  *  -1.38042954  *  -0.10131996  *
    17       H          2.76127423  *  -1.91304346  *  -0.87379890  *
    18       H          0.37088557  *   1.54584769  *   0.93303172  *
    19       H         -2.09347573  *   2.55041153  *   0.86102256  *
    20       H         -4.52381936  *   1.74863287  *   0.12450639  *
    21       H          4.52049791  *   0.62924262  *  -0.63411910  *
    22       H          4.75940979  *  -0.76438602  *  -1.78450175  *

                             CARTESIAN COORDINATES

   1    C       -2.149206108    -0.639341246    -0.318144472
   2    C        2.279682201    -0.370485786     0.623751781
   3    C       -1.418968427     0.550285838     0.251561716
   4    C       -3.567200446    -0.153054444    -0.398176444
   5    C        0.826179590    -0.433380710     0.312592502
   6    C        3.093523883    -0.942452064    -0.485560212
   7    C       -0.001766470     0.595970375     0.526321495
   8    C       -2.306898019     1.561139802     0.459992011
   9    C       -3.638363396     1.119800635     0.055500931
  10    C        4.163285499    -0.335244005    -0.985053706
  11    H       -2.059099043    -1.527974091     0.333257317
  12    H       -1.758769780    -0.923154406    -1.312730992
  13    H        2.597374879     0.665464594     0.861474822
  14    H        2.469047712    -0.963302805     1.543001275
  15    H       -4.377632578    -0.773606126    -0.773516625
  16    H        0.456011730    -1.380429543    -0.101319957
  17    H        2.761274227    -1.913043459    -0.873798896
  18    H        0.370885575     1.545847694     0.933031725
  19    H       -2.093475731     2.550411525     0.861022561
  20    H       -4.523819357     1.748632870     0.124506389
  21    H        4.520497907     0.629242620    -0.634119103
  22    H        4.759409791    -0.764386023    -1.784501755


           Empirical Formula: C10 H12  =    22 atoms



      MOLECULAR POINT GROUP   :   C1  


                  EIGENVALUES  
 -40.23287 -36.95048 -31.97302 -27.80328 -27.39276 -24.26250 -20.55403 -19.98478
 -18.59477 -18.52171 -17.54198 -16.26846 -15.30635 -15.05525 -15.00490 -14.32812
 -13.75012 -13.58480 -13.11950 -12.81062 -12.29899 -12.18292 -11.34057 -10.54048
 -10.20567  -8.61218  -0.22599   1.08539   1.31115   2.33887   3.07054   3.30371
   3.40758   3.57578   3.61286   3.81523   3.86113   3.97232   4.04535   4.16273
   4.22657   4.32585   4.35491   4.39744   4.66136   5.17349   5.51571   5.56033
   5.79311   5.85289   6.11309   6.23582


              NET ATOMIC CHARGES AND DIPOLE CONTRIBUTIONS

  ATOM NO.   TYPE          CHARGE      No. of ELECS.   s-Pop       p-Pop       
    1          C          -0.041070        4.0411     1.14326     2.89781
    2          C          -0.032816        4.0328     1.13696     2.89585
    3          C          -0.108492        4.1085     1.19417     2.91433
    4          C          -0.159716        4.1597     1.20734     2.95237
    5          C          -0.140257        4.1403     1.19614     2.94411
    6          C          -0.135458        4.1355     1.19498     2.94048
    7          C          -0.085507        4.0855     1.17059     2.91491
    8          C          -0.109536        4.1095     1.19189     2.91765
    9          C          -0.119644        4.1196     1.19104     2.92860
   10          C          -0.163962        4.1640     1.18244     2.98152
   11          H           0.083069        0.9169     0.91693
   12          H           0.083918        0.9161     0.91608
   13          H           0.058819        0.9412     0.94118
   14          H           0.062284        0.9377     0.93772
   15          H           0.115369        0.8846     0.88463
   16          H           0.102320        0.8977     0.89768
   17          H           0.097014        0.9030     0.90299
   18          H           0.102336        0.8977     0.89766
   19          H           0.115548        0.8845     0.88445
   20          H           0.114024        0.8860     0.88598
   21          H           0.082033        0.9180     0.91797
   22          H           0.079725        0.9203     0.92028
 DIPOLE           X         Y         Z       TOTAL
 POINT-CHG.     0.171    -0.518     0.025     0.546
 HYBRID        -0.009    -0.031    -0.019     0.038
 SUM            0.162    -0.549     0.005     0.572


          ATOMIC ORBITAL ELECTRON POPULATIONS

     Atom    s        px        py        pz   
    1  C   1.14326   0.93248   0.96575   0.99958
    2  C   1.13696   0.92546   1.00586   0.96454
    3  C   1.19417   0.93897   0.96584   1.00951
    4  C   1.20734   0.96920   0.97189   1.01128
    5  C   1.19614   0.95389   0.98602   1.00420
    6  C   1.19498   0.96991   0.99185   0.97873
    7  C   1.17059   0.92480   0.98180   1.00831
    8  C   1.19189   0.93797   0.97536   1.00431
    9  C   1.19104   0.96467   0.96154   1.00240
   10  C   1.18244   0.97741   1.00127   1.00284
   11  H   0.91693
   12  H   0.91608
   13  H   0.94118
   14  H   0.93772
   15  H   0.88463
   16  H   0.89768
   17  H   0.90299
   18  H   0.89766
   19  H   0.88445
   20  H   0.88598
   21  H   0.91797
   22  H   0.92028
 *******************************************************************************
 ** Site#: 14399        For non-commercial use only    Version 18.184L 64BITS **
 *******************************************************************************
 ** Cite this program as: MOPAC2016, Version: 18.184L, James J. P. Stewart,   **
 ** Stewart Computational Chemistry, web: HTTP://OpenMOPAC.net. Days left:  18**
 *******************************************************************************
 **                                                                           **
 **                                MOPAC2016                                  **
 **                                                                           **
 *******************************************************************************

                              PM3 CALCULATION RESULTS

 *******************************************************************************
 *  CALCULATION DONE:                                Sat Jun 15 10:16:52 2019  *
 *  PM3        - The PM3 Hamiltonian to be used
 *  OLDGEO     - PREVIOUS GEOMETRY TO BE USED
 *  PRECISE    - CRITERIA TO BE INCREASED BY 100 TIMES
 *  NOSYM      - POINT-GROUP SYMMETRY SET TO C1
 *  THREADS=1  - MULTI-THREADING NOT USED
 *  T=         - A TIME OF 172800.0 SECONDS REQUESTED
 *  DUMP=N     - RESTART FILE WRITTEN EVERY  7200.000 SECONDS
 *  THERMO     - THERMODYNAMIC QUANTITIES TO BE CALCULATED
 *******************************************************************************
oldgeo thermo nosym precise THREADS=1  pm3
 InChI=1S/C10H12/c1-2-3-4-7-10-8-5-6-9-10/h2,4-8H,1,3,9H2

   ATOM   CHEMICAL          X               Y               Z
  NUMBER   SYMBOL      (ANGSTROMS)     (ANGSTROMS)     (ANGSTROMS)
 
     1       C         -2.14920611  *  -0.63934125  *  -0.31814447  *
     2       C          2.27968220  *  -0.37048579  *   0.62375178  *
     3       C         -1.41896843  *   0.55028584  *   0.25156172  *
     4       C         -3.56720045  *  -0.15305444  *  -0.39817644  *
     5       C          0.82617959  *  -0.43338071  *   0.31259250  *
     6       C          3.09352388  *  -0.94245206  *  -0.48556021  *
     7       C         -0.00176647  *   0.59597037  *   0.52632150  *
     8       C         -2.30689802  *   1.56113980  *   0.45999201  *
     9       C         -3.63836340  *   1.11980063  *   0.05550093  *
    10       C          4.16328550  *  -0.33524400  *  -0.98505371  *
    11       H         -2.05909904  *  -1.52797409  *   0.33325732  *
    12       H         -1.75876978  *  -0.92315441  *  -1.31273099  *
    13       H          2.59737488  *   0.66546459  *   0.86147482  *
    14       H          2.46904771  *  -0.96330280  *   1.54300127  *
    15       H         -4.37763258  *  -0.77360613  *  -0.77351662  *
    16       H          0.45601173  *  -1.38042954  *  -0.10131996  *
    17       H          2.76127423  *  -1.91304346  *  -0.87379890  *
    18       H          0.37088557  *   1.54584769  *   0.93303172  *
    19       H         -2.09347573  *   2.55041153  *   0.86102256  *
    20       H         -4.52381936  *   1.74863287  *   0.12450639  *
    21       H          4.52049791  *   0.62924262  *  -0.63411910  *
    22       H          4.75940979  *  -0.76438602  *  -1.78450175  *
 


          CARTESIAN COORDINATES 

    NO.       ATOM           X           Y           Z

     1         C         -2.1492     -0.6393     -0.3181
     2         C          2.2797     -0.3705      0.6238
     3         C         -1.4190      0.5503      0.2516
     4         C         -3.5672     -0.1531     -0.3982
     5         C          0.8262     -0.4334      0.3126
     6         C          3.0935     -0.9425     -0.4856
     7         C         -0.0018      0.5960      0.5263
     8         C         -2.3069      1.5611      0.4600
     9         C         -3.6384      1.1198      0.0555
    10         C          4.1633     -0.3352     -0.9851
    11         H         -2.0591     -1.5280      0.3333
    12         H         -1.7588     -0.9232     -1.3127
    13         H          2.5974      0.6655      0.8615
    14         H          2.4690     -0.9633      1.5430
    15         H         -4.3776     -0.7736     -0.7735
    16         H          0.4560     -1.3804     -0.1013
    17         H          2.7613     -1.9130     -0.8738
    18         H          0.3709      1.5458      0.9330
    19         H         -2.0935      2.5504      0.8610
    20         H         -4.5238      1.7486      0.1245
    21         H          4.5205      0.6292     -0.6341
    22         H          4.7594     -0.7644     -1.7845

  H: (PM3): J. J. P. STEWART, J. COMP. CHEM. 10, 209 (1989).
  C: (PM3): J. J. P. STEWART, J. COMP. CHEM. 10, 209 (1989).

           Empirical Formula: C10 H12  =    22 atoms



      MOLECULAR POINT GROUP   :   C1  


      RHF CALCULATION, NO. OF DOUBLY OCCUPIED LEVELS = 26



          HEAT OF FORMATION =      56.148655 KCALS/MOLE


          CARTESIAN COORDINATE DERIVATIVES

   NUMBER  ATOM         X            Y            Z

     1       C     -0.003767     0.008629    -0.000244
     2       C      0.001873    -0.007340     0.004451
     3       C     -0.003746     0.008633    -0.004991
     4       C      0.000405    -0.003596    -0.002465
     5       C     -0.006748     0.004491    -0.006116
     6       C      0.006776    -0.002821     0.003397
     7       C      0.004653     0.001786    -0.001026
     8       C      0.007691    -0.009581     0.004217
     9       C     -0.004480    -0.000200     0.007244
    10       C      0.000066     0.011362     0.003408
    11       H     -0.001434     0.000267    -0.000905
    12       H     -0.004951    -0.003875    -0.000024
    13       H     -0.000031    -0.002062    -0.003384
    14       H     -0.001651     0.006491    -0.006148
    15       H      0.000050     0.000779     0.001126
    16       H      0.002960     0.009213    -0.001646
    17       H     -0.003797     0.003562    -0.003614
    18       H     -0.001332    -0.007136     0.002818
    19       H      0.000664    -0.001949    -0.001547
    20       H      0.006686    -0.003636     0.001004
    21       H     -0.011102    -0.012974    -0.000667
    22       H      0.011213    -0.000044     0.005113
 


          GRADIENT NORM =   0.04152


          TIME FOR SCF CALCULATION =    0.00

          TIME FOR DERIVATIVES     =    0.00

          MOLECULAR WEIGHT =  132.20



          ROTATIONAL CONSTANTS IN CM(-1)

          A =    0.15521740   B =    0.01659235   C =    0.01576744



           PRINCIPAL MOMENTS OF INERTIA IN UNITS OF 10**(-40)*GRAM-CM**2

          A =      180.3456   B =     1687.0890   C =     1775.3536


          ORIENTATION OF MOLECULE IN FORCE CALCULATION

    NO.       ATOM         X         Y         Z

     1          C      -1.9886   -0.5351    0.2880
     2          C       2.5473   -0.5351    0.2880
     3          C      -1.0867    0.6731    0.2880
     4          C      -3.3609    0.0733    0.3014
     5          C       1.0598   -0.5119    0.2776
     6          C       3.0777   -1.5253   -0.6909
     7          C       0.3568    0.6267    0.2768
     8          C      -1.8505    1.8001    0.2991
     9          C      -3.2607    1.4227    0.3075
    10          C       4.0545   -1.2455   -1.5454
    11          H      -1.8180   -1.1758    1.1726
    12          H      -1.8307   -1.1654   -0.6064
    13          H       2.9683    0.4748    0.1050
    14          H       2.8880   -0.8252    1.3039
    15          H      -4.2669   -0.5283    0.3048
    16          H       0.5563   -1.4875    0.2770
    17          H       2.6152   -2.5196   -0.6665
    18          H       0.8614    1.6024    0.2694
    19          H      -1.5002    2.8308    0.3013
    20          H      -4.0737    2.1461    0.3171
    21          H       4.5333   -0.2719   -1.6066
    22          H       4.4451   -1.9763   -2.2468


    FIRST DERIVATIVES WILL BE USED IN THE CALCULATION OF SECOND DERIVATIVES

          ESTIMATED TIME TO COMPLETE CALCULATION =        2.06 SECONDS

    FOR POINT-GROUP C1   THERE ARE   1 UNIQUE SYMMETRY FUNCTIONS.

 STEP:   1 TIME =     0.02 SECS, INTEGRAL =      0.02 TIME LEFT: 172799.97
 STEP:   2 TIME =     0.02 SECS, INTEGRAL =      0.04 TIME LEFT: 172799.95
 STEP:   3 TIME =     0.02 SECS, INTEGRAL =      0.06 TIME LEFT: 172799.93
 STEP:   4 TIME =     0.02 SECS, INTEGRAL =      0.08 TIME LEFT: 172799.91
 STEP:   5 TIME =     0.02 SECS, INTEGRAL =      0.10 TIME LEFT: 172799.89
 STEP:   6 TIME =     0.02 SECS, INTEGRAL =      0.12 TIME LEFT: 172799.87
 STEP:   7 TIME =     0.02 SECS, INTEGRAL =      0.14 TIME LEFT: 172799.85
 STEP:   8 TIME =     0.02 SECS, INTEGRAL =      0.16 TIME LEFT: 172799.83
 STEP:   9 TIME =     0.02 SECS, INTEGRAL =      0.18 TIME LEFT: 172799.81
 STEP:  10 TIME =     0.02 SECS, INTEGRAL =      0.20 TIME LEFT: 172799.79
 STEP:  11 TIME =     0.02 SECS, INTEGRAL =      0.22 TIME LEFT: 172799.77
 STEP:  12 TIME =     0.02 SECS, INTEGRAL =      0.24 TIME LEFT: 172799.75
 STEP:  13 TIME =     0.02 SECS, INTEGRAL =      0.26 TIME LEFT: 172799.73
 STEP:  14 TIME =     0.02 SECS, INTEGRAL =      0.29 TIME LEFT: 172799.71
 STEP:  15 TIME =     0.02 SECS, INTEGRAL =      0.30 TIME LEFT: 172799.69
 STEP:  16 TIME =     0.02 SECS, INTEGRAL =      0.32 TIME LEFT: 172799.67
 STEP:  17 TIME =     0.02 SECS, INTEGRAL =      0.34 TIME LEFT: 172799.65
 STEP:  18 TIME =     0.02 SECS, INTEGRAL =      0.36 TIME LEFT: 172799.63
 STEP:  19 TIME =     0.02 SECS, INTEGRAL =      0.38 TIME LEFT: 172799.61
 STEP:  20 TIME =     0.02 SECS, INTEGRAL =      0.41 TIME LEFT: 172799.59
 STEP:  21 TIME =     0.02 SECS, INTEGRAL =      0.43 TIME LEFT: 172799.57
 STEP:  22 TIME =     0.02 SECS, INTEGRAL =      0.45 TIME LEFT: 172799.54
 STEP:  23 TIME =     0.02 SECS, INTEGRAL =      0.47 TIME LEFT: 172799.52
 STEP:  24 TIME =     0.02 SECS, INTEGRAL =      0.49 TIME LEFT: 172799.50
 STEP:  25 TIME =     0.02 SECS, INTEGRAL =      0.51 TIME LEFT: 172799.48
 STEP:  26 TIME =     0.02 SECS, INTEGRAL =      0.53 TIME LEFT: 172799.46
 STEP:  27 TIME =     0.02 SECS, INTEGRAL =      0.55 TIME LEFT: 172799.44
 STEP:  28 TIME =     0.02 SECS, INTEGRAL =      0.57 TIME LEFT: 172799.42
 STEP:  29 TIME =     0.02 SECS, INTEGRAL =      0.59 TIME LEFT: 172799.40
 STEP:  30 TIME =     0.02 SECS, INTEGRAL =      0.62 TIME LEFT: 172799.38
 STEP:  31 TIME =     0.02 SECS, INTEGRAL =      0.64 TIME LEFT: 172799.36
 STEP:  32 TIME =     0.02 SECS, INTEGRAL =      0.66 TIME LEFT: 172799.34
 STEP:  33 TIME =     0.02 SECS, INTEGRAL =      0.68 TIME LEFT: 172799.31
 STEP:  34 TIME =     0.02 SECS, INTEGRAL =      0.70 TIME LEFT: 172799.29
 STEP:  35 TIME =     0.02 SECS, INTEGRAL =      0.72 TIME LEFT: 172799.27
 STEP:  36 TIME =     0.02 SECS, INTEGRAL =      0.74 TIME LEFT: 172799.25
 STEP:  37 TIME =     0.02 SECS, INTEGRAL =      0.76 TIME LEFT: 172799.23
 STEP:  38 TIME =     0.02 SECS, INTEGRAL =      0.78 TIME LEFT: 172799.21
 STEP:  39 TIME =     0.02 SECS, INTEGRAL =      0.80 TIME LEFT: 172799.19
 STEP:  40 TIME =     0.02 SECS, INTEGRAL =      0.82 TIME LEFT: 172799.17
 STEP:  41 TIME =     0.02 SECS, INTEGRAL =      0.84 TIME LEFT: 172799.15
 STEP:  42 TIME =     0.02 SECS, INTEGRAL =      0.86 TIME LEFT: 172799.13
 STEP:  43 TIME =     0.02 SECS, INTEGRAL =      0.88 TIME LEFT: 172799.11
 STEP:  44 TIME =     0.02 SECS, INTEGRAL =      0.90 TIME LEFT: 172799.09
 STEP:  45 TIME =     0.02 SECS, INTEGRAL =      0.92 TIME LEFT: 172799.07
 STEP:  46 TIME =     0.02 SECS, INTEGRAL =      0.94 TIME LEFT: 172799.05
 STEP:  47 TIME =     0.02 SECS, INTEGRAL =      0.96 TIME LEFT: 172799.03
 STEP:  48 TIME =     0.02 SECS, INTEGRAL =      0.98 TIME LEFT: 172799.01
 STEP:  49 TIME =     0.02 SECS, INTEGRAL =      1.00 TIME LEFT: 172798.99
 STEP:  50 TIME =     0.02 SECS, INTEGRAL =      1.03 TIME LEFT: 172798.96
 STEP:  51 TIME =     0.02 SECS, INTEGRAL =      1.05 TIME LEFT: 172798.95
 STEP:  52 TIME =     0.02 SECS, INTEGRAL =      1.07 TIME LEFT: 172798.93
 STEP:  53 TIME =     0.02 SECS, INTEGRAL =      1.09 TIME LEFT: 172798.91
 STEP:  54 TIME =     0.02 SECS, INTEGRAL =      1.11 TIME LEFT: 172798.88
 STEP:  55 TIME =     0.02 SECS, INTEGRAL =      1.13 TIME LEFT: 172798.86
 STEP:  56 TIME =     0.02 SECS, INTEGRAL =      1.15 TIME LEFT: 172798.84
 STEP:  57 TIME =     0.02 SECS, INTEGRAL =      1.17 TIME LEFT: 172798.82
 STEP:  58 TIME =     0.02 SECS, INTEGRAL =      1.19 TIME LEFT: 172798.80
 STEP:  59 TIME =     0.02 SECS, INTEGRAL =      1.21 TIME LEFT: 172798.78
 STEP:  60 TIME =     0.02 SECS, INTEGRAL =      1.23 TIME LEFT: 172798.76
 STEP:  61 TIME =     0.02 SECS, INTEGRAL =      1.25 TIME LEFT: 172798.74
 STEP:  62 TIME =     0.02 SECS, INTEGRAL =      1.27 TIME LEFT: 172798.72
 STEP:  63 TIME =     0.02 SECS, INTEGRAL =      1.29 TIME LEFT: 172798.70
 STEP:  64 TIME =     0.02 SECS, INTEGRAL =      1.32 TIME LEFT: 172798.68
 STEP:  65 TIME =     0.02 SECS, INTEGRAL =      1.34 TIME LEFT: 172798.66
 STEP:  66 TIME =     0.02 SECS, INTEGRAL =      1.36 TIME LEFT: 172798.64

(To convert to Hartree/Bohr^2, multiply by (10^(-21) x N x a0^2)/(4.184 x 627.51) =  0.0642)


           FORCE MATRIX IN MILLIDYNES/ANGSTROM


                  C  1       C  2       C  3       C  4       C  5       C  6
 ------------------------------------------------------------------------------
     C    1  14.815022
     C    2   0.006160  14.975826
     C    3   4.187347   0.145666  18.670147
     C    4   4.429885   0.004070   1.095596  17.845373
     C    5   0.047322   4.933454   1.108848   0.021968  17.975500
     C    6   0.001442   4.893869   0.020354   0.001419   0.758330  18.159480
     C    7   0.496322   0.840967   5.796158   0.061248  10.306521   0.039936
     C    8   1.195149   0.017220   8.987771   1.655827   0.124686   0.002763
     C    9   1.255319   0.010036   1.633856   9.594230   0.042241   0.002175
     C   10   0.001127   0.837371   0.003997   0.001822   0.043085  11.080992
     H   11   4.505597   0.001705   0.426916   0.414733   0.010682   0.000521
     H   12   4.505256   0.002155   0.426549   0.414739   0.010832   0.000843
     H   13   0.000863   4.416854   0.004165   0.000676   0.456755   0.456457
     H   14   0.000971   4.365035   0.021438   0.001368   0.414298   0.418819
     H   15   0.402513   0.000780   0.042780   5.083393   0.001187   0.000817
     H   16   0.019226   0.431868   0.086005   0.004335   4.754188   0.033307
     H   17   0.000602   0.434398   0.000846   0.000828   0.032088   4.787194
     H   18   0.037817   0.083210   0.442298   0.006820   0.466705   0.006914
     H   19   0.105758   0.002862   0.453449   0.049751   0.003644   0.001308
     H   20   0.115870   0.000543   0.049638   0.446763   0.001639   0.000892
     H   21   0.000214   0.098148   0.001100   0.000468   0.009776   0.490249
     H   22   0.000372   0.137982   0.000975   0.000395   0.018814   0.462524


                  C  7       C  8       C  9       C 10       H 11       H 12
 ------------------------------------------------------------------------------
     C    7  18.552309
     C    8   0.977303  18.054712
     C    9   0.145669   5.231145  18.231409
     C   10   0.008703   0.001014   0.001074  18.033358
     H   11   0.012237   0.044868   0.044530   0.000438   5.113977
     H   12   0.012271   0.044965   0.044591   0.000581   0.546330   5.113243
     H   13   0.050358   0.000578   0.000464   0.048104   0.000329   0.000398
     H   14   0.031585   0.001747   0.001743   0.033425   0.000247   0.000350
     H   15   0.012591   0.102053   0.444345   0.000849   0.011380   0.011405
     H   16   0.467349   0.005813   0.004402   0.002350   0.016826   0.016012
     H   17   0.002294   0.000553   0.000463   0.454642   0.000345   0.000409
     H   18   4.739707   0.028542   0.001686   0.001761   0.001022   0.001029
     H   19   0.050558   5.056881   0.419143   0.000610   0.014570   0.014556
     H   20   0.007534   0.421837   5.068122   0.000455   0.015680   0.015685
     H   21   0.001780   0.000418   0.000364   5.071184   0.000121   0.000169
     H   22   0.002117   0.000321   0.000444   5.106991   0.000133   0.000181


                  H 13       H 14       H 15       H 16       H 17       H 18
 ------------------------------------------------------------------------------
     H   13   5.021222
     H   14   0.557494   4.944989
     H   15   0.000196   0.000296   5.482513
     H   16   0.037816   0.015520   0.001353   5.142852
     H   17   0.038745   0.016809   0.000218   0.026253   5.162749
     H   18   0.030094   0.010387   0.001628   0.105137   0.000767   5.101684
     H   19   0.000336   0.000609   0.005620   0.002082   0.000329   0.010790
     H   20   0.000173   0.000241   0.041959   0.000396   0.000160   0.000711
     H   21   0.029143   0.012623   0.000201   0.000714   0.120307   0.000962
     H   22   0.003251   0.018672   0.000140   0.000777   0.081144   0.000432


                  H 19       H 20       H 21       H 22
 ------------------------------------------------------
     H   19   5.452749
     H   20   0.009361   5.458934
     H   21   0.000293   0.000163   5.466918
     H   22   0.000187   0.000096   0.424660   5.495545


          HEAT OF FORMATION =      56.148655 KCALS/MOLE

          ZERO POINT ENERGY     116.800 KCAL/MOL


           NORMAL COORDINATE ANALYSIS (Total motion = 1 Angstrom)


   Root No.       1         2         3         4         5         6         7         8

                 1 A       2 A       3 A       4 A       5 A       6 A       7 A       8 A   

                  27.5      42.0      79.8     101.6     145.9     249.3     319.6     352.6
  
           1   -0.0012   -0.0133    0.0033    0.0218   -0.0333   -0.0119   -0.0216   -0.0155
           2   -0.0013    0.0023    0.0010   -0.0006   -0.0071   -0.0069   -0.0128    0.0191
           3    0.0342    0.0295    0.0316   -0.0012    0.0071   -0.0347    0.0148   -0.0053
           4   -0.0009   -0.0120    0.0000    0.0041    0.0136    0.0138    0.0253    0.0290
           5   -0.0289   -0.0137    0.0097    0.0026    0.0294    0.0160    0.0046   -0.0367
           6    0.0283   -0.0193   -0.0247   -0.0005   -0.0215    0.0077    0.0329    0.0090
           7    0.0062   -0.0079   -0.0017    0.0069   -0.0089   -0.0020   -0.0042   -0.0136
           8   -0.0068   -0.0018    0.0048    0.0108   -0.0260   -0.0139   -0.0228    0.0211
           9    0.0029   -0.0023    0.0398    0.0128    0.0170   -0.0182   -0.0082    0.0073
          10    0.0024   -0.0105    0.0003    0.0142   -0.0217   -0.0070   -0.0160   -0.0251
          11    0.0076    0.0087   -0.0047   -0.0182    0.0225    0.0049    0.0066   -0.0001
          12    0.0056    0.0307   -0.0234   -0.0221   -0.0187    0.0333   -0.0130    0.0058
          13   -0.0008   -0.0118    0.0001    0.0047    0.0108    0.0127    0.0248    0.0203
          14   -0.0199   -0.0101    0.0099    0.0188   -0.0175    0.0054    0.0283    0.0167
          15    0.0231   -0.0248   -0.0307    0.0496    0.0362    0.0124   -0.0280    0.0279
          16   -0.0067   -0.0021    0.0065   -0.0483    0.0122   -0.0099   -0.0037    0.0451
          17    0.0093    0.0091   -0.0068    0.0107    0.0139    0.0146    0.0165   -0.0170
          18   -0.0138   -0.0367   -0.0047   -0.0380   -0.0064   -0.0048    0.0042   -0.0123
          19    0.0060   -0.0081   -0.0012    0.0075   -0.0096   -0.0009    0.0001   -0.0014
          20   -0.0158   -0.0078    0.0093    0.0203   -0.0306   -0.0040    0.0109    0.0093
          21    0.0134   -0.0093    0.0656    0.0084    0.0012    0.0459   -0.0208    0.0073
          22    0.0131   -0.0027   -0.0068   -0.0070    0.0136    0.0061    0.0061   -0.0368
          23   -0.0018    0.0018    0.0017    0.0011   -0.0102   -0.0082   -0.0161    0.0094
          24   -0.0374   -0.0178    0.0023    0.0073    0.0125   -0.0390    0.0131   -0.0033
          25    0.0107   -0.0044   -0.0056   -0.0025    0.0060    0.0038    0.0018   -0.0379
          26    0.0072    0.0084   -0.0042   -0.0170    0.0205    0.0042    0.0049   -0.0002
          27   -0.0359    0.0026   -0.0397   -0.0147   -0.0116    0.0068    0.0048   -0.0036
          28   -0.0259    0.0681    0.0045   -0.0025    0.0149   -0.0032   -0.0061    0.0309
          29    0.0488    0.0036   -0.0195   -0.0236   -0.0028   -0.0125   -0.0159   -0.0121
          30   -0.0228    0.0416   -0.0111    0.0032   -0.0091   -0.0054   -0.0076   -0.0302
          31   -0.0110   -0.0075   -0.0215    0.0153   -0.0615    0.0153   -0.0426   -0.0070
          32    0.0254    0.0186    0.0181    0.0017   -0.0056   -0.0579    0.0221    0.0009
          33    0.0554    0.0401    0.0487    0.0019    0.0136   -0.0779    0.0448   -0.0207
          34    0.0009   -0.0249    0.0336    0.0435   -0.0300   -0.0506   -0.0203   -0.0152
          35   -0.0303   -0.0157   -0.0150    0.0012   -0.0157    0.0414   -0.0535    0.0403
          36    0.0550    0.0401    0.0481    0.0014    0.0140   -0.0765    0.0448   -0.0205
          37    0.0063   -0.0090   -0.0004    0.0112   -0.0268    0.0097    0.0654    0.0576
          38   -0.0239   -0.0101    0.0071   -0.0004    0.0368    0.0163   -0.0030   -0.0417
          39    0.0724    0.0076   -0.0398    0.0005   -0.0754    0.0023    0.0917    0.0530
          40   -0.0055   -0.0193   -0.0041    0.0383    0.0648    0.0284   -0.0229    0.0153
          41   -0.0745   -0.0383    0.0271   -0.0201    0.0781    0.0146   -0.0537   -0.0895
          42    0.0167   -0.0236   -0.0183   -0.0186   -0.0248    0.0021    0.0324   -0.0007
          43   -0.0013   -0.0131    0.0027    0.0217   -0.0346   -0.0119   -0.0248   -0.0168
          44    0.0133    0.0129   -0.0085   -0.0296    0.0419    0.0126    0.0195   -0.0128
          45    0.0181    0.0515   -0.0444   -0.0391   -0.0382    0.0873   -0.0380    0.0163
          46   -0.0058   -0.0148   -0.0005   -0.0014    0.0332    0.0197    0.0242    0.0131
          47   -0.0173   -0.0085    0.0102    0.0214   -0.0284    0.0016    0.0275    0.0197
          48    0.0247   -0.0379   -0.1200    0.1097    0.1012   -0.0411   -0.0655    0.0633
          49    0.0041   -0.0522    0.0133   -0.1257    0.0113   -0.0408   -0.0487    0.0707
          50    0.0037    0.0304   -0.0096    0.0450    0.0147    0.0281    0.0358   -0.0288
          51   -0.0384   -0.1165    0.0162   -0.1011    0.0094   -0.0170   -0.0211   -0.0015
          52    0.0119   -0.0046   -0.0028    0.0055   -0.0180   -0.0104   -0.0243   -0.0064
          53   -0.0189   -0.0095    0.0107    0.0206   -0.0258    0.0016    0.0235    0.0116
          54    0.0106    0.0005    0.1566   -0.0427   -0.0550    0.1147    0.0010   -0.0234
          55    0.0195    0.0020   -0.0113   -0.0202    0.0360    0.0153    0.0205   -0.0561
          56   -0.0039    0.0003    0.0032    0.0056   -0.0177   -0.0112   -0.0208    0.0161
          57   -0.0669   -0.0409   -0.0012    0.0140    0.0188   -0.0599    0.0257   -0.0086
          58    0.0151   -0.0010   -0.0089   -0.0118    0.0214    0.0104    0.0128   -0.0439
          59    0.0125    0.0122   -0.0075   -0.0273    0.0380    0.0113    0.0174   -0.0066
          60   -0.0644   -0.0044   -0.0783   -0.0245   -0.0240    0.0300    0.0047   -0.0074
          61   -0.0378    0.1198   -0.0011    0.0758    0.0172    0.0336    0.0512    0.0128
          62    0.0562   -0.0167   -0.0181   -0.0582   -0.0050   -0.0304   -0.0436   -0.0050
          63    0.0008    0.1218   -0.0324    0.0653   -0.0256    0.0019    0.0071   -0.0566
          64   -0.0309    0.0787    0.0084   -0.0404    0.0150   -0.0345   -0.0671    0.0348
          65    0.0766    0.0194   -0.0325   -0.0195   -0.0163   -0.0213   -0.0227   -0.0178
          66   -0.0544    0.0311    0.0045   -0.0222    0.0049   -0.0138   -0.0348   -0.0229


   Root No.       9        10        11        12        13        14        15        16

                 9 A      10 A      11 A      12 A      13 A      14 A      15 A      16 A   

                 420.7     435.3     499.4     520.1     626.6     722.0     744.7     824.9
  
           1    0.0096    0.0109   -0.0001    0.0008    0.0002   -0.0215   -0.0010   -0.0483
           2    0.0130    0.0095    0.0166    0.0074    0.0110    0.0327    0.0025    0.0249
           3    0.0069   -0.0023   -0.0004    0.0046    0.0021    0.0021   -0.0246   -0.0007
           4   -0.0017   -0.0073    0.0313    0.0138    0.0222   -0.0159    0.0000    0.0031
           5    0.0068    0.0114    0.0064    0.0054    0.0120   -0.0050    0.0022    0.0091
           6    0.0102    0.0212   -0.0017    0.0031    0.0040    0.0013   -0.0027   -0.0087
           7   -0.0014   -0.0003    0.0002    0.0008    0.0040    0.0554    0.0029   -0.0063
           8    0.0178    0.0137    0.0148    0.0061    0.0055    0.0015    0.0002    0.0350
           9   -0.0333    0.0161   -0.0227    0.0606    0.0054   -0.0003    0.0246   -0.0015
          10    0.0045    0.0081   -0.0074   -0.0025   -0.0048   -0.0519   -0.0027   -0.0573
          11   -0.0029   -0.0030   -0.0009   -0.0004   -0.0001   -0.0054   -0.0002   -0.0582
          12   -0.0282    0.0202    0.0098   -0.0177   -0.0007    0.0009   -0.0202    0.0023
          13   -0.0072   -0.0121    0.0268    0.0118    0.0281   -0.0083    0.0016    0.0013
          14   -0.0280   -0.0298   -0.0143   -0.0085   -0.0084   -0.0233   -0.0015    0.0056
          15    0.0100   -0.0131   -0.0077   -0.0222   -0.0084   -0.0007   -0.0080   -0.0041
          16    0.0084    0.0093   -0.0079   -0.0009   -0.0445   -0.0029   -0.0008    0.0010
          17    0.0226    0.0392   -0.0255   -0.0068    0.0131    0.0161    0.0012   -0.0034
          18   -0.0001    0.0064    0.0075    0.0099   -0.0239    0.0037    0.0016    0.0012
          19   -0.0029   -0.0047    0.0055    0.0018    0.0063    0.0787    0.0035   -0.0138
          20   -0.0235   -0.0248   -0.0249   -0.0142   -0.0240    0.0319   -0.0010   -0.0072
          21    0.0137   -0.0152   -0.0023   -0.0132   -0.0071   -0.0035    0.0038    0.0074
          22   -0.0105   -0.0050   -0.0160   -0.0066   -0.0063   -0.0007   -0.0000    0.0481
          23    0.0130    0.0113    0.0073    0.0037    0.0012   -0.0434   -0.0019    0.0596
          24   -0.0180    0.0189    0.0157   -0.0271    0.0004    0.0005   -0.0042   -0.0026
          25   -0.0085   -0.0033   -0.0182   -0.0072   -0.0094   -0.0192   -0.0012    0.0776
          26   -0.0022   -0.0017   -0.0008   -0.0005   -0.0005   -0.0155   -0.0007   -0.0687
          27    0.0387   -0.0291   -0.0127    0.0208    0.0006    0.0011   -0.0255    0.0004
          28    0.0072    0.0055   -0.0149   -0.0091   -0.0095   -0.0016   -0.0015   -0.0006
          29   -0.0115   -0.0171    0.0114    0.0040   -0.0006    0.0032    0.0002   -0.0024
          30   -0.0127   -0.0153    0.0128    0.0055    0.0172    0.0022    0.0016    0.0004
          31   -0.0055    0.0383    0.0251   -0.0358    0.0019   -0.0443   -0.0723   -0.0155
          32    0.0917   -0.0309    0.0427   -0.0657    0.0020    0.0271    0.0759    0.0451
          33    0.0691   -0.0380    0.0142   -0.0434   -0.0053    0.0004    0.0460    0.0060
          34    0.0428   -0.0015   -0.0126    0.0433    0.0064   -0.0488    0.0705   -0.0267
          35   -0.0618    0.0543   -0.0060    0.0830    0.0229    0.0394   -0.0712    0.0363
          36    0.0675   -0.0375    0.0140   -0.0432   -0.0055   -0.0059    0.0438   -0.0031
          37   -0.0251   -0.0198    0.0166    0.0151    0.0531   -0.0581    0.0088    0.0339
          38    0.0165    0.0221    0.0024    0.0029    0.0097    0.0073    0.0011    0.0032
          39    0.0111    0.0571   -0.0645   -0.0086    0.0690   -0.0396    0.0127    0.0364
          40    0.0128   -0.0274    0.0596   -0.0002    0.0327    0.0144   -0.0177   -0.0346
          41    0.0093   -0.0109    0.0668    0.0249   -0.0730    0.0441   -0.0094   -0.0345
          42    0.0058    0.0217    0.0047    0.0130   -0.0223    0.0042    0.0003   -0.0075
          43    0.0115    0.0141    0.0006    0.0010    0.0006   -0.0447    0.0004   -0.0963
          44   -0.0138   -0.0118   -0.0132   -0.0059   -0.0084   -0.0176   -0.0031   -0.0021
          45   -0.0725    0.0496    0.0228   -0.0452   -0.0062   -0.0125    0.2894   -0.0144
          46    0.0054    0.0019    0.0465    0.0235    0.0547   -0.0593    0.0034    0.0161
          47   -0.0339   -0.0365   -0.0244   -0.0146   -0.0226    0.0046   -0.0025   -0.0021
          48   -0.0191   -0.0171   -0.0368   -0.0072   -0.0342   -0.0159    0.0201    0.0394
          49   -0.0012   -0.0125   -0.0471   -0.0316   -0.0056   -0.0021   -0.0031    0.0016
          50    0.0260    0.0474   -0.0069    0.0071   -0.0035    0.0152    0.0023   -0.0032
          51   -0.0007    0.0013   -0.0277   -0.0146    0.0396   -0.0014    0.0039    0.0177
          52    0.0173    0.0158    0.0143    0.0066    0.0127    0.1252    0.0062   -0.0025
          53   -0.0332   -0.0352   -0.0286   -0.0167   -0.0270    0.0080   -0.0028   -0.0125
          54    0.0549   -0.0274    0.0314   -0.0568    0.0048    0.0038   -0.0393   -0.0118
          55   -0.0238   -0.0141   -0.0326   -0.0151   -0.0172   -0.0377   -0.0017   -0.0155
          56    0.0174    0.0143    0.0128    0.0069    0.0049   -0.0311   -0.0015    0.0823
          57   -0.0339    0.0450    0.0733   -0.1619   -0.0137   -0.0070    0.0733    0.0115
          58   -0.0165   -0.0113   -0.0241   -0.0096   -0.0111    0.0157    0.0019    0.0868
          59   -0.0121   -0.0099   -0.0067   -0.0038   -0.0023    0.0242    0.0001   -0.0607
          60    0.1136   -0.0902   -0.0447    0.0710   -0.0023   -0.0084    0.1843   -0.0062
          61    0.0381    0.0630    0.0075    0.0229   -0.1311    0.0178   -0.0006   -0.0050
          62   -0.0290   -0.0488    0.0070   -0.0084    0.0529   -0.0090   -0.0003    0.0015
          63   -0.0364   -0.0487    0.1003    0.0552   -0.0836   -0.0270    0.0019    0.0218
          64   -0.0268   -0.0591   -0.0445   -0.0511    0.1670   -0.0204   -0.0042   -0.0003
          65   -0.0380   -0.0589    0.0726    0.0342   -0.0656   -0.0267   -0.0004    0.0156
          66   -0.0049   -0.0092   -0.0659   -0.0487    0.1845    0.0223    0.0010   -0.0175


   Root No.      17        18        19        20        21        22        23        24

                17 A      18 A      19 A      20 A      21 A      22 A      23 A      24 A   

                 842.3     868.5     907.9     915.3     933.6     950.9     962.1     969.4
  
           1    0.0055    0.0000    0.0013   -0.0004   -0.0024   -0.0029    0.0172    0.0038
           2    0.0067   -0.0012    0.0030   -0.0012   -0.0052   -0.0087    0.0500    0.0113
           3   -0.0056    0.0455    0.0214    0.0082   -0.0013   -0.0170    0.0008   -0.0167
           4   -0.0054    0.0008   -0.0036    0.0015    0.0037    0.0024   -0.0065    0.0007
           5    0.0214   -0.0028    0.0119   -0.0067   -0.0260   -0.0009   -0.0029   -0.0057
           6   -0.0326    0.0040   -0.0101    0.0029   -0.0166    0.0139   -0.0005    0.0188
           7    0.0083   -0.0009    0.0022   -0.0010   -0.0042   -0.0004   -0.0007   -0.0010
           8   -0.0040    0.0003   -0.0009    0.0004    0.0019    0.0028   -0.0185   -0.0044
           9   -0.0045   -0.0067   -0.0123   -0.0046    0.0015    0.0227    0.0022    0.0140
          10    0.0001    0.0004   -0.0015    0.0005    0.0026    0.0033   -0.0198   -0.0044
          11    0.0051   -0.0001    0.0003   -0.0001   -0.0004    0.0008   -0.0058   -0.0016
          12    0.0086   -0.0047   -0.0151   -0.0049    0.0012    0.0118   -0.0033    0.0226
          13    0.0046   -0.0002   -0.0032    0.0021    0.0142   -0.0034    0.0018   -0.0003
          14   -0.0039    0.0003   -0.0013    0.0011    0.0055   -0.0025    0.0121    0.0030
          15   -0.0204    0.0006    0.0147   -0.0238   -0.0082   -0.0065    0.0094   -0.0123
          16    0.0001    0.0001   -0.0057    0.0103   -0.0181   -0.0057    0.0011   -0.0061
          17    0.0005    0.0000    0.0025   -0.0048    0.0075    0.0044   -0.0041    0.0028
          18    0.0077   -0.0005   -0.0070    0.0114   -0.0020   -0.0092   -0.0002   -0.0102
          19    0.0067   -0.0004    0.0004   -0.0004   -0.0007    0.0038   -0.0259   -0.0064
          20   -0.0076    0.0007    0.0001   -0.0009   -0.0040    0.0043   -0.0108   -0.0010
          21    0.0278    0.0005   -0.0261   -0.0140   -0.0016   -0.0195   -0.0080   -0.0011
          22   -0.0038   -0.0003    0.0005   -0.0001   -0.0009   -0.0020    0.0109    0.0026
          23   -0.0128    0.0012   -0.0038    0.0015    0.0077    0.0050   -0.0287   -0.0061
          24   -0.0115   -0.0363    0.0188    0.0061   -0.0019   -0.0318   -0.0116    0.0095
          25   -0.0103    0.0004   -0.0011    0.0003    0.0014    0.0008   -0.0016   -0.0002
          26    0.0051    0.0001    0.0001    0.0000   -0.0000    0.0005   -0.0032   -0.0006
          27    0.0046   -0.0196   -0.0091   -0.0036    0.0006    0.0189    0.0131   -0.0275
          28   -0.0051    0.0004   -0.0002    0.0016   -0.0125   -0.0011    0.0017   -0.0039
          29   -0.0024    0.0006   -0.0077    0.0058    0.0401   -0.0068    0.0035   -0.0019
          30    0.0064   -0.0005   -0.0029    0.0041    0.0243   -0.0098    0.0016   -0.0132
          31    0.0241    0.0363    0.0026   -0.0010   -0.0055   -0.0879    0.0425    0.0946
          32    0.0264   -0.1126   -0.0490   -0.0219   -0.0047    0.0084    0.0719    0.0775
          33    0.0055   -0.0467   -0.0187   -0.0073   -0.0000    0.0136    0.0103    0.0153
          34   -0.0146   -0.0383    0.0021   -0.0008   -0.0013    0.0609    0.1357   -0.0510
          35   -0.0117    0.1107    0.0579    0.0189   -0.0101   -0.0370    0.0982   -0.0386
          36    0.0046   -0.0446   -0.0190   -0.0067    0.0023    0.0157   -0.0111    0.0108
          37    0.0637   -0.0066    0.0001    0.0150    0.0268   -0.0260    0.0006   -0.0194
          38    0.0130   -0.0022    0.0197   -0.0179   -0.0441    0.0087   -0.0086   -0.0043
          39    0.0974   -0.0119    0.0489   -0.0298   -0.0637   -0.0028   -0.0121   -0.0246
          40   -0.1204    0.0114    0.0089   -0.0391    0.0556    0.0378   -0.0202    0.0028
          41   -0.0962    0.0129   -0.0587    0.0393   -0.0308    0.0205    0.0051    0.0550
          42   -0.0246    0.0046   -0.0334    0.0292   -0.0358    0.0078    0.0061    0.0348
          43    0.0088   -0.0009    0.0018   -0.0003   -0.0028   -0.0055    0.0309    0.0064
          44   -0.0081    0.0015   -0.0042    0.0013    0.0077    0.0137   -0.0814   -0.0184
          45   -0.0554   -0.0734    0.0570    0.0170   -0.0045   -0.0279    0.0219   -0.0986
          46    0.0304   -0.0034    0.0048    0.0036    0.0162   -0.0113    0.0187   -0.0004
          47   -0.0176    0.0020   -0.0053    0.0001    0.0042    0.0020    0.0028    0.0031
          48    0.1497   -0.0239    0.0149    0.2148    0.0370    0.0545   -0.0270    0.0523
          49    0.0106   -0.0043    0.0699   -0.0965    0.1262    0.0400    0.0065    0.0436
          50   -0.0033    0.0018   -0.0299    0.0418   -0.0592   -0.0148   -0.0073   -0.0187
          51    0.0602   -0.0109    0.1068   -0.1200    0.0520    0.0580   -0.0254    0.0351
          52    0.0186   -0.0022    0.0058    0.0019   -0.0082    0.0120   -0.0907   -0.0264
          53   -0.0146    0.0015   -0.0013   -0.0006   -0.0001    0.0013    0.0223    0.0094
          54   -0.0520   -0.0243    0.1517    0.1821    0.0252    0.1002    0.0262    0.0187
          55   -0.0001    0.0016    0.0021   -0.0012   -0.0071   -0.0112    0.0860    0.0214
          56   -0.0146    0.0000   -0.0043    0.0020    0.0101    0.0080   -0.0557   -0.0127
          57    0.0508    0.2508   -0.0651   -0.0196    0.0081    0.1281    0.0484   -0.0481
          58   -0.0045    0.0010    0.0035   -0.0014   -0.0086   -0.0091    0.0585    0.0151
          59    0.0122   -0.0020    0.0045   -0.0022   -0.0111   -0.0091    0.0646    0.0145
          60   -0.0149    0.1935    0.0454    0.0189   -0.0023   -0.0858   -0.0588    0.1192
          61    0.0069   -0.0018    0.0239   -0.0453    0.1769    0.0141    0.0091    0.0373
          62   -0.0055    0.0011   -0.0132    0.0221   -0.0640   -0.0086   -0.0022   -0.0170
          63    0.0484   -0.0085    0.0845   -0.0930   -0.0716    0.0644   -0.0244    0.0577
          64   -0.0333    0.0035    0.0035   -0.0066   -0.1659    0.0483   -0.0175    0.0582
          65    0.0237   -0.0042    0.0351   -0.0261   -0.1192    0.0190   -0.0101    0.0004
          66   -0.0348    0.0060   -0.0442    0.0318    0.1014   -0.0085    0.0041    0.0187


   Root No.      25        26        27        28        29        30        31        32

                25 A      26 A      27 A      28 A      29 A      30 A      31 A      32 A   

                 982.3    1022.3    1034.2    1039.2    1042.9    1082.1    1113.6    1164.9
  
           1    0.0001    0.0015    0.0221   -0.0003    0.0018   -0.0012    0.0023    0.0023
           2   -0.0000    0.0044   -0.0312    0.0010    0.0009   -0.0048    0.0253    0.0059
           3    0.0193    0.0051   -0.0002   -0.0011    0.0001   -0.0000    0.0001   -0.0001
           4    0.0017    0.0076    0.0006    0.0021    0.0060    0.0010   -0.0101    0.0237
           5   -0.0060   -0.0114    0.0000   -0.0038   -0.0002    0.0007   -0.0048   -0.0224
           6    0.0207    0.0134    0.0012    0.0059   -0.0169   -0.0008   -0.0021   -0.0140
           7   -0.0005   -0.0039   -0.0031   -0.0011   -0.0030   -0.0066    0.0152   -0.0039
           8    0.0001   -0.0025    0.0079   -0.0004   -0.0010   -0.0004   -0.0139   -0.0044
           9   -0.0218   -0.0018   -0.0006   -0.0310   -0.0029    0.0003   -0.0003    0.0003
          10   -0.0002   -0.0020   -0.0306    0.0004   -0.0024   -0.0149    0.0180    0.0050
          11    0.0001   -0.0014    0.0040   -0.0005   -0.0009   -0.0015    0.0086    0.0000
          12   -0.0239   -0.0131    0.0006    0.0352    0.0024   -0.0000   -0.0001   -0.0000
          13    0.0023   -0.0061   -0.0018   -0.0005   -0.0095   -0.0018    0.0140   -0.0085
          14    0.0012   -0.0017   -0.0021   -0.0003   -0.0042   -0.0024    0.0030   -0.0069
          15   -0.0209   -0.0320   -0.0011   -0.0135   -0.0056    0.0008    0.0006    0.0063
          16   -0.0062   -0.0067   -0.0010   -0.0043    0.0302   -0.0003    0.0015    0.0001
          17    0.0020    0.0124    0.0000    0.0041   -0.0056    0.0009    0.0011    0.0207
          18   -0.0108   -0.0041   -0.0011   -0.0040    0.0353   -0.0000    0.0014    0.0000
          19   -0.0000   -0.0037    0.0015   -0.0004   -0.0022    0.0098   -0.0029   -0.0057
          20   -0.0005    0.0049    0.0026    0.0008    0.0048    0.0061   -0.0103   -0.0096
          21    0.0242    0.0152    0.0007    0.0162    0.0024   -0.0004   -0.0003   -0.0021
          22    0.0000    0.0014   -0.0159    0.0006    0.0002    0.0104   -0.0018   -0.0024
          23    0.0004   -0.0009   -0.0067    0.0003   -0.0008    0.0108   -0.0200   -0.0049
          24    0.0049   -0.0012    0.0005    0.0207    0.0018   -0.0001   -0.0001   -0.0002
          25    0.0002    0.0005    0.0072   -0.0002    0.0003   -0.0158    0.0146    0.0040
          26   -0.0001   -0.0002    0.0037    0.0001    0.0001    0.0005   -0.0064   -0.0014
          27    0.0149    0.0074   -0.0004   -0.0246   -0.0018    0.0002   -0.0002   -0.0000
          28   -0.0093    0.0132    0.0012    0.0052   -0.0358    0.0002   -0.0014    0.0076
          29    0.0016   -0.0119   -0.0005   -0.0037    0.0138   -0.0002   -0.0015    0.0071
          30   -0.0197    0.0151    0.0012    0.0048   -0.0259    0.0002   -0.0006   -0.0013
          31   -0.0025    0.0643    0.1588   -0.2076   -0.0021    0.0951   -0.0202    0.0055
          32   -0.0460    0.0113   -0.0122   -0.0505    0.0003    0.0175    0.0436    0.0197
          33   -0.0154   -0.0024   -0.0119    0.0013    0.0005   -0.0024    0.0151    0.0086
          34    0.0042   -0.0384    0.1636    0.2086    0.0294    0.0931   -0.0202    0.0044
          35    0.0467    0.0083   -0.0104    0.0540    0.0095    0.0169    0.0438    0.0192
          36   -0.0148   -0.0050    0.0092   -0.0019   -0.0012    0.0013   -0.0143   -0.0083
          37    0.0001   -0.0800    0.0028   -0.0173   -0.0431    0.0109   -0.0693    0.1489
          38   -0.0143    0.0246   -0.0012    0.0028    0.0298   -0.0033    0.0211   -0.0898
          39   -0.0354    0.0049   -0.0007   -0.0045    0.0403   -0.0018    0.0103   -0.0943
          40   -0.0513    0.1894    0.0044    0.0344    0.1432   -0.0049   -0.0169   -0.0446
          41    0.0888   -0.0423    0.0013    0.0038   -0.1122    0.0028   -0.0065    0.0202
          42    0.0650   -0.0567    0.0004   -0.0029   -0.0947    0.0019   -0.0008    0.0208
          43    0.0004    0.0064   -0.1375    0.0022   -0.0004   -0.0918   -0.0769   -0.0110
          44   -0.0002   -0.0137    0.1669   -0.0040   -0.0041    0.1132    0.1554    0.0252
          45    0.0873    0.0351    0.0012   -0.0788   -0.0050    0.0014    0.0014    0.0001
          46    0.0052   -0.0408    0.0213   -0.0088   -0.0444    0.0035    0.0034   -0.1873
          47   -0.0003    0.0166   -0.0141    0.0041    0.0139   -0.0050    0.0080    0.0847
          48    0.0682    0.0797    0.0019    0.0323    0.0051   -0.0022    0.0001   -0.0140
          49    0.0431    0.0066    0.0042    0.0097   -0.1081   -0.0014   -0.0008   -0.1574
          50   -0.0195    0.0075   -0.0024   -0.0018    0.0561    0.0015    0.0017    0.0982
          51    0.0246    0.0580   -0.0005    0.0193   -0.0415    0.0031   -0.0068    0.2165
          52   -0.0034   -0.0354    0.0250   -0.0086   -0.0168    0.0558   -0.1449   -0.0088
          53    0.0005    0.0211   -0.0096    0.0046    0.0124   -0.0169    0.0627   -0.0105
          54   -0.0725   -0.0414   -0.0026   -0.0492   -0.0085    0.0003    0.0026    0.0065
          55   -0.0001    0.0221   -0.1051    0.0059    0.0151    0.2439   -0.1464   -0.0191
          56    0.0005   -0.0079    0.0238   -0.0013   -0.0059   -0.0683    0.0275    0.0001
          57   -0.0147   -0.0020   -0.0003   -0.0486   -0.0045   -0.0017    0.0011    0.0006
          58   -0.0008    0.0072    0.1076   -0.0011    0.0100   -0.1721   -0.0924    0.0025
          59   -0.0002    0.0075    0.1190   -0.0021    0.0110   -0.1749   -0.1288   -0.0036
          60   -0.0594   -0.0217    0.0007    0.0639    0.0048    0.0002    0.0000   -0.0001
          61    0.0631   -0.0720   -0.0039   -0.0215    0.0868   -0.0016   -0.0036   -0.0037
          62   -0.0273    0.0276    0.0016    0.0085   -0.0384    0.0007   -0.0002    0.0153
          63    0.0739   -0.0268   -0.0047   -0.0115    0.1126    0.0003    0.0076   -0.0002
          64    0.0863   -0.0493   -0.0045   -0.0153    0.1016    0.0006    0.0001    0.0069
          65   -0.0136    0.0368    0.0018    0.0118   -0.0548    0.0013   -0.0021    0.0124
          66    0.0488   -0.0690   -0.0044   -0.0226    0.1239   -0.0012    0.0010   -0.0045


   Root No.      33        34        35        36        37        38        39        40

                33 A      34 A      35 A      36 A      37 A      38 A      39 A      40 A   

                1173.2    1202.9    1206.1    1229.6    1239.8    1294.9    1317.7    1363.6
  
           1    0.0073   -0.0089    0.0235   -0.0099    0.0039    0.0515    0.0239    0.0535
           2    0.0204    0.0030    0.0093    0.0056   -0.0036    0.0086    0.0083   -0.0609
           3    0.0000    0.0001   -0.0001    0.0001   -0.0001   -0.0003   -0.0001   -0.0007
           4    0.0129   -0.0260   -0.0085   -0.0041    0.0022   -0.0181    0.0221   -0.0034
           5    0.0243   -0.0272   -0.0152   -0.0025    0.0045    0.0073   -0.0116    0.0006
           6    0.0141   -0.0040   -0.0041    0.0074    0.0076    0.0094   -0.0082    0.0011
           7    0.0001   -0.0014    0.0019   -0.0063    0.0084    0.0182    0.0009   -0.0046
           8   -0.0038   -0.0082    0.0191   -0.0087    0.0052    0.0015   -0.0038   -0.0091
           9    0.0000   -0.0000    0.0000    0.0001    0.0001   -0.0001   -0.0000    0.0000
          10    0.0176    0.0022    0.0106    0.0085   -0.0090   -0.0438   -0.0190   -0.0324
          11   -0.0016    0.0050   -0.0156    0.0033    0.0008    0.0102    0.0062    0.0034
          12   -0.0001    0.0000   -0.0001   -0.0000    0.0001    0.0004    0.0002    0.0003
          13   -0.0406    0.0069    0.0160    0.0009   -0.0327    0.0057   -0.0190   -0.0003
          14   -0.0016    0.0185    0.0083    0.0178   -0.0240    0.0185    0.0002    0.0002
          15   -0.0050   -0.0009    0.0009   -0.0014   -0.0009   -0.0024    0.0022   -0.0002
          16   -0.0025    0.0044    0.0021    0.0017   -0.0007   -0.0033    0.0146    0.0009
          17   -0.0126    0.0393    0.0081   -0.0315   -0.0154   -0.0086    0.0050   -0.0012
          18   -0.0015    0.0186    0.0020   -0.0150   -0.0062    0.0033   -0.0160   -0.0010
          19   -0.0221   -0.0074   -0.0058   -0.0139    0.0120   -0.0215   -0.0151    0.0013
          20    0.0087    0.0032   -0.0058    0.0056    0.0244   -0.0187    0.0091    0.0010
          21    0.0019    0.0000   -0.0004    0.0006    0.0002    0.0008   -0.0004    0.0000
          22   -0.0104    0.0047   -0.0219   -0.0009    0.0040    0.0289    0.0093    0.0337
          23   -0.0238   -0.0055   -0.0011   -0.0106    0.0045    0.0000   -0.0048    0.0218
          24   -0.0000   -0.0001    0.0002   -0.0000   -0.0000   -0.0002   -0.0001   -0.0001
          25    0.0125    0.0057   -0.0055    0.0099   -0.0037   -0.0115    0.0037   -0.0279
          26   -0.0086    0.0030   -0.0148    0.0011    0.0009    0.0026    0.0018    0.0044
          27   -0.0002   -0.0000   -0.0000   -0.0001    0.0000    0.0001   -0.0000    0.0002
          28    0.0010   -0.0059   -0.0001    0.0119    0.0080    0.0016    0.0068    0.0012
          29    0.0012   -0.0154   -0.0011    0.0183    0.0109    0.0022    0.0018    0.0006
          30   -0.0003   -0.0025   -0.0007   -0.0042   -0.0032   -0.0015   -0.0051   -0.0010
          31   -0.0524    0.0188   -0.1073    0.0146   -0.0108   -0.0480   -0.0223   -0.0973
          32    0.0352    0.0134   -0.0174    0.0305   -0.0306   -0.1079   -0.0426    0.2178
          33    0.0192    0.0017    0.0044    0.0116   -0.0154   -0.0582   -0.0252    0.2038
          34   -0.0526    0.0193   -0.1065    0.0145   -0.0102   -0.0470   -0.0217   -0.1000
          35    0.0353    0.0133   -0.0173    0.0305   -0.0309   -0.1085   -0.0428    0.2202
          36   -0.0180   -0.0018   -0.0030   -0.0115    0.0152    0.0576    0.0250   -0.1999
          37    0.1585    0.0506   -0.0627   -0.1173    0.0871    0.0135   -0.0051    0.0061
          38   -0.0361   -0.0846    0.0024    0.0539   -0.0346   -0.0120    0.0151   -0.0027
          39    0.0016   -0.1301   -0.0217    0.0602   -0.0054   -0.0202    0.0537    0.0026
          40    0.0881    0.0313   -0.0222   -0.0001    0.0306    0.0318   -0.0057    0.0063
          41    0.0000   -0.0493   -0.0095    0.0215    0.0063   -0.0233    0.0642    0.0034
          42   -0.0165   -0.0318    0.0010    0.0138    0.0004   -0.0167    0.0260   -0.0009
          43   -0.0398    0.0214   -0.0723    0.0154    0.0004   -0.0240   -0.0054   -0.0202
          44    0.0879   -0.0234    0.1104   -0.0056   -0.0145   -0.0231   -0.0150   -0.0206
          45    0.0008   -0.0003    0.0011   -0.0001   -0.0001    0.0001   -0.0000    0.0001
          46   -0.0083    0.1663    0.0603    0.0829    0.1772   -0.0294    0.0278    0.0156
          47   -0.0179   -0.0644   -0.0147   -0.0235   -0.1364    0.0380   -0.0244   -0.0084
          48    0.0092   -0.0051   -0.0036   -0.0001   -0.0041    0.0039   -0.0030   -0.0000
          49    0.0573    0.0044   -0.0315   -0.1238   -0.0864   -0.0172    0.0060   -0.0033
          50   -0.0408    0.0399    0.0239    0.0266    0.0245   -0.0027    0.0104    0.0007
          51   -0.0670    0.0001    0.0362    0.1265    0.0907    0.0119    0.0036    0.0028
          52    0.1004    0.0885   -0.0063    0.1478   -0.1553    0.0219    0.0226    0.0006
          53   -0.0561   -0.0463   -0.0050   -0.0776    0.1132   -0.0436   -0.0104    0.0012
          54   -0.0069   -0.0018    0.0011   -0.0038   -0.0014   -0.0024    0.0015   -0.0003
          55   -0.0070   -0.0522    0.1346   -0.0388    0.0137   -0.0413   -0.0250   -0.0331
          56   -0.0275    0.0131   -0.0545    0.0008    0.0023    0.0248    0.0065    0.0483
          57   -0.0002    0.0004   -0.0012    0.0003    0.0000    0.0004    0.0002    0.0004
          58    0.0134   -0.0241    0.0809   -0.0099   -0.0088   -0.0548   -0.0254   -0.0256
          59   -0.0100   -0.0312    0.0817   -0.0225   -0.0041   -0.0439   -0.0309    0.0124
          60   -0.0000    0.0000   -0.0002   -0.0001    0.0000    0.0002    0.0000    0.0003
          61    0.0202   -0.0470   -0.0111    0.0543    0.0417    0.0544   -0.1379   -0.0043
          62   -0.0089    0.0096    0.0051   -0.0053   -0.0064   -0.0243    0.0747    0.0034
          63   -0.0232    0.0564    0.0135   -0.0575   -0.0465   -0.0607    0.1645    0.0061
          64    0.0097    0.0294   -0.0021   -0.0122    0.0117    0.0474   -0.1446   -0.0061
          65    0.0082    0.0238   -0.0023   -0.0105    0.0119    0.0477   -0.1506   -0.0068
          66   -0.0051   -0.0209    0.0007    0.0099   -0.0045   -0.0286    0.0827    0.0030


   Root No.      41        42        43        44        45        46        47        48

                41 A      42 A      43 A      44 A      45 A      46 A      47 A      48 A   

                1384.3    1392.3    1418.0    1476.4    1735.4    1799.9    1860.3    1884.3
  
           1    0.0198    0.0186    0.0159   -0.0491    0.0089    0.0048   -0.0013    0.0072
           2    0.0030    0.0041   -0.0219   -0.0584   -0.0067    0.0022   -0.0003    0.0017
           3   -0.0001   -0.0001   -0.0002    0.0000   -0.0001   -0.0000    0.0000   -0.0000
           4    0.0648    0.0255   -0.0379    0.0367   -0.0108   -0.0166   -0.0227    0.0209
           5    0.0059   -0.0416    0.0156   -0.0193    0.0034    0.0049    0.0167   -0.0042
           6    0.0074   -0.0418    0.0136   -0.0119    0.0012    0.0017    0.0231    0.0022
           7   -0.0134   -0.0147    0.0015    0.1106   -0.0869   -0.1081    0.0151   -0.0814
           8   -0.0055   -0.0068    0.0234    0.1079    0.0523    0.1094   -0.0086    0.0400
           9    0.0001   -0.0002    0.0002   -0.0004    0.0009    0.0013   -0.0001    0.0008
          10   -0.0168   -0.0148   -0.0348    0.0022    0.0041    0.0076   -0.0006    0.0030
          11    0.0079    0.0063    0.0219    0.0213    0.1739   -0.0709    0.0023   -0.0079
          12    0.0002    0.0001    0.0004    0.0001    0.0008   -0.0004    0.0000   -0.0001
          13   -0.0233   -0.0064    0.0236   -0.0324    0.0280    0.0537    0.0163   -0.1160
          14   -0.0141   -0.0056   -0.0019    0.0297   -0.0258   -0.0519   -0.0171    0.1281
          15    0.0011    0.0042   -0.0019    0.0014   -0.0002   -0.0004    0.0013    0.0010
          16   -0.0068   -0.0086    0.0040   -0.0012   -0.0001    0.0015    0.1466    0.0251
          17    0.0062    0.0267   -0.0115    0.0101   -0.0006   -0.0004    0.0088    0.0010
          18    0.0025    0.0172   -0.0056    0.0039   -0.0004   -0.0023   -0.1415   -0.0222
          19   -0.0063   -0.0034    0.0119   -0.0693    0.0122   -0.0080   -0.0210    0.1420
          20    0.0202    0.0133   -0.0125   -0.0263    0.0187    0.0420    0.0188   -0.1319
          21   -0.0002   -0.0012    0.0003    0.0002   -0.0002   -0.0001    0.0001   -0.0005
          22   -0.0140   -0.0158   -0.0755    0.0165    0.0394    0.0819   -0.0047    0.0188
          23   -0.0063   -0.0033   -0.0167   -0.0556   -0.0411   -0.1055    0.0075   -0.0338
          24    0.0001    0.0001    0.0004   -0.0004   -0.0005   -0.0011    0.0001   -0.0003
          25    0.0251    0.0240    0.0794   -0.0095   -0.0193    0.0083   -0.0013    0.0073
          26    0.0056    0.0051    0.0196   -0.0022   -0.1670    0.0779   -0.0031    0.0119
          27   -0.0001   -0.0001   -0.0005    0.0000   -0.0007    0.0003   -0.0000    0.0000
          28   -0.0082   -0.0193    0.0092   -0.0071    0.0004   -0.0014   -0.1287   -0.0205
          29   -0.0026   -0.0099    0.0039   -0.0030    0.0000   -0.0005   -0.0339   -0.0052
          30    0.0088    0.0155   -0.0083    0.0063   -0.0004    0.0012    0.1136    0.0182
          31   -0.0184   -0.0179   -0.0136    0.0329    0.0130   -0.0332    0.0028   -0.0130
          32   -0.0033   -0.0039    0.0200    0.0248   -0.0079   -0.0107    0.0008   -0.0041
          33    0.0021    0.0009    0.0308    0.0366   -0.0072   -0.0032    0.0002   -0.0008
          34   -0.0183   -0.0175   -0.0142    0.0324    0.0131   -0.0330    0.0027   -0.0129
          35   -0.0033   -0.0037    0.0202    0.0255   -0.0078   -0.0106    0.0009   -0.0040
          36   -0.0019   -0.0007   -0.0304   -0.0368    0.0069    0.0035   -0.0002    0.0009
          37   -0.1522   -0.0053    0.0539   -0.0468    0.0093    0.0154    0.0329   -0.0251
          38    0.0427    0.0237   -0.0259    0.0195   -0.0051   -0.0090   -0.0157    0.0155
          39   -0.1812    0.1751   -0.0113    0.0152   -0.0010   -0.0019   -0.0292   -0.0011
          40   -0.1523    0.0225    0.0373   -0.0160   -0.0008   -0.0029    0.0013    0.0080
          41   -0.1806    0.1597   -0.0062    0.0148   -0.0012   -0.0018    0.0096    0.0069
          42    0.0063    0.0309   -0.0163    0.0150   -0.0026   -0.0029    0.0079    0.0024
          43    0.0087    0.0069    0.0450    0.0361    0.1350   -0.0469    0.0009   -0.0016
          44   -0.0301   -0.0259   -0.0975   -0.0312    0.0308   -0.0085    0.0002   -0.0009
          45   -0.0002   -0.0001   -0.0008   -0.0004   -0.0008    0.0003   -0.0001   -0.0000
          46    0.0073    0.0261   -0.0244    0.0202   -0.0153   -0.0322   -0.0164    0.0941
          47   -0.0312   -0.0235    0.0232    0.0043   -0.0074   -0.0167   -0.0035    0.0525
          48   -0.0012   -0.0071    0.0032   -0.0021    0.0003    0.0006    0.0015   -0.0022
          49    0.0267    0.0292   -0.0181    0.0128   -0.0016   -0.0021    0.0055    0.0037
          50   -0.0091    0.0096   -0.0017    0.0044   -0.0002    0.0014    0.1145    0.0183
          51   -0.0188   -0.0219    0.0118   -0.0061    0.0006    0.0016    0.0411    0.0047
          52    0.0231    0.0187   -0.0310   -0.0663    0.0075    0.0166    0.0136   -0.0916
          53    0.0067    0.0028    0.0094   -0.0315    0.0280    0.0435    0.0047   -0.0399
          54    0.0003    0.0048   -0.0015    0.0019   -0.0000   -0.0001   -0.0005    0.0008
          55   -0.0049   -0.0013    0.0581    0.0373    0.0141   -0.0874    0.0056   -0.0249
          56   -0.0106   -0.0092   -0.0652   -0.0671   -0.0482   -0.0712    0.0063   -0.0301
[...]
 TRAVEL      0.1231         C  2 -- C  5          +6.9% ( 29.7%)     87.7%
 RED. MASS   0.3190         C  1 -- C  4          +5.7% ( 27.1%)     79.8%
 EFF. MASS   3.3772

 VIBRATION   40   40A         ATOM PAIR      ENERGY CONTRIBUTION    RADIAL
 FREQ.      1363.59         C  1 -- H 12         +23.9% ( 62.3%)      5.2%
 T-DIPOLE    0.3001         C  1 -- H 11         +23.9% ( 62.3%)      5.2%
 TRAVEL      0.0980         C  1 -- C  4         +15.9% ( 50.8%)     95.0%
 RED. MASS   0.9615         C  1 -- C  3         +10.9% ( 42.0%)      0.8%
 EFF. MASS   5.1443

 VIBRATION   41   41A         ATOM PAIR      ENERGY CONTRIBUTION    RADIAL
 FREQ.      1384.29         C  2 -- H 13         +22.2% ( 60.6%)      4.2%
 T-DIPOLE    0.1468         C  2 -- H 14         +21.4% ( 59.6%)      3.6%
 TRAVEL      0.0940         C  2 -- C  5         +14.9% ( 49.6%)     94.1%
 RED. MASS   0.8919         C  2 -- C  6         +10.1% ( 41.0%)      9.8%
 EFF. MASS   5.5139

 VIBRATION   42   42A         ATOM PAIR      ENERGY CONTRIBUTION    RADIAL
 FREQ.      1392.32         C  2 -- H 13         +17.3% ( 57.0%)      3.0%
 T-DIPOLE    0.1447         C  2 -- C  6         +17.0% ( 56.5%)     99.6%
 TRAVEL      0.0861         C  2 -- H 14         +15.8% ( 54.5%)      2.9%
 RED. MASS   1.0525         C  2 -- C  5         +10.0% ( 43.2%)     23.4%
 EFF. MASS   6.5367

 VIBRATION   43   43A         ATOM PAIR      ENERGY CONTRIBUTION    RADIAL
 FREQ.      1417.99         C  8 -- C  9         +22.1% ( 77.5%)     99.9%
 T-DIPOLE    0.3202         C  4 -- C  9          +9.8% ( 51.7%)      0.3%
 TRAVEL      0.0678         C  4 -- C  8          +9.2% ( 49.9%)     99.1%
 RED. MASS   2.1276         C  3 -- C  9          +8.9% ( 49.2%)     92.2%
 EFF. MASS  10.3447

 VIBRATION   44   44A         ATOM PAIR      ENERGY CONTRIBUTION    RADIAL
 FREQ.      1476.42         C  3 -- C  7         +20.4% ( 75.9%)     61.1%
 T-DIPOLE    0.2475         C  1 -- C  3         +19.7% ( 74.5%)     98.5%
 TRAVEL      0.0626         C  3 -- C  8         +16.9% ( 69.0%)     19.2%
 RED. MASS   3.8229         C  3 -- C  9         +12.7% ( 59.9%)     22.7%
 EFF. MASS  11.6603

 VIBRATION   45   45A         ATOM PAIR      ENERGY CONTRIBUTION    RADIAL
 FREQ.      1735.39         C  4 -- C  9         +28.7% ( 90.9%)    100.0%
 T-DIPOLE    0.4705         C  3 -- C  9         +11.6% ( 57.8%)     34.8%
 TRAVEL      0.0569         C  4 -- C  8          +9.6% ( 52.7%)     40.5%
 RED. MASS   3.6527         C  1 -- C  4          +9.1% ( 51.2%)     18.4%
 EFF. MASS  11.9847

 VIBRATION   46   46A         ATOM PAIR      ENERGY CONTRIBUTION    RADIAL
 FREQ.      1799.93         C  3 -- C  8         +24.6% ( 81.4%)     98.4%
 T-DIPOLE    0.0922         C  3 -- C  9         +11.6% ( 55.9%)     99.5%
 TRAVEL      0.0563         C  3 -- C  7          +9.5% ( 50.6%)     71.7%
 RED. MASS   2.9779         C  1 -- C  3          +9.2% ( 50.0%)      1.4%
 EFF. MASS  11.8055

 VIBRATION   47   47A         ATOM PAIR      ENERGY CONTRIBUTION    RADIAL
 FREQ.      1860.34         C  6 -- C 10         +44.0% ( 98.1%)     98.9%
 T-DIPOLE    0.1956         C  2 -- C  6         +16.3% ( 59.7%)     54.0%
 TRAVEL      0.0555         C  6 -- H 17         +15.0% ( 57.2%)      4.0%
 RED. MASS   5.0351         C 10 -- H 21         +10.7% ( 48.3%)     11.0%
 EFF. MASS  11.7855         C 10 -- H 22         +10.5% ( 47.8%)     12.9%

 VIBRATION   48   48A         ATOM PAIR      ENERGY CONTRIBUTION    RADIAL
 FREQ.      1884.29         C  5 -- C  7         +35.6% ( 89.9%)     94.9%
 T-DIPOLE    0.0958         C  3 -- C  7         +17.9% ( 63.7%)     65.9%
 TRAVEL      0.0550         C  7 -- H 18         +12.5% ( 53.3%)      2.0%
 RED. MASS   4.2406         C  2 -- C  5         +10.2% ( 48.2%)     53.2%
 EFF. MASS  11.8295

 VIBRATION   49   49A         ATOM PAIR      ENERGY CONTRIBUTION    RADIAL
 FREQ.      2931.18         C  2 -- H 14         +57.9% ( 79.0%)     97.3%
 T-DIPOLE    0.0458         C  2 -- H 13         +39.6% ( 65.3%)     95.3%
 TRAVEL      0.1222         C  2 -- C  6          +1.1% ( 11.1%)      0.0%
 RED. MASS   0.5327         C  2 -- C  5          +1.1% ( 11.1%)      0.0%
 EFF. MASS   1.5412

 VIBRATION   50   50A         ATOM PAIR      ENERGY CONTRIBUTION    RADIAL
 FREQ.      2981.94         C  1 -- H 12         +49.1% ( 72.5%)     96.8%
 T-DIPOLE    0.1634         C  1 -- H 11         +48.8% ( 72.3%)     96.8%
 TRAVEL      0.1215         C  1 -- C  4          +1.1% ( 10.7%)      0.0%
 RED. MASS   0.5171         C  1 -- C  3          +1.1% ( 10.7%)      0.0%
 EFF. MASS   1.5315

 VIBRATION   51   51A         ATOM PAIR      ENERGY CONTRIBUTION    RADIAL
 FREQ.      3009.52         C  2 -- H 13         +58.1% ( 75.2%)     98.6%
 T-DIPOLE    0.0826         C  2 -- H 14         +39.2% ( 61.8%)     96.3%
 TRAVEL      0.1320         C  2 -- C  5          +0.7% (  8.1%)     29.3%
 RED. MASS   0.4866         C  2 -- C  6          +0.7% (  8.0%)     30.1%
 EFF. MASS   1.2855

 VIBRATION   52   52A         ATOM PAIR      ENERGY CONTRIBUTION    RADIAL
 FREQ.      3025.61         C  7 -- H 18         +96.7% ( 99.7%)    100.0%
 T-DIPOLE    0.2462         C  5 -- C  7          +1.5% ( 12.4%)     37.8%
 TRAVEL      0.1213         C  3 -- C  7          +1.4% ( 12.0%)     15.8%
 RED. MASS   0.9208         C  2 -- H 13          +0.2% (  4.9%)     99.5%
 EFF. MASS   1.5155

 VIBRATION   53   53A         ATOM PAIR      ENERGY CONTRIBUTION    RADIAL
 FREQ.      3035.38         C  5 -- H 16         +95.6% ( 99.1%)    100.0%
 T-DIPOLE    0.2951         C  5 -- C  7          +1.5% ( 12.3%)     38.9%
 TRAVEL      0.1214         C  2 -- C  5          +1.3% ( 11.5%)     14.4%
 RED. MASS   0.8980         C  2 -- H 13          +0.7% (  8.4%)     99.7%
 EFF. MASS   1.5081

 VIBRATION   54   54A         ATOM PAIR      ENERGY CONTRIBUTION    RADIAL
 FREQ.      3042.41         C  6 -- H 17         +95.8% ( 99.2%)    100.0%
 T-DIPOLE    0.2245         C  6 -- C 10          +1.4% ( 12.0%)     30.6%
 TRAVEL      0.1216         C  2 -- C  6          +1.3% ( 11.6%)     14.3%
 RED. MASS   0.9025         C 10 -- H 22          +0.9% (  9.7%)     95.5%
 EFF. MASS   1.4994

 VIBRATION   55   55A         ATOM PAIR      ENERGY CONTRIBUTION    RADIAL
 FREQ.      3049.93         C  1 -- H 11         +49.0% ( 69.2%)     97.3%
 T-DIPOLE    0.2278         C  1 -- H 12         +48.7% ( 69.0%)     97.3%
 TRAVEL      0.1310         C  5 -- H 16          +0.7% (  8.4%)    100.0%
 RED. MASS   0.4762         C  1 -- C  3          +0.7% (  8.4%)     38.1%
 EFF. MASS   1.2884

 VIBRATION   56   56A         ATOM PAIR      ENERGY CONTRIBUTION    RADIAL
 FREQ.      3132.24         C  9 -- H 20         +57.2% ( 77.5%)    100.0%
 T-DIPOLE    0.1321         C  8 -- H 19         +22.0% ( 48.1%)    100.0%
 TRAVEL      0.1197         C  4 -- H 15         +16.3% ( 41.4%)    100.0%
 RED. MASS   0.4102         C  8 -- C  9          +1.3% ( 11.5%)      2.1%
 EFF. MASS   1.5017

 VIBRATION   57   57A         ATOM PAIR      ENERGY CONTRIBUTION    RADIAL
 FREQ.      3135.29         C 10 -- H 21         +90.9% ( 97.1%)     99.8%
 T-DIPOLE    0.1870         C 10 -- H 22          +7.7% ( 28.3%)     74.0%
 TRAVEL      0.1181         C  6 -- C 10          +1.3% ( 11.7%)     20.7%
 RED. MASS   0.8402
 EFF. MASS   1.5419

 VIBRATION   58   58A         ATOM PAIR      ENERGY CONTRIBUTION    RADIAL
 FREQ.      3136.92         C  8 -- H 19         +66.5% ( 83.6%)    100.0%
 T-DIPOLE    0.5358         C  4 -- H 15         +22.0% ( 48.1%)    100.0%
 TRAVEL      0.1185         C  9 -- H 20          +6.6% ( 26.3%)     99.9%
 RED. MASS   0.5096         C  4 -- C  8          +1.4% ( 12.1%)     32.5%
 EFF. MASS   1.5297

 VIBRATION   59   59A         ATOM PAIR      ENERGY CONTRIBUTION    RADIAL
 FREQ.      3147.44         C 10 -- H 22         +90.9% ( 96.0%)     99.6%
 T-DIPOLE    0.2818         C 10 -- H 21          +6.6% ( 25.9%)     47.1%
 TRAVEL      0.1210         C  6 -- C 10          +1.6% ( 12.7%)     75.1%
 RED. MASS   0.8042         C  6 -- H 17          +0.8% (  8.9%)     94.7%
 EFF. MASS   1.4623

 VIBRATION   60   60A         ATOM PAIR      ENERGY CONTRIBUTION    RADIAL
 FREQ.      3152.68         C  4 -- H 15         +56.3% ( 77.2%)     99.9%
 T-DIPOLE    0.4774         C  9 -- H 20         +31.0% ( 57.3%)     99.9%
 TRAVEL      0.1136         C  8 -- H 19          +6.4% ( 26.1%)    100.0%
 RED. MASS   0.4423         C  4 -- C  9          +2.2% ( 15.3%)     98.2%
 EFF. MASS   1.6579

      SYMMETRY NUMBER FOR POINT-GROUP C1  =  1


          SYSTEM IS A GROUND STATE



 InChI=1S/C10H12/c1-2-3-4-7-10-8-5-6-9-10/h2,4-8H,1,3,9H2


          MOLECULE IS NOT LINEAR

          THERE ARE 60 GENUINE VIBRATIONS IN THIS SYSTEM
          THIS THERMODYNAMICS CALCULATION IS LIMITED TO
          MOLECULES WHICH HAVE NO INTERNAL ROTATIONS




                    CALCULATED THERMODYNAMIC PROPERTIES
                                          *
   TEMP. (K)   PARTITION FUNCTION   H.O.F.    ENTHALPY  HEAT CAPACITY ENTROPY
                                   KCAL/MOL   CAL/MOLE    CAL/K/MOL  CAL/K/MOL


 298.00  VIB.     0.3285D+04                  4601.5844    31.4048    31.5320
         ROT.     0.8291D+06                   888.2813     2.9808    30.0626
         INT.     0.2723D+10                  5489.8657    34.3856    61.5947
         TRA.     0.1470D+28                  1480.4688     4.9680    40.5480
         TOT.                       56.149    6970.3346    39.3536   102.1426

 200.00  VIB.     0.2534D+03                  2107.9854    19.8106    21.5388
         ROT.     0.4559D+06                   596.1620     2.9808    28.8740
         INT.     0.1155D+09                  2704.1473    22.7914    50.4128
         TRA.     0.8080D+27                   993.6033     4.9680    38.5668
         TOT.                       52.876    3697.7506    27.7595    88.9796

 210.00  VIB.     0.3301D+03                  2311.4353    20.8849    22.5312
         ROT.     0.4905D+06                   625.9700     2.9808    29.0194
         INT.     0.1619D+09                  2937.4054    23.8658    51.5506
         TRA.     0.8694D+27                  1043.2834     4.9680    38.8092
         TOT.                       53.159    3980.6888    28.8338    90.3599

 220.00  VIB.     0.4294D+03                  2525.7933    21.9919    23.5282
         ROT.     0.5259D+06                   655.7781     2.9808    29.1581
         INT.     0.2258D+09                  3181.5714    24.9727    52.6863
         TRA.     0.9322D+27                  1092.9636     4.9680    39.0403
         TOT.                       53.453    4274.5350    29.9407    91.7266

 230.00  VIB.     0.5581D+03                  2751.3746    23.1292    24.5308
         ROT.     0.5622D+06                   685.5862     2.9808    29.2906
         INT.     0.3138D+09                  3436.9609    26.1100    53.8214
         TRA.     0.9965D+27                  1142.6437     4.9680    39.2612
         TOT.                       53.758    4579.6046    31.0780    93.0825

 240.00  VIB.     0.7249D+03                  2988.4683    24.2938    25.5397
         ROT.     0.5992D+06                   715.3943     2.9808    29.4174
         INT.     0.4344D+09                  3703.8627    27.2746    54.9571
         TRA.     0.1062D+28                  1192.3239     4.9680    39.4726
         TOT.                       54.075    4896.1866    32.2427    94.4297

 250.00  VIB.     0.9409D+03                  3237.3315    25.4825    26.5554
         ROT.     0.6371D+06                   745.2024     2.9808    29.5391
         INT.     0.5994D+09                  3982.5339    28.4633    56.0945
         TRA.     0.1129D+28                  1242.0041     4.9680    39.6754
         TOT.                       54.403    5224.5380    33.4313    95.7700

 260.00  VIB.     0.1221D+04                  3498.1862    26.6915    27.5784
         ROT.     0.6757D+06                   775.0105     2.9808    29.6560
         INT.     0.8250D+09                  4273.1967    29.6723    57.2344
         TRA.     0.1198D+28                  1291.6842     4.9680    39.8703
         TOT.                       54.743    5564.8809    34.6403    97.1046

 270.00  VIB.     0.1584D+04                  3771.2170    27.9171    28.6086
         ROT.     0.7150D+06                   804.8186     2.9808    29.7685
         INT.     0.1133D+10                  4576.0356    30.8979    58.3772
         TRA.     0.1267D+28                  1341.3644     4.9680    40.0578
         TOT.                       55.096    5917.4000    35.8659    98.4349

 280.00  VIB.     0.2055D+04                  4056.5706    29.1554    29.6463
         ROT.     0.7551D+06                   834.6267     2.9808    29.8769
         INT.     0.1552D+10                  4891.1973    32.1362    59.5232
         TRA.     0.1338D+28                  1391.0445     4.9680    40.2384
         TOT.                       55.461    6282.2418    37.1043    99.7616

 290.00  VIB.     0.2666D+04                  4354.3558    30.4028    30.6911
         ROT.     0.7959D+06                   864.4348     2.9808    29.9815
         INT.     0.2122D+10                  5218.7906    33.3836    60.6726
         TRA.     0.1411D+28                  1440.7247     4.9680    40.4128
         TOT.                       55.838    6659.5153    38.3516   101.0854

 300.00  VIB.     0.3461D+04                  4664.6448    31.6556    31.7429
         ROT.     0.8375D+06                   894.2429     2.9808    30.0826
         INT.     0.2898D+10                  5558.8877    34.6364    61.8255
         TRA.     0.1484D+28                  1490.4049     4.9680    40.5812
         TOT.                       56.228    7049.2926    39.6044   102.4067

 310.00  VIB.     0.4492D+04                  4987.4749    32.9105    32.8014
         ROT.     0.8797D+06                   924.0510     2.9808    30.1803
         INT.     0.3952D+10                  5911.5259    35.8913    62.9817
         TRA.     0.1559D+28                  1540.0850     4.9680    40.7441
         TOT.                       56.630    7451.6110    40.8593   103.7258

 320.00  VIB.     0.5834D+04                  5322.8507    34.1642    33.8660
         ROT.     0.9226D+06                   953.8591     2.9808    30.2750
         INT.     0.5383D+10                  6276.7098    37.1451    64.1410
         TRA.     0.1635D+28                  1589.7652     4.9680    40.9018
         TOT.                       57.045    7866.4750    42.1131   105.0428

 330.00  VIB.     0.7581D+04                  5670.7465    35.4140    34.9365
         ROT.     0.9662D+06                   983.6672     2.9808    30.3667
         INT.     0.7324D+10                  6654.4138    38.3948    65.3031
         TRA.     0.1713D+28                  1639.4454     4.9680    41.0547
         TOT.                       57.472    8293.8591    43.3629   106.3578

 340.00  VIB.     0.9854D+04                  6031.1095    36.6572    36.0122
         ROT.     0.1010D+07                  1013.4753     2.9808    30.4557
         INT.     0.9957D+10                  7044.5848    39.6381    66.4678
         TRA.     0.1791D+28                  1689.1255     4.9680    41.2030
         TOT.                       57.912    8733.7103    44.6061   107.6708

 350.00  VIB.     0.1282D+05                  6403.8617    37.8915    37.0926
         ROT.     0.1055D+07                  1043.2834     2.9808    30.5421
         INT.     0.1352D+11                  7447.1451    40.8723    67.6347
         TRA.     0.1871D+28                  1738.8057     4.9680    41.3470
         TOT.                       58.364    9185.9508    45.8404   108.9817

 360.00  VIB.     0.1668D+05                  6788.9034    39.1148    38.1772
         ROT.     0.1101D+07                  1073.0915     2.9808    30.6260
         INT.     0.1836D+11                  7861.9949    42.0956    68.8033
         TRA.     0.1951D+28                  1788.4859     4.9680    41.4870
         TOT.                       58.829    9650.4808    47.0637   110.2902

 370.00  VIB.     0.2171D+05                  7186.1158    40.3254    39.2655
         ROT.     0.1147D+07                  1102.8996     2.9808    30.7077
         INT.     0.2491D+11                  8289.0155    43.3062    69.9732
         TRA.     0.2033D+28                  1838.1660     4.9680    41.6231
         TOT.                       59.306   10127.1815    48.2742   111.5963

 380.00  VIB.     0.2828D+05                  7595.3634    41.5216    40.3568
         ROT.     0.1194D+07                  1132.7077     2.9808    30.7872
         INT.     0.3377D+11                  8728.0711    44.5024    71.1440
         TRA.     0.2116D+28                  1887.8462     4.9680    41.7556
         TOT.                       59.794   10615.9172    49.4704   112.8996

 390.00  VIB.     0.3686D+05                  8016.4962    42.7023    41.4506
         ROT.     0.1241D+07                  1162.5158     2.9808    30.8646
         INT.     0.4576D+11                  9179.0120    45.6831    72.3153
         TRA.     0.2200D+28                  1937.5263     4.9680    41.8846
         TOT.                       60.295   11116.5383    50.6511   114.1999

 400.00  VIB.     0.4807D+05                  8449.3527    43.8662    42.5465
         ROT.     0.1289D+07                  1192.3239     2.9808    30.9401
         INT.     0.6198D+11                  9641.6766    46.8470    73.4866
         TRA.     0.2285D+28                  1987.2065     4.9680    42.0104
         TOT.                       60.807   11628.8831    51.8150   115.4970

   *: NOTE: HEATS OF FORMATION ARE RELATIVE TO THE
            ELEMENTS IN THEIR STANDARD STATE AT 298K
              (=  Standard Enthalpy of Formation).

            Hvib:  Zero-point energy is not included.
                   frequencies of less than zero cm-1 are not included.
            Hrot = (3/2)RT
            Htra = (3/2)RT + pV = (5/2)RT

            Heat capacity is Cp, not Cv

          For more information, see: HTTP://OpenMOPAC.net/Manual/thermochemistry.html


           FORCE CONSTANT IN CARTESIAN COORDINATES (Millidynes/A)

    ATOM   CHEMICAL       X               Y               Z
   NUMBER   SYMBOL  FORCE CONSTANT  FORCE CONSTANT  FORCE CONSTANT

      1       C        7.901651        9.771926        7.783279
      2       C        9.056508        8.768051        8.048414
      3       C       14.179015       11.381686        2.534973
      4       C       10.390625       13.971972        2.319251
      5       C       11.176451       13.316480        2.384617
      6       C        9.667741        8.751847        8.631617
      7       C       12.084129       13.394131        2.183989
      8       C       10.353891       14.601759        2.187350
      9       C       10.711906       14.400401        2.197439
     10       C        9.280374        8.664681        8.526840
     11       H        0.716536        2.032945        3.522271
     12       H        0.700645        1.985681        3.583604
     13       H        1.330349        4.207360        0.840867
     14       H        0.988739        0.981818        4.155098
     15       H        3.993217        2.132721        0.333320
     16       H        1.716861        4.155595        0.350990
     17       H        1.343022        4.307240        0.578104
     18       H        1.674307        4.131573        0.351808
     19       H        1.187071        4.912498        0.343138
     20       H        3.332521        2.769866        0.351438
     21       H        1.444982        4.463411        0.552511
     22       H        1.131057        2.845308        2.497383

 **********************
 *                    *
 * JOB ENDED NORMALLY *
 *                    *
 **********************



 TOTAL JOB TIME:             2.92 SECONDS

 == MOPAC DONE ==
