 *******************************************************************************
 ** Site#: 14399        For non-commercial use only    Version 18.184L 64BITS **
 *******************************************************************************
 ** Cite this program as: MOPAC2016, Version: 18.184L, James J. P. Stewart,   **
 ** Stewart Computational Chemistry, web: HTTP://OpenMOPAC.net. Days left:  18**
 *******************************************************************************
 **                                                                           **
 **                                MOPAC2016                                  **
 **                                                                           **
 *******************************************************************************

                              PM3 CALCULATION RESULTS

 *******************************************************************************
 *  CALCULATION DONE:                                Sat Jun 15 10:11:55 2019  *
 *  PM3        - The PM3 Hamiltonian to be used
 *  PRECISE    - CRITERIA TO BE INCREASED BY 100 TIMES
 *  NOSYM      - POINT-GROUP SYMMETRY SET TO C1
 *  THREADS=1  - MULTI-THREADING NOT USED
 *  T=         - A TIME OF 172800.0 SECONDS REQUESTED
 *  DUMP=N     - RESTART FILE WRITTEN EVERY  7200.000 SECONDS
 *******************************************************************************
pm3  precise nosym THREADS=1
 InChI=1S/C10H10/c1-2-6-10-8-4-3-7-9(10)5-1/h1-10H

   ATOM   CHEMICAL          X               Y               Z
  NUMBER   SYMBOL      (ANGSTROMS)     (ANGSTROMS)     (ANGSTROMS)
 
     1       C         -0.12350000  *  -0.89580000  *  -0.53830000  *
     2       C          0.02100000  *   0.62900000  *  -0.84340000  *
     3       C         -1.53490000  *  -1.25800000  *  -0.14440000  *
     4       C          0.83480000  *  -1.35560000  *   0.53640000  *
     5       C          1.46360000  *   1.07240000  *  -0.81680000  *
     6       C         -0.78690000  *   1.48030000  *   0.10910000  *
     7       C          2.00920000  *  -0.74680000  *   0.71970000  *
     8       C         -2.33880000  *  -0.37470000  *   0.45380000  *
     9       C          2.36840000  *   0.45170000  *  -0.05500000  *
    10       C         -1.90610000  *   1.01510000  *   0.66990000  *
    11       H          0.12460000  *  -1.45710000  *  -1.46560000  *
    12       H         -0.37180000  *   0.81360000  *  -1.86720000  *
    13       H          0.61640000  *  -2.25410000  *   1.10180000  *
    14       H         -1.87340000  *  -2.27840000  *  -0.27650000  *
    15       H          1.75170000  *   1.96160000  *  -1.36410000  *
    16       H         -0.51510000  *   2.51790000  *   0.26420000  *
    17       H          2.71430000  *  -1.14440000  *   1.43830000  *
    18       H          3.37810000  *   0.83740000  *   0.00250000  *
    19       H         -3.31910000  *  -0.68380000  *   0.79300000  *
    20       H         -2.51250000  *   1.66980000  *   1.28260000  *
 


          CARTESIAN COORDINATES 

    NO.       ATOM           X           Y           Z

     1         C         -0.1235     -0.8958     -0.5383
     2         C          0.0210      0.6290     -0.8434
     3         C         -1.5349     -1.2580     -0.1444
     4         C          0.8348     -1.3556      0.5364
     5         C          1.4636      1.0724     -0.8168
     6         C         -0.7869      1.4803      0.1091
     7         C          2.0092     -0.7468      0.7197
     8         C         -2.3388     -0.3747      0.4538
     9         C          2.3684      0.4517     -0.0550
    10         C         -1.9061      1.0151      0.6699
    11         H          0.1246     -1.4571     -1.4656
    12         H         -0.3718      0.8136     -1.8672
    13         H          0.6164     -2.2541      1.1018
    14         H         -1.8734     -2.2784     -0.2765
    15         H          1.7517      1.9616     -1.3641
    16         H         -0.5151      2.5179      0.2642
    17         H          2.7143     -1.1444      1.4383
    18         H          3.3781      0.8374      0.0025
    19         H         -3.3191     -0.6838      0.7930
    20         H         -2.5125      1.6698      1.2826

  H: (PM3): J. J. P. STEWART, J. COMP. CHEM. 10, 209 (1989).
  C: (PM3): J. J. P. STEWART, J. COMP. CHEM. 10, 209 (1989).

           Empirical Formula: C10 H10  =    20 atoms



      MOLECULAR POINT GROUP   :   C1  


      RHF CALCULATION, NO. OF DOUBLY OCCUPIED LEVELS = 25


          Geometry optimization using EF

          DIAGONAL MATRIX USED AS START HESSIAN

 CYCLE:     1 TIME:   0.008 TIME LEFT:  2.00D  GRAD.:    72.680 HEAT:  63.39426
 CYCLE:     2 TIME:   0.012 TIME LEFT:  2.00D  GRAD.:    38.506 HEAT:  62.06619
 CYCLE:     3 TIME:   0.004 TIME LEFT:  2.00D  GRAD.:    57.700 HEAT:  61.88262
 CYCLE:     4 TIME:   0.004 TIME LEFT:  2.00D  GRAD.:    68.997 HEAT:  61.78454
 CYCLE:     5 TIME:   0.004 TIME LEFT:  2.00D  GRAD.:    58.507 HEAT:  61.51010
 CYCLE:     6 TIME:   0.008 TIME LEFT:  2.00D  GRAD.:    28.053 HEAT:  60.87316
 CYCLE:     7 TIME:   0.008 TIME LEFT:  2.00D  GRAD.:    18.555 HEAT:  60.71352
 CYCLE:     8 TIME:   0.004 TIME LEFT:  2.00D  GRAD.:    21.517 HEAT:  60.66671
 CYCLE:     9 TIME:   0.004 TIME LEFT:  2.00D  GRAD.:    13.727 HEAT:  60.54214
 CYCLE:    10 TIME:   0.008 TIME LEFT:  2.00D  GRAD.:    13.776 HEAT:  60.50881
 CYCLE:    11 TIME:   0.004 TIME LEFT:  2.00D  GRAD.:     8.165 HEAT:  60.44355
 CYCLE:    12 TIME:   0.004 TIME LEFT:  2.00D  GRAD.:    11.108 HEAT:  60.41635
 CYCLE:    13 TIME:   0.004 TIME LEFT:  2.00D  GRAD.:     8.666 HEAT:  60.37496
 CYCLE:    14 TIME:   0.008 TIME LEFT:  2.00D  GRAD.:    10.960 HEAT:  60.36395
 CYCLE:    15 TIME:   0.004 TIME LEFT:  2.00D  GRAD.:     9.984 HEAT:  60.34547
 CYCLE:    16 TIME:   0.008 TIME LEFT:  2.00D  GRAD.:     7.437 HEAT:  60.32598
 CYCLE:    17 TIME:   0.004 TIME LEFT:  2.00D  GRAD.:     7.324 HEAT:  60.31743
 CYCLE:    18 TIME:   0.008 TIME LEFT:  2.00D  GRAD.:     5.230 HEAT:  60.30519
 CYCLE:    19 TIME:   0.004 TIME LEFT:  2.00D  GRAD.:     8.155 HEAT:  60.30315
 CYCLE:    20 TIME:   0.004 TIME LEFT:  2.00D  GRAD.:     8.351 HEAT:  60.29694
 CYCLE:    21 TIME:   0.004 TIME LEFT:  2.00D  GRAD.:     6.852 HEAT:  60.28611
 CYCLE:    22 TIME:   0.004 TIME LEFT:  2.00D  GRAD.:     3.701 HEAT:  60.27009
 CYCLE:    23 TIME:   0.004 TIME LEFT:  2.00D  GRAD.:     5.591 HEAT:  60.26602
 CYCLE:    24 TIME:   0.004 TIME LEFT:  2.00D  GRAD.:     5.048 HEAT:  60.25588
 CYCLE:    25 TIME:   0.004 TIME LEFT:  2.00D  GRAD.:     5.095 HEAT:  60.24690
 CYCLE:    26 TIME:   0.004 TIME LEFT:  2.00D  GRAD.:     3.142 HEAT:  60.23546
 CYCLE:    27 TIME:   0.004 TIME LEFT:  2.00D  GRAD.:     3.820 HEAT:  60.22123
 CYCLE:    28 TIME:   0.004 TIME LEFT:  2.00D  GRAD.:     4.427 HEAT:  60.20316
 CYCLE:    29 TIME:   0.004 TIME LEFT:  2.00D  GRAD.:     3.569 HEAT:  60.17753
 CYCLE:    30 TIME:   0.004 TIME LEFT:  2.00D  GRAD.:     4.735 HEAT:  60.14784
 CYCLE:    31 TIME:   0.004 TIME LEFT:  2.00D  GRAD.:     6.483 HEAT:  60.10988
 CYCLE:    32 TIME:   0.004 TIME LEFT:  2.00D  GRAD.:     5.061 HEAT:  60.07738
 CYCLE:    33 TIME:   0.008 TIME LEFT:  2.00D  GRAD.:     2.571 HEAT:  60.04490
 CYCLE:    34 TIME:   0.004 TIME LEFT:  2.00D  GRAD.:     2.041 HEAT:  60.03759
 CYCLE:    35 TIME:   0.004 TIME LEFT:  2.00D  GRAD.:     1.566 HEAT:  60.03109
 CYCLE:    36 TIME:   0.004 TIME LEFT:  2.00D  GRAD.:     1.149 HEAT:  60.02637
 CYCLE:    37 TIME:   0.004 TIME LEFT:  2.00D  GRAD.:     1.068 HEAT:  60.02377
 CYCLE:    38 TIME:   0.004 TIME LEFT:  2.00D  GRAD.:     1.213 HEAT:  60.01987
 CYCLE:    39 TIME:   0.004 TIME LEFT:  2.00D  GRAD.:     1.128 HEAT:  60.01679
 CYCLE:    40 TIME:   0.004 TIME LEFT:  2.00D  GRAD.:     0.774 HEAT:  60.01517
 CYCLE:    41 TIME:   0.004 TIME LEFT:  2.00D  GRAD.:     0.693 HEAT:  60.01412
 CYCLE:    42 TIME:   0.004 TIME LEFT:  2.00D  GRAD.:     0.836 HEAT:  60.01278
 CYCLE:    43 TIME:   0.008 TIME LEFT:  2.00D  GRAD.:     0.860 HEAT:  60.01127
 CYCLE:    44 TIME:   0.004 TIME LEFT:  2.00D  GRAD.:     0.814 HEAT:  60.00979
 CYCLE:    45 TIME:   0.004 TIME LEFT:  2.00D  GRAD.:     0.750 HEAT:  60.00822
 CYCLE:    46 TIME:   0.004 TIME LEFT:  2.00D  GRAD.:     0.798 HEAT:  60.00645
 CYCLE:    47 TIME:   0.004 TIME LEFT:  2.00D  GRAD.:     0.669 HEAT:  60.00497
 CYCLE:    48 TIME:   0.004 TIME LEFT:  2.00D  GRAD.:     0.394 HEAT:  60.00434
 CYCLE:    49 TIME:   0.004 TIME LEFT:  2.00D  GRAD.:     0.233 HEAT:  60.00411
 CYCLE:    50 TIME:   0.004 TIME LEFT:  2.00D  GRAD.:     0.207 HEAT:  60.00402
 CYCLE:    51 TIME:   0.004 TIME LEFT:  2.00D  GRAD.:     0.166 HEAT:  60.00394
 CYCLE:    52 TIME:   0.004 TIME LEFT:  2.00D  GRAD.:     0.119 HEAT:  60.00389
 CYCLE:    53 TIME:   0.008 TIME LEFT:  2.00D  GRAD.:     0.102 HEAT:  60.00386
 CYCLE:    54 TIME:   0.004 TIME LEFT:  2.00D  GRAD.:     0.094 HEAT:  60.00384
 CYCLE:    55 TIME:   0.004 TIME LEFT:  2.00D  GRAD.:     0.075 HEAT:  60.00382
 CYCLE:    56 TIME:   0.004 TIME LEFT:  2.00D  GRAD.:     0.069 HEAT:  60.00381
 CYCLE:    57 TIME:   0.004 TIME LEFT:  2.00D  GRAD.:     0.052 HEAT:  60.00381
 CYCLE:    58 TIME:   0.004 TIME LEFT:  2.00D  GRAD.:     0.060 HEAT:  60.00380
 CYCLE:    59 TIME:   0.004 TIME LEFT:  2.00D  GRAD.:     0.036 HEAT:  60.00380

     GRADIENT =  0.03591  IS LESS THAN CUTOFF =  0.05000



 -------------------------------------------------------------------------------
 pm3  precise nosym THREADS=1
 InChI=1S/C10H10/c1-2-6-10-8-4-3-7-9(10)5-1/h1-10H



     GEOMETRY OPTIMISED USING EIGENVECTOR FOLLOWING (EF).     
     SCF FIELD WAS ACHIEVED                                   


                              PM3 CALCULATION
                                                       MOPAC2016 (Version: 18.184L)
                                                       Sat Jun 15 10:11:55 2019
                                                       No. of days remaining =  18




          FINAL HEAT OF FORMATION =         60.00380 KCAL/MOL =     251.05589 KJ/MOL


          TOTAL ENERGY            =      -1337.12893 EV
          ELECTRONIC ENERGY       =      -7165.59272 EV  POINT GROUP:     C1  
          CORE-CORE REPULSION     =       5828.46379 EV
          COSMO AREA              =        168.07 SQUARE ANGSTROMS
          COSMO VOLUME            =        171.89 CUBIC ANGSTROMS

          GRADIENT NORM           =          0.03591 = 0.00803 PER ATOM
          IONIZATION POTENTIAL    =          9.026948 EV
          HOMO LUMO ENERGIES (EV) =         -9.027  0.148
          NO. OF FILLED LEVELS    =         25
          MOLECULAR WEIGHT        =        130.1890

          MOLECULAR DIMENSIONS (Angstroms)

            Atom       Atom       Distance
            H    19    H    18     6.93341
            H    16    H    13     5.16228
            H    20    H    11     2.96457


          SCF CALCULATIONS        =         67
 
          WALL-CLOCK TIME         =          0.285 SECONDS
          COMPUTATION TIME        =          0.262 SECONDS




   ATOM   CHEMICAL          X               Y               Z
  NUMBER   SYMBOL      (ANGSTROMS)     (ANGSTROMS)     (ANGSTROMS)
 
     1       C         -0.12861416  *  -0.87987553  *  -0.51148599  *
     2       C          0.03035058  *   0.62406089  *  -0.81367870  *
     3       C         -1.49172814  *  -1.24036839  *  -0.00845994  *
     4       C          0.89570015  *  -1.43032458  *   0.42979508  *
     5       C          1.44073808  *   1.10760598  *  -0.67922718  *
     6       C         -0.86454825  *   1.51190463  *  -0.00797419  *
     7       C          2.07012701  *  -0.82568147  *   0.64164921  *
     8       C         -2.34432069  *  -0.33986025  *   0.49295172  *
     9       C          2.38050626  *   0.43355011  *  -0.00709212  *
    10       C         -1.97959558  *   1.06107562  *   0.57784323  *
    11       H          0.02489095  *  -1.42776878  *  -1.47670193  *
    12       H         -0.27379593  *   0.77942644  *  -1.88080039  *
    13       H          0.64501194  *  -2.37576117  *   0.92408824  *
    14       H         -1.75026650  *  -2.30470783  *  -0.04593959  *
    15       H          1.66183750  *   2.07503357  *  -1.14425374  *
    16       H         -0.57268221  *   2.56608598  *   0.05945058  *
    17       H          2.82432601  *  -1.25449044  *   1.30906240  *
    18       H          3.40327636  *   0.81357564  *   0.08274531  *
    19       H         -3.33297457  *  -0.63145649  *   0.86184249  *
    20       H         -2.64268998  *   1.72707358  *   1.13900027  *

                             CARTESIAN COORDINATES

   1    C       -0.128614163    -0.879875533    -0.511485993
   2    C        0.030350585     0.624060888    -0.813678696
   3    C       -1.491728143    -1.240368386    -0.008459941
   4    C        0.895700153    -1.430324581     0.429795084
   5    C        1.440738075     1.107605980    -0.679227177
   6    C       -0.864548247     1.511904627    -0.007974189
   7    C        2.070127011    -0.825681472     0.641649206
   8    C       -2.344320690    -0.339860250     0.492951721
   9    C        2.380506255     0.433550114    -0.007092124
  10    C       -1.979595575     1.061075617     0.577843228
  11    H        0.024890948    -1.427768780    -1.476701930
  12    H       -0.273795929     0.779426442    -1.880800388
  13    H        0.645011943    -2.375761172     0.924088235
  14    H       -1.750266503    -2.304707826    -0.045939591
  15    H        1.661837503     2.075033567    -1.144253736
  16    H       -0.572682206     2.566085977     0.059450583
  17    H        2.824326008    -1.254490437     1.309062399
  18    H        3.403276360     0.813575643     0.082745306
  19    H       -3.332974573    -0.631456487     0.861842490
  20    H       -2.642689978     1.727073577     1.139000267


           Empirical Formula: C10 H10  =    20 atoms



      MOLECULAR POINT GROUP   :   C1  


                  EIGENVALUES  
 -41.38899 -35.11137 -31.83495 -28.94408 -27.48699 -22.21301 -21.48939 -20.96738
 -18.00533 -17.63504 -16.96738 -16.10591 -15.32990 -15.07822 -14.64487 -14.39564
 -14.10554 -13.08791 -12.43551 -12.24004 -11.67752 -11.61436 -11.34764  -9.09952
  -9.02695   0.14827   0.34110   1.95386   2.13438   3.20348   3.32104   3.35742
   3.41843   3.43082   3.72263   3.73005   3.86882   3.91787   4.09582   4.48343
   4.55132   4.64581   4.90683   4.98027   5.36994   5.41369   5.85895   6.01713
   6.05050   6.28275


              NET ATOMIC CHARGES AND DIPOLE CONTRIBUTIONS

  ATOM NO.   TYPE          CHARGE      No. of ELECS.   s-Pop       p-Pop       
    1          C           0.001536        3.9985     1.15215     2.84631
    2          C           0.001551        3.9984     1.15215     2.84630
    3          C          -0.135466        4.1355     1.19770     2.93777
    4          C          -0.125787        4.1258     1.19815     2.92763
    5          C          -0.135445        4.1354     1.19770     2.93775
    6          C          -0.125780        4.1258     1.19816     2.92762
    7          C          -0.116320        4.1163     1.17819     2.93813
    8          C          -0.102860        4.1029     1.17798     2.92488
    9          C          -0.102857        4.1029     1.17798     2.92488
   10          C          -0.116319        4.1163     1.17819     2.93813
   11          H           0.071651        0.9283     0.92835
   12          H           0.071647        0.9284     0.92835
   13          H           0.102798        0.8972     0.89720
   14          H           0.099836        0.9002     0.90016
   15          H           0.099832        0.9002     0.90017
   16          H           0.102792        0.8972     0.89721
   17          H           0.103006        0.8970     0.89699
   18          H           0.101594        0.8984     0.89841
   19          H           0.101592        0.8984     0.89841
   20          H           0.103000        0.8970     0.89700
 DIPOLE           X         Y         Z       TOTAL
 POINT-CHG.    -0.023    -0.059    -0.307     0.314
 HYBRID         0.004     0.011     0.055     0.056
 SUM           -0.019    -0.048    -0.252     0.257


          ATOMIC ORBITAL ELECTRON POPULATIONS

     Atom    s        px        py        pz   
    1  C   1.15215   0.92579   0.94460   0.97592
    2  C   1.15215   0.92858   0.93149   0.98622
    3  C   1.19770   0.95581   0.98422   0.99773
    4  C   1.19815   0.95224   0.99032   0.98507
    5  C   1.19770   0.95092   0.99097   0.99586
    6  C   1.19816   0.95754   0.98558   0.98450
    7  C   1.17819   0.97193   0.96372   1.00247
    8  C   1.17798   0.98442   0.94381   0.99666
    9  C   1.17798   0.98066   0.96268   0.98153
   10  C   1.17819   0.97599   0.95534   1.00680
   11  H   0.92835
   12  H   0.92835
   13  H   0.89720
   14  H   0.90016
   15  H   0.90017
   16  H   0.89721
   17  H   0.89699
   18  H   0.89841
   19  H   0.89841
   20  H   0.89700
 *******************************************************************************
 ** Site#: 14399        For non-commercial use only    Version 18.184L 64BITS **
 *******************************************************************************
 ** Cite this program as: MOPAC2016, Version: 18.184L, James J. P. Stewart,   **
 ** Stewart Computational Chemistry, web: HTTP://OpenMOPAC.net. Days left:  18**
 *******************************************************************************
 **                                                                           **
 **                                MOPAC2016                                  **
 **                                                                           **
 *******************************************************************************

                              PM3 CALCULATION RESULTS

 *******************************************************************************
 *  CALCULATION DONE:                                Sat Jun 15 10:11:55 2019  *
 *  PM3        - The PM3 Hamiltonian to be used
 *  OLDGEO     - PREVIOUS GEOMETRY TO BE USED
 *  PRECISE    - CRITERIA TO BE INCREASED BY 100 TIMES
 *  NOSYM      - POINT-GROUP SYMMETRY SET TO C1
 *  THREADS=1  - MULTI-THREADING NOT USED
 *  T=         - A TIME OF 172800.0 SECONDS REQUESTED
 *  DUMP=N     - RESTART FILE WRITTEN EVERY  7200.000 SECONDS
 *  THERMO     - THERMODYNAMIC QUANTITIES TO BE CALCULATED
 *******************************************************************************
oldgeo thermo nosym precise THREADS=1  pm3
 InChI=1S/C10H10/c1-2-6-10-8-4-3-7-9(10)5-1/h1-10H

   ATOM   CHEMICAL          X               Y               Z
  NUMBER   SYMBOL      (ANGSTROMS)     (ANGSTROMS)     (ANGSTROMS)
 
     1       C         -0.12861416  *  -0.87987553  *  -0.51148599  *
     2       C          0.03035058  *   0.62406089  *  -0.81367870  *
     3       C         -1.49172814  *  -1.24036839  *  -0.00845994  *
     4       C          0.89570015  *  -1.43032458  *   0.42979508  *
     5       C          1.44073808  *   1.10760598  *  -0.67922718  *
     6       C         -0.86454825  *   1.51190463  *  -0.00797419  *
     7       C          2.07012701  *  -0.82568147  *   0.64164921  *
     8       C         -2.34432069  *  -0.33986025  *   0.49295172  *
     9       C          2.38050626  *   0.43355011  *  -0.00709212  *
    10       C         -1.97959558  *   1.06107562  *   0.57784323  *
    11       H          0.02489095  *  -1.42776878  *  -1.47670193  *
    12       H         -0.27379593  *   0.77942644  *  -1.88080039  *
    13       H          0.64501194  *  -2.37576117  *   0.92408824  *
    14       H         -1.75026650  *  -2.30470783  *  -0.04593959  *
    15       H          1.66183750  *   2.07503357  *  -1.14425374  *
    16       H         -0.57268221  *   2.56608598  *   0.05945058  *
    17       H          2.82432601  *  -1.25449044  *   1.30906240  *
    18       H          3.40327636  *   0.81357564  *   0.08274531  *
    19       H         -3.33297457  *  -0.63145649  *   0.86184249  *
    20       H         -2.64268998  *   1.72707358  *   1.13900027  *
 


          CARTESIAN COORDINATES 

    NO.       ATOM           X           Y           Z

     1         C         -0.1286     -0.8799     -0.5115
     2         C          0.0304      0.6241     -0.8137
     3         C         -1.4917     -1.2404     -0.0085
     4         C          0.8957     -1.4303      0.4298
     5         C          1.4407      1.1076     -0.6792
     6         C         -0.8645      1.5119     -0.0080
     7         C          2.0701     -0.8257      0.6416
     8         C         -2.3443     -0.3399      0.4930
     9         C          2.3805      0.4336     -0.0071
    10         C         -1.9796      1.0611      0.5778
    11         H          0.0249     -1.4278     -1.4767
    12         H         -0.2738      0.7794     -1.8808
    13         H          0.6450     -2.3758      0.9241
    14         H         -1.7503     -2.3047     -0.0459
    15         H          1.6618      2.0750     -1.1443
    16         H         -0.5727      2.5661      0.0595
    17         H          2.8243     -1.2545      1.3091
    18         H          3.4033      0.8136      0.0827
    19         H         -3.3330     -0.6315      0.8618
    20         H         -2.6427      1.7271      1.1390

  H: (PM3): J. J. P. STEWART, J. COMP. CHEM. 10, 209 (1989).
  C: (PM3): J. J. P. STEWART, J. COMP. CHEM. 10, 209 (1989).

           Empirical Formula: C10 H10  =    20 atoms



      MOLECULAR POINT GROUP   :   C1  


      RHF CALCULATION, NO. OF DOUBLY OCCUPIED LEVELS = 25



          HEAT OF FORMATION =      60.003798 KCALS/MOLE


          CARTESIAN COORDINATE DERIVATIVES

   NUMBER  ATOM         X            Y            Z

     1       C     -0.005477    -0.007018     0.006020
     2       C      0.004233    -0.005346     0.003019
     3       C      0.004998     0.003169    -0.001057
     4       C      0.003757    -0.000228    -0.004948
     5       C      0.005473    -0.001569     0.001424
     6       C      0.007811    -0.001944    -0.002353
     7       C      0.003883    -0.011648    -0.000116
     8       C      0.000297    -0.006767     0.004939
     9       C     -0.006968    -0.005963     0.002657
    10       C     -0.010074    -0.001533    -0.004374
    11       H     -0.000564     0.009152     0.000092
    12       H     -0.006558    -0.000943     0.003648
    13       H      0.001228     0.012168     0.002388
    14       H     -0.003325     0.003995    -0.006173
    15       H      0.000539     0.006555    -0.000624
    16       H      0.008798     0.011910    -0.001840
    17       H      0.002164     0.005178    -0.004137
    18       H     -0.003721    -0.005040     0.001943
    19       H     -0.003608    -0.000202    -0.000939
    20       H     -0.002886    -0.003925     0.000432
 


          GRADIENT NORM =   0.03929

          MOLECULAR WEIGHT =  130.19



          ROTATIONAL CONSTANTS IN CM(-1)

          A =    0.08623185   B =    0.04364080   C =    0.03315313



           PRINCIPAL MOMENTS OF INERTIA IN UNITS OF 10**(-40)*GRAM-CM**2

          A =      324.6222   B =      641.4359   C =      844.3480


          ORIENTATION OF MOLECULE IN FORCE CALCULATION

    NO.       ATOM         X         Y         Z

     1          C      -0.7711   -0.1623   -0.6665
     2          C       0.7711   -0.1623   -0.6665
     3          C      -1.3617    1.2133   -0.6665
     4          C      -1.3867   -0.9532    0.4442
     5          C       1.3617   -1.3839   -0.0341
     6          C       1.3868    1.0508   -0.0440
     7          C      -0.7175   -1.9106    1.0963
     8          C      -0.6697    2.3026   -0.3149
     9          C       0.6695   -2.1899    0.7787
    10          C       0.7175    2.2007    0.0954
    11          H      -1.1004   -0.6652   -1.6121
    12          H       1.1004   -0.1505   -1.7375
    13          H      -2.4314   -0.7248    0.6840
    14          H      -2.4189    1.2808   -0.9472
    15          H       2.4190   -1.5726   -0.2520
    16          H       2.4317    0.9586    0.2734
    17          H      -1.1887   -2.5039    1.8863
    18          H       1.1280   -3.0733    1.2347
    19          H      -1.1282    3.2968   -0.3158
    20          H       1.1886    3.0908    0.5243


    FIRST DERIVATIVES WILL BE USED IN THE CALCULATION OF SECOND DERIVATIVES

    FOR POINT-GROUP C1   THERE ARE   1 UNIQUE SYMMETRY FUNCTIONS.

 STEP:   1 TIME =     0.02 SECS, INTEGRAL =      0.02 TIME LEFT: 172799.98
 STEP:   2 TIME =     0.02 SECS, INTEGRAL =      0.04 TIME LEFT: 172799.96
 STEP:   3 TIME =     0.02 SECS, INTEGRAL =      0.06 TIME LEFT: 172799.94
 STEP:   4 TIME =     0.02 SECS, INTEGRAL =      0.08 TIME LEFT: 172799.92
 STEP:   5 TIME =     0.02 SECS, INTEGRAL =      0.10 TIME LEFT: 172799.90
 STEP:   6 TIME =     0.02 SECS, INTEGRAL =      0.11 TIME LEFT: 172799.89
 STEP:   7 TIME =     0.02 SECS, INTEGRAL =      0.13 TIME LEFT: 172799.87
 STEP:   8 TIME =     0.02 SECS, INTEGRAL =      0.15 TIME LEFT: 172799.85
 STEP:   9 TIME =     0.02 SECS, INTEGRAL =      0.17 TIME LEFT: 172799.83
 STEP:  10 TIME =     0.02 SECS, INTEGRAL =      0.19 TIME LEFT: 172799.81
 STEP:  11 TIME =     0.02 SECS, INTEGRAL =      0.21 TIME LEFT: 172799.79
 STEP:  12 TIME =     0.02 SECS, INTEGRAL =      0.23 TIME LEFT: 172799.77
 STEP:  13 TIME =     0.02 SECS, INTEGRAL =      0.25 TIME LEFT: 172799.75
 STEP:  14 TIME =     0.02 SECS, INTEGRAL =      0.27 TIME LEFT: 172799.73
 STEP:  15 TIME =     0.02 SECS, INTEGRAL =      0.29 TIME LEFT: 172799.71
 STEP:  16 TIME =     0.02 SECS, INTEGRAL =      0.30 TIME LEFT: 172799.70
 STEP:  17 TIME =     0.02 SECS, INTEGRAL =      0.32 TIME LEFT: 172799.68
 STEP:  18 TIME =     0.02 SECS, INTEGRAL =      0.34 TIME LEFT: 172799.66
 STEP:  19 TIME =     0.02 SECS, INTEGRAL =      0.36 TIME LEFT: 172799.64
 STEP:  20 TIME =     0.02 SECS, INTEGRAL =      0.38 TIME LEFT: 172799.62
 STEP:  21 TIME =     0.02 SECS, INTEGRAL =      0.39 TIME LEFT: 172799.61
 STEP:  22 TIME =     0.02 SECS, INTEGRAL =      0.41 TIME LEFT: 172799.59
 STEP:  23 TIME =     0.02 SECS, INTEGRAL =      0.43 TIME LEFT: 172799.57
 STEP:  24 TIME =     0.02 SECS, INTEGRAL =      0.45 TIME LEFT: 172799.55
 STEP:  25 TIME =     0.02 SECS, INTEGRAL =      0.47 TIME LEFT: 172799.53
 STEP:  26 TIME =     0.02 SECS, INTEGRAL =      0.49 TIME LEFT: 172799.51
 STEP:  27 TIME =     0.02 SECS, INTEGRAL =      0.50 TIME LEFT: 172799.50
 STEP:  28 TIME =     0.02 SECS, INTEGRAL =      0.52 TIME LEFT: 172799.48
 STEP:  29 TIME =     0.02 SECS, INTEGRAL =      0.54 TIME LEFT: 172799.46
 STEP:  30 TIME =     0.02 SECS, INTEGRAL =      0.56 TIME LEFT: 172799.44
 STEP:  31 TIME =     0.02 SECS, INTEGRAL =      0.58 TIME LEFT: 172799.42
 STEP:  32 TIME =     0.02 SECS, INTEGRAL =      0.60 TIME LEFT: 172799.40
 STEP:  33 TIME =     0.02 SECS, INTEGRAL =      0.62 TIME LEFT: 172799.38
 STEP:  34 TIME =     0.02 SECS, INTEGRAL =      0.64 TIME LEFT: 172799.36
 STEP:  35 TIME =     0.02 SECS, INTEGRAL =      0.66 TIME LEFT: 172799.34
 STEP:  36 TIME =     0.02 SECS, INTEGRAL =      0.67 TIME LEFT: 172799.33
 STEP:  37 TIME =     0.02 SECS, INTEGRAL =      0.69 TIME LEFT: 172799.31
 STEP:  38 TIME =     0.02 SECS, INTEGRAL =      0.71 TIME LEFT: 172799.29
 STEP:  39 TIME =     0.02 SECS, INTEGRAL =      0.73 TIME LEFT: 172799.27
 STEP:  40 TIME =     0.02 SECS, INTEGRAL =      0.75 TIME LEFT: 172799.25
 STEP:  41 TIME =     0.02 SECS, INTEGRAL =      0.77 TIME LEFT: 172799.23
 STEP:  42 TIME =     0.02 SECS, INTEGRAL =      0.79 TIME LEFT: 172799.21
 STEP:  43 TIME =     0.02 SECS, INTEGRAL =      0.80 TIME LEFT: 172799.20
 STEP:  44 TIME =     0.02 SECS, INTEGRAL =      0.82 TIME LEFT: 172799.18
 STEP:  45 TIME =     0.02 SECS, INTEGRAL =      0.84 TIME LEFT: 172799.16
 STEP:  46 TIME =     0.02 SECS, INTEGRAL =      0.85 TIME LEFT: 172799.15
 STEP:  47 TIME =     0.02 SECS, INTEGRAL =      0.87 TIME LEFT: 172799.13
 STEP:  48 TIME =     0.02 SECS, INTEGRAL =      0.89 TIME LEFT: 172799.11
 STEP:  49 TIME =     0.02 SECS, INTEGRAL =      0.91 TIME LEFT: 172799.09
 STEP:  50 TIME =     0.02 SECS, INTEGRAL =      0.93 TIME LEFT: 172799.07
 STEP:  51 TIME =     0.02 SECS, INTEGRAL =      0.95 TIME LEFT: 172799.05
 STEP:  52 TIME =     0.02 SECS, INTEGRAL =      0.97 TIME LEFT: 172799.03
 STEP:  53 TIME =     0.02 SECS, INTEGRAL =      0.98 TIME LEFT: 172799.02
 STEP:  54 TIME =     0.02 SECS, INTEGRAL =      1.00 TIME LEFT: 172799.00
 STEP:  55 TIME =     0.02 SECS, INTEGRAL =      1.02 TIME LEFT: 172798.98
 STEP:  56 TIME =     0.02 SECS, INTEGRAL =      1.04 TIME LEFT: 172798.96
 STEP:  57 TIME =     0.02 SECS, INTEGRAL =      1.06 TIME LEFT: 172798.94
 STEP:  58 TIME =     0.02 SECS, INTEGRAL =      1.08 TIME LEFT: 172798.92
 STEP:  59 TIME =     0.02 SECS, INTEGRAL =      1.09 TIME LEFT: 172798.91
 STEP:  60 TIME =     0.02 SECS, INTEGRAL =      1.11 TIME LEFT: 172798.89

(To convert to Hartree/Bohr^2, multiply by (10^(-21) x N x a0^2)/(4.184 x 627.51) =  0.0642)


           FORCE MATRIX IN MILLIDYNES/ANGSTROM


                  C  1       C  2       C  3       C  4       C  5       C  6
 ------------------------------------------------------------------------------
     C    1  14.789894
     C    2   3.499911  14.789762
     C    3   4.637479   0.604054  18.051318
     C    4   4.603424   0.595122   0.789651  18.054863
     C    5   0.604526   4.635473   0.047478   0.161479  18.042246
     C    6   0.594830   4.604747   0.158344   0.022928   0.789747  18.065118
     C    7   0.840936   0.113067   0.049631  10.345665   1.134102   0.023208
     C    8   0.806216   0.124000  10.373403   0.040503   0.012402   1.140931
     C    9   0.123569   0.805821   0.011962   1.144943  10.369232   0.040813
     C   10   0.113615   0.840355   1.131126   0.023714   0.050077  10.350398
     H   11   4.111893   0.417694   0.410339   0.385656   0.014908   0.043349
     H   12   0.417672   4.111758   0.014939   0.043452   0.410565   0.385264
     H   13   0.436699   0.039687   0.052803   4.823774   0.011884   0.004494
     H   14   0.429241   0.043588   4.821076   0.022261   0.007513   0.014841
     H   15   0.043647   0.429130   0.007466   0.015265   4.821216   0.022398
     H   16   0.039786   0.436751   0.012059   0.004509   0.052720   4.823725
     H   17   0.116049   0.006666   0.013856   0.445053   0.047226   0.001044
     H   18   0.003402   0.115710   0.000665   0.047611   0.443715   0.018468
     H   19   0.116806   0.003461   0.442429   0.019162   0.000806   0.047592
     H   20   0.006528   0.116384   0.046841   0.001055   0.013958   0.444332


                  C  7       C  8       C  9       C 10       H 11       H 12
 ------------------------------------------------------------------------------
     C    7  18.456522
     C    8   0.010262  18.463173
     C    9   5.698747   0.005838  18.463877
     C   10   0.008976   5.699600   0.010574  18.458006
     H   11   0.033342   0.042241   0.016792   0.010171   4.526876
     H   12   0.010087   0.016833   0.042259   0.033115   0.023811   4.527798
     H   13   0.442145   0.003680   0.124179   0.001658   0.016595   0.006775
     H   14   0.002709   0.444220   0.000984   0.124409   0.037036   0.004097
     H   15   0.123533   0.000820   0.444336   0.002677   0.004120   0.037133
     H   16   0.001561   0.124681   0.003634   0.442227   0.006788   0.016714
     H   17   4.863515   0.002040   0.434805   0.001074   0.015663   0.000920
     H   18   0.434096   0.000777   4.858466   0.003292   0.000790   0.013426
     H   19   0.003242   4.857590   0.000810   0.434317   0.013566   0.000821
     H   20   0.001185   0.434800   0.002173   4.862887   0.000913   0.015699


                  H 13       H 14       H 15       H 16       H 17       H 18
 ------------------------------------------------------------------------------
     H   13   5.206000
     H   14   0.018049   5.199289
     H   15   0.008551   0.001735   5.199456
     H   16   0.001041   0.008594   0.018060   5.205972
     H   17   0.064696   0.000554   0.007257   0.000397   5.229718
     H   18   0.007395   0.000340   0.064695   0.000745   0.031262   5.222867
     H   19   0.000767   0.065692   0.000371   0.007428   0.000949   0.000206
     H   20   0.000377   0.007249   0.000553   0.064801   0.000293   0.000911


                  H 19       H 20
 ------------------------------
     H   19   5.222874
     H   20   0.031213   5.229569


          HEAT OF FORMATION =      60.003798 KCALS/MOLE

          ZERO POINT ENERGY     104.908 KCAL/MOL


           NORMAL COORDINATE ANALYSIS (Total motion = 1 Angstrom)


   Root No.       1         2         3         4         5         6         7         8

                 1 A       2 A       3 A       4 A       5 A       6 A       7 A       8 A   

                  85.5     147.4     268.9     326.9     425.1     469.6     477.6     480.8
  
           1   -0.0003    0.0000   -0.0200   -0.0201    0.0003    0.0035    0.0061    0.0360
           2    0.0047   -0.0066    0.0036    0.0045   -0.0272    0.0156    0.0042    0.0115
           3    0.0029   -0.0381    0.0021    0.0168    0.0228    0.0080    0.0009    0.0202
           4    0.0005    0.0004   -0.0200   -0.0201    0.0004   -0.0025    0.0136    0.0336
           5   -0.0028   -0.0117    0.0021   -0.0034    0.0347   -0.0101   -0.0023    0.0028
           6    0.0049   -0.0368   -0.0046   -0.0166    0.0079    0.0139   -0.0094   -0.0216
           7   -0.0036    0.0008   -0.0042    0.0045    0.0209    0.0170   -0.0153   -0.0047
           8    0.0031   -0.0054    0.0121    0.0158   -0.0285    0.0319   -0.0051   -0.0100
           9    0.0427   -0.0078    0.0247   -0.0253   -0.0124   -0.0205    0.0385    0.0219
          10   -0.0156   -0.0038   -0.0139   -0.0010   -0.0350    0.0157   -0.0029    0.0142
          11   -0.0306    0.0032   -0.0380    0.0009   -0.0335   -0.0335   -0.0046    0.0194
          12   -0.0311   -0.0321   -0.0252    0.0248    0.0058   -0.0166   -0.0143    0.0121
          13    0.0036   -0.0006   -0.0042    0.0043   -0.0210   -0.0171    0.0105   -0.0126
          14    0.0167    0.0015   -0.0003    0.0260    0.0190   -0.0386    0.0086   -0.0281
          15    0.0392   -0.0083   -0.0276    0.0155   -0.0245   -0.0042    0.0189   -0.0309
          16    0.0155    0.0043   -0.0137   -0.0005    0.0351   -0.0156    0.0097    0.0101
          17    0.0130   -0.0170   -0.0225   -0.0099    0.0327    0.0224    0.0040    0.0105
          18   -0.0415   -0.0284    0.0392   -0.0233   -0.0101   -0.0302   -0.0223   -0.0072
          19   -0.0194    0.0037    0.0144   -0.0003   -0.0174    0.0149    0.0027   -0.0262
          20   -0.0282    0.0441    0.0015   -0.0317   -0.0061   -0.0101    0.0209   -0.0228
          21   -0.0242    0.0189    0.0053   -0.0208    0.0266    0.0259    0.0133   -0.0122
          22    0.0028   -0.0078    0.0243    0.0152    0.0191   -0.0086    0.0054   -0.0143
          23    0.0054   -0.0201    0.0138    0.0059   -0.0295    0.0427    0.0043    0.0053
          24    0.0218    0.0537   -0.0336   -0.0133   -0.0023    0.0031   -0.0377   -0.0157
          25   -0.0029    0.0072    0.0243    0.0149   -0.0196    0.0082   -0.0121   -0.0088
          26    0.0052    0.0417    0.0288    0.0112    0.0249   -0.0362   -0.0118    0.0232
          27    0.0218    0.0378    0.0242    0.0088   -0.0159    0.0227   -0.0208    0.0282
          28    0.0194   -0.0041    0.0143   -0.0002    0.0172   -0.0154   -0.0156   -0.0200
          29    0.0141   -0.0305   -0.0019   -0.0183    0.0180    0.0209   -0.0176   -0.0053
          30   -0.0348    0.0374   -0.0043    0.0335    0.0203    0.0184    0.0285    0.0049
          31    0.0024   -0.0050   -0.0249   -0.0417    0.0259    0.0016    0.0054    0.0266
          32    0.0385    0.0018    0.0376   -0.0144   -0.0515    0.0352    0.0399    0.0026
          33   -0.0163   -0.0400   -0.0147    0.0336    0.0259   -0.0027   -0.0177    0.0274
          34   -0.0020    0.0056   -0.0247   -0.0419   -0.0248   -0.0006    0.0098    0.0255
          35   -0.0415   -0.0213    0.0396   -0.0286    0.0582   -0.0321   -0.0415    0.0174
          36    0.0034   -0.0346   -0.0051   -0.0229   -0.0004    0.0134   -0.0104   -0.0234
          37   -0.0281   -0.0146   -0.0351    0.0054   -0.0502   -0.0037   -0.0063    0.0117
          38   -0.0566   -0.0140   -0.0950    0.0042   -0.0586   -0.0791   -0.0085    0.0321
          39   -0.0601   -0.0615   -0.0634    0.0479   -0.0396   -0.0583   -0.0239   -0.0091
          40   -0.0154    0.0055   -0.0132    0.0201    0.0338    0.0358   -0.0299   -0.0144
          41    0.0006    0.0044    0.0231    0.0367   -0.0146    0.0343   -0.0181   -0.0463
          42    0.0853   -0.0232    0.0610   -0.0778   -0.0576   -0.0910    0.0897    0.0496
          43    0.0152   -0.0051   -0.0134    0.0197   -0.0341   -0.0363    0.0179   -0.0291
          44    0.0381   -0.0141   -0.0079    0.0683   -0.0151   -0.0745    0.0151   -0.0860
          45    0.0755   -0.0166   -0.0653    0.0520   -0.0585   -0.0665    0.0484   -0.0603
          46    0.0279    0.0156   -0.0345    0.0063    0.0502    0.0035    0.0112    0.0055
          47    0.0227   -0.0144   -0.0556   -0.0174    0.0346    0.0443    0.0141    0.0280
          48   -0.0787   -0.0641    0.0982   -0.0464   -0.0614   -0.0873   -0.0241    0.0113
          49   -0.0357    0.0022    0.0194   -0.0066    0.0103    0.0033    0.0205   -0.0691
          50   -0.0499    0.0705   -0.0059   -0.0767   -0.0147    0.0092    0.0645   -0.0855
          51   -0.0501    0.0379    0.0029   -0.0581    0.0362    0.0339    0.0565   -0.0853
          52    0.0045    0.0116    0.0458    0.0416   -0.0086    0.0019   -0.0385    0.0126
          53    0.0189    0.0648    0.0565    0.0395    0.0131   -0.0501   -0.0484    0.0661
          54    0.0412    0.0781    0.0563    0.0369   -0.0492    0.0021   -0.0653    0.0909
          55   -0.0049   -0.0128    0.0458    0.0423    0.0078   -0.0023    0.0378   -0.0121
          56    0.0020   -0.0223    0.0237    0.0183   -0.0344    0.0456    0.0189    0.0059
          57    0.0463    0.1019   -0.0744   -0.0538   -0.0376   -0.0233   -0.1236   -0.0449
          58    0.0358   -0.0028    0.0190   -0.0069   -0.0105   -0.0043   -0.0522   -0.0455
          59    0.0214   -0.0450   -0.0078   -0.0410    0.0303    0.0074   -0.0438   -0.0125
          60   -0.0680    0.0661    0.0025    0.0875    0.0241    0.0349    0.1236    0.0485


   Root No.       9        10        11        12        13        14        15        16

                 9 A      10 A      11 A      12 A      13 A      14 A      15 A      16 A   

                 564.3     596.5     669.4     752.4     769.3     815.4     820.0     842.7
  
           1   -0.0086    0.0114    0.0218   -0.0075   -0.0109   -0.0010    0.0138    0.0254
           2    0.0296   -0.0321    0.0194   -0.0017    0.0002    0.0086    0.0039    0.0024
           3    0.0405    0.0285    0.0277   -0.0043    0.0033    0.0160    0.0124    0.0235
           4    0.0088    0.0114    0.0218   -0.0065    0.0119    0.0016   -0.0137   -0.0255
           5   -0.0079   -0.0416    0.0044    0.0006    0.0012   -0.0001    0.0021    0.0087
           6    0.0494   -0.0110   -0.0335    0.0052    0.0025   -0.0200    0.0094    0.0222
           7   -0.0419    0.0629   -0.0030    0.0027   -0.0043   -0.0157    0.0186    0.0324
           8    0.0144   -0.0101    0.0183   -0.0014    0.0111   -0.0105   -0.0048   -0.0178
           9   -0.0174    0.0161   -0.0158   -0.0148   -0.0159    0.0118   -0.0121    0.0165
          10   -0.0382   -0.0575    0.0078   -0.0015   -0.0235   -0.0012    0.0049   -0.0038
          11    0.0089    0.0024   -0.0214    0.0106   -0.0180    0.0148    0.0129    0.0045
          12   -0.0040    0.0135    0.0059    0.0082   -0.0006    0.0012    0.0033   -0.0181
          13    0.0421    0.0627   -0.0029    0.0030    0.0042   -0.0123   -0.0210   -0.0323
          14   -0.0210   -0.0162    0.0235    0.0035   -0.0176   -0.0146   -0.0040    0.0236
          15   -0.0091   -0.0096    0.0056    0.0124   -0.0109   -0.0034   -0.0141    0.0066
          16    0.0379   -0.0578    0.0078    0.0010    0.0234    0.0002   -0.0051    0.0039
          17   -0.0097   -0.0042   -0.0217    0.0072    0.0145    0.0144   -0.0077   -0.0125
          18    0.0005   -0.0129    0.0046   -0.0129   -0.0068   -0.0095    0.0076   -0.0140
          19    0.0097   -0.0109   -0.0081    0.0072   -0.0035    0.0138    0.0098    0.0081
          20    0.0294    0.0214   -0.0125    0.0100   -0.0119    0.0219    0.0159    0.0084
          21   -0.0246   -0.0134    0.0380   -0.0005   -0.0074   -0.0084    0.0014   -0.0288
          22   -0.0156   -0.0035   -0.0176    0.0085   -0.0009    0.0032    0.0021   -0.0128
          23   -0.0118    0.0358    0.0193   -0.0055    0.0082   -0.0264    0.0062    0.0101
          24    0.0014    0.0091    0.0098   -0.0111   -0.0078    0.0167   -0.0169    0.0052
          25    0.0155   -0.0036   -0.0176    0.0083   -0.0001    0.0037   -0.0014    0.0128
          26    0.0113    0.0277    0.0123   -0.0013   -0.0100   -0.0284   -0.0182   -0.0062
          27   -0.0043   -0.0245   -0.0178    0.0114   -0.0044   -0.0002   -0.0123    0.0093
          28   -0.0098   -0.0108   -0.0082    0.0073    0.0021    0.0155   -0.0076   -0.0082
          29   -0.0373    0.0253   -0.0287    0.0097    0.0055    0.0254   -0.0095   -0.0209
          30   -0.0083    0.0020   -0.0277   -0.0050   -0.0111   -0.0048    0.0084   -0.0218
          31    0.0299   -0.0130    0.0141   -0.0138    0.0065   -0.0183    0.0209    0.0635
          32    0.0224   -0.0336    0.0111   -0.0295    0.0034   -0.0059   -0.0287    0.0099
          33    0.0301    0.0372    0.0344    0.0125   -0.0035    0.0290    0.0260    0.0044
          34   -0.0299   -0.0126    0.0143   -0.0147   -0.0043   -0.0146   -0.0235   -0.0634
          35   -0.0061   -0.0468   -0.0062   -0.0319    0.0002   -0.0252    0.0345   -0.0070
          36    0.0368   -0.0179   -0.0355    0.0025   -0.0015   -0.0244    0.0057    0.0087
          37   -0.0619   -0.0653   -0.0250   -0.0270    0.0108   -0.0372   -0.0358    0.0191
          38   -0.0588   -0.0075   -0.0807   -0.0535    0.0455   -0.0697   -0.0745    0.0636
          39   -0.0446   -0.0137   -0.0819   -0.0417    0.0882   -0.0739   -0.0914    0.0252
          40   -0.0262    0.0682    0.0077   -0.0275   -0.0208    0.0197   -0.0175    0.0515
          41    0.0139   -0.0269   -0.0015   -0.0063    0.0125    0.0111   -0.0456   -0.0644
          42   -0.0747   -0.0100   -0.0591    0.0973    0.0457   -0.1168    0.1148   -0.0648
          43    0.0265    0.0680    0.0082   -0.0245    0.0241    0.0164    0.0211   -0.0517
          44   -0.0471   -0.0190    0.0265   -0.0475    0.0158    0.0464    0.1036    0.0266
          45   -0.0600    0.0215    0.0544   -0.0763    0.0559    0.0831    0.0982   -0.0883
          46    0.0615   -0.0658   -0.0247   -0.0271   -0.0059   -0.0433    0.0296   -0.0190
          47    0.0318   -0.0009   -0.0339   -0.0274    0.0049   -0.0322    0.0200   -0.0452
          48   -0.0665    0.0165    0.1092    0.0694    0.0869    0.1196   -0.0991    0.0516
          49    0.0118    0.0250    0.0030   -0.0300    0.0574   -0.0166   -0.0094    0.0166
          50   -0.0064   -0.0040   -0.0334   -0.0656    0.0812    0.0058   -0.0052    0.0783
          51   -0.0496   -0.0107    0.0289   -0.0793    0.0997   -0.0391   -0.0266    0.0272
          52   -0.0248   -0.0410   -0.0104   -0.0314    0.0346    0.0066    0.0369    0.0264
          53   -0.0095    0.0189   -0.0161   -0.0665    0.0654    0.0080    0.0475   -0.0105
          54   -0.0038   -0.0024   -0.0800   -0.0750    0.1082    0.0682    0.0756   -0.0150
          55    0.0246   -0.0412   -0.0106   -0.0353   -0.0300    0.0121   -0.0344   -0.0268
          56    0.0069    0.0177    0.0224   -0.0254   -0.0044   -0.0227   -0.0109    0.0026
          57   -0.0088   -0.0064    0.0789    0.1125    0.1134   -0.0770    0.0750   -0.0166
          58   -0.0116    0.0252    0.0024   -0.0365   -0.0528   -0.0197    0.0073   -0.0170
          59   -0.0171    0.0016   -0.0430   -0.0241   -0.0232    0.0231   -0.0028   -0.0572
          60   -0.0472    0.0110   -0.0094    0.1135    0.1105    0.0398   -0.0228    0.0604


   Root No.      17        18        19        20        21        22        23        24

                17 A      18 A      19 A      20 A      21 A      22 A      23 A      24 A   

                 905.5     908.6     967.7     973.9     983.3     996.9    1011.1    1026.3
  
           1    0.0236   -0.0136    0.0015   -0.0033    0.0054    0.0148    0.0010   -0.0001
           2    0.0239   -0.0210    0.0056   -0.0111   -0.0031    0.0067   -0.0120    0.0079
           3    0.0231   -0.0360    0.0104   -0.0026    0.0059   -0.0009    0.0020    0.0156
           4   -0.0237   -0.0135    0.0019    0.0030   -0.0049    0.0149   -0.0009   -0.0002
           5   -0.0107   -0.0021    0.0004    0.0084    0.0058    0.0060    0.0118    0.0009
           6    0.0318    0.0415   -0.0124   -0.0069    0.0025   -0.0024   -0.0017   -0.0178
           7   -0.0261    0.0089   -0.0045   -0.0105   -0.0030   -0.0146   -0.0131    0.0090
           8   -0.0022    0.0013   -0.0055    0.0042    0.0076    0.0042    0.0034   -0.0005
           9   -0.0103    0.0187    0.0172    0.0105   -0.0215   -0.0116    0.0166   -0.0180
          10    0.0404    0.0158   -0.0077    0.0116   -0.0023   -0.0314   -0.0002    0.0013
          11   -0.0021    0.0029   -0.0098    0.0129   -0.0089   -0.0051   -0.0103   -0.0172
          12   -0.0186    0.0061   -0.0102    0.0063   -0.0127    0.0137   -0.0148   -0.0218
          13    0.0262    0.0086   -0.0038    0.0111    0.0027   -0.0147    0.0122    0.0103
          14   -0.0029   -0.0076   -0.0116    0.0018   -0.0170    0.0096    0.0039    0.0086
          15   -0.0104   -0.0173   -0.0109    0.0120   -0.0157    0.0089    0.0149    0.0181
          16   -0.0403    0.0161   -0.0084   -0.0107    0.0009   -0.0317   -0.0002    0.0013
          17   -0.0066   -0.0003   -0.0044   -0.0082    0.0013   -0.0111    0.0028   -0.0050
          18   -0.0175   -0.0065    0.0147    0.0109   -0.0144   -0.0088   -0.0212    0.0253
          19   -0.0206   -0.0019    0.0044   -0.0083   -0.0024    0.0103    0.0045    0.0074
          20   -0.0179    0.0055    0.0091   -0.0136    0.0010    0.0086    0.0151    0.0170
          21    0.0141    0.0302    0.0036   -0.0179    0.0018    0.0048    0.0129    0.0148
          22    0.0181   -0.0116    0.0082   -0.0004   -0.0082    0.0046    0.0054   -0.0079
          23   -0.0318    0.0181   -0.0048    0.0057    0.0037   -0.0094    0.0106   -0.0046
          24   -0.0054    0.0122   -0.0207    0.0028    0.0223    0.0103   -0.0203    0.0179
          25   -0.0182   -0.0115    0.0076   -0.0000    0.0087    0.0043   -0.0047   -0.0087
          26    0.0259    0.0103    0.0044   -0.0039    0.0067   -0.0131   -0.0178   -0.0144
          27   -0.0196   -0.0190    0.0193    0.0041    0.0225   -0.0053   -0.0121   -0.0156
          28    0.0205   -0.0020    0.0045    0.0078    0.0030    0.0105   -0.0052    0.0068
          29    0.0223   -0.0091    0.0064    0.0033    0.0006    0.0056   -0.0084    0.0073
          30    0.0042   -0.0295   -0.0082   -0.0216    0.0009   -0.0090    0.0204   -0.0187
          31    0.0704    0.0124   -0.0036   -0.0299    0.0499    0.1385    0.0403   -0.0764
          32    0.0418    0.0052    0.0599   -0.1256   -0.0883    0.0387   -0.0948    0.0138
          33   -0.0038   -0.0589   -0.0167    0.0675    0.0354   -0.0583    0.0323    0.0382
          34   -0.0705    0.0126   -0.0002    0.0277   -0.0474    0.1407   -0.0306   -0.0795
          35   -0.0388    0.0319    0.0630    0.1386    0.1031    0.0583    0.1021    0.0032
          36    0.0162    0.0498   -0.0123    0.0021   -0.0097    0.0345   -0.0100   -0.0412
          37    0.0445    0.0094    0.0224   -0.0225    0.0204   -0.0213    0.0219    0.0340
          38    0.0436   -0.0038    0.0556   -0.0524    0.0498    0.0037    0.0520    0.0504
          39   -0.0452   -0.0173    0.0595   -0.0788    0.0317    0.0478    0.0235    0.0569
          40   -0.0266    0.0327    0.0274    0.0035   -0.0367   -0.0250    0.0072   -0.0126
          41   -0.0135    0.0241    0.0065    0.0241   -0.0188   -0.0096    0.0142   -0.0217
          42   -0.0114   -0.0648   -0.1005   -0.0357    0.0999    0.0248   -0.0554    0.0562
          43    0.0271    0.0328    0.0246   -0.0046    0.0374   -0.0262   -0.0063   -0.0137
          44    0.0076    0.0518    0.0453   -0.0404    0.0639   -0.0220   -0.0343   -0.0494
          45   -0.0153    0.0476    0.0785   -0.0253    0.0835   -0.0199   -0.0392   -0.0453
          46   -0.0445    0.0100    0.0244    0.0216   -0.0191   -0.0199   -0.0263    0.0317
          47   -0.0595    0.0050    0.0237    0.0094   -0.0287   -0.0171   -0.0385    0.0146
          48   -0.0197    0.0163   -0.0855   -0.0893    0.0436   -0.0484    0.0539   -0.0693
          49   -0.0212   -0.0423   -0.0258    0.0077   -0.0299    0.0528   -0.0524   -0.0504
          50    0.0383   -0.1107   -0.0280    0.0905    0.0040   -0.0678   -0.0331   -0.0350
          51    0.0554   -0.0808   -0.0422    0.0695   -0.0122   -0.0266   -0.0575   -0.0590
          52   -0.0041    0.0168   -0.0424   -0.0217   -0.0521    0.0537   -0.0057   -0.0082
          53    0.0542    0.0512   -0.0686   -0.0098   -0.0751    0.0262    0.0277    0.0323
          54    0.0188    0.0305   -0.0711    0.0154   -0.0737    0.0223    0.0782    0.0749
          55    0.0047    0.0162   -0.0436    0.0233    0.0497    0.0520    0.0075   -0.0085
          56   -0.0390    0.0315   -0.0289    0.0171    0.0306    0.0119    0.0122   -0.0051
          57    0.0408   -0.0502    0.1016    0.0042   -0.0953   -0.0298    0.0868   -0.0699
          58    0.0210   -0.0433   -0.0270   -0.0074    0.0286    0.0503    0.0586   -0.0449
          59   -0.0085   -0.0611   -0.0069   -0.0472   -0.0112   -0.0485    0.0025   -0.0034
          60    0.0666    0.1231    0.0542    0.0997   -0.0026    0.0582   -0.0730    0.0609


   Root No.      25        26        27        28        29        30        31        32

                25 A      26 A      27 A      28 A      29 A      30 A      31 A      32 A   

                1029.8    1072.6    1075.6    1098.6    1142.5    1149.5    1151.3    1159.9
  
           1   -0.0076   -0.0058    0.0047    0.0023    0.0081   -0.0124   -0.0041    0.0032
           2    0.0112    0.0090   -0.0034   -0.0052    0.0048    0.0007    0.0066    0.0044
           3   -0.0007    0.0176    0.0046   -0.0039   -0.0012    0.0030    0.0037   -0.0022
           4   -0.0075    0.0059    0.0048   -0.0024   -0.0080    0.0126   -0.0031    0.0039
           5    0.0100    0.0001   -0.0051    0.0028   -0.0049   -0.0000    0.0043    0.0050
           6   -0.0044    0.0199   -0.0024   -0.0060    0.0014    0.0036   -0.0059    0.0001
           7    0.0232    0.0164    0.0054    0.0050    0.0021    0.0032    0.0071   -0.0014
           8   -0.0102   -0.0045    0.0038    0.0023    0.0064   -0.0005    0.0046   -0.0011
           9   -0.0092   -0.0020    0.0009    0.0039    0.0038    0.0013    0.0027    0.0006
          10    0.0014    0.0169   -0.0118    0.0079   -0.0055    0.0029    0.0024   -0.0009
          11    0.0098   -0.0099    0.0031    0.0015    0.0027    0.0037   -0.0055   -0.0008
          12    0.0180   -0.0178   -0.0010    0.0059   -0.0054   -0.0023    0.0034   -0.0011
          13    0.0228   -0.0166    0.0053   -0.0049   -0.0024   -0.0039    0.0067   -0.0016
          14   -0.0046    0.0030    0.0029   -0.0002   -0.0041    0.0007    0.0028   -0.0012
          15    0.0127   -0.0039   -0.0025    0.0046    0.0065    0.0015   -0.0043   -0.0000
          16    0.0014   -0.0169   -0.0119   -0.0078    0.0055   -0.0030    0.0023   -0.0011
          17    0.0004    0.0006    0.0033    0.0014   -0.0046   -0.0036   -0.0069   -0.0004
          18   -0.0200   -0.0202   -0.0007    0.0059   -0.0034   -0.0003   -0.0006    0.0013
          19   -0.0089    0.0177   -0.0175    0.0122    0.0007    0.0015   -0.0013   -0.0009
          20   -0.0104    0.0102   -0.0030    0.0004    0.0006    0.0020   -0.0024   -0.0024
          21    0.0024   -0.0120    0.0139   -0.0099    0.0017   -0.0018    0.0020    0.0024
          22    0.0006    0.0162    0.0187    0.0122    0.0001    0.0004    0.0014    0.0002
          23   -0.0119   -0.0190   -0.0163   -0.0059    0.0000   -0.0021    0.0003   -0.0044
          24    0.0023    0.0036    0.0058    0.0040    0.0007   -0.0004    0.0018   -0.0015
          25    0.0005   -0.0164    0.0186   -0.0122   -0.0002   -0.0006    0.0015    0.0002
          26   -0.0113    0.0187   -0.0171    0.0070    0.0003    0.0019   -0.0004   -0.0032
          27    0.0033   -0.0056    0.0023    0.0008    0.0008   -0.0012   -0.0019    0.0032
          28   -0.0089   -0.0175   -0.0176   -0.0123   -0.0008   -0.0012   -0.0014   -0.0009
          29   -0.0103   -0.0144   -0.0091   -0.0050    0.0004   -0.0020   -0.0032   -0.0033
          30    0.0023   -0.0060   -0.0109   -0.0086    0.0019   -0.0005   -0.0007   -0.0011
          31   -0.0441   -0.1370   -0.0024    0.1318   -0.0056    0.0623    0.0907   -0.0161
          32    0.2146   -0.0113    0.0038   -0.0102   -0.0328   -0.0142   -0.0368   -0.0109
          33   -0.0967    0.0748    0.0041   -0.0460    0.0238   -0.0142   -0.0045    0.0132
          34   -0.0416    0.1370   -0.0019   -0.1316    0.0023   -0.0715    0.0852   -0.0193
          35    0.2316    0.0437    0.0019   -0.0121    0.0409    0.0106   -0.0291   -0.0155
          36   -0.0120    0.0612   -0.0052   -0.0455    0.0052   -0.0211    0.0194   -0.0076
          37   -0.0210    0.0331   -0.0120    0.0029   -0.0031    0.0011    0.0042    0.0002
          38   -0.0457   -0.0311    0.0884   -0.0599    0.0978   -0.0332   -0.0573    0.0707
          39   -0.0253    0.0662   -0.0723    0.0332   -0.0821    0.0250    0.0570   -0.0630
          40    0.0137    0.0151    0.0083    0.0110    0.0049    0.0067    0.0105    0.0015
          41   -0.0090    0.0722    0.1131    0.0642    0.0750    0.1120    0.0996    0.1014
          42    0.0246    0.0268    0.0237    0.0045    0.0119    0.0173    0.0180    0.0143
          43    0.0133   -0.0152    0.0081   -0.0109   -0.0052   -0.0079    0.0097    0.0011
          44   -0.0193   -0.0523    0.0890   -0.0546   -0.0631   -0.1044    0.0685    0.0785
          45   -0.0178    0.0579   -0.0728    0.0332    0.0466    0.0764   -0.0531   -0.0556
          46   -0.0205   -0.0330   -0.0124   -0.0029    0.0031   -0.0016    0.0042    0.0000
          47   -0.0278    0.0576    0.1122    0.0685   -0.1218    0.0445   -0.0773    0.0940
          48    0.0426    0.0441    0.0242    0.0021   -0.0273    0.0084   -0.0247    0.0239
          49   -0.0106    0.0235   -0.0824    0.0716    0.1340   -0.0705   -0.0846    0.1141
          50    0.0211   -0.0006    0.0287   -0.0289   -0.0823    0.0454    0.0483   -0.0720
          51    0.0266   -0.0183   -0.0010    0.0036    0.0186   -0.0135   -0.0088    0.0197
          52   -0.0383   -0.0393    0.0964   -0.0874    0.0619    0.1364   -0.0818   -0.1003
          53   -0.0157    0.0141    0.0048   -0.0132    0.0135    0.0350   -0.0182   -0.0281
          54    0.0367    0.0057   -0.0330    0.0379   -0.0343   -0.0761    0.0464    0.0579
          55   -0.0393    0.0390    0.0964    0.0867   -0.0591   -0.1213   -0.0960   -0.1073
          56   -0.0316   -0.0098    0.0193    0.0288   -0.0265   -0.0587   -0.0443   -0.0549
          57   -0.0253    0.0117    0.0269    0.0269   -0.0228   -0.0451   -0.0379   -0.0407
          58   -0.0123   -0.0228   -0.0820   -0.0716   -0.1308    0.0737   -0.0806    0.1185
          59    0.0067   -0.0083    0.0258    0.0274    0.0801   -0.0478    0.0443   -0.0760
          60   -0.0321   -0.0161   -0.0129   -0.0104   -0.0213    0.0101   -0.0144    0.0167


   Root No.      33        34        35        36        37        38        39        40

                33 A      34 A      35 A      36 A      37 A      38 A      39 A      40 A   

                1193.6    1232.5    1252.2    1320.0    1354.7    1395.5    1438.1    1447.5
  
           1    0.0007   -0.0217   -0.0077    0.0386   -0.0756    0.0200   -0.0359   -0.0005
           2    0.0223    0.0016    0.0583   -0.0098   -0.0152   -0.0647    0.0148    0.0339
           3   -0.0125    0.0088   -0.0321   -0.0315    0.0213    0.0265    0.0113   -0.0181
           4   -0.0007   -0.0217   -0.0077    0.0385    0.0757   -0.0199    0.0359   -0.0002
           5   -0.0255   -0.0028    0.0666    0.0056    0.0233    0.0696   -0.0083    0.0384
           6   -0.0009   -0.0086    0.0017    0.0324    0.0120   -0.0062    0.0168    0.0006
           7   -0.0014    0.0016    0.0262   -0.0204    0.0098   -0.0190    0.0106    0.0088
           8    0.0088    0.0100   -0.0078    0.0241    0.0121    0.0166   -0.0393   -0.0366
           9    0.0062   -0.0007    0.0142    0.0010   -0.0009   -0.0087   -0.0020   -0.0006
          10   -0.0000    0.0026   -0.0183   -0.0222    0.0224    0.0127    0.0086   -0.0086
          11    0.0045   -0.0062    0.0025   -0.0108    0.0010    0.0163    0.0237   -0.0240
          12   -0.0087    0.0059   -0.0011    0.0220   -0.0072   -0.0187   -0.0272    0.0261
          13    0.0014    0.0016    0.0262   -0.0204   -0.0098    0.0190   -0.0106    0.0087
          14   -0.0050    0.0092   -0.0134    0.0211   -0.0111   -0.0187    0.0343   -0.0320
          15    0.0095   -0.0040   -0.0091   -0.0120    0.0048   -0.0001   -0.0200    0.0173
          16    0.0001    0.0026   -0.0183   -0.0221   -0.0225   -0.0128   -0.0086   -0.0087
          17   -0.0080   -0.0082    0.0027   -0.0197   -0.0042   -0.0231   -0.0333   -0.0335
          18   -0.0056   -0.0024   -0.0001   -0.0145   -0.0060   -0.0091   -0.0131   -0.0122
          19   -0.0096    0.0096   -0.0230    0.0129    0.0104   -0.0248   -0.0441    0.0427
          20    0.0024   -0.0058   -0.0100   -0.0086    0.0039    0.0152    0.0003   -0.0051
          21    0.0039    0.0013    0.0204    0.0013   -0.0094   -0.0052    0.0185   -0.0131
          22    0.0112    0.0101    0.0202    0.0163    0.0214    0.0044   -0.0468   -0.0425
          23   -0.0001    0.0044   -0.0184    0.0045   -0.0004    0.0171    0.0109    0.0094
          24    0.0019    0.0046    0.0026    0.0046    0.0082    0.0051   -0.0126   -0.0119
          25   -0.0112    0.0100    0.0202    0.0164   -0.0214   -0.0043    0.0471   -0.0421
          26    0.0009    0.0018   -0.0175    0.0019    0.0042   -0.0128   -0.0156    0.0138
          27    0.0017   -0.0061    0.0061   -0.0062    0.0071    0.0123   -0.0062    0.0061
          28    0.0095    0.0096   -0.0230    0.0130   -0.0103    0.0248    0.0437    0.0431
          29   -0.0004   -0.0058   -0.0183   -0.0082   -0.0078   -0.0160    0.0083    0.0015
          30    0.0045    0.0016   -0.0136    0.0028   -0.0065    0.0023    0.0164    0.0140
          31    0.0156    0.0749   -0.0145   -0.1140    0.0469   -0.0409    0.0155   -0.0092
          32   -0.0646   -0.0126   -0.0903    0.0066    0.0050    0.0700   -0.0060   -0.0139
          33    0.0280   -0.0178    0.0495    0.0140   -0.0314   -0.0247    0.0045    0.0112
          34   -0.0153    0.0750   -0.0146   -0.1143   -0.0472    0.0408   -0.0153   -0.0094
          35    0.0698   -0.0026   -0.1027   -0.0003   -0.0189   -0.0734    0.0076   -0.0174
          36   -0.0048    0.0216   -0.0024   -0.0155   -0.0256    0.0102    0.0012   -0.0036
          37    0.0037    0.0006   -0.0162   -0.0245    0.0193    0.0133    0.0078   -0.0084
          38   -0.0813    0.0978   -0.0198    0.0066    0.0617   -0.0680   -0.0351    0.0596
          39    0.0833   -0.0946    0.0369   -0.0005   -0.0756    0.0551    0.0317   -0.0516
          40   -0.0007   -0.0058    0.0322   -0.0199    0.0011   -0.0236    0.0124    0.0126
          41   -0.0953   -0.1095   -0.0891   -0.0313   -0.1229    0.0025    0.0592    0.0637
          42   -0.0233   -0.0064   -0.0202   -0.0199   -0.0060   -0.0001    0.0117    0.0079
          43    0.0007   -0.0057    0.0321   -0.0199   -0.0011    0.0236   -0.0124    0.0125
          44    0.0750   -0.0941   -0.0700   -0.0189    0.1063   -0.0024   -0.0476    0.0526
          45   -0.0654    0.0558    0.0591    0.0323   -0.0617    0.0012    0.0378   -0.0359
          46   -0.0036    0.0006   -0.0162   -0.0244   -0.0194   -0.0134   -0.0077   -0.0085
          47    0.1094    0.1306   -0.0346    0.0063   -0.0895    0.0858    0.0451    0.0771
          48    0.0362    0.0392   -0.0237   -0.0026   -0.0388    0.0176    0.0117    0.0185
          49    0.0568   -0.0415    0.0163   -0.0720    0.0319    0.0596    0.0401   -0.0379
          50   -0.0391    0.0246   -0.0345    0.0422   -0.0084   -0.0360   -0.0536    0.0471
          51    0.0134   -0.0069    0.0304   -0.0103   -0.0086    0.0058    0.0334   -0.0255
          52    0.0616   -0.0520    0.0132   -0.0705    0.0202    0.0550   -0.0510    0.0395
          53    0.0195   -0.0129   -0.0202   -0.0177    0.0157    0.0001   -0.0406    0.0360
          54   -0.0372    0.0288    0.0163    0.0430   -0.0152   -0.0173    0.0520   -0.0394
          55   -0.0622   -0.0526    0.0128   -0.0707   -0.0205   -0.0553    0.0510    0.0400
          56   -0.0347   -0.0250   -0.0257   -0.0355   -0.0211   -0.0081    0.0596    0.0505
          57   -0.0242   -0.0197   -0.0054   -0.0299   -0.0063   -0.0152    0.0273    0.0187
          58   -0.0570   -0.0420    0.0166   -0.0720   -0.0321   -0.0598   -0.0397   -0.0382
          59    0.0410    0.0254   -0.0449    0.0424    0.0036    0.0348    0.0624    0.0540
          60   -0.0062   -0.0053   -0.0109   -0.0102   -0.0115   -0.0115    0.0050    0.0010


   Root No.      41        42        43        44        45        46        47        48

                41 A      42 A      43 A      44 A      45 A      46 A      47 A      48 A   

                1845.9    1856.2    1862.4    1867.2    2829.2    2838.4    3048.6    3048.7
  
           1    0.0000    0.0011    0.0008    0.0034    0.0116   -0.0101   -0.0001    0.0002
           2   -0.0147    0.0014   -0.0212   -0.0041    0.0172   -0.0165   -0.0001   -0.0001
           3    0.0067   -0.0081    0.0066   -0.0084    0.0314   -0.0305   -0.0001    0.0002
           4    0.0001   -0.0011   -0.0010    0.0033    0.0113    0.0104   -0.0000   -0.0002
           5   -0.0159   -0.0064    0.0217    0.0015    0.0008    0.0006   -0.0001    0.0002
           6    0.0013   -0.0064   -0.0045    0.0092   -0.0349   -0.0356    0.0001    0.0002
           7    0.0291    0.0272    0.0316    0.0294   -0.0008    0.0008   -0.0165    0.0134
           8    0.0607    0.0544    0.0739    0.0696    0.0004   -0.0004    0.0006   -0.0006
           9    0.0171    0.0129    0.0191    0.0166   -0.0002    0.0001   -0.0044    0.0037
          10   -0.0333    0.0351   -0.0209    0.0243   -0.0004    0.0001   -0.0057   -0.0066
          11    0.0596   -0.0657    0.0436   -0.0507   -0.0006    0.0003    0.0014    0.0015
          12   -0.0449    0.0492   -0.0340    0.0390    0.0007   -0.0005    0.0012    0.0014
          13    0.0315   -0.0246   -0.0332    0.0276   -0.0008   -0.0008   -0.0133   -0.0166
          14    0.0496   -0.0382   -0.0597    0.0510    0.0004    0.0004    0.0021    0.0027
          15   -0.0462    0.0325    0.0534   -0.0438   -0.0000   -0.0001    0.0029    0.0037
          16   -0.0305   -0.0376    0.0193    0.0256   -0.0004   -0.0001   -0.0071    0.0053
          17    0.0673    0.0863   -0.0502   -0.0664   -0.0008   -0.0006    0.0008   -0.0006
          18    0.0114    0.0143   -0.0093   -0.0120   -0.0003   -0.0003   -0.0021    0.0016
          19    0.0660   -0.0657    0.0243   -0.0319   -0.0002    0.0002    0.0024    0.0029
          20   -0.0566    0.0605   -0.0396    0.0457    0.0004   -0.0003    0.0028    0.0034
          21    0.0276   -0.0316    0.0276   -0.0306   -0.0000    0.0001   -0.0038   -0.0046
          22   -0.0592   -0.0554   -0.0457   -0.0395   -0.0001    0.0002    0.0054   -0.0045
          23   -0.0468   -0.0397   -0.0609   -0.0579   -0.0003    0.0003   -0.0106    0.0088
          24   -0.0237   -0.0214   -0.0221   -0.0200    0.0001    0.0000    0.0002   -0.0001
          25   -0.0638    0.0502    0.0476   -0.0370   -0.0000   -0.0002    0.0044    0.0055
          26   -0.0329    0.0226    0.0462   -0.0397   -0.0003   -0.0002   -0.0076   -0.0097
          27    0.0457   -0.0334   -0.0499    0.0417    0.0000    0.0001    0.0038    0.0049
          28    0.0607    0.0706   -0.0221   -0.0335   -0.0002   -0.0002    0.0030   -0.0023
          29   -0.0576   -0.0728    0.0442    0.0576    0.0003    0.0003    0.0053   -0.0042
          30    0.0015   -0.0000    0.0059    0.0065   -0.0001   -0.0001    0.0026   -0.0020
          31    0.0045    0.0150    0.0007    0.0041   -0.1301    0.1298   -0.0000   -0.0003
          32   -0.0098   -0.0111   -0.0063   -0.0108   -0.2040    0.1971    0.0024   -0.0019
          33    0.0008   -0.0015   -0.0015   -0.0011   -0.3838    0.3713    0.0026   -0.0019
          34    0.0058   -0.0145   -0.0009    0.0041   -0.1263   -0.1331   -0.0001    0.0003
          35   -0.0099    0.0083    0.0054   -0.0088   -0.0046   -0.0044    0.0007    0.0010
          36    0.0043   -0.0062   -0.0046    0.0057    0.4231    0.4320   -0.0028   -0.0033
          37   -0.0450    0.0491   -0.0294    0.0350    0.0009   -0.0032    0.0664    0.0778
          38   -0.0015    0.0004   -0.0104    0.0045    0.0003   -0.0002   -0.0134   -0.0164
          39    0.0202   -0.0213    0.0232   -0.0215    0.0011   -0.0004   -0.0162   -0.0184
          40    0.0371    0.0341    0.0415    0.0386    0.0076   -0.0080    0.1928   -0.1578
          41   -0.0121   -0.0095   -0.0262   -0.0244    0.0020   -0.0017   -0.0145    0.0117
          42    0.0121    0.0106    0.0111    0.0092    0.0028   -0.0031    0.0512   -0.0418
          43    0.0401   -0.0308   -0.0436    0.0363    0.0074    0.0082    0.1554    0.1955
          44   -0.0174    0.0117    0.0296   -0.0242    0.0005    0.0001   -0.0294   -0.0367
          45   -0.0056    0.0047   -0.0024    0.0028   -0.0033   -0.0037   -0.0312   -0.0393
          46   -0.0411   -0.0524    0.0270    0.0369    0.0007    0.0032    0.0823   -0.0619
          47   -0.0099   -0.0110    0.0191    0.0152   -0.0003    0.0000   -0.0057    0.0050
          48   -0.0158   -0.0199    0.0146    0.0179   -0.0012   -0.0005    0.0254   -0.0190
          49   -0.0177    0.0246   -0.0439    0.0437    0.0005   -0.0007   -0.0267   -0.0327
          50   -0.0162    0.0171   -0.0052    0.0079    0.0009   -0.0011   -0.0339   -0.0416
          51    0.0253   -0.0293    0.0245   -0.0280   -0.0004    0.0007    0.0450    0.0552
          52    0.0130   -0.0029   -0.0487    0.0446    0.0005    0.0003   -0.0489   -0.0622
          53   -0.0247    0.0177    0.0347   -0.0300   -0.0016   -0.0015    0.0929    0.1182
          54    0.0122   -0.0108   -0.0062    0.0046    0.0006    0.0005   -0.0476   -0.0606
          55    0.0125    0.0042    0.0461    0.0474    0.0005   -0.0003   -0.0608    0.0502
          56   -0.0255   -0.0230   -0.0321   -0.0306   -0.0017    0.0015    0.1298   -0.1070
          57    0.0006   -0.0013    0.0099    0.0103    0.0002   -0.0002   -0.0005    0.0004
          58   -0.0160   -0.0258    0.0411    0.0463    0.0005    0.0007   -0.0333    0.0263
          59   -0.0237   -0.0306    0.0146    0.0210    0.0010    0.0014   -0.0634    0.0501
          60   -0.0137   -0.0191    0.0180    0.0224   -0.0001    0.0000   -0.0304    0.0240


   Root No.      49        50        51        52        53        54

                49 A      50 A      51 A      52 A      53 A      54 A   

                3050.8    3050.9    3066.4    3066.5    3076.8    3077.2
  
           1    0.0003   -0.0000    0.0001   -0.0000    0.0000    0.0003
           2    0.0002    0.0001    0.0002   -0.0000    0.0003    0.0001
           3    0.0002    0.0002    0.0002    0.0000    0.0000    0.0003
           4   -0.0003    0.0001    0.0001    0.0001    0.0000   -0.0003
           5   -0.0001    0.0000   -0.0000    0.0001    0.0003    0.0000
           6    0.0001   -0.0002   -0.0002   -0.0002   -0.0002    0.0003
           7    0.0094    0.0070    0.0137   -0.0051    0.0069    0.0064
           8   -0.0002   -0.0004    0.0013   -0.0004    0.0008    0.0009
           9    0.0025    0.0020    0.0039   -0.0015    0.0021    0.0018
          10    0.0140   -0.0187    0.0042    0.0117   -0.0076    0.0082
          11   -0.0034    0.0045   -0.0014   -0.0038    0.0027   -0.0029
          12   -0.0029    0.0039   -0.0005   -0.0015    0.0007   -0.0007
          13   -0.0068    0.0094    0.0050    0.0138    0.0064   -0.0069
          14    0.0009   -0.0016   -0.0002   -0.0008   -0.0002    0.0001
          15    0.0015   -0.0021   -0.0015   -0.0041   -0.0020    0.0022
          16   -0.0189   -0.0138    0.0117   -0.0043   -0.0082   -0.0075
          17    0.0022    0.0016   -0.0027    0.0010    0.0022    0.0021
          18   -0.0056   -0.0041    0.0030   -0.0011   -0.0020   -0.0018
          19   -0.0040    0.0053    0.0018    0.0050   -0.0053    0.0057
          20   -0.0042    0.0056    0.0034    0.0092   -0.0083    0.0089
          21    0.0059   -0.0078   -0.0041   -0.0113    0.0104   -0.0112
          22   -0.0019   -0.0015    0.0060   -0.0022    0.0047    0.0043
          23    0.0031    0.0025   -0.0177    0.0064   -0.0121   -0.0112
          24   -0.0001   -0.0001   -0.0006    0.0002   -0.0003   -0.0003
          25    0.0013   -0.0019    0.0022    0.0060    0.0043   -0.0047
          26   -0.0020    0.0030   -0.0057   -0.0154   -0.0098    0.0106
          27    0.0009   -0.0014    0.0032    0.0087    0.0054   -0.0058
          28    0.0054    0.0039    0.0050   -0.0018   -0.0057   -0.0052
          29    0.0087    0.0063    0.0134   -0.0049   -0.0131   -0.0120
          30    0.0044    0.0032    0.0058   -0.0021   -0.0059   -0.0054
          31    0.0001   -0.0004   -0.0003    0.0002   -0.0002   -0.0003
          32   -0.0018   -0.0009   -0.0022    0.0003   -0.0008   -0.0015
          33   -0.0025   -0.0006   -0.0027    0.0002   -0.0011   -0.0021
          34   -0.0002   -0.0004   -0.0001   -0.0004   -0.0002    0.0003
          35    0.0002   -0.0006   -0.0003   -0.0007   -0.0002    0.0004
          36   -0.0026    0.0018    0.0020    0.0028    0.0011   -0.0026
          37   -0.1645    0.2197   -0.0461   -0.1289    0.0786   -0.0848
          38    0.0342   -0.0462    0.0097    0.0281   -0.0174    0.0185
          39    0.0393   -0.0522    0.0108    0.0295   -0.0179    0.0195
          40   -0.1094   -0.0837   -0.1502    0.0559   -0.0716   -0.0662
          41    0.0081    0.0058    0.0094   -0.0033    0.0042    0.0041
          42   -0.0292   -0.0220   -0.0401    0.0148   -0.0191   -0.0178
          43    0.0788   -0.1115   -0.0544   -0.1515   -0.0661    0.0714
          44   -0.0150    0.0205    0.0099    0.0268    0.0115   -0.0127
          45   -0.0160    0.0225    0.0114    0.0315    0.0138   -0.0150
          46    0.2217    0.1616   -0.1288    0.0481    0.0851    0.0783
          47   -0.0167   -0.0126    0.0111   -0.0045   -0.0078   -0.0068
          48    0.0681    0.0496   -0.0391    0.0145    0.0257    0.0237
          49    0.0448   -0.0592   -0.0264   -0.0721    0.0677   -0.0729
          50    0.0543   -0.0716   -0.0342   -0.0933    0.0842   -0.0906
          51   -0.0730    0.0965    0.0452    0.1232   -0.1125    0.1211
          52   -0.0145    0.0215   -0.0314   -0.0848   -0.0554    0.0599
          53    0.0260   -0.0387    0.0615    0.1663    0.1053   -0.1138
          54   -0.0130    0.0194   -0.0319   -0.0863   -0.0539    0.0583
          55    0.0205    0.0162   -0.0849    0.0306   -0.0600   -0.0555
          56   -0.0411   -0.0326    0.1875   -0.0677    0.1283    0.1186
          57    0.0006    0.0004    0.0002   -0.0001   -0.0005   -0.0005
          58   -0.0603   -0.0436   -0.0722    0.0262    0.0731    0.0672
          59   -0.1101   -0.0795   -0.1398    0.0508    0.1366    0.1256
          60   -0.0537   -0.0388   -0.0666    0.0242    0.0660    0.0607


           MASS-WEIGHTED COORDINATE ANALYSIS (NORMAL COORDINATES)


   Root No.       1         2         3         4         5         6         7         8

                 1 A       2 A       3 A       4 A       5 A       6 A       7 A       8 A   

                  85.5     147.4     268.9     326.9     425.1     469.6     477.6     480.8
  
           1   -0.0024    0.0000   -0.1571   -0.1775    0.0023    0.0261    0.0523    0.2871
           2    0.0362   -0.0464    0.0285    0.0394   -0.2023    0.1174    0.0357    0.0918
           3    0.0227   -0.2660    0.0165    0.1481    0.1696    0.0603    0.0074    0.1612
           4    0.0036    0.0030   -0.1569   -0.1774    0.0028   -0.0188    0.1165    0.2680
           5   -0.0214   -0.0815    0.0162   -0.0301    0.2579   -0.0764   -0.0198    0.0220
           6    0.0380   -0.2567   -0.0359   -0.1465    0.0588    0.1048   -0.0806   -0.1725
           7   -0.0281    0.0053   -0.0329    0.0396    0.1554    0.1280   -0.1317   -0.0372
           8    0.0236   -0.0375    0.0951    0.1395   -0.2120    0.2406   -0.0436   -0.0796
           9    0.3293   -0.0542    0.1937   -0.2228   -0.0922   -0.1545    0.3306    0.1749
          10   -0.1200   -0.0268   -0.1092   -0.0085   -0.2598    0.1188   -0.0251    0.1133
          11   -0.2363    0.0226   -0.2981    0.0077   -0.2486   -0.2527   -0.0396    0.1547
          12   -0.2398   -0.2242   -0.1981    0.2185    0.0430   -0.1250   -0.1233    0.0968
          13    0.0280   -0.0041   -0.0329    0.0381   -0.1559   -0.1289    0.0905   -0.1008
          14    0.1289    0.0101   -0.0023    0.2289    0.1415   -0.2911    0.0735   -0.2237
          15    0.3022   -0.0580   -0.2164    0.1362   -0.1817   -0.0320    0.1622   -0.2466
          16    0.1197    0.0298   -0.1074   -0.0042    0.2603   -0.1179    0.0830    0.0808
          17    0.0999   -0.1188   -0.1764   -0.0875    0.2426    0.1692    0.0345    0.0838
          18   -0.3202   -0.1984    0.3076   -0.2051   -0.0746   -0.2277   -0.1916   -0.0571
          19   -0.1496    0.0256    0.1129   -0.0026   -0.1289    0.1122    0.0234   -0.2087
          20   -0.2177    0.3075    0.0120   -0.2796   -0.0454   -0.0764    0.1800   -0.1815
          21   -0.1867    0.1320    0.0417   -0.1833    0.1977    0.1956    0.1145   -0.0976
          22    0.0216   -0.0547    0.1906    0.1341    0.1419   -0.0647    0.0463   -0.1141
          23    0.0420   -0.1402    0.1085    0.0521   -0.2190    0.3223    0.0367    0.0421
          24    0.1680    0.3749   -0.2639   -0.1175   -0.0172    0.0237   -0.3243   -0.1255
          25   -0.0222    0.0503    0.1911    0.1314   -0.1456    0.0618   -0.1039   -0.0700
          26    0.0399    0.2910    0.2259    0.0989    0.1848   -0.2730   -0.1010    0.1853
          27    0.1683    0.2638    0.1898    0.0779   -0.1181    0.1711   -0.1784    0.2245
          28    0.1495   -0.0283    0.1122   -0.0014    0.1276   -0.1159   -0.1337   -0.1594
          29    0.1085   -0.2128   -0.0148   -0.1612    0.1333    0.1581   -0.1508   -0.0426
          30   -0.2682    0.2611   -0.0337    0.2953    0.1504    0.1386    0.2452    0.0389
          31    0.0053   -0.0102   -0.0566   -0.1064    0.0556    0.0034    0.0134    0.0614
          32    0.0861    0.0036    0.0854   -0.0367   -0.1107    0.0768    0.0993    0.0059
          33   -0.0364   -0.0810   -0.0335    0.0858    0.0558   -0.0059   -0.0440    0.0633
          34   -0.0045    0.0113   -0.0561   -0.1070   -0.0534   -0.0014    0.0244    0.0588
          35   -0.0927   -0.0431    0.0900   -0.0729    0.1251   -0.0703   -0.1032    0.0401
          36    0.0077   -0.0700   -0.0117   -0.0586   -0.0008    0.0292   -0.0258   -0.0541
          37   -0.0628   -0.0296   -0.0798    0.0139   -0.1080   -0.0081   -0.0158    0.0270
          38   -0.1265   -0.0283   -0.2160    0.0107   -0.1260   -0.1729   -0.0212    0.0741
          39   -0.1342   -0.1244   -0.1442    0.1223   -0.0851   -0.1274   -0.0595   -0.0210
          40   -0.0344    0.0112   -0.0300    0.0512    0.0727    0.0783   -0.0745   -0.0332
          41    0.0013    0.0089    0.0525    0.0938   -0.0315    0.0749   -0.0450   -0.1068
          42    0.1907   -0.0469    0.1388   -0.1986   -0.1239   -0.1988    0.2233    0.1146
          43    0.0339   -0.0103   -0.0304    0.0503   -0.0733   -0.0794    0.0445   -0.0673
          44    0.0852   -0.0284   -0.0179    0.1742   -0.0324   -0.1629    0.0376   -0.1985
          45    0.1687   -0.0336   -0.1484    0.1328   -0.1259   -0.1454    0.1206   -0.1392
          46    0.0623    0.0316   -0.0784    0.0160    0.1079    0.0077    0.0279    0.0127
          47    0.0508   -0.0291   -0.1265   -0.0444    0.0744    0.0968    0.0351    0.0646
          48   -0.1758   -0.1296    0.2231   -0.1185   -0.1321   -0.1907   -0.0601    0.0261
          49   -0.0797    0.0045    0.0442   -0.0168    0.0222    0.0073    0.0511   -0.1596
          50   -0.1115    0.1425   -0.0135   -0.1958   -0.0317    0.0202    0.1607   -0.1974
          51   -0.1119    0.0767    0.0067   -0.1482    0.0780    0.0741    0.1406   -0.1969
          52    0.0101    0.0234    0.1041    0.1063   -0.0184    0.0041   -0.0958    0.0291
          53    0.0423    0.1309    0.1285    0.1008    0.0282   -0.1096   -0.1206    0.1527
          54    0.0921    0.1580    0.1279    0.0943   -0.1058    0.0046   -0.1626    0.2098
          55   -0.0110   -0.0259    0.1041    0.1080    0.0169   -0.0051    0.0942   -0.0279
          56    0.0044   -0.0452    0.0539    0.0467   -0.0740    0.0997    0.0470    0.0135
          57    0.1035    0.2060   -0.1692   -0.1373   -0.0808   -0.0509   -0.3076   -0.1037
          58    0.0801   -0.0056    0.0433   -0.0176   -0.0225   -0.0093   -0.1301   -0.1049
          59    0.0479   -0.0909   -0.0177   -0.1046    0.0652    0.0161   -0.1091   -0.0289
          60   -0.1520    0.1336    0.0056    0.2234    0.0519    0.0764    0.3076    0.1121


   Root No.       9        10        11        12        13        14        15        16

                 9 A      10 A      11 A      12 A      13 A      14 A      15 A      16 A   

                 564.3     596.5     669.4     752.4     769.3     815.4     820.0     842.7
  
           1   -0.0605    0.0704    0.1778   -0.0802   -0.1038   -0.0091    0.1346    0.2169
           2    0.2081   -0.1975    0.1580   -0.0182    0.0016    0.0797    0.0382    0.0202
           3    0.2841    0.1752    0.2261   -0.0453    0.0313    0.1490    0.1201    0.2007
           4    0.0620    0.0700    0.1780   -0.0688    0.1131    0.0150   -0.1328   -0.2171
           5   -0.0553   -0.2558    0.0355    0.0062    0.0117   -0.0007    0.0206    0.0742
           6    0.3471   -0.0675   -0.2732    0.0551    0.0240   -0.1865    0.0910    0.1891
           7   -0.2939    0.3869   -0.0245    0.0282   -0.0412   -0.1461    0.1805    0.2768
           8    0.1007   -0.0623    0.1495   -0.0150    0.1054   -0.0981   -0.0471   -0.1516
           9   -0.1225    0.0991   -0.1289   -0.1576   -0.1512    0.1095   -0.1171    0.1405
          10   -0.2678   -0.3536    0.0634   -0.0158   -0.2239   -0.0114    0.0477   -0.0325
          11    0.0622    0.0147   -0.1740    0.1126   -0.1711    0.1378    0.1257    0.0388
          12   -0.0277    0.0830    0.0481    0.0875   -0.0058    0.0108    0.0319   -0.1541
          13    0.2958    0.3856   -0.0239    0.0322    0.0400   -0.1142   -0.2043   -0.2755
[...]
 FREQ.      1193.60         C  1 -- C  2          +9.6% ( 38.9%)      0.1%
 T-DIPOLE    0.0433         C  4 -- H 13          +9.4% ( 38.6%)      0.0%
 TRAVEL      0.1354         C  6 -- H 16          +9.3% ( 38.3%)      0.0%
 RED. MASS   0.2164         C  1 -- H 11          +8.0% ( 35.6%)      0.0%
 EFF. MASS   3.0831

 VIBRATION   34   34A         ATOM PAIR      ENERGY CONTRIBUTION    RADIAL
 FREQ.      1232.46         C  6 -- H 16         +12.4% ( 41.7%)      0.2%
 T-DIPOLE    0.0080         C  4 -- H 13         +12.4% ( 41.7%)      0.2%
 TRAVEL      0.1472         C  3 -- H 14          +8.7% ( 34.8%)      0.0%
 RED. MASS   0.1935         C  5 -- H 15          +8.6% ( 34.7%)      0.0%
 EFF. MASS   2.5235

 VIBRATION   35   35A         ATOM PAIR      ENERGY CONTRIBUTION    RADIAL
 FREQ.      1252.24         C  1 -- C  2         +12.9% ( 58.4%)      0.0%
 T-DIPOLE    0.0748         C  2 -- C  5         +10.5% ( 52.6%)     71.7%
 TRAVEL      0.0732         C  1 -- C  3         +10.5% ( 52.6%)     71.7%
 RED. MASS   1.4607         C  1 -- H 11          +9.7% ( 50.7%)      0.1%
 EFF. MASS  10.0532

 VIBRATION   36   36A         ATOM PAIR      ENERGY CONTRIBUTION    RADIAL
 FREQ.      1320.01         C  1 -- C  4         +10.4% ( 47.1%)     65.0%
 T-DIPOLE    0.1653         C  2 -- C  6         +10.4% ( 47.0%)     64.8%
 TRAVEL      0.0790         C  1 -- C  3          +9.5% ( 45.0%)     52.1%
 RED. MASS   0.9171         C  2 -- C  5          +9.5% ( 45.0%)     52.5%
 EFF. MASS   8.1907

 VIBRATION   37   37A         ATOM PAIR      ENERGY CONTRIBUTION    RADIAL
 FREQ.      1354.71         C  1 -- C  2         +22.4% ( 72.4%)     93.6%
 T-DIPOLE    0.0191         C  2 -- C  6         +10.8% ( 50.4%)     46.0%
 TRAVEL      0.0740         C  1 -- C  4         +10.8% ( 50.3%)     46.0%
 RED. MASS   2.2897         C  2 -- H 12          +9.4% ( 46.9%)      0.7%
 EFF. MASS   9.0994

 VIBRATION   38   38A         ATOM PAIR      ENERGY CONTRIBUTION    RADIAL
 FREQ.      1395.52         C  1 -- C  2         +16.3% ( 63.5%)      7.7%
 T-DIPOLE    0.0200         C  1 -- C  3         +10.2% ( 50.1%)     86.6%
 TRAVEL      0.0712         C  2 -- C  5         +10.1% ( 50.1%)     86.6%
 RED. MASS   1.8083         C  2 -- C  6         +10.0% ( 49.6%)     62.4%
 EFF. MASS   9.5238

 VIBRATION   39   39A         ATOM PAIR      ENERGY CONTRIBUTION    RADIAL
 FREQ.      1438.11         C  7 -- C  9         +10.5% ( 49.0%)     99.8%
 T-DIPOLE    0.1216         C  8 -- C 10         +10.4% ( 48.7%)     99.8%
 TRAVEL      0.0668         C  2 -- C  5          +5.9% ( 36.7%)     88.4%
 RED. MASS   0.9272         C  1 -- C  3          +5.8% ( 36.5%)     88.0%
 EFF. MASS  10.5137

 VIBRATION   40   40A         ATOM PAIR      ENERGY CONTRIBUTION    RADIAL
 FREQ.      1447.48         C  8 -- C 10         +10.1% ( 47.9%)    100.0%
 T-DIPOLE    0.2265         C  7 -- C  9          +9.9% ( 47.5%)    100.0%
 TRAVEL      0.0679         C  1 -- C  3          +6.0% ( 37.0%)     87.4%
 RED. MASS   0.8656         C  2 -- C  5          +5.9% ( 36.8%)     87.0%
 EFF. MASS  10.0900

 VIBRATION   41   41A         ATOM PAIR      ENERGY CONTRIBUTION    RADIAL
 FREQ.      1845.89         C  4 -- C  7         +12.7% ( 53.3%)     98.8%
 T-DIPOLE    0.3548         C  5 -- C  9         +10.8% ( 49.2%)     98.6%
 TRAVEL      0.0553         C  6 -- C 10         +10.7% ( 48.8%)     98.8%
 RED. MASS   1.4525         C  3 -- C  8          +9.4% ( 45.7%)     98.6%
 EFF. MASS  11.9609

 VIBRATION   42   42A         ATOM PAIR      ENERGY CONTRIBUTION    RADIAL
 FREQ.      1856.19         C  6 -- C 10         +16.4% ( 60.1%)     99.4%
 T-DIPOLE    0.1704         C  4 -- C  7         +14.3% ( 56.2%)     99.5%
 TRAVEL      0.0552         C  8 -- C 10          +8.9% ( 44.1%)     95.3%
 RED. MASS   1.6565         C  7 -- C  9          +7.5% ( 40.7%)     94.5%
 EFF. MASS  11.9426

 VIBRATION   43   43A         ATOM PAIR      ENERGY CONTRIBUTION    RADIAL
 FREQ.      1862.38         C  5 -- C  9         +16.2% ( 59.0%)     99.8%
 T-DIPOLE    0.0859         C  3 -- C  8         +14.7% ( 56.3%)     99.8%
 TRAVEL      0.0554         C  4 -- C  7          +7.2% ( 39.4%)     98.6%
 RED. MASS   1.5382         C  7 -- C  9          +6.5% ( 37.5%)      3.7%
 EFF. MASS  11.7789

 VIBRATION   44   44A         ATOM PAIR      ENERGY CONTRIBUTION    RADIAL
 FREQ.      1867.21         C  3 -- C  8         +12.9% ( 52.5%)     99.5%
 T-DIPOLE    0.4896         C  5 -- C  9         +11.4% ( 49.3%)     99.5%
 TRAVEL      0.0554         C  6 -- C 10         +11.1% ( 48.6%)     99.3%
 RED. MASS   1.3872         C  4 -- C  7         +10.0% ( 46.1%)     99.3%
 EFF. MASS  11.7853

 VIBRATION   45   45A         ATOM PAIR      ENERGY CONTRIBUTION    RADIAL
 FREQ.      2829.21         C  1 -- H 11         +49.7% ( 71.8%)    100.0%
 T-DIPOLE    0.0552         C  2 -- H 12         +47.1% ( 69.8%)    100.0%
 TRAVEL      0.1281         C  1 -- C  2          +1.1% ( 10.7%)      0.0%
 RED. MASS   0.4649         C  1 -- C  3          +0.5% (  7.4%)      7.7%
 EFF. MASS   1.4522

 VIBRATION   46   46A         ATOM PAIR      ENERGY CONTRIBUTION    RADIAL
 FREQ.      2838.40         C  2 -- H 12         +49.8% ( 71.5%)    100.0%
 T-DIPOLE    0.1131         C  1 -- H 11         +47.2% ( 69.6%)    100.0%
 TRAVEL      0.1288         C  1 -- C  2          +0.9% (  9.7%)     56.8%
 RED. MASS   0.4649         C  2 -- C  5          +0.5% (  7.3%)      8.4%
 EFF. MASS   1.4321

 VIBRATION   47   47A         ATOM PAIR      ENERGY CONTRIBUTION    RADIAL
 FREQ.      3048.64         C  3 -- H 14         +31.9% ( 57.4%)    100.0%
 T-DIPOLE    0.3606         C  5 -- H 15         +20.7% ( 46.2%)    100.0%
 TRAVEL      0.1226         C  8 -- H 19         +16.4% ( 41.2%)    100.0%
 RED. MASS   0.1876         C  9 -- H 18         +10.6% ( 33.1%)    100.0%
 EFF. MASS   1.4713

 VIBRATION   48   48A         ATOM PAIR      ENERGY CONTRIBUTION    RADIAL
 FREQ.      3048.73         C  5 -- H 15         +32.4% ( 57.8%)    100.0%
 T-DIPOLE    0.1252         C  3 -- H 14         +21.1% ( 46.6%)    100.0%
 TRAVEL      0.1227         C  9 -- H 18         +16.9% ( 41.8%)    100.0%
 RED. MASS   0.1925         C  8 -- H 19         +11.0% ( 33.7%)    100.0%
 EFF. MASS   1.4688

 VIBRATION   49   49A         ATOM PAIR      ENERGY CONTRIBUTION    RADIAL
 FREQ.      3050.79         C  6 -- H 16         +38.9% ( 63.3%)    100.0%
 T-DIPOLE    0.1308         C  4 -- H 13         +21.4% ( 47.0%)    100.0%
 TRAVEL      0.1228         C 10 -- H 20         +13.4% ( 37.2%)     99.9%
 RED. MASS   0.2273         C  3 -- H 14          +9.3% ( 30.9%)    100.0%
 EFF. MASS   1.4650

 VIBRATION   50   50A         ATOM PAIR      ENERGY CONTRIBUTION    RADIAL
 FREQ.      3050.92         C  4 -- H 13         +38.7% ( 63.1%)    100.0%
 T-DIPOLE    0.3454         C  6 -- H 16         +20.9% ( 46.4%)    100.0%
 TRAVEL      0.1229         C  7 -- H 17         +13.0% ( 36.7%)     99.9%
 RED. MASS   0.2233         C  5 -- H 15          +9.7% ( 31.6%)    100.0%
 EFF. MASS   1.4623

 VIBRATION   51   51A         ATOM PAIR      ENERGY CONTRIBUTION    RADIAL
 FREQ.      3066.42         C  8 -- H 19         +31.6% ( 57.2%)     99.9%
 T-DIPOLE    0.4633         C 10 -- H 20         +21.8% ( 47.5%)     99.9%
 TRAVEL      0.1182         C  3 -- H 14         +18.0% ( 43.2%)     99.9%
 RED. MASS   0.2024         C  6 -- H 16         +13.6% ( 37.4%)     99.9%
 EFF. MASS   1.5752

 VIBRATION   52   52A         ATOM PAIR      ENERGY CONTRIBUTION    RADIAL
 FREQ.      3066.48         C  9 -- H 18         +31.5% ( 57.0%)     99.9%
 T-DIPOLE    0.2450         C  7 -- H 17         +21.7% ( 47.3%)     99.9%
 TRAVEL      0.1182         C  5 -- H 15         +18.3% ( 43.5%)     99.9%
 RED. MASS   0.2019         C  4 -- H 13         +13.6% ( 37.4%)     99.9%
 EFF. MASS   1.5739

 VIBRATION   53   53A         ATOM PAIR      ENERGY CONTRIBUTION    RADIAL
 FREQ.      3076.79         C 10 -- H 20         +23.8% ( 49.5%)    100.0%
 T-DIPOLE    0.4673         C  7 -- H 17         +20.4% ( 45.8%)    100.0%
 TRAVEL      0.1169         C  8 -- H 19         +16.8% ( 41.6%)    100.0%
 RED. MASS   0.1588         C  9 -- H 18         +14.3% ( 38.3%)    100.0%
 EFF. MASS   1.6033

 VIBRATION   54   54A         ATOM PAIR      ENERGY CONTRIBUTION    RADIAL
 FREQ.      3077.15         C  7 -- H 17         +23.8% ( 49.5%)    100.0%
 T-DIPOLE    0.2256         C 10 -- H 20         +20.2% ( 45.6%)    100.0%
 TRAVEL      0.1168         C  9 -- H 18         +16.8% ( 41.6%)    100.0%
 RED. MASS   0.1586         C  8 -- H 19         +14.5% ( 38.5%)    100.0%
 EFF. MASS   1.6051

      SYMMETRY NUMBER FOR POINT-GROUP C1  =  1


          SYSTEM IS A GROUND STATE



 InChI=1S/C10H10/c1-2-6-10-8-4-3-7-9(10)5-1/h1-10H


          MOLECULE IS NOT LINEAR

          THERE ARE 54 GENUINE VIBRATIONS IN THIS SYSTEM
          THIS THERMODYNAMICS CALCULATION IS LIMITED TO
          MOLECULES WHICH HAVE NO INTERNAL ROTATIONS




                    CALCULATED THERMODYNAMIC PROPERTIES
                                          *
   TEMP. (K)   PARTITION FUNCTION   H.O.F.    ENTHALPY  HEAT CAPACITY ENTROPY
                                   KCAL/MOL   CAL/MOLE    CAL/K/MOL  CAL/K/MOL


 298.00  VIB.     0.2372D+02                  2977.8658    25.5077    16.2846
         ROT.     0.4730D+06                   888.2813     2.9808    28.9474
         INT.     0.1122D+08                  3866.1471    28.4885    45.2319
         TRA.     0.1436D+28                  1480.4688     4.9680    40.5022
         TOT.                       60.004    5346.6159    33.4565    85.7341

 200.00  VIB.     0.5330D+01                  1073.9584    13.6234     8.6949
         ROT.     0.2601D+06                   596.1620     2.9808    27.7587
         INT.     0.1386D+07                  1670.1204    16.6042    36.4536
         TRA.     0.7896D+27                   993.6033     4.9680    38.5210
         TOT.                       57.321    2663.7236    21.5722    74.9746

 210.00  VIB.     0.6112D+01                  1215.7316    14.7370     9.3864
         ROT.     0.2798D+06                   625.9700     2.9808    27.9041
         INT.     0.1710D+07                  1841.7017    17.7178    37.2905
         TRA.     0.8496D+27                  1043.2834     4.9680    38.7634
         TOT.                       57.542    2884.9851    22.6859    76.0539

 220.00  VIB.     0.7034D+01                  1368.8088    15.8836    10.0983
         ROT.     0.3000D+06                   655.7781     2.9808    28.0428
         INT.     0.2110D+07                  2024.5869    18.8644    38.1411
         TRA.     0.9110D+27                  1092.9636     4.9680    38.9945
         TOT.                       57.775    3117.5505    23.8324    77.1356

 230.00  VIB.     0.8124D+01                  1533.5002    17.0592    10.8302
         ROT.     0.3207D+06                   685.5862     2.9808    28.1753
         INT.     0.2606D+07                  2219.0865    20.0401    39.0055
         TRA.     0.9738D+27                  1142.6437     4.9680    39.2154
         TOT.                       58.019    3361.7302    25.0081    78.2209

 240.00  VIB.     0.9416D+01                  1710.0775    18.2601    11.5815
         ROT.     0.3419D+06                   715.3943     2.9808    28.3022
         INT.     0.3219D+07                  2425.4719    21.2409    39.8837
         TRA.     0.1038D+28                  1192.3239     4.9680    39.4268
         TOT.                       58.275    3617.7958    26.2089    79.3105

 250.00  VIB.     0.1095D+02                  1898.7712    19.4818    12.3516
         ROT.     0.3635D+06                   745.2024     2.9808    28.4238
         INT.     0.3981D+07                  2643.9736    22.4626    40.7755
         TRA.     0.1103D+28                  1242.0041     4.9680    39.6296
         TOT.                       58.543    3885.9777    27.4306    80.4051

 260.00  VIB.     0.1278D+02                  2099.7696    20.7203    13.1398
         ROT.     0.3855D+06                   775.0105     2.9808    28.5407
         INT.     0.4928D+07                  2874.7801    23.7011    41.6806
         TRA.     0.1170D+28                  1291.6842     4.9680    39.8245
         TOT.                       58.824    4166.4644    28.6691    81.5050

 270.00  VIB.     0.1497D+02                  2313.2192    21.9714    13.9452
         ROT.     0.4079D+06                   804.8186     2.9808    28.6532
         INT.     0.6108D+07                  3118.0379    24.9522    42.5985
         TRA.     0.1239D+28                  1341.3644     4.9680    40.0120
         TOT.                       59.117    4459.4023    29.9202    82.6104

 280.00  VIB.     0.1759D+02                  2539.2254    23.2310    14.7670
         ROT.     0.4308D+06                   834.6267     2.9808    28.7617
         INT.     0.7579D+07                  3373.8521    26.2118    43.5287
         TRA.     0.1308D+28                  1391.0445     4.9680    40.1926
         TOT.                       59.422    4764.8967    31.1798    83.7213

 290.00  VIB.     0.2074D+02                  2777.8540    24.4953    15.6043
         ROT.     0.4541D+06                   864.4348     2.9808    28.8663
         INT.     0.9418D+07                  3642.2889    27.4761    44.4705
         TRA.     0.1379D+28                  1440.7247     4.9680    40.3670
         TOT.                       59.740    5083.0136    32.4441    84.8375

 300.00  VIB.     0.2453D+02                  3029.1341    25.7607    16.4560
         ROT.     0.4778D+06                   894.2429     2.9808    28.9673
         INT.     0.1172D+08                  3923.3770    28.7415    45.4233
         TRA.     0.1451D+28                  1490.4049     4.9680    40.5354
         TOT.                       60.071    5413.7819    33.7095    85.9587

 310.00  VIB.     0.2910D+02                  3293.0600    27.0239    17.3213
         ROT.     0.5019D+06                   924.0510     2.9808    29.0650
         INT.     0.1461D+08                  4217.1110    30.0047    46.3864
         TRA.     0.1524D+28                  1540.0850     4.9680    40.6983
         TOT.                       60.414    5757.1961    34.9727    87.0847

 320.00  VIB.     0.3463D+02                  3569.5948    28.2820    18.1992
         ROT.     0.5263D+06                   953.8591     2.9808    29.1597
         INT.     0.1823D+08                  4523.4539    31.2628    47.3589
         TRA.     0.1598D+28                  1589.7652     4.9680    40.8560
         TOT.                       60.770    6113.2191    36.2308    88.2149

 330.00  VIB.     0.4133D+02                  3858.6728    29.5321    19.0886
         ROT.     0.5512D+06                   983.6672     2.9808    29.2514
         INT.     0.2278D+08                  4842.3400    32.5129    48.3400
         TRA.     0.1674D+28                  1639.4454     4.9680    41.0089
         TOT.                       61.139    6481.7854    37.4810    89.3489

 340.00  VIB.     0.4947D+02                  4160.2032    30.7720    19.9887
         ROT.     0.5764D+06                  1013.4753     2.9808    29.3404
         INT.     0.2852D+08                  5173.6785    33.7529    49.3291
         TRA.     0.1750D+28                  1689.1255     4.9680    41.1572
         TOT.                       61.520    6862.8040    38.7209    90.4863

 350.00  VIB.     0.5937D+02                  4474.0725    31.9996    20.8984
         ROT.     0.6021D+06                  1043.2834     2.9808    29.4268
         INT.     0.3575D+08                  5517.3559    34.9804    50.3252
         TRA.     0.1828D+28                  1738.8057     4.9680    41.3012
         TOT.                       61.913    7256.1616    39.9484    91.6264

 360.00  VIB.     0.7144D+02                  4800.1480    33.2130    21.8169
         ROT.     0.6281D+06                  1073.0915     2.9808    29.5108
         INT.     0.4487D+08                  5873.2395    36.1938    51.3277
         TRA.     0.1907D+28                  1788.4859     4.9680    41.4412
         TOT.                       62.319    7661.7253    41.1618    92.7689

 370.00  VIB.     0.8619D+02                  5138.2800    34.4107    22.7433
         ROT.     0.6544D+06                  1102.8996     2.9808    29.5924
         INT.     0.5640D+08                  6241.1796    37.3915    52.3357
         TRA.     0.1987D+28                  1838.1660     4.9680    41.5773
         TOT.                       62.737    8079.3456    42.3595    93.9130

 380.00  VIB.     0.1042D+03                  5488.3049    35.5914    23.6767
         ROT.     0.6811D+06                  1132.7077     2.9808    29.6719
         INT.     0.7099D+08                  6621.0126    38.5722    53.3486
         TRA.     0.2068D+28                  1887.8462     4.9680    41.7098
         TOT.                       63.166    8508.8588    43.5402    95.0584

 390.00  VIB.     0.1263D+03                  5850.0474    36.7540    24.6163
         ROT.     0.7082D+06                  1162.5158     2.9808    29.7494
         INT.     0.8947D+08                  7012.5632    39.7348    54.3656
         TRA.     0.2150D+28                  1937.5263     4.9680    41.8388
         TOT.                       63.607    8950.0895    44.7029    96.2045

 400.00  VIB.     0.1535D+03                  6223.3224    37.8978    25.5613
         ROT.     0.7356D+06                  1192.3239     2.9808    29.8248
         INT.     0.1129D+09                  7415.6463    40.8786    55.3861
         TRA.     0.2233D+28                  1987.2065     4.9680    41.9646
         TOT.                       64.060    9402.8528    45.8466    97.3507

   *: NOTE: HEATS OF FORMATION ARE RELATIVE TO THE
            ELEMENTS IN THEIR STANDARD STATE AT 298K
              (=  Standard Enthalpy of Formation).

            Hvib:  Zero-point energy is not included.
                   frequencies of less than zero cm-1 are not included.
            Hrot = (3/2)RT
            Htra = (3/2)RT + pV = (5/2)RT

            Heat capacity is Cp, not Cv

          For more information, see: HTTP://OpenMOPAC.net/Manual/thermochemistry.html


           FORCE CONSTANT IN CARTESIAN COORDINATES (Millidynes/A)

    ATOM   CHEMICAL       X               Y               Z
   NUMBER   SYMBOL  FORCE CONSTANT  FORCE CONSTANT  FORCE CONSTANT

      1       C        8.270535        9.208957        8.074589
      2       C        8.270429        9.242481        8.040618
      3       C       10.728532       12.881546        3.464550
      4       C       10.487462        9.193984        7.310726
      5       C       10.728212        9.342360        7.007728
      6       C       10.492589       12.911772        3.591301
      7       C       10.846088        9.161990        7.746067
      8       C       10.969780       13.444063        3.343690
      9       C       10.968773        9.661308        7.139509
     10       C       10.853057       13.289449        3.601040
     11       H        1.000050        1.378085        3.337032
     12       H        0.999825        0.598193        4.117980
     13       H        4.697757        0.775116        0.799759
     14       H        4.793489        0.788231        0.672111
     15       H        4.794552        0.783456        0.676244
     16       H        4.699401        0.783530        0.790274
     17       H        1.544103        1.864902        2.861195
     18       H        1.501205        3.496149        1.270271
     19       H        1.501639        4.371460        0.391453
     20       H        1.543901        3.631896        1.094504

 **********************
 *                    *
 * JOB ENDED NORMALLY *
 *                    *
 **********************



 TOTAL JOB TIME:             1.73 SECONDS

 == MOPAC DONE ==
