 *******************************************************************************
 ** Site#: 14399        For non-commercial use only    Version 18.184L 64BITS **
 *******************************************************************************
 ** Cite this program as: MOPAC2016, Version: 18.184L, James J. P. Stewart,   **
 ** Stewart Computational Chemistry, web: HTTP://OpenMOPAC.net. Days left:  18**
 *******************************************************************************
 **                                                                           **
 **                                MOPAC2016                                  **
 **                                                                           **
 *******************************************************************************

                              PM3 CALCULATION RESULTS

 *******************************************************************************
 *  CALCULATION DONE:                                Sat Jun 15 11:07:53 2019  *
 *  PM3        - The PM3 Hamiltonian to be used
 *  PRECISE    - CRITERIA TO BE INCREASED BY 100 TIMES
 *  NOSYM      - POINT-GROUP SYMMETRY SET TO C1
 *  THREADS=1  - MULTI-THREADING NOT USED
 *  T=         - A TIME OF 172800.0 SECONDS REQUESTED
 *  DUMP=N     - RESTART FILE WRITTEN EVERY  7200.000 SECONDS
 *******************************************************************************
pm3  precise nosym THREADS=1
 InChI=1S/C7H12O2/c8-7-5-3-1-2-4-6-9-7/h4,6-8H,1-3,5H2

   ATOM   CHEMICAL          X               Y               Z
  NUMBER   SYMBOL      (ANGSTROMS)     (ANGSTROMS)     (ANGSTROMS)
 
     1       O          0.98430000  *   1.17010000  *   0.50410000  *
     2       O          2.62470000  *  -0.38080000  *   0.96580000  *
     3       C         -0.14350000  *  -1.48200000  *   0.25390000  *
     4       C          0.97200000  *  -0.95920000  *  -0.67880000  *
     5       C         -1.53530000  *  -0.87580000  *  -0.02920000  *
     6       C          1.81930000  *   0.15850000  *  -0.04670000  *
     7       C         -1.76630000  *   0.51900000  *   0.58220000  *
     8       C         -1.19910000  *   1.62300000  *  -0.26700000  *
     9       C          0.10310000  *   1.89430000  *  -0.29380000  *
    10       H          0.12760000  *  -1.35130000  *   1.32430000  *
    11       H         -0.22680000  *  -2.57880000  *   0.08880000  *
    12       H          0.54300000  *  -0.60230000  *  -1.64030000  *
    13       H          1.65210000  *  -1.80120000  *  -0.93580000  *
    14       H         -2.28710000  *  -1.55900000  *   0.42370000  *
    15       H         -1.74560000  *  -0.86310000  *  -1.12130000  *
    16       H          2.46940000  *   0.60180000  *  -0.83620000  *
    17       H         -2.86340000  *   0.68300000  *   0.65210000  *
    18       H         -1.36740000  *   0.57340000  *   1.61860000  *
    19       H         -1.87170000  *   2.21230000  *  -0.87810000  *
    20       H          0.48340000  *   2.66780000  *  -0.94850000  *
    21       H          3.22730000  *   0.35010000  *   1.26230000  *
 


          CARTESIAN COORDINATES 

    NO.       ATOM           X           Y           Z

     1         O          0.9843      1.1701      0.5041
     2         O          2.6247     -0.3808      0.9658
     3         C         -0.1435     -1.4820      0.2539
     4         C          0.9720     -0.9592     -0.6788
     5         C         -1.5353     -0.8758     -0.0292
     6         C          1.8193      0.1585     -0.0467
     7         C         -1.7663      0.5190      0.5822
     8         C         -1.1991      1.6230     -0.2670
     9         C          0.1031      1.8943     -0.2938
    10         H          0.1276     -1.3513      1.3243
    11         H         -0.2268     -2.5788      0.0888
    12         H          0.5430     -0.6023     -1.6403
    13         H          1.6521     -1.8012     -0.9358
    14         H         -2.2871     -1.5590      0.4237
    15         H         -1.7456     -0.8631     -1.1213
    16         H          2.4694      0.6018     -0.8362
    17         H         -2.8634      0.6830      0.6521
    18         H         -1.3674      0.5734      1.6186
    19         H         -1.8717      2.2123     -0.8781
    20         H          0.4834      2.6678     -0.9485
    21         H          3.2273      0.3501      1.2623

  H: (PM3): J. J. P. STEWART, J. COMP. CHEM. 10, 209 (1989).
  C: (PM3): J. J. P. STEWART, J. COMP. CHEM. 10, 209 (1989).
  O: (PM3): J. J. P. STEWART, J. COMP. CHEM. 10, 209 (1989).

           Empirical Formula: C7 H12 O2  =    21 atoms



      MOLECULAR POINT GROUP   :   C1  


      RHF CALCULATION, NO. OF DOUBLY OCCUPIED LEVELS = 26


          Geometry optimization using EF

          DIAGONAL MATRIX USED AS START HESSIAN

 CYCLE:     1 TIME:   0.004 TIME LEFT:  2.00D  GRAD.:   110.709 HEAT: -71.57896
 CYCLE:     2 TIME:   0.012 TIME LEFT:  2.00D  GRAD.:    95.231 HEAT: -74.54203
 CYCLE:     3 TIME:   0.004 TIME LEFT:  2.00D  GRAD.:    76.602 HEAT: -75.87289
 CYCLE:     4 TIME:   0.008 TIME LEFT:  2.00D  GRAD.:    43.550 HEAT: -77.52159
 CYCLE:     5 TIME:   0.004 TIME LEFT:  2.00D  GRAD.:    56.337 HEAT: -77.80600
 CYCLE:     6 TIME:   0.008 TIME LEFT:  2.00D  GRAD.:    29.727 HEAT: -78.69865
 CYCLE:     7 TIME:   0.004 TIME LEFT:  2.00D  GRAD.:    43.470 HEAT: -78.80708
 CYCLE:     8 TIME:   0.004 TIME LEFT:  2.00D  GRAD.:    37.910 HEAT: -79.27870
 CYCLE:     9 TIME:   0.008 TIME LEFT:  2.00D  GRAD.:    31.284 HEAT: -79.55406
 CYCLE:    10 TIME:   0.004 TIME LEFT:  2.00D  GRAD.:    26.845 HEAT: -79.68795
 CYCLE:    11 TIME:   0.008 TIME LEFT:  2.00D  GRAD.:    14.453 HEAT: -79.88933
 CYCLE:    12 TIME:   0.004 TIME LEFT:  2.00D  GRAD.:    21.808 HEAT: -79.89372
 CYCLE:    13 TIME:   0.004 TIME LEFT:  2.00D  GRAD.:    18.786 HEAT: -79.97117
 CYCLE:    14 TIME:   0.008 TIME LEFT:  2.00D  GRAD.:    12.794 HEAT: -80.04997
 CYCLE:    15 TIME:   0.004 TIME LEFT:  2.00D  GRAD.:    11.312 HEAT: -80.06846
 CYCLE:    16 TIME:   0.004 TIME LEFT:  2.00D  GRAD.:     9.600 HEAT: -80.09947
 CYCLE:    17 TIME:   0.008 TIME LEFT:  2.00D  GRAD.:     7.570 HEAT: -80.11778
 CYCLE:    18 TIME:   0.004 TIME LEFT:  2.00D  GRAD.:     5.429 HEAT: -80.13580
 CYCLE:    19 TIME:   0.008 TIME LEFT:  2.00D  GRAD.:     5.536 HEAT: -80.15142
 CYCLE:    20 TIME:   0.004 TIME LEFT:  2.00D  GRAD.:     5.452 HEAT: -80.16844
 CYCLE:    21 TIME:   0.004 TIME LEFT:  2.00D  GRAD.:     5.824 HEAT: -80.17973
 CYCLE:    22 TIME:   0.004 TIME LEFT:  2.00D  GRAD.:     7.102 HEAT: -80.19244
 CYCLE:    23 TIME:   0.004 TIME LEFT:  2.00D  GRAD.:     5.992 HEAT: -80.20827
 CYCLE:    24 TIME:   0.004 TIME LEFT:  2.00D  GRAD.:     4.178 HEAT: -80.22569
 CYCLE:    25 TIME:   0.004 TIME LEFT:  2.00D  GRAD.:     4.942 HEAT: -80.23785
 CYCLE:    26 TIME:   0.004 TIME LEFT:  2.00D  GRAD.:     2.409 HEAT: -80.25010
 CYCLE:    27 TIME:   0.004 TIME LEFT:  2.00D  GRAD.:     2.120 HEAT: -80.25583
 CYCLE:    28 TIME:   0.004 TIME LEFT:  2.00D  GRAD.:     3.270 HEAT: -80.26006
 CYCLE:    29 TIME:   0.004 TIME LEFT:  2.00D  GRAD.:     2.372 HEAT: -80.26482
 CYCLE:    30 TIME:   0.004 TIME LEFT:  2.00D  GRAD.:     1.806 HEAT: -80.26947
 CYCLE:    31 TIME:   0.004 TIME LEFT:  2.00D  GRAD.:     1.709 HEAT: -80.27412
 CYCLE:    32 TIME:   0.008 TIME LEFT:  2.00D  GRAD.:     2.176 HEAT: -80.28036
 CYCLE:    33 TIME:   0.004 TIME LEFT:  2.00D  GRAD.:     2.724 HEAT: -80.28735
 CYCLE:    34 TIME:   0.004 TIME LEFT:  2.00D  GRAD.:     3.310 HEAT: -80.30032
 CYCLE:    35 TIME:   0.004 TIME LEFT:  2.00D  GRAD.:     4.473 HEAT: -80.32240
 CYCLE:    36 TIME:   0.004 TIME LEFT:  2.00D  GRAD.:     4.181 HEAT: -80.34819
 CYCLE:    37 TIME:   0.008 TIME LEFT:  2.00D  GRAD.:     7.154 HEAT: -80.37669
 CYCLE:    38 TIME:   0.016 TIME LEFT:  2.00D  GRAD.:     5.621 HEAT: -80.39102
 CYCLE:    39 TIME:   0.004 TIME LEFT:  2.00D  GRAD.:     2.523 HEAT: -80.41202
 CYCLE:    40 TIME:   0.004 TIME LEFT:  2.00D  GRAD.:     1.913 HEAT: -80.42967
 CYCLE:    41 TIME:   0.004 TIME LEFT:  2.00D  GRAD.:     3.434 HEAT: -80.45940
 CYCLE:    42 TIME:   0.004 TIME LEFT:  2.00D  GRAD.:     7.524 HEAT: -80.52002
 CYCLE:    43 TIME:   0.008 TIME LEFT:  2.00D  GRAD.:    22.206 HEAT: -80.62824
 CYCLE:    44 TIME:   0.012 TIME LEFT:  2.00D  GRAD.:    16.918 HEAT: -80.63115
 CYCLE:    45 TIME:   0.004 TIME LEFT:  2.00D  GRAD.:     7.741 HEAT: -80.76686
 CYCLE:    46 TIME:   0.004 TIME LEFT:  2.00D  GRAD.:     6.698 HEAT: -80.91112
 CYCLE:    47 TIME:   0.004 TIME LEFT:  2.00D  GRAD.:    14.065 HEAT: -81.09460
 CYCLE:    48 TIME:   0.008 TIME LEFT:  2.00D  GRAD.:    21.361 HEAT: -81.25418
 CYCLE:    49 TIME:   0.004 TIME LEFT:  2.00D  GRAD.:    21.821 HEAT: -81.38884
 CYCLE:    50 TIME:   0.016 TIME LEFT:  2.00D  GRAD.:    18.185 HEAT: -81.44709
 CYCLE:    51 TIME:   0.004 TIME LEFT:  2.00D  GRAD.:     5.554 HEAT: -81.53140
 CYCLE:    52 TIME:   0.004 TIME LEFT:  2.00D  GRAD.:     4.136 HEAT: -81.59355
 CYCLE:    53 TIME:   0.004 TIME LEFT:  2.00D  GRAD.:     5.720 HEAT: -81.66860
 CYCLE:    54 TIME:   0.004 TIME LEFT:  2.00D  GRAD.:     9.209 HEAT: -81.78755
 CYCLE:    55 TIME:   0.008 TIME LEFT:  2.00D  GRAD.:    15.207 HEAT: -81.91158
 CYCLE:    56 TIME:   0.004 TIME LEFT:  2.00D  GRAD.:    15.014 HEAT: -82.00795
 CYCLE:    57 TIME:   0.020 TIME LEFT:  2.00D  GRAD.:     9.730 HEAT: -82.06990
 CYCLE:    58 TIME:   0.004 TIME LEFT:  2.00D  GRAD.:     5.329 HEAT: -82.10182
 CYCLE:    59 TIME:   0.004 TIME LEFT:  2.00D  GRAD.:     3.699 HEAT: -82.14098
 CYCLE:    60 TIME:   0.004 TIME LEFT:  2.00D  GRAD.:     2.886 HEAT: -82.19650
 CYCLE:    61 TIME:   0.004 TIME LEFT:  2.00D  GRAD.:     3.515 HEAT: -82.27072
 CYCLE:    62 TIME:   0.004 TIME LEFT:  2.00D  GRAD.:    10.232 HEAT: -82.35706
 CYCLE:    63 TIME:   0.004 TIME LEFT:  2.00D  GRAD.:     8.540 HEAT: -82.41075
 CYCLE:    64 TIME:   0.008 TIME LEFT:  2.00D  GRAD.:     6.364 HEAT: -82.47174
 CYCLE:    65 TIME:   0.004 TIME LEFT:  2.00D  GRAD.:     6.822 HEAT: -82.51418
 CYCLE:    66 TIME:   0.004 TIME LEFT:  2.00D  GRAD.:    12.089 HEAT: -82.51522
 CYCLE:    67 TIME:   0.012 TIME LEFT:  2.00D  GRAD.:    11.708 HEAT: -82.51577
 CYCLE:    68 TIME:   0.004 TIME LEFT:  2.00D  GRAD.:     2.314 HEAT: -82.55958
 CYCLE:    69 TIME:   0.004 TIME LEFT:  2.00D  GRAD.:     1.232 HEAT: -82.56311
 CYCLE:    70 TIME:   0.004 TIME LEFT:  2.00D  GRAD.:     0.993 HEAT: -82.56540
 CYCLE:    71 TIME:   0.004 TIME LEFT:  2.00D  GRAD.:     1.056 HEAT: -82.57023
 CYCLE:    72 TIME:   0.004 TIME LEFT:  2.00D  GRAD.:     1.205 HEAT: -82.57270
 CYCLE:    73 TIME:   0.004 TIME LEFT:  2.00D  GRAD.:     1.554 HEAT: -82.57829
 CYCLE:    74 TIME:   0.008 TIME LEFT:  2.00D  GRAD.:     1.187 HEAT: -82.58104
 CYCLE:    75 TIME:   0.004 TIME LEFT:  2.00D  GRAD.:     2.359 HEAT: -82.58469
 CYCLE:    76 TIME:   0.004 TIME LEFT:  2.00D  GRAD.:     0.950 HEAT: -82.58774
 CYCLE:    77 TIME:   0.004 TIME LEFT:  2.00D  GRAD.:     0.736 HEAT: -82.59037
 CYCLE:    78 TIME:   0.004 TIME LEFT:  2.00D  GRAD.:     1.262 HEAT: -82.59554
 CYCLE:    79 TIME:   0.004 TIME LEFT:  2.00D  GRAD.:     1.293 HEAT: -82.59868
 CYCLE:    80 TIME:   0.004 TIME LEFT:  2.00D  GRAD.:     1.172 HEAT: -82.60350
 CYCLE:    81 TIME:   0.004 TIME LEFT:  2.00D  GRAD.:     1.177 HEAT: -82.60681
 CYCLE:    82 TIME:   0.004 TIME LEFT:  2.00D  GRAD.:     1.302 HEAT: -82.61286
 CYCLE:    83 TIME:   0.008 TIME LEFT:  2.00D  GRAD.:     0.878 HEAT: -82.61454
 CYCLE:    84 TIME:   0.004 TIME LEFT:  2.00D  GRAD.:     0.544 HEAT: -82.61564
 CYCLE:    85 TIME:   0.004 TIME LEFT:  2.00D  GRAD.:     0.579 HEAT: -82.61629
 CYCLE:    86 TIME:   0.004 TIME LEFT:  2.00D  GRAD.:     0.668 HEAT: -82.61715
 CYCLE:    87 TIME:   0.004 TIME LEFT:  2.00D  GRAD.:     0.641 HEAT: -82.61793
 CYCLE:    88 TIME:   0.004 TIME LEFT:  2.00D  GRAD.:     0.645 HEAT: -82.61886
 CYCLE:    89 TIME:   0.004 TIME LEFT:  2.00D  GRAD.:     0.621 HEAT: -82.61943
 CYCLE:    90 TIME:   0.004 TIME LEFT:  2.00D  GRAD.:     0.878 HEAT: -82.62145
 CYCLE:    91 TIME:   0.004 TIME LEFT:  2.00D  GRAD.:     0.741 HEAT: -82.62242
 CYCLE:    92 TIME:   0.008 TIME LEFT:  2.00D  GRAD.:     1.177 HEAT: -82.62438
 CYCLE:    93 TIME:   0.004 TIME LEFT:  2.00D  GRAD.:     0.586 HEAT: -82.62624
 CYCLE:    94 TIME:   0.004 TIME LEFT:  2.00D  GRAD.:     0.396 HEAT: -82.62661
 CYCLE:    95 TIME:   0.004 TIME LEFT:  2.00D  GRAD.:     0.435 HEAT: -82.62711
 CYCLE:    96 TIME:   0.004 TIME LEFT:  2.00D  GRAD.:     0.268 HEAT: -82.62729
 CYCLE:    97 TIME:   0.004 TIME LEFT:  2.00D  GRAD.:     0.205 HEAT: -82.62745
 CYCLE:    98 TIME:   0.004 TIME LEFT:  2.00D  GRAD.:     0.206 HEAT: -82.62759
 CYCLE:    99 TIME:   0.004 TIME LEFT:  2.00D  GRAD.:     0.176 HEAT: -82.62778
 CYCLE:   100 TIME:   0.004 TIME LEFT:  2.00D  GRAD.:     0.098 HEAT: -82.62780
 CYCLE:   101 TIME:   0.008 TIME LEFT:  2.00D  GRAD.:     0.076 HEAT: -82.62782
 CYCLE:   102 TIME:   0.004 TIME LEFT:  2.00D  GRAD.:     0.069 HEAT: -82.62783
 CYCLE:   103 TIME:   0.004 TIME LEFT:  2.00D  GRAD.:     0.071 HEAT: -82.62784
 CYCLE:   104 TIME:   0.004 TIME LEFT:  2.00D  GRAD.:     0.047 HEAT: -82.62785

     GRADIENT =  0.04665  IS LESS THAN CUTOFF =  0.05000



 -------------------------------------------------------------------------------
 pm3  precise nosym THREADS=1
 InChI=1S/C7H12O2/c8-7-5-3-1-2-4-6-9-7/h4,6-8H,1-3,5H2



     GEOMETRY OPTIMISED USING EIGENVECTOR FOLLOWING (EF).     
     SCF FIELD WAS ACHIEVED                                   


                              PM3 CALCULATION
                                                       MOPAC2016 (Version: 18.184L)
                                                       Sat Jun 15 11:07:53 2019
                                                       No. of days remaining =  18




          FINAL HEAT OF FORMATION =        -82.62785 KCAL/MOL =    -345.71491 KJ/MOL


          TOTAL ENERGY            =      -1601.90800 EV
          ELECTRONIC ENERGY       =      -8071.13026 EV  POINT GROUP:     C1  
          CORE-CORE REPULSION     =       6469.22226 EV
          COSMO AREA              =        158.63 SQUARE ANGSTROMS
          COSMO VOLUME            =        163.63 CUBIC ANGSTROMS

          GRADIENT NORM           =          0.04665 = 0.01018 PER ATOM
          IONIZATION POTENTIAL    =         10.047064 EV
          HOMO LUMO ENERGIES (EV) =        -10.047  0.717
          NO. OF FILLED LEVELS    =         26
          MOLECULAR WEIGHT        =        128.1706

          MOLECULAR DIMENSIONS (Angstroms)

            Atom       Atom       Distance
            H    17    H    16     5.56779
            H    20    H    11     5.35597
            H    21    H    15     3.95247


          SCF CALCULATIONS        =        128
 
          WALL-CLOCK TIME         =          0.543 SECONDS
          COMPUTATION TIME        =          0.503 SECONDS




   ATOM   CHEMICAL          X               Y               Z
  NUMBER   SYMBOL      (ANGSTROMS)     (ANGSTROMS)     (ANGSTROMS)
 
     1       O          1.12620924  *   1.23850424  *   0.45789444  *
     2       O          2.53801920  *  -0.20568949  *   0.97705837  *
     3       C         -0.15004089  *  -1.50851952  *   0.21679839  *
     4       C          0.92744239  *  -0.97788389  *  -0.71699344  *
     5       C         -1.52441704  *  -0.88743204  *   0.00391921  *
     6       C          1.80659131  *   0.15333857  *  -0.15364907  *
     7       C         -1.68659625  *   0.49461618  *   0.62555723  *
     8       C         -1.12572822  *   1.57356105  *  -0.23170826  *
     9       C          0.17527818  *   1.87147156  *  -0.32236364  *
    10       H          0.16255360  *  -1.38960151  *   1.27395199  *
    11       H         -0.23887961  *  -2.60241664  *   0.05996625  *
    12       H          0.47486655  *  -0.62969988  *  -1.66716112  *
    13       H          1.60910010  *  -1.80653629  *  -0.99406431  *
    14       H         -2.28287616  *  -1.56070567  *   0.45152949  *
    15       H         -1.76518262  *  -0.84685058  *  -1.07721746  *
    16       H          2.52940710  *   0.50711134  *  -0.92519279  *
    17       H         -2.76282504  *   0.69673873  *   0.79428567  *
    18       H         -1.21908737  *   0.52056224  *   1.63089008  *
    19       H         -1.84189273  *   2.15522839  *  -0.82303703  *
    20       H          0.58820661  *   2.67343262  *  -0.94384958  *
    21       H          2.07247226  *   0.19288719  *   1.71062862  *

                             CARTESIAN COORDINATES

   1    O        1.126209243     1.238504237     0.457894435
   2    O        2.538019196    -0.205689489     0.977058370
   3    C       -0.150040893    -1.508519520     0.216798393
   4    C        0.927442388    -0.977883887    -0.716993436
   5    C       -1.524417045    -0.887432041     0.003919209
   6    C        1.806591305     0.153338574    -0.153649066
   7    C       -1.686596245     0.494616178     0.625557228
   8    C       -1.125728221     1.573561053    -0.231708263
   9    C        0.175278182     1.871471563    -0.322363643
  10    H        0.162553603    -1.389601506     1.273951986
  11    H       -0.238879609    -2.602416637     0.059966251
  12    H        0.474866552    -0.629699876    -1.667161116
  13    H        1.609100102    -1.806536287    -0.994064312
  14    H       -2.282876165    -1.560705667     0.451529488
  15    H       -1.765182621    -0.846850577    -1.077217456
  16    H        2.529407105     0.507111335    -0.925192789
  17    H       -2.762825037     0.696738734     0.794285665
  18    H       -1.219087365     0.520562241     1.630890076
  19    H       -1.841892725     2.155228387    -0.823037026
  20    H        0.588206613     2.673432621    -0.943849577
  21    H        2.072472257     0.192887191     1.710628615


           Empirical Formula: C7 H12 O2  =    21 atoms



      MOLECULAR POINT GROUP   :   C1  


                  EIGENVALUES  
 -41.67539 -37.23839 -35.52950 -32.28573 -28.42062 -25.38830 -22.02845 -21.14907
 -19.57355 -18.06323 -17.77010 -16.86847 -16.02995 -15.93518 -15.22242 -14.55981
 -14.42185 -13.58696 -13.14272 -12.72309 -12.36336 -11.97773 -11.84386 -11.74337
 -10.71983 -10.04706   0.71650   2.63813   3.02823   3.22862   3.39653   3.55603
   3.63947   3.66808   3.81234   3.95043   3.98024   4.10555   4.32326   4.37742
   4.54190   4.70152   4.90187   4.99620   5.19352   5.53979   5.58446   6.29290


              NET ATOMIC CHARGES AND DIPOLE CONTRIBUTIONS

  ATOM NO.   TYPE          CHARGE      No. of ELECS.   s-Pop       p-Pop       
    1          O          -0.272168        6.2722     1.84158     4.43059
    2          O          -0.330227        6.3302     1.80978     4.52044
    3          C          -0.090085        4.0901     1.15925     2.93084
    4          C          -0.155531        4.1555     1.17597     2.97956
    5          C          -0.092915        4.0929     1.16227     2.93064
    6          C           0.237355        3.7626     1.17125     2.59140
    7          C          -0.056629        4.0566     1.14619     2.91044
    8          C          -0.169358        4.1694     1.20081     2.96855
    9          C          -0.001352        4.0014     1.18589     2.81546
   10          H           0.061495        0.9385     0.93850
   11          H           0.048248        0.9518     0.95175
   12          H           0.062960        0.9370     0.93704
   13          H           0.067639        0.9324     0.93236
   14          H           0.047276        0.9527     0.95272
   15          H           0.053302        0.9467     0.94670
   16          H           0.053686        0.9463     0.94631
   17          H           0.049094        0.9509     0.95091
   18          H           0.063625        0.9364     0.93638
   19          H           0.103721        0.8963     0.89628
   20          H           0.101131        0.8989     0.89887
   21          H           0.218733        0.7813     0.78127
 DIPOLE           X         Y         Z       TOTAL
 POINT-CHG.    -1.150    -0.098    -1.097     1.593
 HYBRID        -0.500     0.238    -0.062     0.558
 SUM           -1.651     0.140    -1.159     2.022


          ATOMIC ORBITAL ELECTRON POPULATIONS

     Atom    s        px        py        pz   
    1  O   1.84158   1.53091   1.48476   1.41492
    2  O   1.80978   1.54760   1.79051   1.18234
    3  C   1.15925   0.94046   0.99080   0.99958
    4  C   1.17597   0.98885   0.99762   0.99309
    5  C   1.16227   0.96653   0.95592   1.00819
    6  C   1.17125   0.86778   0.83184   0.89177
    7  C   1.14619   0.99873   0.93156   0.98015
    8  C   1.20081   0.96334   0.99804   1.00717
    9  C   1.18589   0.89358   0.96047   0.96140
   10  H   0.93850
   11  H   0.95175
   12  H   0.93704
   13  H   0.93236
   14  H   0.95272
   15  H   0.94670
   16  H   0.94631
   17  H   0.95091
   18  H   0.93638
   19  H   0.89628
   20  H   0.89887
   21  H   0.78127
 *******************************************************************************
 ** Site#: 14399        For non-commercial use only    Version 18.184L 64BITS **
 *******************************************************************************
 ** Cite this program as: MOPAC2016, Version: 18.184L, James J. P. Stewart,   **
 ** Stewart Computational Chemistry, web: HTTP://OpenMOPAC.net. Days left:  18**
 *******************************************************************************
 **                                                                           **
 **                                MOPAC2016                                  **
 **                                                                           **
 *******************************************************************************

                              PM3 CALCULATION RESULTS

 *******************************************************************************
 *  CALCULATION DONE:                                Sat Jun 15 11:07:53 2019  *
 *  PM3        - The PM3 Hamiltonian to be used
 *  OLDGEO     - PREVIOUS GEOMETRY TO BE USED
 *  PRECISE    - CRITERIA TO BE INCREASED BY 100 TIMES
 *  NOSYM      - POINT-GROUP SYMMETRY SET TO C1
 *  THREADS=1  - MULTI-THREADING NOT USED
 *  T=         - A TIME OF 172800.0 SECONDS REQUESTED
 *  DUMP=N     - RESTART FILE WRITTEN EVERY  7200.000 SECONDS
 *  THERMO     - THERMODYNAMIC QUANTITIES TO BE CALCULATED
 *******************************************************************************
oldgeo thermo nosym precise THREADS=1  pm3
 InChI=1S/C7H12O2/c8-7-5-3-1-2-4-6-9-7/h4,6-8H,1-3,5H2

   ATOM   CHEMICAL          X               Y               Z
  NUMBER   SYMBOL      (ANGSTROMS)     (ANGSTROMS)     (ANGSTROMS)
 
     1       O          1.12620924  *   1.23850424  *   0.45789444  *
     2       O          2.53801920  *  -0.20568949  *   0.97705837  *
     3       C         -0.15004089  *  -1.50851952  *   0.21679839  *
     4       C          0.92744239  *  -0.97788389  *  -0.71699344  *
     5       C         -1.52441704  *  -0.88743204  *   0.00391921  *
     6       C          1.80659131  *   0.15333857  *  -0.15364907  *
     7       C         -1.68659625  *   0.49461618  *   0.62555723  *
     8       C         -1.12572822  *   1.57356105  *  -0.23170826  *
     9       C          0.17527818  *   1.87147156  *  -0.32236364  *
    10       H          0.16255360  *  -1.38960151  *   1.27395199  *
    11       H         -0.23887961  *  -2.60241664  *   0.05996625  *
    12       H          0.47486655  *  -0.62969988  *  -1.66716112  *
    13       H          1.60910010  *  -1.80653629  *  -0.99406431  *
    14       H         -2.28287616  *  -1.56070567  *   0.45152949  *
    15       H         -1.76518262  *  -0.84685058  *  -1.07721746  *
    16       H          2.52940710  *   0.50711134  *  -0.92519279  *
    17       H         -2.76282504  *   0.69673873  *   0.79428567  *
    18       H         -1.21908737  *   0.52056224  *   1.63089008  *
    19       H         -1.84189273  *   2.15522839  *  -0.82303703  *
    20       H          0.58820661  *   2.67343262  *  -0.94384958  *
    21       H          2.07247226  *   0.19288719  *   1.71062862  *
 


          CARTESIAN COORDINATES 

    NO.       ATOM           X           Y           Z

     1         O          1.1262      1.2385      0.4579
     2         O          2.5380     -0.2057      0.9771
     3         C         -0.1500     -1.5085      0.2168
     4         C          0.9274     -0.9779     -0.7170
     5         C         -1.5244     -0.8874      0.0039
     6         C          1.8066      0.1533     -0.1536
     7         C         -1.6866      0.4946      0.6256
     8         C         -1.1257      1.5736     -0.2317
     9         C          0.1753      1.8715     -0.3224
    10         H          0.1626     -1.3896      1.2740
    11         H         -0.2389     -2.6024      0.0600
    12         H          0.4749     -0.6297     -1.6672
    13         H          1.6091     -1.8065     -0.9941
    14         H         -2.2829     -1.5607      0.4515
    15         H         -1.7652     -0.8469     -1.0772
    16         H          2.5294      0.5071     -0.9252
    17         H         -2.7628      0.6967      0.7943
    18         H         -1.2191      0.5206      1.6309
    19         H         -1.8419      2.1552     -0.8230
    20         H          0.5882      2.6734     -0.9438
    21         H          2.0725      0.1929      1.7106

  H: (PM3): J. J. P. STEWART, J. COMP. CHEM. 10, 209 (1989).
  C: (PM3): J. J. P. STEWART, J. COMP. CHEM. 10, 209 (1989).
  O: (PM3): J. J. P. STEWART, J. COMP. CHEM. 10, 209 (1989).

           Empirical Formula: C7 H12 O2  =    21 atoms



      MOLECULAR POINT GROUP   :   C1  


      RHF CALCULATION, NO. OF DOUBLY OCCUPIED LEVELS = 26



          HEAT OF FORMATION =     -82.627848 KCALS/MOLE


          CARTESIAN COORDINATE DERIVATIVES

   NUMBER  ATOM         X            Y            Z

     1       O      0.008307    -0.014865    -0.000144
     2       O      0.005818    -0.007023    -0.007231
     3       C     -0.007812     0.004435     0.002942
     4       C     -0.007068    -0.001367     0.001492
     5       C     -0.006256    -0.002589     0.003287
     6       C      0.001739     0.000451    -0.003394
     7       C     -0.003284    -0.003172    -0.002242
     8       C      0.001076    -0.007498    -0.000084
     9       C     -0.000560    -0.007327    -0.003911
    10       H     -0.000594    -0.001777     0.001367
    11       H     -0.001485    -0.002431     0.006644
    12       H      0.004997     0.008823     0.002970
    13       H      0.008207    -0.009291    -0.000392
    14       H      0.001791    -0.008344    -0.001092
    15       H     -0.003643     0.016128    -0.001593
    16       H     -0.005903     0.013675    -0.001584
    17       H     -0.002951     0.003093     0.000570
    18       H     -0.001298    -0.001257     0.003225
    19       H     -0.001133     0.020396    -0.000886
    20       H      0.003471    -0.001489    -0.001957
    21       H      0.006581     0.001431     0.002013
 


          GRADIENT NORM =   0.04699

          MOLECULAR WEIGHT =  128.17



          ROTATIONAL CONSTANTS IN CM(-1)

          A =    0.07786175   B =    0.05235315   C =    0.03749403



           PRINCIPAL MOMENTS OF INERTIA IN UNITS OF 10**(-40)*GRAM-CM**2

          A =      359.5189   B =      534.6913   C =      746.5928


          ORIENTATION OF MOLECULE IN FORCE CALCULATION

    NO.       ATOM         X         Y         Z

     1          O      -0.0821   -1.3828   -0.1305
     2          O       2.0032   -1.3828   -0.1305
     3          C       0.8963    1.4940   -0.1305
     4          C       1.0258    0.5435    1.0503
     5          C      -0.5174    2.0092   -0.3673
     6          C       0.9778   -0.9577    0.7123
     7          C      -1.4296    1.0196   -1.0824
     8          C      -2.0105    0.0099   -0.1569
     9          C      -1.3586   -1.0658    0.2984
    10          H       1.2887    1.0197   -1.0527
    11          H       1.5547    2.3672    0.0516
    12          H       0.2417    0.7581    1.8040
    13          H       1.9922    0.7269    1.5607
    14          H      -0.4532    2.9293   -0.9824
    15          H      -0.9777    2.3245    0.5904
    16          H       1.0301   -1.5693    1.6429
    17          H      -2.2562    1.5711   -1.5725
    18          H      -0.8807    0.5165   -1.9044
    19          H      -3.0454    0.1738    0.1641
    20          H      -1.7891   -1.8163    0.9702
    21          H       1.5946   -1.4794   -0.9892


    FIRST DERIVATIVES WILL BE USED IN THE CALCULATION OF SECOND DERIVATIVES

    FOR POINT-GROUP C1   THERE ARE   1 UNIQUE SYMMETRY FUNCTIONS.

 STEP:   1 TIME =     0.02 SECS, INTEGRAL =      0.02 TIME LEFT: 172799.98
 STEP:   2 TIME =     0.02 SECS, INTEGRAL =      0.04 TIME LEFT: 172799.96
 STEP:   3 TIME =     0.02 SECS, INTEGRAL =      0.06 TIME LEFT: 172799.94
 STEP:   4 TIME =     0.02 SECS, INTEGRAL =      0.07 TIME LEFT: 172799.93
 STEP:   5 TIME =     0.02 SECS, INTEGRAL =      0.09 TIME LEFT: 172799.91
 STEP:   6 TIME =     0.02 SECS, INTEGRAL =      0.11 TIME LEFT: 172799.89
 STEP:   7 TIME =     0.02 SECS, INTEGRAL =      0.13 TIME LEFT: 172799.87
 STEP:   8 TIME =     0.02 SECS, INTEGRAL =      0.15 TIME LEFT: 172799.85
 STEP:   9 TIME =     0.02 SECS, INTEGRAL =      0.17 TIME LEFT: 172799.83
 STEP:  10 TIME =     0.02 SECS, INTEGRAL =      0.19 TIME LEFT: 172799.81
 STEP:  11 TIME =     0.02 SECS, INTEGRAL =      0.21 TIME LEFT: 172799.79
 STEP:  12 TIME =     0.02 SECS, INTEGRAL =      0.23 TIME LEFT: 172799.77
 STEP:  13 TIME =     0.02 SECS, INTEGRAL =      0.24 TIME LEFT: 172799.76
 STEP:  14 TIME =     0.02 SECS, INTEGRAL =      0.26 TIME LEFT: 172799.74
 STEP:  15 TIME =     0.02 SECS, INTEGRAL =      0.28 TIME LEFT: 172799.72
 STEP:  16 TIME =     0.02 SECS, INTEGRAL =      0.30 TIME LEFT: 172799.70
 STEP:  17 TIME =     0.02 SECS, INTEGRAL =      0.32 TIME LEFT: 172799.68
 STEP:  18 TIME =     0.02 SECS, INTEGRAL =      0.34 TIME LEFT: 172799.66
 STEP:  19 TIME =     0.02 SECS, INTEGRAL =      0.36 TIME LEFT: 172799.64
 STEP:  20 TIME =     0.02 SECS, INTEGRAL =      0.37 TIME LEFT: 172799.63
 STEP:  21 TIME =     0.02 SECS, INTEGRAL =      0.39 TIME LEFT: 172799.61
 STEP:  22 TIME =     0.02 SECS, INTEGRAL =      0.41 TIME LEFT: 172799.59
 STEP:  23 TIME =     0.02 SECS, INTEGRAL =      0.43 TIME LEFT: 172799.57
 STEP:  24 TIME =     0.02 SECS, INTEGRAL =      0.45 TIME LEFT: 172799.55
 STEP:  25 TIME =     0.02 SECS, INTEGRAL =      0.46 TIME LEFT: 172799.54
 STEP:  26 TIME =     0.02 SECS, INTEGRAL =      0.48 TIME LEFT: 172799.52
 STEP:  27 TIME =     0.02 SECS, INTEGRAL =      0.50 TIME LEFT: 172799.50
 STEP:  28 TIME =     0.02 SECS, INTEGRAL =      0.52 TIME LEFT: 172799.48
 STEP:  29 TIME =     0.02 SECS, INTEGRAL =      0.54 TIME LEFT: 172799.46
 STEP:  30 TIME =     0.02 SECS, INTEGRAL =      0.55 TIME LEFT: 172799.45
 STEP:  31 TIME =     0.02 SECS, INTEGRAL =      0.57 TIME LEFT: 172799.43
 STEP:  32 TIME =     0.02 SECS, INTEGRAL =      0.59 TIME LEFT: 172799.41
 STEP:  33 TIME =     0.02 SECS, INTEGRAL =      0.61 TIME LEFT: 172799.39
 STEP:  34 TIME =     0.02 SECS, INTEGRAL =      0.63 TIME LEFT: 172799.37
 STEP:  35 TIME =     0.02 SECS, INTEGRAL =      0.65 TIME LEFT: 172799.35
 STEP:  36 TIME =     0.02 SECS, INTEGRAL =      0.67 TIME LEFT: 172799.33
 STEP:  37 TIME =     0.02 SECS, INTEGRAL =      0.69 TIME LEFT: 172799.31
 STEP:  38 TIME =     0.02 SECS, INTEGRAL =      0.70 TIME LEFT: 172799.30
 STEP:  39 TIME =     0.02 SECS, INTEGRAL =      0.72 TIME LEFT: 172799.28
 STEP:  40 TIME =     0.02 SECS, INTEGRAL =      0.74 TIME LEFT: 172799.26
 STEP:  41 TIME =     0.02 SECS, INTEGRAL =      0.76 TIME LEFT: 172799.24
 STEP:  42 TIME =     0.02 SECS, INTEGRAL =      0.78 TIME LEFT: 172799.22
 STEP:  43 TIME =     0.02 SECS, INTEGRAL =      0.80 TIME LEFT: 172799.20
 STEP:  44 TIME =     0.02 SECS, INTEGRAL =      0.82 TIME LEFT: 172799.18
 STEP:  45 TIME =     0.02 SECS, INTEGRAL =      0.83 TIME LEFT: 172799.17
 STEP:  46 TIME =     0.02 SECS, INTEGRAL =      0.85 TIME LEFT: 172799.15
 STEP:  47 TIME =     0.02 SECS, INTEGRAL =      0.87 TIME LEFT: 172799.13
 STEP:  48 TIME =     0.02 SECS, INTEGRAL =      0.89 TIME LEFT: 172799.11
 STEP:  49 TIME =     0.02 SECS, INTEGRAL =      0.91 TIME LEFT: 172799.09
 STEP:  50 TIME =     0.02 SECS, INTEGRAL =      0.93 TIME LEFT: 172799.07
 STEP:  51 TIME =     0.02 SECS, INTEGRAL =      0.94 TIME LEFT: 172799.06
 STEP:  52 TIME =     0.02 SECS, INTEGRAL =      0.96 TIME LEFT: 172799.04
 STEP:  53 TIME =     0.02 SECS, INTEGRAL =      0.98 TIME LEFT: 172799.02
 STEP:  54 TIME =     0.02 SECS, INTEGRAL =      1.00 TIME LEFT: 172799.00
 STEP:  55 TIME =     0.02 SECS, INTEGRAL =      1.01 TIME LEFT: 172798.99
 STEP:  56 TIME =     0.02 SECS, INTEGRAL =      1.03 TIME LEFT: 172798.97
 STEP:  57 TIME =     0.02 SECS, INTEGRAL =      1.05 TIME LEFT: 172798.95
 STEP:  58 TIME =     0.02 SECS, INTEGRAL =      1.07 TIME LEFT: 172798.93
 STEP:  59 TIME =     0.02 SECS, INTEGRAL =      1.09 TIME LEFT: 172798.91
 STEP:  60 TIME =     0.02 SECS, INTEGRAL =      1.11 TIME LEFT: 172798.89
 STEP:  61 TIME =     0.02 SECS, INTEGRAL =      1.12 TIME LEFT: 172798.88
 STEP:  62 TIME =     0.02 SECS, INTEGRAL =      1.14 TIME LEFT: 172798.86
 STEP:  63 TIME =     0.02 SECS, INTEGRAL =      1.16 TIME LEFT: 172798.84

(To convert to Hartree/Bohr^2, multiply by (10^(-21) x N x a0^2)/(4.184 x 627.51) =  0.0642)


           FORCE MATRIX IN MILLIDYNES/ANGSTROM


                  O  1       O  2       C  3       C  4       C  5       C  6
 ------------------------------------------------------------------------------
     O    1  10.953747
     O    2   1.519183  12.102138
     C    3   0.037296   0.042993  14.184446
     C    4   0.705078   0.768629   4.148683  14.071102
     C    5   0.030108   0.007399   4.083243   0.594704  14.145818
     C    6   4.702549   5.683218   0.558314   3.435501   0.025912  15.149549
     C    7   0.143032   0.013791   0.594007   0.020214   4.023022   0.033149
     C    8   1.133232   0.033218   0.024735   0.022164   0.666038   0.105964
     C    9   5.680318   0.205120   0.015057   0.059625   0.036243   1.232128
     H   10   0.006590   0.030256   4.436281   0.445209   0.445500   0.043944
     H   11   0.004786   0.005048   4.452050   0.433014   0.426982   0.045752
     H   12   0.017199   0.054284   0.447260   4.448035   0.050818   0.424022
     H   13   0.062335   0.036091   0.430075   4.485415   0.040385   0.422903
     H   14   0.005698   0.002026   0.425090   0.047949   4.452182   0.008642
     H   15   0.002521   0.002877   0.446279   0.032780   4.446231   0.004801
     H   16   0.360355   0.374439   0.045193   0.412888   0.002544   4.166196
     H   17   0.007720   0.001700   0.047043   0.001157   0.436443   0.003935
     H   18   0.027764   0.001754   0.034257   0.002057   0.451474   0.006473
     H   19   0.169615   0.014305   0.001240   0.001797   0.017783   0.027798
     H   20   0.370569   0.023210   0.000814   0.004279   0.017140   0.057611
     H   21   0.324472   7.874186   0.010300   0.057633   0.004224   1.055689


                  C  7       C  8       C  9       H 10       H 11       H 12
 ------------------------------------------------------------------------------
     C    7  14.585010
     C    8   4.981711  18.009875
     C    9   0.783175  10.345147  18.091204
     H   10   0.030714   0.002545   0.005181   5.062668
     H   11   0.048172   0.002923   0.003190   0.580170   5.030723
     H   12   0.005026   0.005919   0.010120   0.038695   0.014150   5.056344
     H   13   0.001504   0.001409   0.012391   0.014029   0.024821   0.565710
     H   14   0.429519   0.047152   0.007310   0.021485   0.036010   0.003008
     H   15   0.445951   0.032140   0.005946   0.043676   0.020816   0.027331
     H   16   0.002030   0.008879   0.041445   0.003529   0.007211   0.034346
     H   17   4.468991   0.437231   0.052643   0.002778   0.007468   0.000359
     H   18   4.426969   0.438315   0.028645   0.029962   0.003000   0.000778
     H   19   0.430520   4.833554   0.408851   0.000524   0.000407   0.001023
     H   20   0.114112   0.423531   4.748470   0.000531   0.000503   0.001531
     H   21   0.003787   0.008994   0.059163   0.022762   0.001621   0.008133


                  H 13       H 14       H 15       H 16       H 17       H 18
 ------------------------------------------------------------------------------
     H   13   5.061743
     H   14   0.006274   5.038364
     H   15   0.002474   0.572916   5.066972
     H   16   0.032557   0.001349   0.000384   4.512177
     H   17   0.000360   0.035214   0.017431   0.000499   5.046909
     H   18   0.000348   0.018036   0.043180   0.000870   0.570983   5.033853
     H   19   0.000568   0.002276   0.003688   0.001800   0.035467   0.030944
     H   20   0.000910   0.002506   0.000816   0.005863   0.008577   0.009128
     H   21   0.002923   0.000986   0.001276   0.090025   0.000960   0.002581


                  H 19       H 20       H 21
 ------------------------------------------
     H   19   5.187268
     H   20   0.054744   5.044662
     H   21   0.003365   0.006193   8.262232


          HEAT OF FORMATION =     -82.627848 KCALS/MOLE

          ZERO POINT ENERGY     113.122 KCAL/MOL


           NORMAL COORDINATE ANALYSIS (Total motion = 1 Angstrom)


   Root No.       1         2         3         4         5         6         7         8

                 1 A       2 A       3 A       4 A       5 A       6 A       7 A       8 A   

                  68.4     158.6     225.1     247.3     272.9     315.6     339.8     402.2
  
           1    0.0139   -0.0078    0.0032    0.0046   -0.0114    0.0025   -0.0074   -0.0106
           2    0.0267    0.0112   -0.0375    0.0516    0.0219   -0.0023   -0.0020   -0.0371
           3   -0.0258    0.0197    0.0432   -0.0070   -0.0137    0.0190   -0.0151   -0.0036
           4    0.0143   -0.0160    0.0009    0.0085   -0.0160   -0.0239    0.0043    0.0125
           5   -0.0369   -0.0126    0.0302    0.0226    0.0457   -0.0209    0.0191    0.0372
           6    0.0497   -0.0132   -0.0137   -0.0144   -0.0014   -0.0036    0.0121    0.0176
           7   -0.0071   -0.0007    0.0001   -0.0016    0.0380    0.0154   -0.0010   -0.0137
           8   -0.0102    0.0178   -0.0264   -0.0528   -0.0058    0.0054   -0.0188   -0.0068
           9   -0.0272    0.0085   -0.0240    0.0067   -0.0066   -0.0070   -0.0290    0.0134
          10    0.0264    0.0435   -0.0035    0.0047    0.0210    0.0031   -0.0161    0.0370
          11    0.0079    0.0092    0.0026   -0.0188    0.0155    0.0118    0.0010   -0.0159
          12   -0.0162   -0.0040   -0.0003    0.0353    0.0099   -0.0001   -0.0109    0.0011
          13   -0.0115   -0.0178    0.0062    0.0059    0.0340    0.0150   -0.0050   -0.0074
          14    0.0004   -0.0176    0.0074   -0.0376   -0.0200    0.0030   -0.0059   -0.0049
          15    0.0193    0.0302    0.0203   -0.0087   -0.0047   -0.0062    0.0301   -0.0150
          16   -0.0035    0.0046    0.0103    0.0142   -0.0243    0.0046   -0.0142   -0.0200
          17    0.0033    0.0088    0.0015   -0.0113    0.0209    0.0066    0.0002   -0.0149
          18    0.0076    0.0027    0.0152    0.0111    0.0040    0.0118   -0.0045    0.0018
          19   -0.0324    0.0181   -0.0103   -0.0250    0.0093   -0.0040    0.0299   -0.0146
          20    0.0227   -0.0157    0.0357   -0.0030   -0.0217    0.0050   -0.0139    0.0066
          21    0.0149   -0.0204    0.0023   -0.0208    0.0288    0.0151   -0.0029   -0.0170
          22   -0.0116   -0.0135    0.0050   -0.0237   -0.0220   -0.0054    0.0083    0.0080
          23   -0.0065   -0.0098   -0.0042    0.0007   -0.0212   -0.0184    0.0135    0.0204
          24   -0.0042   -0.0339   -0.0329   -0.0161    0.0122   -0.0103    0.0140    0.0087
          25    0.0064   -0.0109   -0.0049    0.0091   -0.0279   -0.0071   -0.0024   -0.0059
          26   -0.0041    0.0093   -0.0028    0.0358   -0.0382   -0.0192    0.0032    0.0041
          27   -0.0246    0.0075   -0.0141    0.0203   -0.0201   -0.0088    0.0051   -0.0104
          28   -0.0468    0.0039   -0.0514   -0.0143    0.0389    0.0164   -0.0496    0.0029
          29   -0.0305    0.0379   -0.0663   -0.0816   -0.0218    0.0099   -0.0476    0.0147
          30   -0.0337    0.0002   -0.0258    0.0157    0.0020   -0.0086   -0.0355    0.0092
          31    0.0093   -0.0238    0.0400    0.0101    0.0373    0.0155    0.0347   -0.0332
          32   -0.0146    0.0345   -0.0463   -0.0548   -0.0021    0.0058   -0.0373    0.0052
          33   -0.0665    0.0121   -0.0756   -0.0266   -0.0222   -0.0075   -0.0750    0.0315
          34    0.0556    0.0883   -0.0110   -0.0036    0.0381   -0.0042   -0.0268    0.1284
          35    0.0287    0.0229    0.0088   -0.0223    0.0496    0.0201    0.0097    0.0262
          36    0.0082    0.0384   -0.0097    0.0269    0.0173   -0.0102   -0.0239    0.0803
          37    0.0462    0.0748   -0.0096   -0.0015    0.0337   -0.0022   -0.0248    0.1028
          38    0.0054   -0.0079    0.0179   -0.0036   -0.0129    0.0139    0.0050   -0.0599
          39   -0.0527   -0.0560    0.0055    0.0401   -0.0031    0.0092    0.0033   -0.1028
          40   -0.0233   -0.0473    0.0050    0.0315    0.0284    0.0157   -0.0401    0.0170
          41    0.0155    0.0153    0.0274   -0.0365   -0.0364   -0.0080    0.0320   -0.0128
          42    0.0406    0.0767    0.0505   -0.0046   -0.0304   -0.0234    0.0855   -0.0251
          43    0.0119   -0.0313    0.0255    0.0048    0.0495    0.0265    0.0035   -0.0194
          44   -0.0217   -0.0801   -0.0193   -0.0313    0.0069    0.0229   -0.0730    0.0111
          45    0.0378    0.0445    0.0385   -0.0111   -0.0062   -0.0074    0.0569   -0.0263
          46   -0.0508    0.0102    0.0434    0.0164   -0.0450    0.0440   -0.0201   -0.0283
          47    0.0165    0.0140    0.0075   -0.0461    0.0125    0.0062   -0.0025   -0.0252
          48    0.0189    0.0058    0.0174   -0.0130    0.0000    0.0061   -0.0068   -0.0052
          49   -0.0437    0.0387   -0.0200   -0.0196    0.0179   -0.0104    0.0486   -0.0224
          50    0.0401   -0.0191    0.0589    0.0266   -0.0081    0.0187   -0.0350    0.0079
          51    0.0534   -0.0582    0.0443    0.0036    0.0289    0.0404   -0.0562   -0.0029
          52   -0.0555    0.0559   -0.0302   -0.0506   -0.0042   -0.0225    0.0690   -0.0295
          53    0.0462   -0.0150    0.0682   -0.0016   -0.0367    0.0159   -0.0325    0.0041
          54   -0.0149    0.0044   -0.0307   -0.0381    0.0283   -0.0041    0.0337   -0.0247
          55   -0.0154   -0.0249   -0.0098   -0.0304   -0.0283   -0.0205    0.0211    0.0273
          56   -0.0337   -0.0125   -0.0346   -0.0167   -0.0249   -0.0463    0.0504    0.0500
          57   -0.0023   -0.0704   -0.0620   -0.0299   -0.0081   -0.0443    0.0348    0.0575
          58    0.0175   -0.0126   -0.0425    0.0409   -0.0271   -0.0246    0.0029   -0.0209
          59   -0.0240    0.0201   -0.0022    0.0555   -0.0836   -0.0414    0.0116    0.0196
          60   -0.0395    0.0181   -0.0367    0.0626   -0.0712   -0.0447    0.0175   -0.0021
          61    0.0447   -0.0322   -0.0382    0.0040   -0.0392    0.0504    0.0359    0.0438
          62   -0.0279   -0.0131   -0.0676    0.0701   -0.0756    0.4202    0.0962    0.0931
          63    0.0345   -0.0055    0.0152   -0.0177    0.0226   -0.0874   -0.0109   -0.0024


   Root No.       9        10        11        12        13        14        15        16

                 9 A      10 A      11 A      12 A      13 A      14 A      15 A      16 A   

                 446.3     506.0     538.9     631.5     685.7     789.8     821.0     865.2
  
           1   -0.0167   -0.0131   -0.0021    0.0112   -0.0318   -0.0061    0.0034   -0.0050
           2   -0.0160    0.0093   -0.0014    0.0406    0.0310    0.0059    0.0102   -0.0039
           3   -0.0025    0.0069   -0.0259    0.0130    0.0104   -0.0008    0.0092   -0.0039
           4    0.0241    0.0340   -0.0323   -0.0157    0.0291    0.0068    0.0004   -0.0102
           5    0.0110    0.0066    0.0098    0.0237   -0.0079    0.0026   -0.0017    0.0086
           6    0.0171    0.0058    0.0025    0.0006    0.0018   -0.0015    0.0018    0.0062
           7    0.0355   -0.0171   -0.0056    0.0000   -0.0106    0.0176   -0.0235    0.0007
           8    0.0225   -0.0048    0.0001    0.0064   -0.0035    0.0208   -0.0257    0.0058
           9   -0.0057   -0.0017    0.0007   -0.0234    0.0081   -0.0005   -0.0003    0.0049
          10   -0.0097    0.0041   -0.0037   -0.0092    0.0025    0.0256   -0.0173    0.0369
          11   -0.0059   -0.0197    0.0021   -0.0414    0.0018   -0.0006   -0.0024   -0.0044
          12   -0.0255   -0.0143    0.0019   -0.0445    0.0076    0.0074   -0.0243   -0.0144
          13    0.0162   -0.0017    0.0050   -0.0049   -0.0012   -0.0062    0.0069   -0.0188
          14   -0.0238    0.0397    0.0245    0.0063   -0.0002    0.0224   -0.0235   -0.0222
          15    0.0082   -0.0013    0.0026   -0.0069   -0.0082    0.0013    0.0212    0.0261
          16   -0.0084    0.0081   -0.0325    0.0001    0.0048    0.0141    0.0062   -0.0035
          17   -0.0032   -0.0186   -0.0012   -0.0494    0.0117   -0.0237    0.0251   -0.0035
          18   -0.0201   -0.0104    0.0015    0.0523   -0.0299    0.0202   -0.0046    0.0003
          19   -0.0153    0.0178    0.0133    0.0037    0.0122   -0.0095    0.0187    0.0039
          20    0.0037   -0.0015    0.0075    0.0054    0.0076   -0.0013   -0.0010   -0.0076
          21    0.0032    0.0272    0.0045   -0.0045   -0.0270   -0.0093    0.0144    0.0005
          22   -0.0207   -0.0304    0.0354    0.0217    0.0484   -0.0166   -0.0014    0.0162
          23   -0.0109   -0.0122   -0.0392    0.0016   -0.0038   -0.0174   -0.0036    0.0093
          24   -0.0144   -0.0128   -0.0260    0.0073    0.0011   -0.0177   -0.0162   -0.0036
          25   -0.0055   -0.0187    0.0275    0.0027   -0.0414   -0.0280   -0.0104    0.0085
          26    0.0139    0.0044   -0.0128   -0.0108   -0.0424   -0.0290   -0.0073    0.0146
          27    0.0237    0.0159    0.0401    0.0032    0.0397   -0.0187   -0.0163    0.0058
          28    0.0843   -0.0491   -0.0335    0.0588   -0.0236   -0.0360    0.0243   -0.0583
          29    0.0746   -0.0115   -0.0205    0.1041   -0.0233   -0.0105    0.0388    0.0114
          30   -0.0094   -0.0133   -0.0016   -0.0453    0.0122   -0.0075   -0.0130   -0.0243
          31   -0.0044    0.0150    0.0229   -0.0437   -0.0019    0.0510   -0.0642   -0.0048
          32    0.0399   -0.0272   -0.0171    0.0163   -0.0063    0.0055   -0.0089    0.0198
          33    0.0590   -0.0115   -0.0212    0.0950   -0.0131   -0.0541    0.0765   -0.0473
          34   -0.0413    0.0215    0.0360   -0.0094   -0.0019   -0.0333    0.0102   -0.0652
          35   -0.0101   -0.0257    0.0324   -0.0195   -0.0252   -0.0224    0.0007   -0.0444
          36   -0.0552    0.0041    0.0328   -0.0508    0.0109   -0.0469    0.0041   -0.1057
          37   -0.0317    0.0174    0.0251   -0.0062   -0.0014   -0.0172    0.0042   -0.0326
          38   -0.0187   -0.0172   -0.0292   -0.0280    0.0082    0.0207    0.0228    0.0197
          39    0.0208   -0.0396   -0.0400   -0.0551    0.0120    0.0772   -0.0715    0.1033
          40   -0.0147    0.0256    0.0168   -0.0317    0.0023   -0.0196    0.0651    0.0299
          41   -0.0032   -0.0027    0.0107    0.0320    0.0257    0.0186   -0.0715   -0.0981
          42    0.0361   -0.0638   -0.0179    0.0296    0.0314   -0.0060   -0.0482   -0.0862
          43    0.0305    0.0037    0.0052    0.0039   -0.0281   -0.0084    0.0124   -0.0496
          44   -0.0597    0.1123    0.0492   -0.0375   -0.0434    0.0269    0.0667    0.1007
          45    0.0286   -0.0256   -0.0067    0.0132   -0.0056   -0.0026   -0.0069   -0.0322
          46   -0.0158    0.0118   -0.0631    0.0026    0.0124    0.0218    0.0393   -0.0512
          47    0.0047   -0.0273   -0.0023   -0.0591    0.0019   -0.0376    0.0551   -0.0007
          48   -0.0140   -0.0165    0.0026    0.0460   -0.0373    0.0104    0.0141    0.0050
          49   -0.0152    0.0420   -0.0166   -0.0139   -0.0436   -0.0160    0.0254   -0.0076
          50    0.0438   -0.0269    0.0074   -0.0072    0.0195   -0.0139    0.0396    0.0018
          51    0.0470   -0.0409    0.0536    0.0103    0.0760   -0.0133    0.0478    0.0281
          52   -0.0479    0.0693    0.0063   -0.0011   -0.0478    0.0098    0.0123   -0.0025
          53    0.0205   -0.0232    0.0642    0.0166    0.0703    0.0227    0.0352    0.0227
          54   -0.0271    0.0720   -0.0341   -0.0140   -0.1022   -0.0101   -0.0117   -0.0227
          55   -0.0299   -0.0631    0.0249    0.0150    0.0491    0.0562    0.0418    0.0050
          56   -0.0273   -0.0510   -0.0596   -0.0080    0.0457    0.1143    0.0889   -0.0021
          57   -0.0348   -0.0994   -0.0491   -0.0096   -0.0195    0.1523    0.0763   -0.0344
          58    0.0110   -0.0210    0.0798   -0.0151   -0.0977    0.0300    0.0145   -0.0368
          59    0.0498   -0.0080    0.0565   -0.0537   -0.0912    0.0775    0.0535   -0.0169
          60    0.0749    0.0004    0.1511   -0.0565   -0.0502    0.1390    0.0674   -0.0592
          61    0.0518    0.0477   -0.0275   -0.0542    0.0510   -0.0129    0.0015   -0.0086
          62    0.0083    0.0067   -0.0002    0.0017   -0.0029    0.0068    0.0008    0.0085
          63    0.0059    0.0008    0.0007    0.0195   -0.0067    0.0066    0.0010    0.0050


   Root No.      17        18        19        20        21        22        23        24

                17 A      18 A      19 A      20 A      21 A      22 A      23 A      24 A   

                 888.1     920.5     945.4     972.7     994.1    1005.2    1039.4    1061.4
  
           1    0.0028    0.0110    0.0034    0.0012   -0.0075   -0.0124   -0.0008   -0.0016
           2   -0.0003    0.0082   -0.0003   -0.0084   -0.0125    0.0003   -0.0077   -0.0036
           3   -0.0026    0.0182    0.0027    0.0001   -0.0290   -0.0155   -0.0143   -0.0151
           4    0.0067   -0.0052   -0.0114   -0.0068   -0.0086   -0.0242    0.0082    0.0042
           5   -0.0024    0.0015    0.0059    0.0027    0.0042    0.0076   -0.0046    0.0010
           6   -0.0057    0.0030    0.0093    0.0031    0.0070    0.0261   -0.0066   -0.0059
           7   -0.0056    0.0191   -0.0098   -0.0174   -0.0126    0.0105    0.0130    0.0032
           8    0.0359    0.0118   -0.0035   -0.0162    0.0036   -0.0002   -0.0205    0.0006
           9    0.0063    0.0214    0.0173   -0.0088    0.0079   -0.0029   -0.0064    0.0171
          10   -0.0251   -0.0168    0.0174    0.0229    0.0043    0.0033   -0.0005   -0.0033
          11    0.0085   -0.0213   -0.0183   -0.0061    0.0183   -0.0136    0.0129    0.0026
          12   -0.0004   -0.0225   -0.0186    0.0098   -0.0088    0.0037    0.0070   -0.0127
          13    0.0072    0.0051    0.0079    0.0034    0.0178   -0.0081   -0.0119    0.0093
          14   -0.0120    0.0089    0.0118    0.0227   -0.0034    0.0032    0.0180    0.0026
          15    0.0002    0.0124   -0.0113   -0.0217    0.0053   -0.0031    0.0141    0.0026
          16    0.0017   -0.0104    0.0051   -0.0005    0.0123    0.0067    0.0045    0.0123
          17   -0.0270    0.0191    0.0216    0.0096   -0.0176    0.0095   -0.0022   -0.0014
          18    0.0134   -0.0134   -0.0047   -0.0062    0.0140   -0.0091    0.0111    0.0122
          19    0.0319   -0.0164    0.0105    0.0250   -0.0024   -0.0022    0.0053   -0.0130
          20   -0.0278   -0.0081   -0.0080   -0.0148    0.0150   -0.0098   -0.0179   -0.0117
          21    0.0098   -0.0201   -0.0073    0.0151   -0.0171    0.0089   -0.0127    0.0009
          22   -0.0106   -0.0140   -0.0044   -0.0249   -0.0182    0.0084   -0.0121    0.0063
          23    0.0079   -0.0169    0.0100   -0.0161   -0.0126    0.0023    0.0034    0.0013
          24   -0.0000   -0.0127    0.0237   -0.0179    0.0014   -0.0082    0.0094   -0.0055
          25   -0.0000    0.0161   -0.0067    0.0131    0.0018    0.0055   -0.0047   -0.0036
          26    0.0160    0.0113   -0.0125    0.0230   -0.0039    0.0121    0.0049    0.0053
          27   -0.0092    0.0125   -0.0200    0.0111    0.0308   -0.0025    0.0034    0.0041
          28   -0.0835   -0.0736   -0.0657    0.0240   -0.0227    0.0242    0.0106    0.0009
          29   -0.0353   -0.0229    0.0020    0.0210    0.0039   -0.0156    0.0605   -0.0309
          30    0.0075   -0.0028   -0.0103   -0.0085    0.0028    0.0107   -0.0471    0.0317
          31    0.0459    0.1239    0.0395   -0.0507   -0.0173    0.0168    0.0452    0.0585
          32    0.0154   -0.0629   -0.0446   -0.0031    0.0113   -0.0048   -0.0678   -0.0426
          33   -0.0877   -0.0065    0.0286    0.0462   -0.0027   -0.0076    0.1052    0.0291
          34    0.0295    0.0123   -0.0233   -0.0189   -0.0048    0.0101    0.0052    0.0038
          35    0.0219   -0.0089   -0.0814   -0.0601   -0.0104   -0.0675    0.1677   -0.0783
          36    0.0495    0.0035   -0.0411   -0.0165   -0.0104    0.0245   -0.0303    0.0182
          37    0.0126    0.0110   -0.0060   -0.0086   -0.0041    0.0093   -0.0018    0.0020
          38   -0.0041   -0.1105    0.0002    0.0430    0.1269   -0.0244   -0.0251    0.1286
          39   -0.0680   -0.0398    0.0193    0.0503   -0.0338   -0.0010    0.0279   -0.0688
          40   -0.0413    0.0400    0.0343   -0.0528    0.1203   -0.0882    0.0409   -0.0103
          41   -0.0254    0.0007    0.0515    0.0651    0.0133   -0.0109    0.0167    0.0022
          42   -0.0260    0.0054    0.0522    0.0358    0.0393   -0.0312    0.0181    0.0035
          43   -0.0266   -0.0280   -0.0588    0.0171   -0.0280    0.0496   -0.0708    0.0617
          44   -0.0155    0.0233   -0.0530   -0.0488   -0.0052    0.0081    0.0376   -0.0020
          45   -0.0143   -0.0102   -0.0208    0.0107   -0.0160    0.0224   -0.0211    0.0288
          46    0.0264   -0.0083    0.0254   -0.0700    0.1178    0.3098    0.0430   -0.0773
          47   -0.0351    0.0396    0.0523   -0.0052    0.0108   -0.0044    0.0245    0.0859
          48    0.0064    0.0014    0.0164   -0.0125    0.0276   -0.0334    0.0268    0.0770
          49    0.0076   -0.0101    0.0107   -0.0086    0.0762   -0.0608   -0.0577   -0.0722
          50    0.0582   -0.0130    0.0294    0.0052    0.0968   -0.0808   -0.0583   -0.0996
          51    0.1430   -0.0355    0.0338    0.0943   -0.0569    0.0278    0.0466    0.0033
          52   -0.0878   -0.0115   -0.0680   -0.0175   -0.0125    0.0281   -0.0093    0.0072
          53   -0.0051   -0.0140   -0.0507    0.0237   -0.0291    0.0408    0.0447    0.0040
          54   -0.0805   -0.0130   -0.0316   -0.0345    0.0030   -0.0023   -0.0588    0.0046
          55   -0.0131    0.0349   -0.0446    0.0186   -0.0032    0.0081   -0.0257    0.0024
          56    0.0356    0.0303   -0.0536    0.0684    0.0121    0.0015    0.0174    0.0046
          57   -0.0213    0.1203   -0.0739    0.0810    0.0362   -0.0077   -0.0374   -0.0163
          58   -0.0098    0.0118    0.0519    0.0033    0.0149   -0.0339   -0.0105   -0.1187
          59    0.0173   -0.0743    0.0429   -0.0482   -0.0850    0.0163   -0.0038    0.0567
          60   -0.0153   -0.0871    0.0793   -0.0767   -0.0507   -0.0240   -0.0100   -0.0090
          61   -0.0044    0.0127   -0.0052   -0.0038   -0.0169    0.0206   -0.0102   -0.0313
          62   -0.0048    0.0003    0.0051    0.0048   -0.0059   -0.0277   -0.0029    0.0189
          63   -0.0003   -0.0046    0.0058    0.0011    0.0108    0.0093    0.0018    0.0071


   Root No.      25        26        27        28        29        30        31        32

                25 A      26 A      27 A      28 A      29 A      30 A      31 A      32 A   

                1080.6    1090.1    1103.0    1137.9    1138.3    1156.3    1159.3    1172.7
  
           1   -0.0020    0.0104   -0.0104   -0.0239    0.0267    0.0032    0.0038    0.0164
           2   -0.0043   -0.0027    0.0073    0.0044   -0.0022    0.0008    0.0012    0.0013
           3    0.0058   -0.0145    0.0095    0.0020   -0.0031    0.0064   -0.0001    0.0037
           4    0.0012    0.0037    0.0005    0.0106   -0.0069   -0.0030   -0.0023   -0.0065
           5    0.0012    0.0004    0.0009   -0.0008    0.0004    0.0013    0.0010    0.0013
           6   -0.0013   -0.0056    0.0015   -0.0056    0.0024    0.0016    0.0010    0.0031
           7    0.0055    0.0006   -0.0008   -0.0158   -0.0106    0.0041    0.0241   -0.0128
           8    0.0014   -0.0036   -0.0027   -0.0030    0.0068   -0.0091   -0.0137   -0.0048
           9    0.0061    0.0113    0.0109    0.0086   -0.0089    0.0137   -0.0134    0.0260
          10   -0.0032    0.0020    0.0009    0.0054   -0.0025    0.0034   -0.0047    0.0096
          11   -0.0019   -0.0091    0.0104    0.0011   -0.0037    0.0082   -0.0038    0.0115
          12   -0.0090   -0.0102   -0.0143   -0.0029    0.0028   -0.0156   -0.0011   -0.0229
          13   -0.0028   -0.0099    0.0046    0.0122    0.0147   -0.0049   -0.0240    0.0012
          14   -0.0034   -0.0050   -0.0033    0.0114    0.0097    0.0102    0.0256   -0.0003
          15    0.0021   -0.0179   -0.0076    0.0096    0.0123    0.0081    0.0231   -0.0072
          16    0.0005    0.0032   -0.0075   -0.0035   -0.0013   -0.0074    0.0010   -0.0069
          17   -0.0030    0.0020   -0.0110   -0.0098    0.0062   -0.0073    0.0034   -0.0033
          18    0.0012    0.0097   -0.0053    0.0036   -0.0010   -0.0053   -0.0018   -0.0052
          19    0.0089    0.0036    0.0041    0.0037   -0.0051   -0.0117    0.0081    0.0013
          20    0.0028    0.0139    0.0001   -0.0131   -0.0140   -0.0033   -0.0115   -0.0029
          21   -0.0172    0.0170    0.0171   -0.0145   -0.0156    0.0105   -0.0185   -0.0096
          22   -0.0212   -0.0049    0.0048    0.0082   -0.0129    0.0131   -0.0049   -0.0090
          23    0.0072   -0.0035   -0.0040    0.0032   -0.0028    0.0033   -0.0015   -0.0021
          24    0.0214   -0.0035   -0.0070   -0.0051    0.0100   -0.0165    0.0083    0.0124
          25   -0.0051   -0.0047    0.0080    0.0031   -0.0040   -0.0005    0.0007    0.0003
          26   -0.0013   -0.0028    0.0107    0.0072   -0.0051   -0.0003   -0.0024   -0.0050
          27   -0.0038    0.0135   -0.0135   -0.0103    0.0075    0.0001    0.0001    0.0022
          28    0.0531    0.0279    0.0276   -0.0080    0.0002    0.0625    0.1693   -0.0042
          29   -0.0617   -0.0679   -0.0496   -0.0193    0.0109   -0.0711   -0.0765   -0.0682
          30    0.0575    0.0557    0.0459    0.0225   -0.0062    0.0716    0.0805    0.0638
          31   -0.0188   -0.0355   -0.0323   -0.0712   -0.0918   -0.0087   -0.0184    0.0246
          32    0.0328    0.0347    0.0329    0.0448    0.0827    0.0033    0.0231   -0.0384
          33   -0.0528   -0.0513   -0.0412   -0.0215   -0.0707    0.0023   -0.0282    0.0439
          34   -0.0008   -0.0107   -0.0119   -0.0119   -0.0030   -0.0128    0.0070   -0.0242
          35   -0.0538    0.0464    0.0402    0.0635   -0.0301    0.0434   -0.0638    0.0994
          36    0.0075   -0.0386   -0.0373   -0.0367    0.0094   -0.0436    0.0254   -0.0837
          37    0.0031    0.0023   -0.0028   -0.0056    0.0018   -0.0013    0.0088   -0.0045
          38    0.0261   -0.1245    0.0230   -0.0525   -0.0823    0.0417    0.0288    0.0216
          39   -0.0327    0.0334   -0.0148    0.0382    0.0215   -0.0211   -0.0390   -0.0026
          40    0.0079   -0.0352    0.1211   -0.0141    0.1333   -0.0053   -0.0327   -0.0717
          41   -0.0114    0.0098    0.0333    0.0115    0.0304    0.0127    0.0091   -0.0017
          42   -0.0092    0.0016    0.0611    0.0059    0.0537    0.0140   -0.0060   -0.0163
          43    0.0188   -0.0533   -0.1121    0.1343    0.0768    0.0027   -0.0793    0.0919
          44    0.0141   -0.0457   -0.0549    0.0432    0.0401    0.0174    0.0818   -0.0004
          45    0.0056   -0.0240   -0.0459    0.0593    0.0322    0.0114   -0.0210    0.0375
          46   -0.0239    0.0213    0.0177    0.0277   -0.0011    0.0101   -0.0124    0.0071
          47    0.0308    0.1320   -0.0421    0.0953   -0.0399   -0.0355    0.0013   -0.0860
          48    0.0262    0.0998   -0.0294    0.0751   -0.0321   -0.0271   -0.0026   -0.0653
          49   -0.0507    0.0277   -0.0598   -0.0091   -0.0399   -0.0370    0.0534    0.0397
          50   -0.0592    0.0370   -0.0865   -0.0141   -0.0529   -0.0441    0.0871    0.0527
          51    0.0113    0.0010    0.0332    0.0090    0.0002    0.0054    0.0141   -0.0133
          52    0.1008    0.0288    0.0356   -0.0569   -0.0182   -0.0976   -0.0598    0.0357
          53    0.1757    0.0218    0.0184   -0.0660    0.0045   -0.1339   -0.0386    0.0626
          54   -0.0624    0.0293    0.0277   -0.0229   -0.0354    0.0353   -0.0450   -0.0280
          55   -0.0391   -0.0013    0.0169    0.0144   -0.0234    0.0108   -0.0049   -0.0131
          56    0.0173    0.0651   -0.0824   -0.1124    0.0635    0.1714   -0.0769   -0.0238
          57   -0.0384   -0.0241    0.0704    0.0680   -0.0507   -0.1092    0.0457    0.0124
          58    0.1761   -0.0606   -0.0297    0.0580   -0.0966    0.1028   -0.0616   -0.0681
          59   -0.0923    0.0135    0.0404   -0.0212    0.0435   -0.0544    0.0315    0.0344
          60    0.0052   -0.0016   -0.0046   -0.0097    0.0068    0.0000    0.0014    0.0062
          61   -0.0064   -0.0154    0.0178   -0.0046    0.0069    0.0176    0.0019    0.0245
          62    0.0094    0.0108   -0.0051    0.0070   -0.0064   -0.0043    0.0035   -0.0103
          63    0.0010    0.0015   -0.0050    0.0014   -0.0036   -0.0067   -0.0014   -0.0094


   Root No.      33        34        35        36        37        38        39        40

                33 A      34 A      35 A      36 A      37 A      38 A      39 A      40 A   

                1243.2    1261.2    1293.5    1334.5    1364.9    1383.1    1391.0    1399.6
  
           1   -0.0362   -0.0056    0.0247   -0.0220   -0.0083    0.0099    0.0123   -0.0034
           2   -0.0110    0.0055   -0.0047    0.0059    0.0042    0.0029   -0.0034   -0.0009
           3   -0.0193    0.0073   -0.0058    0.0068    0.0065    0.0051   -0.0050   -0.0024
           4    0.0015    0.0038    0.0005    0.0048   -0.0161   -0.0327    0.0034    0.0142
           5   -0.0010    0.0002   -0.0009   -0.0003    0.0074    0.0140   -0.0019   -0.0056
           6    0.0087   -0.0039   -0.0036   -0.0017    0.0120    0.0219   -0.0029   -0.0089
           7   -0.0103   -0.0144   -0.0161    0.0002   -0.0218    0.0241   -0.0108    0.0273
           8    0.0081    0.0157    0.0020   -0.0174    0.0197   -0.0280    0.0048   -0.0115
           9   -0.0023   -0.0178   -0.0115    0.0027   -0.0189    0.0238   -0.0060    0.0136
          10   -0.0087    0.0086    0.0057   -0.0007   -0.0010   -0.0143    0.0008   -0.0049
          11    0.0081    0.0225    0.0350    0.0399   -0.0214    0.0401   -0.0103    0.0024
          12   -0.0168    0.0014   -0.0087   -0.0088   -0.0041   -0.0153   -0.0173   -0.0353
          13   -0.0083   -0.0247    0.0120    0.0405    0.0166   -0.0192    0.0323   -0.0245
          14   -0.0046   -0.0067   -0.0064    0.0138    0.0034   -0.0074    0.0075   -0.0063
          15   -0.0021   -0.0089    0.0113    0.0136    0.0130   -0.0133    0.0102   -0.0127
          16    0.0668   -0.0180   -0.0117   -0.0037    0.0277    0.0532   -0.0067   -0.0217
          17    0.0359   -0.0189   -0.0088   -0.0129   -0.0139   -0.0449    0.0090    0.0144
          18    0.0296   -0.0030    0.0069    0.0023   -0.0244   -0.0423    0.0084    0.0209
          19   -0.0003   -0.0074    0.0209   -0.0209    0.0059    0.0030   -0.0320    0.0141
          20   -0.0030   -0.0175    0.0292   -0.0155    0.0114    0.0001   -0.0305    0.0098
          21    0.0041    0.0078   -0.0068    0.0007   -0.0010   -0.0039   -0.0123    0.0117
          22    0.0065    0.0083   -0.0105    0.0025   -0.0074   -0.0000    0.0132   -0.0027
          23    0.0011   -0.0021    0.0093   -0.0140   -0.0101    0.0082    0.0166   -0.0050
          24   -0.0056    0.0015   -0.0074    0.0122    0.0090   -0.0050   -0.0115    0.0020
          25    0.0022    0.0100   -0.0249    0.0287    0.0153   -0.0136   -0.0221    0.0056
          26    0.0027    0.0029   -0.0018   -0.0015   -0.0052   -0.0021    0.0051    0.0010
          27   -0.0003   -0.0089    0.0155   -0.0143   -0.0063    0.0018    0.0065   -0.0001
          28    0.0374    0.0600    0.0170   -0.0430    0.0466   -0.0450    0.0016   -0.0758
          29   -0.0604   -0.0324   -0.0396   -0.0104   -0.0482    0.0596   -0.0331   -0.0317
          30    0.0532    0.0376    0.0252   -0.0161    0.0455   -0.0521    0.0195   -0.0139
          31    0.0309    0.0891    0.0182   -0.0660    0.0214   -0.0220   -0.0203   -0.0492
          32   -0.0297   -0.0784   -0.0445    0.0192   -0.0216    0.0171    0.0058    0.0360
          33    0.0258    0.0647    0.0745    0.0450    0.0211   -0.0208    0.0137    0.0285
          34   -0.0046    0.0094   -0.0048   -0.0178    0.0920    0.0491    0.0825    0.1203
          35   -0.0109   -0.0735   -0.0958   -0.0892    0.0920   -0.0121    0.0199   -0.0216
          36   -0.0104    0.0305    0.0168    0.0076    0.0726    0.0689    0.0718    0.1207
          37    0.0163   -0.0042    0.0049    0.0159   -0.0623   -0.0180   -0.0598   -0.0834
          38   -0.1548   -0.0490   -0.0896   -0.0797    0.0388   -0.0515    0.0288    0.0438
          39   -0.0038    0.0540    0.0374   -0.0009    0.1104    0.0335    0.1025    0.1263
          40    0.0444    0.1214   -0.0362   -0.0952    0.0070   -0.0232   -0.0439    0.0103
          41    0.0011    0.0170   -0.0489    0.0035   -0.0485    0.0500    0.0175    0.0245
          42    0.0134    0.0429   -0.0525   -0.0182   -0.0580    0.0622    0.0128    0.0327
          43    0.0301    0.0630   -0.0315   -0.0854   -0.0310    0.0334   -0.0557    0.0356
          44   -0.0008    0.0080   -0.0283   -0.0048   -0.0556    0.0744    0.0158    0.0350
          45    0.0153    0.0278   -0.0042   -0.0400    0.0050   -0.0094   -0.0328    0.0046
          46   -0.0753    0.0230    0.0134    0.0031   -0.0355   -0.0704    0.0096    0.0263
          47   -0.1374    0.0390   -0.0191   -0.0037    0.0389    0.0410   -0.0179   -0.0397
          48   -0.0816    0.0357   -0.0007    0.0086    0.0140    0.0208   -0.0108   -0.0186
          49    0.0035    0.0425   -0.0660    0.0344   -0.0028   -0.0134   -0.0176    0.0215
          50    0.0091    0.0650   -0.0896    0.0104   -0.0438    0.0245    0.0766   -0.0292
          51    0.0137    0.0195    0.0060   -0.0729   -0.0590    0.0614    0.1095   -0.0589
          52    0.0032    0.0346   -0.0460   -0.0015   -0.0484    0.0357    0.1280   -0.0633
          53   -0.0111    0.0264   -0.0583    0.0605    0.0097   -0.0251   -0.0093    0.0149
          54    0.0119    0.0102    0.0018   -0.0373   -0.0414    0.0389    0.0959   -0.0517
          55    0.0077    0.0065   -0.0054   -0.0026   -0.0079    0.0016    0.0105   -0.0012
          56   -0.0105    0.0308   -0.0638    0.0636    0.0267   -0.0190   -0.0239    0.0011
          57    0.0007   -0.0240    0.0503   -0.0454   -0.0105    0.0148   -0.0001    0.0032
          58    0.0265    0.0020    0.0136   -0.0241   -0.0230    0.0093    0.0289   -0.0056
          59   -0.0187    0.0116   -0.0272    0.0311    0.0198   -0.0104   -0.0263    0.0056
          60   -0.0102   -0.0063    0.0143   -0.0132   -0.0019    0.0078    0.0025   -0.0020
          61   -0.1408    0.0314    0.0151   -0.0010    0.0117    0.0293   -0.0095   -0.0258
          62    0.0391   -0.0064   -0.0041    0.0011   -0.0018   -0.0109    0.0034    0.0075
          63    0.0620   -0.0136   -0.0093    0.0015   -0.0016   -0.0078    0.0022    0.0089


   Root No.      41        42        43        44        45        46        47        48

                41 A      42 A      43 A      44 A      45 A      46 A      47 A      48 A   

                1404.7    1409.4    1427.4    1550.1    1854.8    2831.9    2944.7    2946.2
  
           1    0.0025    0.0038   -0.0235   -0.0273   -0.0217    0.0007    0.0000   -0.0000
           2   -0.0006   -0.0004    0.0053   -0.0075    0.0083    0.0001    0.0000    0.0000
           3   -0.0004    0.0001    0.0065   -0.0128    0.0086    0.0009    0.0000    0.0000
           4   -0.0033   -0.0070    0.0071   -0.0299    0.0029    0.0002   -0.0000    0.0000
           5    0.0011    0.0026   -0.0020    0.0025   -0.0006   -0.0002    0.0000   -0.0000
           6    0.0016    0.0035   -0.0035   -0.0234   -0.0007    0.0009   -0.0000   -0.0000
           7   -0.0088    0.0343    0.0042   -0.0000    0.0004    0.0001   -0.0053    0.0030
           8    0.0232    0.0126    0.0036   -0.0004   -0.0002   -0.0003   -0.0255    0.0130
           9   -0.0214   -0.0234   -0.0032    0.0035    0.0000    0.0005   -0.0207    0.0098
          10    0.0035   -0.0025    0.0008   -0.0051    0.0008   -0.0001    0.0016   -0.0013
          11   -0.0141   -0.0067   -0.0019   -0.0062    0.0001    0.0014    0.0004   -0.0001
          12    0.0141    0.0146   -0.0002   -0.0097    0.0004    0.0010    0.0008   -0.0003
          13    0.0169   -0.0150   -0.0052    0.0001   -0.0016    0.0000   -0.0042   -0.0018
          14   -0.0395    0.0133   -0.0141    0.0001    0.0003    0.0000   -0.0036   -0.0016
          15   -0.0057    0.0022    0.0010   -0.0004   -0.0018   -0.0000    0.0120    0.0052
          16    0.0041    0.0100   -0.0099    0.0362   -0.0110   -0.0033   -0.0000   -0.0000
          17    0.0007   -0.0040    0.0035    0.0324   -0.0009    0.0400    0.0003   -0.0001
          18   -0.0042   -0.0085    0.0049    0.0725   -0.0033   -0.0621   -0.0003    0.0001
          19    0.0031   -0.0036    0.0214   -0.0003   -0.0065   -0.0001    0.0102    0.0282
          20    0.0056   -0.0082    0.0436   -0.0005   -0.0327    0.0000   -0.0077   -0.0219
          21    0.0108   -0.0003   -0.0488    0.0010    0.0254   -0.0000   -0.0033   -0.0078
          22    0.0007    0.0030   -0.0239    0.0009   -0.0876   -0.0000   -0.0006   -0.0017
          23    0.0017    0.0049   -0.0287    0.0016    0.2120    0.0000    0.0003    0.0005
          24   -0.0028   -0.0033    0.0264   -0.0022   -0.1060   -0.0000    0.0002    0.0004
          25   -0.0042   -0.0071    0.0457    0.0023    0.1500   -0.0000    0.0001    0.0001
          26    0.0009    0.0012   -0.0139   -0.0005   -0.1794   -0.0002   -0.0000    0.0000
          27    0.0014    0.0013   -0.0104    0.0007    0.0586   -0.0001   -0.0000   -0.0001
          28   -0.0326   -0.1679   -0.0303    0.0055   -0.0004    0.0010   -0.0916    0.0428
          29   -0.0851   -0.1812   -0.0277    0.0110   -0.0003   -0.0022    0.1047   -0.0488
          30    0.0315    0.0141    0.0012   -0.0013   -0.0000   -0.0021    0.2092   -0.0976
          31   -0.0038   -0.1237   -0.0097    0.0021    0.0000   -0.0022    0.1522   -0.0817
          32   -0.0107    0.0622    0.0029    0.0038    0.0002   -0.0031    0.1978   -0.1067
          33    0.0816    0.1888    0.0295   -0.0164    0.0002   -0.0000    0.0399   -0.0218
          34   -0.0214   -0.0289    0.0028    0.0095    0.0004    0.0123    0.0013    0.0027
          35    0.0204    0.0042   -0.0058   -0.0073   -0.0010    0.0028   -0.0009   -0.0002
          36   -0.0266   -0.0220    0.0038    0.0092    0.0008   -0.0113    0.0001   -0.0037
          37    0.0156    0.0250   -0.0027   -0.0055   -0.0003   -0.0115   -0.0208    0.0126
          38    0.0074    0.0103    0.0097   -0.0274    0.0048    0.0033   -0.0051    0.0030
          39   -0.0218   -0.0512    0.0031    0.0034    0.0012   -0.0060   -0.0095    0.0060
          40   -0.0838    0.0664   -0.0353   -0.0018    0.0075   -0.0001    0.0036    0.0035
          41    0.1111   -0.0369    0.0001    0.0004    0.0050   -0.0003    0.0739    0.0327
          42    0.1752   -0.0527    0.0115   -0.0003    0.0086    0.0002   -0.0475   -0.0200
          43   -0.0269    0.0083    0.0183    0.0004   -0.0044   -0.0001    0.0459    0.0231
          44    0.2229   -0.0722    0.0585   -0.0006   -0.0041    0.0000   -0.0326   -0.0137
          45   -0.0917    0.0337   -0.0081   -0.0001   -0.0008    0.0002   -0.0980   -0.0414
          46   -0.0047   -0.0137    0.0102   -0.0765    0.0027    0.0379    0.0002   -0.0001
          47    0.0136    0.0177   -0.0004   -0.0430    0.0023   -0.4945   -0.0006    0.0001
          48    0.0053    0.0073    0.0014    0.0418   -0.0026    0.7122    0.0013   -0.0004
          49    0.0040    0.0065   -0.1064    0.0004   -0.0163    0.0004   -0.0643   -0.1973
          50   -0.0417    0.0238    0.0191   -0.0015   -0.0369   -0.0003    0.0420    0.1296
          51   -0.0531    0.0225    0.1758   -0.0017    0.0312    0.0003   -0.0398   -0.1207
          52   -0.0314    0.0206    0.1031   -0.0020   -0.0060    0.0004   -0.0538   -0.1411
          53    0.0234   -0.0001   -0.1265    0.0005    0.0310   -0.0003    0.0500    0.1308
          54   -0.0298    0.0125    0.1316   -0.0008   -0.0169   -0.0004    0.0827    0.2166
          55    0.0022    0.0031   -0.0279    0.0014   -0.1102    0.0003    0.0071    0.0195
          56   -0.0076   -0.0100    0.0677   -0.0045   -0.0331   -0.0001   -0.0020   -0.0056
          57    0.0064    0.0041   -0.0308    0.0001    0.0696   -0.0001   -0.0019   -0.0051
          58    0.0042    0.0077   -0.0540    0.0120   -0.0939   -0.0015    0.0002    0.0002
          59   -0.0034   -0.0066    0.0430   -0.0091   -0.0832   -0.0000    0.0005    0.0010
          60    0.0019    0.0017   -0.0076   -0.0026    0.0933    0.0003   -0.0006   -0.0011
          61    0.0094    0.0187   -0.0027    0.5548   -0.0114   -0.0103    0.0001   -0.0001
          62   -0.0008   -0.0021    0.0019   -0.1570    0.0020    0.0069    0.0001    0.0001
          63   -0.0040   -0.0080    0.0020   -0.2381    0.0066    0.0016    0.0004   -0.0000


   Root No.      49        50        51        52        53        54        55        56

                49 A      50 A      51 A      52 A      53 A      54 A      55 A      56 A   

                2949.8    2954.7    3014.0    3026.6    3029.4    3031.3    3032.4    3055.8
  
           1    0.0000    0.0001    0.0005    0.0000    0.0000    0.0001    0.0001    0.0007
           2    0.0000    0.0002    0.0000    0.0000    0.0000    0.0001    0.0001   -0.0003
           3    0.0000    0.0002   -0.0004    0.0000    0.0000    0.0001    0.0001   -0.0000
           4    0.0000    0.0001    0.0000   -0.0000   -0.0000   -0.0000   -0.0001    0.0000
           5   -0.0000   -0.0003   -0.0000    0.0000    0.0000    0.0000    0.0000   -0.0000
           6   -0.0000   -0.0002    0.0000   -0.0000    0.0000    0.0000    0.0000    0.0000
           7    0.0028    0.0006   -0.0000    0.0075    0.0108   -0.0119    0.0031    0.0001
           8    0.0083   -0.0024    0.0000    0.0021    0.0030   -0.0053    0.0013    0.0001
           9    0.0057   -0.0031    0.0001   -0.0058   -0.0088    0.0075   -0.0028    0.0000
          10   -0.0040   -0.0521    0.0001   -0.0003   -0.0004   -0.0036   -0.0030    0.0001
          11    0.0003    0.0013    0.0000   -0.0009   -0.0015   -0.0039   -0.0060    0.0000
          12    0.0005    0.0082    0.0001   -0.0034   -0.0055   -0.0117   -0.0192    0.0001
          13   -0.0103    0.0012   -0.0001    0.0040    0.0031    0.0033   -0.0045   -0.0001
          14   -0.0142    0.0021   -0.0001   -0.0097   -0.0079   -0.0117    0.0134    0.0008
          15    0.0322   -0.0034    0.0000   -0.0052   -0.0024   -0.0026    0.0043   -0.0001
          16   -0.0000   -0.0003    0.0001    0.0000   -0.0000   -0.0000   -0.0000   -0.0001
          17   -0.0001   -0.0000    0.0001   -0.0000   -0.0001   -0.0001   -0.0002   -0.0001
          18    0.0001    0.0002    0.0000   -0.0001   -0.0002   -0.0005   -0.0007   -0.0000
          19   -0.0086    0.0005    0.0006   -0.0042    0.0035    0.0013   -0.0014   -0.0032
          20    0.0064   -0.0003   -0.0001    0.0010   -0.0014   -0.0009    0.0010    0.0023
          21    0.0011    0.0000    0.0000   -0.0179    0.0133    0.0018   -0.0027   -0.0019
          22    0.0007   -0.0000    0.0126    0.0012   -0.0012   -0.0005    0.0005   -0.0559
          23    0.0002   -0.0000    0.0014   -0.0002    0.0002    0.0001   -0.0001    0.0128
          24   -0.0001    0.0000   -0.0062   -0.0004    0.0003    0.0001   -0.0001    0.0145
          25   -0.0000    0.0000   -0.0211    0.0000   -0.0000   -0.0000   -0.0000   -0.0030
          26   -0.0000   -0.0000   -0.0456    0.0001   -0.0001   -0.0001    0.0000   -0.0145
          27    0.0000    0.0001    0.0387   -0.0001    0.0001    0.0001   -0.0000    0.0109
          28    0.0248   -0.0171    0.0004   -0.0356   -0.0520    0.0477   -0.0151   -0.0001
          29   -0.0251    0.0216   -0.0004    0.0533    0.0793   -0.0773    0.0232    0.0004
          30   -0.0492    0.0369   -0.0008    0.0930    0.1391   -0.1314    0.0425    0.0005
          31   -0.0552    0.0062    0.0001   -0.0527   -0.0784    0.0994   -0.0259   -0.0012
          32   -0.0748    0.0095    0.0001   -0.0782   -0.1150    0.1406   -0.0351   -0.0015
          33   -0.0152   -0.0011    0.0001   -0.0224   -0.0331    0.0381   -0.0112   -0.0004
          34    0.0203    0.2880    0.0001   -0.0293   -0.0489   -0.0964   -0.1678    0.0004
          35   -0.0048   -0.0818   -0.0000    0.0065    0.0112    0.0228    0.0403   -0.0001
          36   -0.0214   -0.2840   -0.0001    0.0260    0.0428    0.0795    0.1418   -0.0004
          37    0.0246    0.3347   -0.0013    0.0330    0.0529    0.1395    0.2034   -0.0014
          38    0.0055    0.0682   -0.0003    0.0058    0.0092    0.0240    0.0350   -0.0002
          39    0.0129    0.1829   -0.0007    0.0141    0.0225    0.0643    0.0906   -0.0007
          40    0.0162   -0.0022    0.0001    0.0097    0.0100    0.0110   -0.0136   -0.0008
          41    0.2473   -0.0365    0.0007    0.0808    0.0751    0.1148   -0.1263   -0.0066
          42   -0.1629    0.0245   -0.0004   -0.0654   -0.0567   -0.0865    0.0964    0.0047
          43    0.1082   -0.0090    0.0002   -0.0591   -0.0423   -0.0546    0.0693    0.0017
          44   -0.0795    0.0068   -0.0001    0.0342    0.0226    0.0289   -0.0374   -0.0010
          45   -0.2221    0.0199   -0.0002    0.1265    0.0890    0.1181   -0.1503   -0.0043
          46   -0.0002   -0.0018   -0.0005    0.0000    0.0001    0.0000    0.0002   -0.0000
          47    0.0003    0.0014   -0.0007   -0.0010   -0.0016   -0.0035   -0.0056    0.0002
          48   -0.0005   -0.0013    0.0004    0.0008    0.0014    0.0032    0.0049   -0.0002
          49    0.0672   -0.0040   -0.0060    0.1570   -0.1236   -0.0252    0.0332    0.0378
          50   -0.0462    0.0029    0.0051   -0.1066    0.0825    0.0159   -0.0211   -0.0296
          51    0.0404   -0.0023   -0.0045    0.0773   -0.0619   -0.0135    0.0176    0.0249
          52    0.0317   -0.0011   -0.0008   -0.1060    0.0785    0.0086   -0.0143   -0.0018
          53   -0.0327    0.0015    0.0006    0.0963   -0.0698   -0.0075    0.0122    0.0038
          54   -0.0533    0.0023    0.0014    0.1385   -0.1000   -0.0099    0.0167   -0.0021
          55   -0.0051    0.0004   -0.1782   -0.0133    0.0130    0.0057   -0.0055    0.6312
          56    0.0018   -0.0001    0.0238    0.0019   -0.0021   -0.0010    0.0010   -0.0984
          57    0.0012   -0.0001    0.0580    0.0036   -0.0036   -0.0017    0.0017   -0.1963
[...]
 RED. MASS   0.7772         O  1 -- C  9          +8.1% ( 39.4%)     98.8%
 EFF. MASS   7.1383

 VIBRATION   37   37A         ATOM PAIR      ENERGY CONTRIBUTION    RADIAL
 FREQ.      1364.93         O  2 -- C  6         +11.4% ( 43.3%)     99.8%
 T-DIPOLE    0.5325         C  4 -- H 12          +8.7% ( 37.7%)      1.3%
 TRAVEL      0.0909         C  6 -- H 16          +7.7% ( 35.6%)      2.3%
 RED. MASS   0.5346         C  3 -- H 10          +7.5% ( 35.1%)      0.0%
 EFF. MASS   5.9737

 VIBRATION   38   38A         ATOM PAIR      ENERGY CONTRIBUTION    RADIAL
 FREQ.      1383.07         O  2 -- C  6         +19.4% ( 67.0%)     96.4%
 T-DIPOLE    0.9513         C  4 -- C  6         +15.6% ( 60.0%)     60.1%
 TRAVEL      0.0709         C  6 -- H 16         +13.0% ( 54.8%)      0.3%
 RED. MASS   2.1304         O  1 -- C  6         +11.2% ( 50.8%)      2.2%
 EFF. MASS   9.7026

 VIBRATION   39   39A         ATOM PAIR      ENERGY CONTRIBUTION    RADIAL
 FREQ.      1391.02         C  7 -- H 18         +15.2% ( 49.2%)      0.9%
 T-DIPOLE    0.3205         C  5 -- C  7         +13.3% ( 46.0%)     89.3%
 TRAVEL      0.0923         C  7 -- H 17         +12.0% ( 43.8%)      3.3%
 RED. MASS   0.5932         C  7 -- C  8         +10.6% ( 41.1%)     56.6%
 EFF. MASS   5.6845

 VIBRATION   40   40A         ATOM PAIR      ENERGY CONTRIBUTION    RADIAL
 FREQ.      1399.65         C  4 -- H 12         +13.5% ( 46.1%)      4.9%
 T-DIPOLE    0.4162         C  4 -- H 13         +11.5% ( 42.5%)      5.8%
 TRAVEL      0.0936         C  3 -- C  4          +8.8% ( 37.1%)     67.3%
 RED. MASS   0.4754         C  4 -- C  6          +8.5% ( 36.6%)     15.5%
 EFF. MASS   5.4988

 VIBRATION   41   41A         ATOM PAIR      ENERGY CONTRIBUTION    RADIAL
 FREQ.      1404.72         C  5 -- H 15         +27.0% ( 56.5%)      4.0%
 T-DIPOLE    0.0732         C  5 -- H 14         +22.6% ( 51.6%)      6.6%
 TRAVEL      0.1188         C  3 -- C  5         +11.7% ( 37.2%)     46.7%
 RED. MASS   0.4579         C  3 -- H 10          +7.5% ( 29.8%)      0.8%
 EFF. MASS   3.4010

 VIBRATION   42   42A         ATOM PAIR      ENERGY CONTRIBUTION    RADIAL
 FREQ.      1409.42         C  3 -- H 10         +30.4% ( 57.7%)      5.0%
 T-DIPOLE    0.1133         C  3 -- H 11         +26.7% ( 54.0%)      5.5%
 TRAVEL      0.1251         C  3 -- C  5          +9.7% ( 32.6%)     57.0%
 RED. MASS   0.4422         C  3 -- C  4          +9.2% ( 31.7%)     46.6%
 EFF. MASS   3.0553

 VIBRATION   43   43A         ATOM PAIR      ENERGY CONTRIBUTION    RADIAL
 FREQ.      1427.40         C  7 -- C  8         +19.1% ( 57.8%)     99.6%
 T-DIPOLE    0.2483         C  7 -- H 18         +17.2% ( 54.8%)      4.1%
 TRAVEL      0.0825         C  7 -- H 17         +16.7% ( 54.0%)      4.1%
 RED. MASS   1.1400         O  1 -- C  9          +9.6% ( 41.0%)     99.3%
 EFF. MASS   6.9491

 VIBRATION   44   44A         ATOM PAIR      ENERGY CONTRIBUTION    RADIAL
 FREQ.      1550.12         O  2 -- H 21         +58.5% ( 83.6%)      4.0%
 T-DIPOLE    0.8238         O  1 -- C  6         +11.3% ( 36.7%)     94.7%
 TRAVEL      0.1130         O  2 -- C  6          +9.9% ( 34.3%)      1.9%
 RED. MASS   0.9342         C  4 -- C  6          +8.5% ( 31.9%)     32.6%
 EFF. MASS   3.4089

 VIBRATION   45   45A         ATOM PAIR      ENERGY CONTRIBUTION    RADIAL
 FREQ.      1854.77         C  8 -- C  9         +44.2% ( 98.2%)    100.0%
 T-DIPOLE    0.6918         C  7 -- C  8         +15.2% ( 57.7%)     55.8%
 TRAVEL      0.0553         C  8 -- H 19         +13.9% ( 55.1%)      3.5%
 RED. MASS   5.4152         O  1 -- C  9         +13.4% ( 54.0%)     52.4%
 EFF. MASS  11.8920         C  9 -- H 20         +12.4% ( 51.9%)      5.6%

 VIBRATION   46   46A         ATOM PAIR      ENERGY CONTRIBUTION    RADIAL
 FREQ.      2831.94         C  6 -- H 16         +96.3% ( 99.9%)    100.0%
 T-DIPOLE    0.0711         O  1 -- C  6          +1.2% ( 11.2%)     14.7%
 TRAVEL      0.1269         O  2 -- C  6          +1.2% ( 11.1%)      9.7%
 RED. MASS   0.9283         C  4 -- C  6          +1.2% ( 11.1%)     10.2%
 EFF. MASS   1.4775

 VIBRATION   47   47A         ATOM PAIR      ENERGY CONTRIBUTION    RADIAL
 FREQ.      2944.65         C  3 -- H 11         +37.1% ( 63.4%)     96.5%
 T-DIPOLE    0.0541         C  3 -- H 10         +36.7% ( 63.1%)     96.3%
 TRAVEL      0.1214         C  5 -- H 15          +7.3% ( 28.2%)     97.4%
 RED. MASS   0.3133         C  7 -- H 18          +7.0% ( 27.6%)     97.5%
 EFF. MASS   1.5545

 VIBRATION   48   48A         ATOM PAIR      ENERGY CONTRIBUTION    RADIAL
 FREQ.      2946.20         C  7 -- H 18         +42.6% ( 67.9%)     96.8%
 T-DIPOLE    0.0205         C  7 -- H 17         +36.2% ( 62.6%)     95.9%
 TRAVEL      0.1217         C  3 -- H 11          +9.4% ( 31.8%)     97.1%
 RED. MASS   0.3559         C  3 -- H 10          +7.1% ( 27.7%)     95.5%
 EFF. MASS   1.5451

 VIBRATION   49   49A         ATOM PAIR      ENERGY CONTRIBUTION    RADIAL
 FREQ.      2949.84         C  5 -- H 14         +46.6% ( 70.9%)     97.1%
 T-DIPOLE    0.0349         C  5 -- H 15         +36.4% ( 62.6%)     95.7%
 TRAVEL      0.1214         C  3 -- H 11          +4.6% ( 22.4%)     98.0%
 RED. MASS   0.3858         C  7 -- H 17          +4.4% ( 21.8%)     97.4%
 EFF. MASS   1.5501

 VIBRATION   50   50A         ATOM PAIR      ENERGY CONTRIBUTION    RADIAL
 FREQ.      2954.69         C  4 -- H 12         +50.9% ( 74.1%)     96.8%
 T-DIPOLE    0.1236         C  4 -- H 13         +45.4% ( 70.0%)     96.1%
 TRAVEL      0.1214         C  3 -- C  4          +1.2% ( 11.3%)      0.1%
 RED. MASS   0.5065         C  4 -- C  6          +1.2% ( 11.3%)      0.1%
 EFF. MASS   1.5488

 VIBRATION   51   51A         ATOM PAIR      ENERGY CONTRIBUTION    RADIAL
 FREQ.      3014.03         C  9 -- H 20         +90.8% ( 96.8%)     99.9%
 T-DIPOLE    0.2765         C  8 -- H 19          +6.3% ( 25.4%)     99.3%
 TRAVEL      0.1215         C  8 -- C  9          +1.5% ( 12.3%)     25.2%
 RED. MASS   0.8197         O  1 -- C  9          +1.4% ( 12.1%)     11.5%
 EFF. MASS   1.5157

 VIBRATION   52   52A         ATOM PAIR      ENERGY CONTRIBUTION    RADIAL
 FREQ.      3026.58         C  7 -- H 17         +30.0% ( 54.0%)     98.0%
 T-DIPOLE    0.0868         C  7 -- H 18         +28.2% ( 52.3%)     97.4%
 TRAVEL      0.1321         C  5 -- H 15         +14.9% ( 38.1%)     98.8%
 RED. MASS   0.2087         C  3 -- H 10          +9.1% ( 29.8%)     98.3%
 EFF. MASS   1.2758

 VIBRATION   53   53A         ATOM PAIR      ENERGY CONTRIBUTION    RADIAL
 FREQ.      3029.39         C  3 -- H 10         +22.9% ( 47.1%)     98.5%
 T-DIPOLE    0.0354         C  7 -- H 17         +20.9% ( 45.0%)     98.3%
 TRAVEL      0.1323         C  7 -- H 18         +16.8% ( 40.3%)     97.1%
 RED. MASS   0.1634         C  3 -- H 11         +16.3% ( 39.8%)     96.8%
 EFF. MASS   1.2723

 VIBRATION   54   54A         ATOM PAIR      ENERGY CONTRIBUTION    RADIAL
 FREQ.      3031.31         C  3 -- H 11         +22.4% ( 46.6%)     98.2%
 T-DIPOLE    0.0737         C  3 -- H 10         +18.3% ( 42.1%)     97.4%
 TRAVEL      0.1321         C  4 -- H 13         +17.6% ( 41.3%)     98.6%
 RED. MASS   0.1659         C  5 -- H 14         +15.0% ( 38.1%)     98.1%
 EFF. MASS   1.2740         C  5 -- H 15         +12.8% ( 35.2%)     97.3%
                            C  4 -- H 12         +11.6% ( 33.5%)     96.2%

 VIBRATION   55   55A         ATOM PAIR      ENERGY CONTRIBUTION    RADIAL
 FREQ.      3032.40         C  4 -- H 13         +31.1% ( 54.8%)     97.8%
 T-DIPOLE    0.1044         C  4 -- H 12         +30.4% ( 54.2%)     97.6%
 TRAVEL      0.1323         C  5 -- H 15         +17.6% ( 41.3%)     98.1%
 RED. MASS   0.2417         C  5 -- H 14         +15.4% ( 38.6%)     97.4%
 EFF. MASS   1.2700

 VIBRATION   56   56A         ATOM PAIR      ENERGY CONTRIBUTION    RADIAL
 FREQ.      3055.76         C  8 -- H 19         +90.3% ( 96.3%)    100.0%
 T-DIPOLE    0.3368         C  9 -- H 20          +6.0% ( 24.8%)     99.1%
 TRAVEL      0.1194         C  8 -- C  9          +1.7% ( 13.2%)     60.8%
 RED. MASS   0.8096         C  7 -- C  8          +1.3% ( 11.6%)     17.8%
 EFF. MASS   1.5469

 VIBRATION   57   57A         ATOM PAIR      ENERGY CONTRIBUTION    RADIAL
 FREQ.      3816.31         O  2 -- H 21         +99.2% (100.0%)     99.8%
 T-DIPOLE    0.3927         O  1 -- O  2          +0.4% (  6.2%)     21.0%
 TRAVEL      0.1133         O  2 -- C  6          +0.4% (  6.1%)      4.1%
 RED. MASS   0.9479
 EFF. MASS   1.3770

      SYMMETRY NUMBER FOR POINT-GROUP C1  =  1


          SYSTEM IS A GROUND STATE



 InChI=1S/C7H12O2/c8-7-5-3-1-2-4-6-9-7/h4,6-8H,1-3,5H2


          MOLECULE IS NOT LINEAR

          THERE ARE 57 GENUINE VIBRATIONS IN THIS SYSTEM
          THIS THERMODYNAMICS CALCULATION IS LIMITED TO
          MOLECULES WHICH HAVE NO INTERNAL ROTATIONS




                    CALCULATED THERMODYNAMIC PROPERTIES
                                          *
   TEMP. (K)   PARTITION FUNCTION   H.O.F.    ENTHALPY  HEAT CAPACITY ENTROPY
                                   KCAL/MOL   CAL/MOLE    CAL/K/MOL  CAL/K/MOL


 298.00  VIB.     0.6368D+02                  3602.5088    28.0304    20.3437
         ROT.     0.4274D+06                   888.2813     2.9808    28.7457
         INT.     0.2722D+08                  4490.7901    31.0112    49.0894
         TRA.     0.1403D+28                  1480.4688     4.9680    40.4556
         TOT.                      -82.628    5971.2590    35.9793    89.5450

 200.00  VIB.     0.9671D+01                  1423.4662    16.7127    11.6266
         ROT.     0.2350D+06                   596.1620     2.9808    27.5570
         INT.     0.2272D+07                  2019.6282    19.6935    39.1837
         TRA.     0.7713D+27                   993.6033     4.9680    38.4745
         TOT.                      -85.586    3013.2314    24.6615    77.6581

 210.00  VIB.     0.1159D+02                  1595.9173    17.7814    12.4678
         ROT.     0.2528D+06                   625.9700     2.9808    27.7025
         INT.     0.2929D+07                  2221.8874    20.7622    40.1703
         TRA.     0.8299D+27                  1043.2834     4.9680    38.7168
         TOT.                      -85.334    3265.1708    25.7302    78.8871

 220.00  VIB.     0.1392D+02                  1779.1710    18.8733    13.3201
         ROT.     0.2711D+06                   655.7781     2.9808    27.8411
         INT.     0.3773D+07                  2434.9492    21.8541    41.1612
         TRA.     0.8899D+27                  1092.9636     4.9680    38.9480
         TOT.                      -85.071    3527.9128    26.8221    80.1092

 230.00  VIB.     0.1677D+02                  1973.4591    19.9881    14.1836
         ROT.     0.2898D+06                   685.5862     2.9808    27.9736
         INT.     0.4860D+07                  2659.0453    22.9689    42.1572
         TRA.     0.9512D+27                  1142.6437     4.9680    39.1688
         TOT.                      -84.797    3801.6891    27.9369    81.3260

 240.00  VIB.     0.2026D+02                  2179.0061    21.1248    15.0582
         ROT.     0.3089D+06                   715.3943     2.9808    28.1005
         INT.     0.6258D+07                  2894.4005    24.1056    43.1587
         TRA.     0.1014D+28                  1192.3239     4.9680    39.3802
         TOT.                      -84.512    4086.7244    29.0736    82.5389

 250.00  VIB.     0.2454D+02                  2396.0219    22.2815    15.9439
         ROT.     0.3284D+06                   745.2024     2.9808    28.2222
         INT.     0.8059D+07                  3141.2243    25.2623    44.1661
         TRA.     0.1078D+28                  1242.0041     4.9680    39.5830
         TOT.                      -84.216    4383.2284    30.2303    83.7492

 260.00  VIB.     0.2980D+02                  2624.6954    23.4559    16.8407
         ROT.     0.3483D+06                   775.0105     2.9808    28.3391
         INT.     0.1038D+08                  3399.7060    26.4367    45.1797
         TRA.     0.1143D+28                  1291.6842     4.9680    39.7779
         TOT.                      -83.908    4691.3902    31.4048    84.9576

 270.00  VIB.     0.3628D+02                  2865.1907    24.6454    17.7482
         ROT.     0.3686D+06                   804.8186     2.9808    28.4516
         INT.     0.1337D+08                  3670.0093    27.6262    46.1997
         TRA.     0.1210D+28                  1341.3644     4.9680    39.9654
         TOT.                      -83.588    5011.3737    32.5942    86.1651

 280.00  VIB.     0.4426D+02                  3117.6433    25.8469    18.6661
         ROT.     0.3892D+06                   834.6267     2.9808    28.5600
         INT.     0.1723D+08                  3952.2700    28.8277    47.2261
         TRA.     0.1278D+28                  1391.0445     4.9680    40.1461
         TOT.                      -83.256    5343.3146    33.7957    87.3722

 290.00  VIB.     0.5413D+02                  3382.1591    27.0575    19.5942
         ROT.     0.4103D+06                   864.4348     2.9808    28.6646
         INT.     0.2221D+08                  4246.5939    30.0383    48.2588
         TRA.     0.1347D+28                  1440.7247     4.9680    40.3204
         TOT.                      -82.912    5687.3186    35.0063    88.5792

 300.00  VIB.     0.6634D+02                  3658.8133    28.2741    20.5320
         ROT.     0.4317D+06                   894.2429     2.9808    28.7656
         INT.     0.2864D+08                  4553.0562    31.2549    49.2977
         TRA.     0.1417D+28                  1490.4049     4.9680    40.4888
         TOT.                      -82.556    6043.4611    36.2229    89.7865

 310.00  VIB.     0.8149D+02                  3947.6506    29.4936    21.4790
         ROT.     0.4534D+06                   924.0510     2.9808    28.8634
         INT.     0.3695D+08                  4871.7016    32.4744    50.3424
         TRA.     0.1488D+28                  1540.0850     4.9680    40.6517
         TOT.                      -82.187    6411.7867    37.4425    90.9941

 320.00  VIB.     0.1003D+03                  4248.6862    30.7133    22.4346
         ROT.     0.4755D+06                   953.8591     2.9808    28.9580
         INT.     0.4770D+08                  5202.5453    33.6941    51.3927
         TRA.     0.1561D+28                  1589.7652     4.9680    40.8094
         TOT.                      -81.807    6792.3105    38.6621    92.2021

 330.00  VIB.     0.1237D+03                  4561.9073    31.9303    23.3984
         ROT.     0.4980D+06                   983.6672     2.9808    29.0497
         INT.     0.6161D+08                  5545.5745    34.9111    52.4481
         TRA.     0.1635D+28                  1639.4454     4.9680    40.9623
         TOT.                      -81.414    7185.0199    39.8791    93.4105

 340.00  VIB.     0.1529D+03                  4887.2747    33.1421    24.3696
         ROT.     0.5208D+06                  1013.4753     2.9808    29.1387
         INT.     0.7964D+08                  5900.7500    36.1229    53.5083
         TRA.     0.1710D+28                  1689.1255     4.9680    41.1106
         TOT.                      -81.009    7589.8755    41.0910    94.6190

 350.00  VIB.     0.1893D+03                  5224.7250    34.3465    25.3477
         ROT.     0.5440D+06                  1043.2834     2.9808    29.2251
         INT.     0.1030D+09                  6268.0084    37.3273    54.5728
         TRA.     0.1786D+28                  1738.8057     4.9680    41.2546
         TOT.                      -80.592    8006.8141    42.2953    95.8275

 360.00  VIB.     0.2349D+03                  5574.1728    35.5413    26.3321
         ROT.     0.5674D+06                  1073.0915     2.9808    29.3091
         INT.     0.1333D+09                  6647.2643    38.5221    55.6412
         TRA.     0.1863D+28                  1788.4859     4.9680    41.3946
         TOT.                      -80.163    8435.7502    43.4901    97.0358

 370.00  VIB.     0.2919D+03                  5935.5133    36.7247    27.3220
         ROT.     0.5913D+06                  1102.8996     2.9808    29.3908
         INT.     0.1726D+09                  7038.4129    39.7055    56.7128
         TRA.     0.1941D+28                  1838.1660     4.9680    41.5307
         TOT.                      -79.723    8876.5789    44.6736    98.2435

 380.00  VIB.     0.3634D+03                  6308.6241    37.8951    28.3170
         ROT.     0.6154D+06                  1132.7077     2.9808    29.4703
         INT.     0.2236D+09                  7441.3318    40.8759    57.7872
         TRA.     0.2020D+28                  1887.8462     4.9680    41.6632
         TOT.                      -79.270    9329.1780    45.8440    99.4505

 390.00  VIB.     0.4531D+03                  6693.3678    39.0511    29.3163
         ROT.     0.6398D+06                  1162.5158     2.9808    29.5477
         INT.     0.2899D+09                  7855.8836    42.0319    58.8640
         TRA.     0.2100D+28                  1937.5263     4.9680    41.7923
         TOT.                      -78.806    9793.4099    46.9999   100.6563

 400.00  VIB.     0.5658D+03                  7089.5941    40.1915    30.3194
         ROT.     0.6646D+06                  1192.3239     2.9808    29.6232
         INT.     0.3760D+09                  8281.9180    43.1723    59.9426
         TRA.     0.2182D+28                  1987.2065     4.9680    41.9180
         TOT.                      -78.330   10269.1245    48.1403   101.8606

   *: NOTE: HEATS OF FORMATION ARE RELATIVE TO THE
            ELEMENTS IN THEIR STANDARD STATE AT 298K
              (=  Standard Enthalpy of Formation).

            Hvib:  Zero-point energy is not included.
                   frequencies of less than zero cm-1 are not included.
            Hrot = (3/2)RT
            Htra = (3/2)RT + pV = (5/2)RT

            Heat capacity is Cp, not Cv

          For more information, see: HTTP://OpenMOPAC.net/Manual/thermochemistry.html


           FORCE CONSTANT IN CARTESIAN COORDINATES (Millidynes/A)

    ATOM   CHEMICAL       X               Y               Z
   NUMBER   SYMBOL  FORCE CONSTANT  FORCE CONSTANT  FORCE CONSTANT

      1       O        9.450835        2.355549        4.160158
      2       O        7.163424        1.445643        9.023250
      3       C        8.102118        8.276301        8.185500
      4       C        8.481104        7.647744        8.216486
      5       C        8.011676        8.209048        8.274199
      6       C        8.337536        7.593779       10.059662
      7       C        8.353722        8.471692        8.395320
      8       C       10.128865       11.241523        5.706533
      9       C       10.323821       11.127997        5.897076
     10       H        1.198643        1.597937        3.641592
     11       H        2.129767        3.363489        0.834761
     12       H        2.910297        0.874561        2.588358
     13       H        4.021330        0.831622        1.496742
     14       H        0.749498        3.517562        2.084891
     15       H        1.459191        1.000027        3.944397
     16       H        0.593002        1.916171        3.211846
     17       H        3.135505        1.784698        1.428287
     18       H        1.802764        1.621905        2.930599
     19       H        4.604438        0.727109        0.881936
     20       H        1.268625        2.664948        2.059101
     21       H        2.115406        0.239992        7.097095

 **********************
 *                    *
 * JOB ENDED NORMALLY *
 *                    *
 **********************



 TOTAL JOB TIME:             2.27 SECONDS

 == MOPAC DONE ==
