 *******************************************************************************
 ** Site#: 14399        For non-commercial use only    Version 18.184L 64BITS **
 *******************************************************************************
 ** Cite this program as: MOPAC2016, Version: 18.184L, James J. P. Stewart,   **
 ** Stewart Computational Chemistry, web: HTTP://OpenMOPAC.net. Days left:  18**
 *******************************************************************************
 **                                                                           **
 **                                MOPAC2016                                  **
 **                                                                           **
 *******************************************************************************

                              PM3 CALCULATION RESULTS

 *******************************************************************************
 *  CALCULATION DONE:                                Sat Jun 15 15:06:53 2019  *
 *  PM3        - The PM3 Hamiltonian to be used
 *  PRECISE    - CRITERIA TO BE INCREASED BY 100 TIMES
 *  NOSYM      - POINT-GROUP SYMMETRY SET TO C1
 *  THREADS=1  - MULTI-THREADING NOT USED
 *  T=         - A TIME OF 172800.0 SECONDS REQUESTED
 *  DUMP=N     - RESTART FILE WRITTEN EVERY  7200.000 SECONDS
 *******************************************************************************
pm3  precise nosym THREADS=1
 InChI=1S/C6H8/c1-2-6-4-3-5-6/h2-4,6H,1,5H2

   ATOM   CHEMICAL          X               Y               Z
  NUMBER   SYMBOL      (ANGSTROMS)     (ANGSTROMS)     (ANGSTROMS)
 
     1       C         -0.02600000  *   0.40590000  *  -0.41730000  *
     2       C         -0.92130000  *   0.52370000  *   0.70110000  *
     3       C         -1.15730000  *  -0.12210000  *  -1.23920000  *
     4       C         -2.02760000  *   0.00110000  *  -0.15670000  *
     5       C          1.05590000  *  -0.62880000  *  -0.22590000  *
     6       C          2.34880000  *  -0.31010000  *  -0.32510000  *
     7       H          0.33840000  *   1.38800000  *  -0.79640000  *
     8       H         -1.10650000  *   1.57690000  *   1.00730000  *
     9       H         -0.71310000  *  -0.15670000  *   1.55780000  *
    10       H         -1.26130000  *  -0.45670000  *  -2.26580000  *
    11       H         -3.08160000  *  -0.20110000  *   0.00010000  *
    12       H          0.78300000  *  -1.65360000  *   0.01420000  *
    13       H          3.10780000  *  -1.07100000  *  -0.17510000  *
    14       H          2.66080000  *   0.70440000  *  -0.55380000  *
 


          CARTESIAN COORDINATES 

    NO.       ATOM           X           Y           Z

     1         C         -0.0260      0.4059     -0.4173
     2         C         -0.9213      0.5237      0.7011
     3         C         -1.1573     -0.1221     -1.2392
     4         C         -2.0276      0.0011     -0.1567
     5         C          1.0559     -0.6288     -0.2259
     6         C          2.3488     -0.3101     -0.3251
     7         H          0.3384      1.3880     -0.7964
     8         H         -1.1065      1.5769      1.0073
     9         H         -0.7131     -0.1567      1.5578
    10         H         -1.2613     -0.4567     -2.2658
    11         H         -3.0816     -0.2011      0.0001
    12         H          0.7830     -1.6536      0.0142
    13         H          3.1078     -1.0710     -0.1751
    14         H          2.6608      0.7044     -0.5538

  H: (PM3): J. J. P. STEWART, J. COMP. CHEM. 10, 209 (1989).
  C: (PM3): J. J. P. STEWART, J. COMP. CHEM. 10, 209 (1989).

           Empirical Formula: C6 H8  =    14 atoms



      MOLECULAR POINT GROUP   :   C1  


      RHF CALCULATION, NO. OF DOUBLY OCCUPIED LEVELS = 16


          Geometry optimization using EF

          DIAGONAL MATRIX USED AS START HESSIAN

 CYCLE:     1 TIME:   0.004 TIME LEFT:  2.00D  GRAD.:   217.221 HEAT:  69.04345
 CYCLE:     2 TIME:   0.004 TIME LEFT:  2.00D  GRAD.:    63.276 HEAT:  59.97461
 CYCLE:     3 TIME:   0.004 TIME LEFT:  2.00D  GRAD.:    63.430 HEAT:  59.03286
 CYCLE:     4 TIME:   0.004 TIME LEFT:  2.00D  GRAD.:    64.967 HEAT:  58.63361
 CYCLE:     5 TIME:   0.000 TIME LEFT:  2.00D  GRAD.:    45.789 HEAT:  57.84389
 CYCLE:     6 TIME:   0.004 TIME LEFT:  2.00D  GRAD.:    44.310 HEAT:  57.40009
 CYCLE:     7 TIME:   0.004 TIME LEFT:  2.00D  GRAD.:    29.524 HEAT:  56.97771
 CYCLE:     8 TIME:   0.004 TIME LEFT:  2.00D  GRAD.:    25.379 HEAT:  56.84725
 CYCLE:     9 TIME:   0.000 TIME LEFT:  2.00D  GRAD.:    18.221 HEAT:  56.73355
 CYCLE:    10 TIME:   0.004 TIME LEFT:  2.00D  GRAD.:    18.822 HEAT:  56.66508
 CYCLE:    11 TIME:   0.000 TIME LEFT:  2.00D  GRAD.:    14.211 HEAT:  56.60299
 CYCLE:    12 TIME:   0.004 TIME LEFT:  2.00D  GRAD.:     7.511 HEAT:  56.54932
 CYCLE:    13 TIME:   0.004 TIME LEFT:  2.00D  GRAD.:     6.272 HEAT:  56.52619
 CYCLE:    14 TIME:   0.004 TIME LEFT:  2.00D  GRAD.:     6.434 HEAT:  56.50984
 CYCLE:    15 TIME:   0.000 TIME LEFT:  2.00D  GRAD.:     4.625 HEAT:  56.49996
 CYCLE:    16 TIME:   0.004 TIME LEFT:  2.00D  GRAD.:     3.145 HEAT:  56.49153
 CYCLE:    17 TIME:   0.000 TIME LEFT:  2.00D  GRAD.:     3.794 HEAT:  56.48671
 CYCLE:    18 TIME:   0.004 TIME LEFT:  2.00D  GRAD.:     2.281 HEAT:  56.47770
 CYCLE:    19 TIME:   0.004 TIME LEFT:  2.00D  GRAD.:     2.314 HEAT:  56.47108
 CYCLE:    20 TIME:   0.000 TIME LEFT:  2.00D  GRAD.:     1.795 HEAT:  56.46824
 CYCLE:    21 TIME:   0.004 TIME LEFT:  2.00D  GRAD.:     1.302 HEAT:  56.46621
 CYCLE:    22 TIME:   0.000 TIME LEFT:  2.00D  GRAD.:     0.959 HEAT:  56.46479
 CYCLE:    23 TIME:   0.004 TIME LEFT:  2.00D  GRAD.:     0.878 HEAT:  56.46350
 CYCLE:    24 TIME:   0.000 TIME LEFT:  2.00D  GRAD.:     0.683 HEAT:  56.46231
 CYCLE:    25 TIME:   0.004 TIME LEFT:  2.00D  GRAD.:     0.589 HEAT:  56.46112
 CYCLE:    26 TIME:   0.004 TIME LEFT:  2.00D  GRAD.:     0.537 HEAT:  56.46045
 CYCLE:    27 TIME:   0.000 TIME LEFT:  2.00D  GRAD.:     0.541 HEAT:  56.45995
 CYCLE:    28 TIME:   0.004 TIME LEFT:  2.00D  GRAD.:     0.532 HEAT:  56.45941
 CYCLE:    29 TIME:   0.000 TIME LEFT:  2.00D  GRAD.:     0.644 HEAT:  56.45851
 CYCLE:    30 TIME:   0.004 TIME LEFT:  2.00D  GRAD.:     0.698 HEAT:  56.45731
 CYCLE:    31 TIME:   0.000 TIME LEFT:  2.00D  GRAD.:     0.499 HEAT:  56.45637
 CYCLE:    32 TIME:   0.004 TIME LEFT:  2.00D  GRAD.:     0.314 HEAT:  56.45591
 CYCLE:    33 TIME:   0.000 TIME LEFT:  2.00D  GRAD.:     0.256 HEAT:  56.45574
 CYCLE:    34 TIME:   0.004 TIME LEFT:  2.00D  GRAD.:     0.335 HEAT:  56.45529
 CYCLE:    35 TIME:   0.004 TIME LEFT:  2.00D  GRAD.:     0.426 HEAT:  56.45482
 CYCLE:    36 TIME:   0.000 TIME LEFT:  2.00D  GRAD.:     0.448 HEAT:  56.45408
 CYCLE:    37 TIME:   0.004 TIME LEFT:  2.00D  GRAD.:     0.341 HEAT:  56.45377
 CYCLE:    38 TIME:   0.004 TIME LEFT:  2.00D  GRAD.:     0.400 HEAT:  56.45327
 CYCLE:    39 TIME:   0.000 TIME LEFT:  2.00D  GRAD.:     0.338 HEAT:  56.45309
 CYCLE:    40 TIME:   0.004 TIME LEFT:  2.00D  GRAD.:     0.670 HEAT:  56.45215
 CYCLE:    41 TIME:   0.000 TIME LEFT:  2.00D  GRAD.:     0.438 HEAT:  56.45172
 CYCLE:    42 TIME:   0.004 TIME LEFT:  2.00D  GRAD.:     0.468 HEAT:  56.45072
 CYCLE:    43 TIME:   0.004 TIME LEFT:  2.00D  GRAD.:     0.679 HEAT:  56.44918
 CYCLE:    44 TIME:   0.000 TIME LEFT:  2.00D  GRAD.:     1.206 HEAT:  56.44577
 CYCLE:    45 TIME:   0.004 TIME LEFT:  2.00D  GRAD.:     2.331 HEAT:  56.44275
 CYCLE:    46 TIME:   0.000 TIME LEFT:  2.00D  GRAD.:     0.862 HEAT:  56.44012
 CYCLE:    47 TIME:   0.004 TIME LEFT:  2.00D  GRAD.:     0.718 HEAT:  56.43830
 CYCLE:    48 TIME:   0.000 TIME LEFT:  2.00D  GRAD.:     0.485 HEAT:  56.43762
 CYCLE:    49 TIME:   0.004 TIME LEFT:  2.00D  GRAD.:     0.627 HEAT:  56.43694
 CYCLE:    50 TIME:   0.004 TIME LEFT:  2.00D  GRAD.:     0.464 HEAT:  56.43610
 CYCLE:    51 TIME:   0.000 TIME LEFT:  2.00D  GRAD.:     0.598 HEAT:  56.43513
 CYCLE:    52 TIME:   0.004 TIME LEFT:  2.00D  GRAD.:     0.421 HEAT:  56.43480
 CYCLE:    53 TIME:   0.000 TIME LEFT:  2.00D  GRAD.:     0.420 HEAT:  56.43453
 CYCLE:    54 TIME:   0.004 TIME LEFT:  2.00D  GRAD.:     0.204 HEAT:  56.43434
 CYCLE:    55 TIME:   0.004 TIME LEFT:  2.00D  GRAD.:     0.145 HEAT:  56.43424
 CYCLE:    56 TIME:   0.000 TIME LEFT:  2.00D  GRAD.:     0.134 HEAT:  56.43416
 CYCLE:    57 TIME:   0.004 TIME LEFT:  2.00D  GRAD.:     0.116 HEAT:  56.43411
 CYCLE:    58 TIME:   0.000 TIME LEFT:  2.00D  GRAD.:     0.087 HEAT:  56.43409
 CYCLE:    59 TIME:   0.004 TIME LEFT:  2.00D  GRAD.:     0.185 HEAT:  56.43413
 CYCLE:    60 TIME:   0.004 TIME LEFT:  2.00D  GRAD.:     0.049 HEAT:  56.43408

     GRADIENT =  0.04948  IS LESS THAN CUTOFF =  0.05000



 -------------------------------------------------------------------------------
 pm3  precise nosym THREADS=1
 InChI=1S/C6H8/c1-2-6-4-3-5-6/h2-4,6H,1,5H2



     GEOMETRY OPTIMISED USING EIGENVECTOR FOLLOWING (EF).     
     SCF FIELD WAS ACHIEVED                                   


                              PM3 CALCULATION
                                                       MOPAC2016 (Version: 18.184L)
                                                       Sat Jun 15 15:06:53 2019
                                                       No. of days remaining =  18




          FINAL HEAT OF FORMATION =         56.43408 KCAL/MOL =     236.12020 KJ/MOL


          TOTAL ENERGY            =       -832.05671 EV
          ELECTRONIC ENERGY       =      -3422.69476 EV  POINT GROUP:     C1  
          CORE-CORE REPULSION     =       2590.63805 EV
          COSMO AREA              =        133.26 SQUARE ANGSTROMS
          COSMO VOLUME            =        121.86 CUBIC ANGSTROMS

          GRADIENT NORM           =          0.04948 = 0.01322 PER ATOM
          IONIZATION POTENTIAL    =          9.867420 EV
          HOMO LUMO ENERGIES (EV) =         -9.867  0.938
          NO. OF FILLED LEVELS    =         16
          MOLECULAR WEIGHT        =         80.1292

          MOLECULAR DIMENSIONS (Angstroms)

            Atom       Atom       Distance
            H    13    H    11     6.33367
            H    10    H     8     3.92180
            H    12    H     7     2.97019


          SCF CALCULATIONS        =         66
 
          WALL-CLOCK TIME         =          0.156 SECONDS
          COMPUTATION TIME        =          0.127 SECONDS




   ATOM   CHEMICAL          X               Y               Z
  NUMBER   SYMBOL      (ANGSTROMS)     (ANGSTROMS)     (ANGSTROMS)
 
     1       C          0.01982063  *   0.39641148  *  -0.40024860  *
     2       C         -1.02713191  *   0.51703694  *   0.77370725  *
     3       C         -1.15567149  *  -0.11747946  *  -1.22999327  *
     4       C         -2.04617226  *   0.00284473  *  -0.22576006  *
     5       C          1.09757542  *  -0.59426905  *  -0.17214019  *
     6       C          2.37653363  *  -0.33581920  *  -0.41934095  *
     7       H          0.41456892  *   1.37351983  *  -0.74814012  *
     8       H         -1.19958952  *   1.53674987  *   1.14469134  *
     9       H         -0.84292094  *  -0.13880849  *   1.63664379  *
    10       H         -1.18454180  *  -0.44426547  *  -2.26024603  *
    11       H         -3.10613612  *  -0.17590547  *  -0.10697414  *
    12       H          0.77935567  *  -1.56951650  *   0.21596227  *
    13       H          3.16309907  *  -1.06527621  *  -0.25218810  *
    14       H          2.72971404  *   0.61706671  *  -0.80459524  *

                             CARTESIAN COORDINATES

   1    C        0.019820626     0.396411481    -0.400248603
   2    C       -1.027131913     0.517036937     0.773707253
   3    C       -1.155671489    -0.117479464    -1.229993269
   4    C       -2.046172255     0.002844730    -0.225760058
   5    C        1.097575421    -0.594269046    -0.172140187
   6    C        2.376533631    -0.335819203    -0.419340946
   7    H        0.414568922     1.373519828    -0.748140124
   8    H       -1.199589524     1.536749871     1.144691340
   9    H       -0.842920940    -0.138808486     1.636643789
  10    H       -1.184541798    -0.444265473    -2.260246034
  11    H       -3.106136120    -0.175905466    -0.106974144
  12    H        0.779355673    -1.569516499     0.215962268
  13    H        3.163099071    -1.065276208    -0.252188102
  14    H        2.729714042     0.617066708    -0.804595242


           Empirical Formula: C6 H8  =    14 atoms



      MOLECULAR POINT GROUP   :   C1  


                  EIGENVALUES  
 -39.80754 -32.29655 -24.82609 -24.04210 -20.00494 -18.00537 -17.55300 -15.95794
 -15.18632 -14.48319 -13.40507 -12.46071 -12.13915 -11.83497 -10.24360  -9.86742
   0.93789   1.09682   3.25357   3.33615   3.49966   3.65831   3.86336   3.93284
   4.16425   4.37460   4.52464   4.79759   4.98196   5.56306   5.86012   6.14595


              NET ATOMIC CHARGES AND DIPOLE CONTRIBUTIONS

  ATOM NO.   TYPE          CHARGE      No. of ELECS.   s-Pop       p-Pop       
    1          C          -0.040830        4.0408     1.17741     2.86342
    2          C          -0.079551        4.0796     1.17160     2.90795
    3          C          -0.155756        4.1558     1.22032     2.93544
    4          C          -0.160418        4.1604     1.21829     2.94213
    5          C          -0.124937        4.1249     1.19086     2.93407
    6          C          -0.158124        4.1581     1.18299     2.97514
    7          H           0.079986        0.9200     0.92001
    8          H           0.062187        0.9378     0.93781
    9          H           0.065751        0.9342     0.93425
   10          H           0.126443        0.8736     0.87356
   11          H           0.124568        0.8754     0.87543
   12          H           0.100685        0.8993     0.89931
   13          H           0.078955        0.9210     0.92104
   14          H           0.081039        0.9190     0.91896
 DIPOLE           X         Y         Z       TOTAL
 POINT-CHG.    -0.038     0.067     0.129     0.150
 HYBRID        -0.016    -0.025    -0.028     0.041
 SUM           -0.054     0.042     0.101     0.122


          ATOMIC ORBITAL ELECTRON POPULATIONS

     Atom    s        px        py        pz   
    1  C   1.17741   0.92994   0.97554   0.95794
    2  C   1.17160   0.94671   1.00595   0.95529
    3  C   1.22032   0.95564   1.00468   0.97512
    4  C   1.21829   0.97514   1.00178   0.96522
    5  C   1.19086   0.94989   0.98647   0.99771
    6  C   1.18299   0.95954   1.00936   1.00623
    7  H   0.92001
    8  H   0.93781
    9  H   0.93425
   10  H   0.87356
   11  H   0.87543
   12  H   0.89931
   13  H   0.92104
   14  H   0.91896
 *******************************************************************************
 ** Site#: 14399        For non-commercial use only    Version 18.184L 64BITS **
 *******************************************************************************
 ** Cite this program as: MOPAC2016, Version: 18.184L, James J. P. Stewart,   **
 ** Stewart Computational Chemistry, web: HTTP://OpenMOPAC.net. Days left:  18**
 *******************************************************************************
 **                                                                           **
 **                                MOPAC2016                                  **
 **                                                                           **
 *******************************************************************************

                              PM3 CALCULATION RESULTS

 *******************************************************************************
 *  CALCULATION DONE:                                Sat Jun 15 15:06:53 2019  *
 *  PM3        - The PM3 Hamiltonian to be used
 *  OLDGEO     - PREVIOUS GEOMETRY TO BE USED
 *  PRECISE    - CRITERIA TO BE INCREASED BY 100 TIMES
 *  NOSYM      - POINT-GROUP SYMMETRY SET TO C1
 *  THREADS=1  - MULTI-THREADING NOT USED
 *  T=         - A TIME OF 172800.0 SECONDS REQUESTED
 *  DUMP=N     - RESTART FILE WRITTEN EVERY  7200.000 SECONDS
 *  THERMO     - THERMODYNAMIC QUANTITIES TO BE CALCULATED
 *******************************************************************************
oldgeo thermo nosym precise THREADS=1  pm3
 InChI=1S/C6H8/c1-2-6-4-3-5-6/h2-4,6H,1,5H2

   ATOM   CHEMICAL          X               Y               Z
  NUMBER   SYMBOL      (ANGSTROMS)     (ANGSTROMS)     (ANGSTROMS)
 
     1       C          0.01982063  *   0.39641148  *  -0.40024860  *
     2       C         -1.02713191  *   0.51703694  *   0.77370725  *
     3       C         -1.15567149  *  -0.11747946  *  -1.22999327  *
     4       C         -2.04617226  *   0.00284473  *  -0.22576006  *
     5       C          1.09757542  *  -0.59426905  *  -0.17214019  *
     6       C          2.37653363  *  -0.33581920  *  -0.41934095  *
     7       H          0.41456892  *   1.37351983  *  -0.74814012  *
     8       H         -1.19958952  *   1.53674987  *   1.14469134  *
     9       H         -0.84292094  *  -0.13880849  *   1.63664379  *
    10       H         -1.18454180  *  -0.44426547  *  -2.26024603  *
    11       H         -3.10613612  *  -0.17590547  *  -0.10697414  *
    12       H          0.77935567  *  -1.56951650  *   0.21596227  *
    13       H          3.16309907  *  -1.06527621  *  -0.25218810  *
    14       H          2.72971404  *   0.61706671  *  -0.80459524  *
 


          CARTESIAN COORDINATES 

    NO.       ATOM           X           Y           Z

     1         C          0.0198      0.3964     -0.4002
     2         C         -1.0271      0.5170      0.7737
     3         C         -1.1557     -0.1175     -1.2300
     4         C         -2.0462      0.0028     -0.2258
     5         C          1.0976     -0.5943     -0.1721
     6         C          2.3765     -0.3358     -0.4193
     7         H          0.4146      1.3735     -0.7481
     8         H         -1.1996      1.5367      1.1447
     9         H         -0.8429     -0.1388      1.6366
    10         H         -1.1845     -0.4443     -2.2602
    11         H         -3.1061     -0.1759     -0.1070
    12         H          0.7794     -1.5695      0.2160
    13         H          3.1631     -1.0653     -0.2522
    14         H          2.7297      0.6171     -0.8046

  H: (PM3): J. J. P. STEWART, J. COMP. CHEM. 10, 209 (1989).
  C: (PM3): J. J. P. STEWART, J. COMP. CHEM. 10, 209 (1989).

           Empirical Formula: C6 H8  =    14 atoms



      MOLECULAR POINT GROUP   :   C1  


      RHF CALCULATION, NO. OF DOUBLY OCCUPIED LEVELS = 16



          HEAT OF FORMATION =      56.434083 KCALS/MOLE


          CARTESIAN COORDINATE DERIVATIVES

   NUMBER  ATOM         X            Y            Z

     1       C      0.001613     0.001132    -0.006787
     2       C      0.001841     0.005166    -0.013119
     3       C      0.005212     0.008391    -0.000171
     4       C     -0.004601     0.006571    -0.007823
     5       C      0.011773    -0.005702     0.001076
     6       C      0.004967     0.002570     0.001480
     7       H     -0.004096    -0.007356    -0.000112
     8       H      0.007777     0.007114     0.008429
     9       H     -0.022197    -0.014497     0.014915
    10       H      0.004839     0.004820     0.002096
    11       H      0.005128     0.007332    -0.006753
    12       H     -0.010216    -0.015277    -0.004024
    13       H      0.000085    -0.000671     0.002865
    14       H     -0.002127     0.000407     0.007929
 


          GRADIENT NORM =   0.04966


          TIME FOR SCF CALCULATION =    0.00

          TIME FOR DERIVATIVES     =    0.00

          MOLECULAR WEIGHT =   80.13



          ROTATIONAL CONSTANTS IN CM(-1)

          A =    0.33298765   B =    0.08045629   C =    0.07222374



           PRINCIPAL MOMENTS OF INERTIA IN UNITS OF 10**(-40)*GRAM-CM**2

          A =       84.0655   B =      347.9252   C =      387.5841


          ORIENTATION OF MOLECULE IN FORCE CALCULATION

    NO.       ATOM         X         Y         Z

     1          C      -0.1484   -0.1475   -0.4007
     2          C       1.4292   -0.1475   -0.4007
     3          C      -0.0251    1.3753   -0.4007
     4          C       1.3224    1.3658   -0.4157
     5          C      -0.7697   -0.7191    0.8168
     6          C      -1.7826   -1.5768    0.7728
     7          H      -0.5946   -0.5563   -1.3310
     8          H       1.8976   -0.5986   -1.2863
     9          H       1.8989   -0.5766    0.4959
    10          H      -0.7976    2.1318   -0.3924
    11          H       2.1005    2.1165   -0.4368
    12          H      -0.3443   -0.3903    1.7728
    13          H      -2.2360   -1.9921    1.6676
    14          H      -2.2308   -1.9247   -0.1541


    FIRST DERIVATIVES WILL BE USED IN THE CALCULATION OF SECOND DERIVATIVES

          ESTIMATED TIME TO COMPLETE CALCULATION =        0.66 SECONDS

    FOR POINT-GROUP C1   THERE ARE   1 UNIQUE SYMMETRY FUNCTIONS.

 STEP:   1 TIME =     0.01 SECS, INTEGRAL =      0.01 TIME LEFT: 172799.99
 STEP:   2 TIME =     0.01 SECS, INTEGRAL =      0.02 TIME LEFT: 172799.98
 STEP:   3 TIME =     0.01 SECS, INTEGRAL =      0.02 TIME LEFT: 172799.97
 STEP:   4 TIME =     0.01 SECS, INTEGRAL =      0.03 TIME LEFT: 172799.96
 STEP:   5 TIME =     0.01 SECS, INTEGRAL =      0.04 TIME LEFT: 172799.96
 STEP:   6 TIME =     0.01 SECS, INTEGRAL =      0.05 TIME LEFT: 172799.95
 STEP:   7 TIME =     0.01 SECS, INTEGRAL =      0.05 TIME LEFT: 172799.94
 STEP:   8 TIME =     0.01 SECS, INTEGRAL =      0.06 TIME LEFT: 172799.93
 STEP:   9 TIME =     0.01 SECS, INTEGRAL =      0.07 TIME LEFT: 172799.92
 STEP:  10 TIME =     0.01 SECS, INTEGRAL =      0.08 TIME LEFT: 172799.91
 STEP:  11 TIME =     0.01 SECS, INTEGRAL =      0.09 TIME LEFT: 172799.91
 STEP:  12 TIME =     0.01 SECS, INTEGRAL =      0.10 TIME LEFT: 172799.90
 STEP:  13 TIME =     0.01 SECS, INTEGRAL =      0.11 TIME LEFT: 172799.89
 STEP:  14 TIME =     0.01 SECS, INTEGRAL =      0.12 TIME LEFT: 172799.88
 STEP:  15 TIME =     0.01 SECS, INTEGRAL =      0.12 TIME LEFT: 172799.87
 STEP:  16 TIME =     0.01 SECS, INTEGRAL =      0.13 TIME LEFT: 172799.86
 STEP:  17 TIME =     0.01 SECS, INTEGRAL =      0.14 TIME LEFT: 172799.86
 STEP:  18 TIME =     0.01 SECS, INTEGRAL =      0.15 TIME LEFT: 172799.85
 STEP:  19 TIME =     0.01 SECS, INTEGRAL =      0.16 TIME LEFT: 172799.84
 STEP:  20 TIME =     0.01 SECS, INTEGRAL =      0.16 TIME LEFT: 172799.83
 STEP:  21 TIME =     0.01 SECS, INTEGRAL =      0.17 TIME LEFT: 172799.82
 STEP:  22 TIME =     0.01 SECS, INTEGRAL =      0.18 TIME LEFT: 172799.81
 STEP:  23 TIME =     0.01 SECS, INTEGRAL =      0.19 TIME LEFT: 172799.80
 STEP:  24 TIME =     0.01 SECS, INTEGRAL =      0.20 TIME LEFT: 172799.80
 STEP:  25 TIME =     0.01 SECS, INTEGRAL =      0.21 TIME LEFT: 172799.79
 STEP:  26 TIME =     0.01 SECS, INTEGRAL =      0.21 TIME LEFT: 172799.78
 STEP:  27 TIME =     0.01 SECS, INTEGRAL =      0.22 TIME LEFT: 172799.77
 STEP:  28 TIME =     0.01 SECS, INTEGRAL =      0.23 TIME LEFT: 172799.77
 STEP:  29 TIME =     0.01 SECS, INTEGRAL =      0.24 TIME LEFT: 172799.76
 STEP:  30 TIME =     0.01 SECS, INTEGRAL =      0.25 TIME LEFT: 172799.75
 STEP:  31 TIME =     0.01 SECS, INTEGRAL =      0.26 TIME LEFT: 172799.74
 STEP:  32 TIME =     0.01 SECS, INTEGRAL =      0.27 TIME LEFT: 172799.73
 STEP:  33 TIME =     0.01 SECS, INTEGRAL =      0.27 TIME LEFT: 172799.72
 STEP:  34 TIME =     0.01 SECS, INTEGRAL =      0.28 TIME LEFT: 172799.71
 STEP:  35 TIME =     0.01 SECS, INTEGRAL =      0.29 TIME LEFT: 172799.71
 STEP:  36 TIME =     0.01 SECS, INTEGRAL =      0.30 TIME LEFT: 172799.70
 STEP:  37 TIME =     0.01 SECS, INTEGRAL =      0.31 TIME LEFT: 172799.69
 STEP:  38 TIME =     0.01 SECS, INTEGRAL =      0.32 TIME LEFT: 172799.68
 STEP:  39 TIME =     0.01 SECS, INTEGRAL =      0.32 TIME LEFT: 172799.67
 STEP:  40 TIME =     0.01 SECS, INTEGRAL =      0.33 TIME LEFT: 172799.66
 STEP:  41 TIME =     0.01 SECS, INTEGRAL =      0.34 TIME LEFT: 172799.66
 STEP:  42 TIME =     0.01 SECS, INTEGRAL =      0.35 TIME LEFT: 172799.65

(To convert to Hartree/Bohr^2, multiply by (10^(-21) x N x a0^2)/(4.184 x 627.51) =  0.0642)


           FORCE MATRIX IN MILLIDYNES/ANGSTROM


                  C  1       C  2       C  3       C  4       C  5       C  6
 ------------------------------------------------------------------------------
     C    1  14.792832
     C    2   2.790502  14.247064
     C    3   3.794475   2.266166  18.287446
     C    4   2.230203   4.162292  10.346845  18.416469
     C    5   5.115194   0.543691   0.600290   0.056902  18.334377
     C    6   0.868437   0.037373   0.034502   0.008073  11.060629  18.033260
     H    7   4.429723   0.410914   0.412733   0.042951   0.450794   0.048388
     H    8   0.426292   4.724007   0.040130   0.434942   0.026708   0.004185
     H    9   0.432795   4.702563   0.040839   0.435129   0.025281   0.002460
     H   10   0.339487   0.112940   5.289049   0.422205   0.012759   0.002784
     H   11   0.114980   0.341186   0.423627   5.280742   0.019058   0.002339
     H   12   0.438121   0.017871   0.010843   0.004376   4.794937   0.452961
     H   13   0.139085   0.015172   0.017955   0.002573   0.460917   5.107169
     H   14   0.100122   0.009040   0.010736   0.001772   0.490279   5.069371


                  H  7       H  8       H  9       H 10       H 11       H 12
 ------------------------------------------------------------------------------
     H    7   4.938022
     H    8   0.026157   5.339191
     H    9   0.023793   0.529344   5.321165
     H   10   0.005351   0.014880   0.015035   5.671493
     H   11   0.013942   0.005778   0.005853   0.030301   5.665131
     H   12   0.037152   0.001434   0.016488   0.002993   0.001434   5.160878
     H   13   0.002135   0.001800   0.000817   0.000603   0.000949   0.078647
     H   14   0.028930   0.001265   0.000593   0.001195   0.000510   0.117023


                  H 13       H 14
 ------------------------------
     H   13   5.494133
     H   14   0.422441   5.465226


          HEAT OF FORMATION =      56.434083 KCALS/MOLE

          ZERO POINT ENERGY      74.874 KCAL/MOL


           NORMAL COORDINATE ANALYSIS (Total motion = 1 Angstrom)


   Root No.       1         2         3         4         5         6         7         8

                 1 A       2 A       3 A       4 A       5 A       6 A       7 A       8 A   

                  81.0     208.2     327.8     406.8     480.2     648.2     761.3     846.3
  
           1    0.0282   -0.0060    0.0259   -0.0090   -0.0066   -0.0044   -0.0106    0.0322
           2   -0.0313   -0.0125   -0.0288   -0.0019   -0.0068    0.0081   -0.0078    0.0228
           3   -0.0000   -0.0564    0.0085    0.0270   -0.0355    0.0023   -0.0077    0.0363
           4    0.0277   -0.0053    0.0273   -0.0188   -0.0188   -0.0292   -0.0045    0.0082
           5    0.0203   -0.0081    0.0047   -0.0161   -0.0223    0.0010    0.0128   -0.0264
           6   -0.0027   -0.0165   -0.0377   -0.0112    0.0283    0.0041   -0.0162    0.0117
           7   -0.0217   -0.0105   -0.0075   -0.0155   -0.0236    0.0020    0.0125   -0.0269
           8   -0.0269   -0.0117   -0.0284   -0.0070   -0.0125    0.0267   -0.0009    0.0258
           9    0.0022   -0.0227    0.0349   -0.0314    0.0443   -0.0056   -0.0298   -0.0109
          10   -0.0215   -0.0095   -0.0083   -0.0146   -0.0241    0.0023    0.0125   -0.0265
          11    0.0171   -0.0074    0.0040   -0.0142   -0.0211    0.0037    0.0105   -0.0223
          12    0.0011    0.0792   -0.0014    0.0219   -0.0181    0.0029   -0.0228   -0.0154
          13    0.0361    0.0126   -0.0252    0.0293    0.0346    0.0469   -0.0021    0.0034
          14   -0.0422    0.0213    0.0309    0.0197    0.0261   -0.0561   -0.0073    0.0040
          15   -0.0010   -0.0299    0.0105    0.0566   -0.0148   -0.0004    0.0213   -0.0249
          16   -0.0467    0.0162   -0.0066    0.0303    0.0361   -0.0038   -0.0068    0.0061
          17    0.0555    0.0157    0.0094    0.0244    0.0329    0.0034   -0.0065    0.0054
          18    0.0007    0.0385   -0.0094   -0.0438   -0.0184    0.0007    0.0068   -0.0190
          19    0.0410   -0.0049    0.0272   -0.0364   -0.0028   -0.0329   -0.0223    0.0646
          20   -0.0449   -0.0243   -0.0376   -0.0343    0.0108    0.0403   -0.0406    0.0034
          21   -0.0003   -0.0490    0.0114    0.0525   -0.0434    0.0016    0.0133    0.0272
          22    0.0407    0.0142    0.0050   -0.0566    0.0472   -0.0263    0.0324   -0.0938
          23    0.0385    0.0611    0.0408    0.0159   -0.0870   -0.0094   -0.0669   -0.0650
          24   -0.0051   -0.0419   -0.0688   -0.0491    0.0992    0.0110    0.0478   -0.0266
          25    0.0444   -0.0220    0.0685    0.0128   -0.0867   -0.0455   -0.0392    0.1086
          26    0.0332   -0.0756   -0.0080   -0.0570    0.0364   -0.0074    0.1008   -0.0104
          27   -0.0052   -0.0404   -0.0669   -0.0485    0.0961    0.0100    0.0475   -0.0346
          28   -0.0466   -0.0139   -0.0277   -0.0162   -0.0281    0.0169    0.0245   -0.0305
          29   -0.0524   -0.0148   -0.0496   -0.0071   -0.0185    0.0425    0.0087    0.0222
          30    0.0052   -0.0537    0.0867   -0.0968    0.1532   -0.0667    0.2100    0.0543
          31   -0.0460   -0.0103   -0.0286   -0.0103   -0.0234    0.0248    0.0189   -0.0094
          32    0.0425   -0.0036    0.0248   -0.0178   -0.0236   -0.0199    0.0129   -0.0371
          33    0.0021    0.1878   -0.0042    0.0623   -0.0559   -0.0109    0.2784    0.1341
          34    0.1072    0.0312   -0.1172    0.0271    0.0466   -0.0143   -0.0013   -0.0177
          35   -0.1281    0.0636    0.1307   -0.0096    0.0512    0.0117   -0.0136   -0.0348
          36   -0.0030   -0.0518    0.0164    0.0650   -0.0288    0.0035    0.0224   -0.0010
          37   -0.0501    0.0461   -0.0922   -0.0273    0.0216   -0.2340   -0.0529    0.0890
          38    0.0576    0.0574    0.0862   -0.0509    0.0394    0.2739   -0.0207    0.0823
          39   -0.0001    0.0731   -0.0174   -0.1099   -0.0242    0.0096   -0.0235    0.0608
          40   -0.1177   -0.0093    0.0966    0.0863    0.0525    0.1463    0.0288   -0.0688
          41    0.1415   -0.0305   -0.0887    0.1032    0.0350   -0.1738    0.0107   -0.0722
          42    0.0027    0.0687   -0.0228   -0.1025   -0.0272   -0.0054   -0.0183    0.0497


   Root No.       9        10        11        12        13        14        15        16

                 9 A      10 A      11 A      12 A      13 A      14 A      15 A      16 A   

                 896.7     911.4     930.3     965.4     978.7     993.7    1023.0    1031.9
  
           1    0.0141   -0.0158    0.0146    0.0265    0.0124   -0.0461   -0.0071   -0.0023
           2   -0.0212    0.0158   -0.0036   -0.0184   -0.0120   -0.0213   -0.0054   -0.0082
           3   -0.0002   -0.0095   -0.0048   -0.0103    0.0059   -0.0072   -0.0003   -0.0024
           4   -0.0506    0.0427    0.0045   -0.0229   -0.0079    0.0014   -0.0038   -0.0001
           5    0.0098   -0.0030   -0.0029    0.0019    0.0063    0.0358    0.0119   -0.0081
           6    0.0308    0.0125   -0.0044   -0.0053   -0.0324    0.0165    0.0330    0.0044
           7    0.0143   -0.0170   -0.0139   -0.0054   -0.0054    0.0054    0.0007    0.0038
           8   -0.0005    0.0195    0.0356    0.0281    0.0183   -0.0154   -0.0057    0.0017
           9   -0.0289   -0.0261   -0.0041    0.0230   -0.0004    0.0135    0.0294    0.0021
          10    0.0168   -0.0180   -0.0150   -0.0052   -0.0051    0.0041    0.0008   -0.0023
          11    0.0256   -0.0325   -0.0169   -0.0007   -0.0079   -0.0234   -0.0069    0.0045
          12    0.0068    0.0077    0.0010   -0.0054    0.0141   -0.0004   -0.0618   -0.0023
          13    0.0038   -0.0112    0.0214   -0.0120   -0.0019    0.0051    0.0037    0.0189
          14   -0.0010    0.0067   -0.0318    0.0080    0.0056    0.0019   -0.0025   -0.0215
          15   -0.0042    0.0063    0.0025   -0.0072    0.0159    0.0000    0.0014    0.0002
          16    0.0034   -0.0061    0.0010   -0.0103   -0.0035    0.0110   -0.0042   -0.0287
          17    0.0017   -0.0040   -0.0124    0.0029    0.0073    0.0015    0.0099    0.0352
          18   -0.0060    0.0147    0.0132    0.0231   -0.0212   -0.0200   -0.0039   -0.0014
          19    0.0782    0.0198    0.0551    0.1349    0.0091   -0.0250   -0.0146    0.0068
          20   -0.1262    0.0043   -0.0242   -0.0852   -0.1023   -0.0964    0.0296   -0.0328
          21    0.0132   -0.0196   -0.0143   -0.0340    0.0493    0.0160   -0.0111    0.0040
          22   -0.1214    0.0877    0.0533   -0.0516    0.1484   -0.0718    0.0911   -0.0364
          23    0.0996    0.1053    0.0317   -0.0400    0.0299    0.0489    0.2413   -0.0343
          24   -0.0583   -0.0211    0.0027   -0.0015    0.0417   -0.0293   -0.0363   -0.0020
          25   -0.0170    0.0530   -0.0067    0.0364   -0.1185    0.1622   -0.0587   -0.0109
          26   -0.1178   -0.0621   -0.0093    0.0622    0.0300    0.1565   -0.1612   -0.0395
          27   -0.0523   -0.0234   -0.0006   -0.0065    0.0422   -0.0141   -0.0247   -0.0053
          28   -0.0109    0.0535    0.0362   -0.0057    0.0204    0.1219   -0.0155    0.1225
          29   -0.0298    0.0908    0.0870    0.0287    0.0447    0.1027   -0.0215    0.1227
          30    0.2060    0.1420    0.0182   -0.0859   -0.0060   -0.0300   -0.0847   -0.0047
          31    0.0508   -0.0202    0.0292    0.0772    0.0567    0.0402    0.0599   -0.1280
          32   -0.0125   -0.0325   -0.0630   -0.0850   -0.0737   -0.0602   -0.0616    0.1348
          33   -0.1071   -0.0783   -0.0100    0.0337   -0.0477    0.0039    0.1743    0.0051
          34   -0.0047    0.0902   -0.1805    0.0883   -0.0295    0.0184   -0.0032   -0.0454
          35    0.0042   -0.0850    0.2243   -0.0404   -0.0740    0.0323    0.0109    0.0617
          36   -0.0021   -0.0077    0.0037   -0.0354    0.0559   -0.0167    0.0000    0.0001
          37    0.0267   -0.0759   -0.0455   -0.0470    0.0953    0.0363    0.0421    0.1244
          38    0.0131   -0.0242   -0.0439   -0.1003    0.0294    0.0719   -0.0191   -0.1343
          39    0.0113   -0.0309   -0.0255   -0.0451    0.0415    0.0252    0.0059   -0.0024
          40   -0.0236    0.0932   -0.0931    0.1159   -0.0447   -0.0547    0.0174    0.0945
          41   -0.0020   -0.0253    0.1785    0.0003   -0.0953   -0.0076   -0.0336   -0.1212
          42    0.0090   -0.0272   -0.0144   -0.0394    0.0395    0.0164    0.0025   -0.0022


   Root No.      17        18        19        20        21        22        23        24

                17 A      18 A      19 A      20 A      21 A      22 A      23 A      24 A   

                1033.9    1142.6    1180.7    1190.8    1206.9    1215.2    1291.4    1314.5
  
           1    0.0027    0.0578    0.0046    0.0031   -0.0096   -0.0174   -0.0271   -0.0196
           2   -0.0050   -0.0568   -0.0172    0.0272    0.0077   -0.0234    0.0218   -0.0399
           3   -0.0028    0.0030    0.0266    0.0546   -0.0031   -0.0297    0.0126    0.0144
           4   -0.0025   -0.0410    0.0082   -0.0249   -0.0368    0.0156   -0.0079    0.0136
           5   -0.0108   -0.0148   -0.0192    0.0257   -0.0335   -0.0109   -0.0649    0.0142
           6   -0.0017    0.0065   -0.0006   -0.0241   -0.0009    0.0028   -0.0036   -0.0035
           7    0.0035    0.0011    0.0032   -0.0031    0.0235    0.0010   -0.0050    0.0073
           8    0.0042    0.0028    0.0298   -0.0485    0.0302    0.0243   -0.0336    0.0333
           9    0.0171   -0.0128   -0.0002   -0.0141    0.0009   -0.0003   -0.0004   -0.0034
          10   -0.0016   -0.0148   -0.0021    0.0039    0.0157   -0.0019   -0.0118    0.0037
          11    0.0071    0.0101    0.0161   -0.0274   -0.0256    0.0220    0.0760   -0.0087
          12   -0.0136    0.0020    0.0004    0.0077    0.0000   -0.0014    0.0003    0.0013
          13   -0.0141   -0.0147   -0.0066   -0.0049    0.0031   -0.0038   -0.0010   -0.0233
          14    0.0170    0.0166   -0.0019   -0.0067   -0.0040   -0.0043   -0.0084   -0.0164
          15    0.0022    0.0018   -0.0110   -0.0086    0.0061    0.0693   -0.0113   -0.0083
          16    0.0212    0.0075   -0.0121   -0.0036   -0.0012   -0.0121    0.0015   -0.0045
          17   -0.0244   -0.0065   -0.0113   -0.0016    0.0009   -0.0098    0.0035   -0.0047
          18   -0.0020    0.0006   -0.0132   -0.0039   -0.0018   -0.0297    0.0034    0.0011
          19    0.0781   -0.1519   -0.1900    0.2002    0.0735    0.1390    0.0641   -0.0041
          20   -0.1095    0.2662   -0.1076    0.0991   -0.0381    0.1137   -0.0369    0.0244
          21    0.0072   -0.0396    0.1648   -0.0732   -0.0230   -0.1656   -0.0078   -0.0220
          22    0.0044    0.0350    0.0644    0.0343    0.1221   -0.0134    0.1476   -0.0072
          23   -0.0148    0.0929   -0.0020    0.0518    0.1517   -0.0668    0.0142   -0.0374
          24    0.0031   -0.0081    0.0214   -0.0029   -0.0110    0.0123    0.0367    0.0108
          25   -0.0664    0.0561    0.0058   -0.1098    0.1244    0.0357    0.1259   -0.0271
          26   -0.0845    0.0855   -0.0249    0.0488    0.1547   -0.0534    0.0128   -0.0390
          27   -0.0030    0.0043    0.0016    0.0314    0.0033   -0.0277   -0.0353   -0.0062
          28    0.1012    0.1273   -0.0396    0.0716   -0.1113   -0.0338    0.0797   -0.0505
          29    0.1045    0.1286   -0.0123    0.0239   -0.1085   -0.0090    0.0549   -0.0246
          30   -0.0483    0.0205    0.0069    0.0181   -0.0004   -0.0021   -0.0002    0.0044
          31   -0.1185   -0.0193    0.0035   -0.0226   -0.1382    0.0301    0.1167   -0.0222
          32    0.1295    0.0124    0.0119   -0.0033    0.1332   -0.0086   -0.0551    0.0202
          33    0.0374   -0.0026   -0.0001    0.0020   -0.0004   -0.0010   -0.0004    0.0004
          34    0.0415    0.0202    0.2552    0.1323   -0.0108    0.1125   -0.0277   -0.0176
          35   -0.0589   -0.0450    0.2113    0.1199    0.0026    0.0907   -0.0070   -0.0202
          36    0.0037    0.0078   -0.1988   -0.1103    0.0101   -0.0107   -0.0011   -0.0117
          37   -0.0789   -0.0018   -0.0128    0.0242    0.0060    0.0457    0.0417    0.1956
          38    0.1002    0.0124   -0.0101    0.0212    0.0036    0.0380    0.0376    0.1581
          39    0.0053    0.0045   -0.0141    0.0183    0.0034    0.0251    0.0356    0.1632
          40   -0.0709   -0.0166   -0.0303    0.0199   -0.0034   -0.0955    0.0634    0.2055
          41    0.0761    0.0273   -0.0213    0.0119   -0.0081   -0.0800    0.0464    0.1825
          42    0.0048    0.0002   -0.0047   -0.0190    0.0030    0.0380   -0.0395   -0.1582


   Root No.      25        26        27        28        29        30        31        32

                25 A      26 A      27 A      28 A      29 A      30 A      31 A      32 A   

                1400.5    1422.8    1774.0    1863.4    2957.2    3043.1    3049.9    3105.1
  
           1   -0.0202    0.0579   -0.0034   -0.0239   -0.0270   -0.0013   -0.0011    0.0010
           2   -0.0273    0.0636   -0.0196   -0.0235   -0.0250   -0.0012   -0.0009   -0.0004
           3    0.0279   -0.0557    0.0036    0.0273   -0.0559   -0.0024   -0.0024   -0.0001
           4   -0.0295   -0.0345    0.0014   -0.0009   -0.0009   -0.0001   -0.0017    0.0305
           5    0.0434    0.0249   -0.0194   -0.0027   -0.0004    0.0003    0.0008   -0.0290
           6   -0.0047    0.0091    0.0001    0.0000    0.0040    0.0018   -0.0581   -0.0029
           7    0.0041   -0.0129   -0.1978   -0.0131   -0.0008    0.0000   -0.0000    0.0000
           8    0.0070   -0.0316    0.0024    0.0000   -0.0007    0.0001   -0.0000   -0.0002
           9   -0.0036    0.0067    0.0021    0.0011   -0.0002   -0.0002   -0.0004   -0.0000
          10    0.0079    0.0057    0.1986    0.0138    0.0007    0.0000   -0.0000    0.0006
          11   -0.0128   -0.0215   -0.0002    0.0023    0.0004    0.0000    0.0000   -0.0006
          12    0.0015   -0.0028   -0.0023    0.0003   -0.0003   -0.0000   -0.0003   -0.0000
          13    0.0051   -0.0088   -0.0122    0.1684    0.0011   -0.0288   -0.0010   -0.0002
          14    0.0069   -0.0098   -0.0070    0.1445    0.0008   -0.0225   -0.0005   -0.0002
          15   -0.0234    0.0426   -0.0013   -0.0350    0.0028   -0.0565   -0.0010   -0.0003
          16    0.0152   -0.0301    0.0127   -0.1451   -0.0001    0.0013    0.0000    0.0001
          17    0.0124   -0.0251    0.0103   -0.1229   -0.0001    0.0009    0.0000    0.0000
          18    0.0040   -0.0056    0.0001   -0.0027   -0.0006    0.0050    0.0001    0.0001
          19    0.0210   -0.0769   -0.0192    0.0306    0.3306    0.0111    0.0171    0.0011
          20    0.0379   -0.0563    0.0213    0.0278    0.3017    0.0104    0.0115   -0.0000
          21   -0.0211    0.0624   -0.0145   -0.0198    0.6769    0.0310    0.0257    0.0008
          22    0.1752    0.0556    0.0151    0.0059    0.0079    0.0078   -0.1852   -0.1965
          23   -0.1484   -0.0515    0.0289    0.0032   -0.0129   -0.0076    0.1771    0.1887
          24    0.1829    0.0847   -0.0223    0.0022   -0.0234   -0.0144    0.3288    0.4053
          25    0.1483    0.1147    0.0138   -0.0035   -0.0099   -0.0039    0.2064   -0.1760
          26   -0.1566   -0.0484    0.0288   -0.0004    0.0126    0.0046   -0.1869    0.1587
          27   -0.1752   -0.0951    0.0216    0.0042   -0.0256   -0.0099    0.3741   -0.3699
          28   -0.0135    0.0291   -0.1056   -0.0068   -0.0005   -0.0001    0.0004   -0.0130
          29   -0.0123    0.0089    0.1616    0.0115    0.0005    0.0001   -0.0004    0.0128
          30    0.0045   -0.0083   -0.0004    0.0005   -0.0009   -0.0001   -0.0004    0.0001
          31   -0.0184   -0.0168    0.1056    0.0100    0.0052    0.0004    0.0004    0.0010
          32    0.0153   -0.0022    0.1616    0.0126    0.0051    0.0003    0.0003    0.0009
          33    0.0019   -0.0031   -0.0018   -0.0004   -0.0007    0.0001   -0.0009   -0.0001
          34   -0.0263    0.0406   -0.0018    0.0015   -0.0169    0.2961    0.0048    0.0022
          35   -0.0216    0.0379   -0.0039   -0.0044   -0.0136    0.2294    0.0043    0.0012
          36   -0.0017    0.0072   -0.0099    0.1309   -0.0304    0.6764    0.0136    0.0039
          37   -0.0477    0.0749    0.0014   -0.0210    0.0010    0.0288    0.0008    0.0002
          38   -0.0403    0.0613   -0.0007   -0.0232    0.0009    0.0267    0.0007    0.0001
          39   -0.0508    0.0862   -0.0133    0.1399   -0.0013   -0.0658   -0.0018   -0.0004
          40   -0.0324    0.0497   -0.0017   -0.0067    0.0037    0.0044    0.0007   -0.0006
          41   -0.0265    0.0434    0.0005   -0.0003    0.0029    0.0036    0.0006   -0.0004
          42    0.0393   -0.0669    0.0128   -0.1495    0.0040    0.0054    0.0013   -0.0012


   Root No.      33        34        35        36

                33 A      34 A      35 A      36 A   

                3134.6    3146.8    3195.0    3215.4
  
           1   -0.0002   -0.0005    0.0005   -0.0013
           2   -0.0002   -0.0005    0.0006   -0.0015
           3    0.0005   -0.0003    0.0002   -0.0001
           4    0.0001    0.0000    0.0008    0.0018
           5   -0.0001    0.0000   -0.0007   -0.0021
           6    0.0001   -0.0001    0.0000   -0.0000
           7    0.0000   -0.0000   -0.0257   -0.0362
           8   -0.0000    0.0001    0.0253    0.0288
           9    0.0000   -0.0000    0.0003    0.0004
          10   -0.0000    0.0001   -0.0293    0.0337
          11   -0.0000    0.0000   -0.0279    0.0260
          12    0.0000   -0.0000    0.0008   -0.0008
          13    0.0026   -0.0070   -0.0001   -0.0000
          14    0.0022   -0.0057   -0.0000    0.0000
          15   -0.0014   -0.0047    0.0000   -0.0000
          16   -0.0214    0.0338   -0.0000   -0.0000
          17   -0.0159    0.0299    0.0000   -0.0000
          18   -0.0633   -0.0345   -0.0000   -0.0000
          19   -0.0033    0.0017   -0.0014    0.0006
          20   -0.0029    0.0015   -0.0010    0.0010
          21   -0.0026    0.0048   -0.0024    0.0021
          22   -0.0000   -0.0002   -0.0033   -0.0032
          23    0.0002    0.0000    0.0026    0.0035
          24    0.0004    0.0001    0.0059    0.0071
          25   -0.0008    0.0005   -0.0033   -0.0029
          26    0.0008   -0.0003    0.0025    0.0030
          27   -0.0017    0.0005   -0.0060   -0.0067
          28   -0.0005    0.0003    0.3070    0.3323
          29    0.0006   -0.0004   -0.3010   -0.3253
          30    0.0001   -0.0001   -0.0032   -0.0036
          31    0.0004   -0.0003    0.3409   -0.3028
          32    0.0004   -0.0003    0.3292   -0.2920
          33   -0.0000    0.0000   -0.0091    0.0082
          34    0.0087    0.0254    0.0001   -0.0000
          35    0.0070    0.0198   -0.0000    0.0000
          36    0.0120    0.0528   -0.0000    0.0002
          37   -0.0804   -0.2803    0.0000    0.0002
          38   -0.0727   -0.2573   -0.0000    0.0001
          39    0.1313    0.5714   -0.0000   -0.0004
          40    0.3011   -0.0618    0.0000    0.0004
          41    0.2337   -0.0469   -0.0000    0.0003
          42    0.6240   -0.1588    0.0000    0.0008


           MASS-WEIGHTED COORDINATE ANALYSIS (NORMAL COORDINATES)


   Root No.       1         2         3         4         5         6         7         8

                 1 A       2 A       3 A       4 A       5 A       6 A       7 A       8 A   

                  81.0     208.2     327.8     406.8     480.2     648.2     761.3     846.3
  
           1    0.1971   -0.0410    0.2061   -0.0666   -0.0480   -0.0288   -0.0841    0.2618
           2   -0.2186   -0.0864   -0.2286   -0.0143   -0.0496    0.0529   -0.0617    0.1855
           3   -0.0003   -0.3881    0.0679    0.1992   -0.2594    0.0153   -0.0607    0.2943
           4    0.1934   -0.0367    0.2173   -0.1386   -0.1374   -0.1902   -0.0356    0.0667
           5    0.1420   -0.0560    0.0370   -0.1193   -0.1632    0.0066    0.1010   -0.2145
           6   -0.0185   -0.1135   -0.2998   -0.0828    0.2072    0.0265   -0.1283    0.0954
           7   -0.1512   -0.0725   -0.0593   -0.1147   -0.1723    0.0129    0.0987   -0.2187
           8   -0.1876   -0.0806   -0.2256   -0.0517   -0.0913    0.1742   -0.0073    0.2096
           9    0.0155   -0.1563    0.2776   -0.2321    0.3238   -0.0368   -0.2360   -0.0885
          10   -0.1498   -0.0657   -0.0661   -0.1078   -0.1762    0.0149    0.0988   -0.2149
          11    0.1193   -0.0512    0.0314   -0.1051   -0.1547    0.0241    0.0830   -0.1806
          12    0.0076    0.5457   -0.0109    0.1618   -0.1326    0.0191   -0.1807   -0.1250
          13    0.2522    0.0866   -0.1999    0.2166    0.2533    0.3060   -0.0168    0.0273
          14   -0.2945    0.1469    0.2454    0.1458    0.1910   -0.3661   -0.0577    0.0321
          15   -0.0069   -0.2062    0.0836    0.4184   -0.1085   -0.0025    0.1686   -0.2019
          16   -0.3258    0.1113   -0.0524    0.2238    0.2641   -0.0245   -0.0535    0.0492
          17    0.3877    0.1081    0.0746    0.1803    0.2408    0.0219   -0.0515    0.0439
          18    0.0046    0.2649   -0.0748   -0.3238   -0.1344    0.0042    0.0535   -0.1540
          19    0.0830   -0.0097    0.0625   -0.0780   -0.0058   -0.0622   -0.0510    0.1520
          20   -0.0908   -0.0484   -0.0866   -0.0734    0.0230    0.0761   -0.0932    0.0081
          21   -0.0005   -0.0977    0.0263    0.1125   -0.0919    0.0030    0.0304    0.0639
          22    0.0823    0.0283    0.0114   -0.1211    0.0999   -0.0497    0.0744   -0.2206
          23    0.0779    0.1220    0.0939    0.0341   -0.1842   -0.0177   -0.1534   -0.1528
          24   -0.0103   -0.0835   -0.1583   -0.1050    0.2102    0.0208    0.1096   -0.0627
          25    0.0898   -0.0439    0.1578    0.0274   -0.1836   -0.0859   -0.0899    0.2554
          26    0.0672   -0.1508   -0.0184   -0.1221    0.0772   -0.0139    0.2311   -0.0244
          27   -0.0105   -0.0806   -0.1539   -0.1038    0.2036    0.0189    0.1089   -0.0815
          28   -0.0942   -0.0278   -0.0638   -0.0347   -0.0596    0.0320    0.0562   -0.0717
          29   -0.1059   -0.0296   -0.1141   -0.0151   -0.0392    0.0802    0.0198    0.0522
          30    0.0106   -0.1072    0.1997   -0.2071    0.3247   -0.1260    0.4814    0.1278
          31   -0.0930   -0.0206   -0.0657   -0.0221   -0.0496    0.0469    0.0432   -0.0221
          32    0.0859   -0.0072    0.0570   -0.0382   -0.0499   -0.0377    0.0295   -0.0872
          33    0.0042    0.3747   -0.0096    0.1333   -0.1184   -0.0205    0.6383    0.3155
          34    0.2167    0.0623   -0.2699    0.0579    0.0988   -0.0269   -0.0030   -0.0416
          35   -0.2590    0.1269    0.3009   -0.0206    0.1085    0.0222   -0.0311   -0.0819
          36   -0.0060   -0.1033    0.0378    0.1391   -0.0609    0.0067    0.0513   -0.0024
          37   -0.1013    0.0919   -0.2122   -0.0585    0.0458   -0.4420   -0.1214    0.2092
          38    0.1165    0.1145    0.1983   -0.1090    0.0834    0.5175   -0.0475    0.1936
          39   -0.0002    0.1459   -0.0400   -0.2353   -0.0513    0.0182   -0.0538    0.1429
          40   -0.2380   -0.0186    0.2222    0.1847    0.1113    0.2764    0.0661   -0.1618
          41    0.2862   -0.0609   -0.2041    0.2209    0.0741   -0.3284    0.0246   -0.1697
          42    0.0055    0.1370   -0.0524   -0.2193   -0.0577   -0.0102   -0.0420    0.1168


   Root No.       9        10        11        12        13        14        15        16

                 9 A      10 A      11 A      12 A      13 A      14 A      15 A      16 A   

                 896.7     911.4     930.3     965.4     978.7     993.7    1023.0    1031.9
  
           1    0.1080   -0.1327    0.1128    0.2392    0.1157   -0.3733   -0.0517   -0.0192
           2   -0.1628    0.1325   -0.0282   -0.1656   -0.1119   -0.1725   -0.0392   -0.0683
           3   -0.0016   -0.0800   -0.0375   -0.0925    0.0553   -0.0581   -0.0019   -0.0199
           4   -0.3880    0.3593    0.0352   -0.2066   -0.0742    0.0113   -0.0277   -0.0005
           5    0.0749   -0.0254   -0.0221    0.0167    0.0584    0.2901    0.0872   -0.0675
           6    0.2367    0.1048   -0.0339   -0.0478   -0.3030    0.1333    0.2414    0.0366
           7    0.1094   -0.1434   -0.1074   -0.0483   -0.0508    0.0437    0.0048    0.0315
           8   -0.0036    0.1640    0.2758    0.2535    0.1713   -0.1245   -0.0420    0.0139
           9   -0.2218   -0.2192   -0.0318    0.2072   -0.0036    0.1093    0.2149    0.0175
          10    0.1293   -0.1510   -0.1158   -0.0472   -0.0480    0.0333    0.0056   -0.0189
          11    0.1966   -0.2733   -0.1310   -0.0061   -0.0734   -0.1895   -0.0504    0.0373
          12    0.0524    0.0650    0.0081   -0.0483    0.1314   -0.0031   -0.4516   -0.0197
          13    0.0292   -0.0939    0.1658   -0.1078   -0.0177    0.0417    0.0270    0.1580
          14   -0.0075    0.0559   -0.2462    0.0720    0.0527    0.0158   -0.0183   -0.1800
          15   -0.0320    0.0526    0.0190   -0.0652    0.1485    0.0001    0.0102    0.0020
          16    0.0262   -0.0510    0.0081   -0.0932   -0.0326    0.0888   -0.0307   -0.2407
          17    0.0128   -0.0335   -0.0957    0.0260    0.0686    0.0121    0.0721    0.2948
          18   -0.0464    0.1235    0.1022    0.2087   -0.1984   -0.1620   -0.0288   -0.0113
          19    0.1739    0.0482    0.1236    0.3525    0.0245   -0.0586   -0.0310    0.0166
          20   -0.2805    0.0106   -0.0542   -0.2227   -0.2769   -0.2261    0.0628   -0.0795
          21    0.0294   -0.0478   -0.0320   -0.0887    0.1335    0.0375   -0.0234    0.0098
          22   -0.2699    0.2137    0.1196   -0.1348    0.4015   -0.1685    0.1930   -0.0882
          23    0.2215    0.2565    0.0711   -0.1046    0.0808    0.1147    0.5112   -0.0832
          24   -0.1297   -0.0513    0.0061   -0.0039    0.1130   -0.0687   -0.0770   -0.0049
          25   -0.0378    0.1290   -0.0151    0.0951   -0.3207    0.3804   -0.1243   -0.0265
          26   -0.2619   -0.1514   -0.0209    0.1625    0.0812    0.3670   -0.3416   -0.0958
          27   -0.1164   -0.0571   -0.0013   -0.0170    0.1142   -0.0332   -0.0523   -0.0129
          28   -0.0241    0.1302    0.0811   -0.0148    0.0553    0.2859   -0.0329    0.2972
          29   -0.0662    0.2212    0.1950    0.0751    0.1208    0.2408   -0.0455    0.2977
          30    0.4580    0.3458    0.0408   -0.2245   -0.0162   -0.0705   -0.1794   -0.0115
          31    0.1130   -0.0492    0.0654    0.2017    0.1535    0.0941    0.1270   -0.3105
          32   -0.0277   -0.0792   -0.1411   -0.2221   -0.1994   -0.1412   -0.1306    0.3269
          33   -0.2381   -0.1907   -0.0223    0.0880   -0.1291    0.0091    0.3693    0.0124
          34   -0.0106    0.2198   -0.4045    0.2307   -0.0798    0.0432   -0.0068   -0.1101
          35    0.0094   -0.2072    0.5027   -0.1056   -0.2001    0.0756    0.0230    0.1497
          36   -0.0046   -0.0189    0.0084   -0.0924    0.1513   -0.0391    0.0001    0.0003
          37    0.0594   -0.1850   -0.1021   -0.1227    0.2579    0.0852    0.0892    0.3018
          38    0.0292   -0.0589   -0.0984   -0.2621    0.0794    0.1687   -0.0404   -0.3259
          39    0.0251   -0.0753   -0.0573   -0.1178    0.1124    0.0592    0.0126   -0.0059
          40   -0.0525    0.2270   -0.2088    0.3029   -0.1209   -0.1283    0.0368    0.2292
          41   -0.0045   -0.0616    0.4002    0.0008   -0.2577   -0.0177   -0.0712   -0.2939
          42    0.0201   -0.0662   -0.0323   -0.1030    0.1069    0.0385    0.0054   -0.0052


   Root No.      17        18        19        20        21        22        23        24

                17 A      18 A      19 A      20 A      21 A      22 A      23 A      24 A   

                1033.9    1142.6    1180.7    1190.8    1206.9    1215.2    1291.4    1314.5
  
           1    0.0246    0.3856    0.0304    0.0221   -0.0726   -0.1273   -0.1914   -0.1337
           2   -0.0449   -0.3788   -0.1140    0.1931    0.0584   -0.1712    0.1540   -0.2714
           3   -0.0258    0.0202    0.1760    0.3873   -0.0234   -0.2173    0.0891    0.0981
           4   -0.0227   -0.2737    0.0541   -0.1769   -0.2794    0.1144   -0.0556    0.0928
           5   -0.0983   -0.0990   -0.1273    0.1824   -0.2544   -0.0800   -0.4580    0.0967
           6   -0.0151    0.0431   -0.0039   -0.1713   -0.0071    0.0207   -0.0252   -0.0236
           7    0.0316    0.0077    0.0214   -0.0219    0.1784    0.0076   -0.0352    0.0494
           8    0.0379    0.0187    0.1974   -0.3442    0.2291    0.1781   -0.2370    0.2269
           9    0.1548   -0.0854   -0.0016   -0.1004    0.0071   -0.0025   -0.0027   -0.0232
          10   -0.0143   -0.0990   -0.0137    0.0278    0.1193   -0.0142   -0.0832    0.0255
          11    0.0641    0.0671    0.1064   -0.1946   -0.1947    0.1611    0.5360   -0.0592
          12   -0.1230    0.0134    0.0028    0.0546    0.0002   -0.0099    0.0020    0.0087
          13   -0.1279   -0.0979   -0.0434   -0.0344    0.0232   -0.0276   -0.0070   -0.1585
          14    0.1544    0.1110   -0.0123   -0.0477   -0.0305   -0.0314   -0.0590   -0.1119
          15    0.0197    0.0123   -0.0731   -0.0614    0.0465    0.5069   -0.0799   -0.0562
          16    0.1919    0.0499   -0.0800   -0.0254   -0.0088   -0.0882    0.0105   -0.0310
          17   -0.2216   -0.0436   -0.0752   -0.0114    0.0066   -0.0717    0.0245   -0.0319
          18   -0.0184    0.0038   -0.0873   -0.0280   -0.0137   -0.2170    0.0237    0.0072
          19    0.2050   -0.2936   -0.3644    0.4116    0.1617    0.2947    0.1309   -0.0081
          20   -0.2876    0.5143   -0.2065    0.2039   -0.0839    0.2410   -0.0753    0.0482
          21    0.0188   -0.0766    0.3161   -0.1505   -0.0507   -0.3509   -0.0159   -0.0434
          22    0.0116    0.0677    0.1235    0.0706    0.2687   -0.0284    0.3017   -0.0143
          23   -0.0388    0.1794   -0.0038    0.1066    0.3337   -0.1415    0.0290   -0.0738
          24    0.0081   -0.0156    0.0410   -0.0060   -0.0242    0.0261    0.0750    0.0213
          25   -0.1743    0.1085    0.0110   -0.2259    0.2737    0.0757    0.2573   -0.0534
          26   -0.2219    0.1652   -0.0477    0.1003    0.3402   -0.1132    0.0262   -0.0769
          27   -0.0078    0.0084    0.0032    0.0646    0.0073   -0.0588   -0.0721   -0.0122
          28    0.2658    0.2460   -0.0760    0.1472   -0.2449   -0.0717    0.1629   -0.0996
          29    0.2745    0.2484   -0.0236    0.0492   -0.2386   -0.0190    0.1121   -0.0485
          30   -0.1268    0.0395    0.0133    0.0372   -0.0009   -0.0044   -0.0004    0.0088
          31   -0.3111   -0.0374    0.0067   -0.0465   -0.3039    0.0638    0.2385   -0.0439
          32    0.3400    0.0240    0.0229   -0.0068    0.2930   -0.0183   -0.1125    0.0399
          33    0.0983   -0.0051   -0.0001    0.0040   -0.0009   -0.0022   -0.0008    0.0009
          34    0.1090    0.0391    0.4896    0.2722   -0.0237    0.2384   -0.0565   -0.0348
          35   -0.1548   -0.0870    0.4052    0.2467    0.0057    0.1922   -0.0144   -0.0398
          36    0.0096    0.0151   -0.3814   -0.2268    0.0223   -0.0227   -0.0023   -0.0231
          37   -0.2072   -0.0036   -0.0246    0.0499    0.0132    0.0968    0.0853    0.3856
          38    0.2632    0.0239   -0.0193    0.0436    0.0080    0.0806    0.0768    0.3117
          39    0.0138    0.0088   -0.0271    0.0376    0.0075    0.0531    0.0728    0.3219
          40   -0.1861   -0.0320   -0.0581    0.0410   -0.0074   -0.2024    0.1295    0.4052
          41    0.1998    0.0527   -0.0408    0.0244   -0.0178   -0.1695    0.0948    0.3598
          42    0.0127    0.0003   -0.0090   -0.0390    0.0066    0.0804   -0.0806   -0.3120


   Root No.      25        26        27        28        29        30        31        32

                25 A      26 A      27 A      28 A      29 A      30 A      31 A      32 A   

                1400.5    1422.8    1774.0    1863.4    2957.2    3043.1    3049.9    3105.1
  
           1   -0.1394    0.3708   -0.0115   -0.0779   -0.1100   -0.0057   -0.0059    0.0053
           2   -0.1888    0.4073   -0.0668   -0.0765   -0.1018   -0.0050   -0.0046   -0.0020
           3    0.1926   -0.3562    0.0124    0.0889   -0.2280   -0.0102   -0.0124   -0.0005
           4   -0.2036   -0.2209    0.0046   -0.0030   -0.0036   -0.0006   -0.0087    0.1563
           5    0.2999    0.1591   -0.0660   -0.0089   -0.0017    0.0012    0.0043   -0.1489
           6   -0.0325    0.0581    0.0003    0.0001    0.0163    0.0077   -0.3048   -0.0151
           7    0.0284   -0.0828   -0.6725   -0.0429   -0.0033    0.0001   -0.0001    0.0000
           8    0.0486   -0.2023    0.0083    0.0001   -0.0027    0.0003   -0.0002   -0.0011
           9   -0.0247    0.0430    0.0072    0.0035   -0.0009   -0.0007   -0.0021   -0.0001
          10    0.0549    0.0362    0.6755    0.0450    0.0029    0.0001   -0.0001    0.0033
          11   -0.0887   -0.1375   -0.0005    0.0076    0.0015    0.0001    0.0001   -0.0031
          12    0.0105   -0.0178   -0.0079    0.0009   -0.0014   -0.0001   -0.0017   -0.0001
          13    0.0353   -0.0561   -0.0415    0.5489    0.0046   -0.1223   -0.0052   -0.0010
          14    0.0480   -0.0625   -0.0237    0.4710    0.0034   -0.0958   -0.0028   -0.0008
          15   -0.1617    0.2728   -0.0043   -0.1141    0.0116   -0.2401   -0.0053   -0.0016
          16    0.1047   -0.1925    0.0432   -0.4728   -0.0006    0.0054    0.0001    0.0003
          17    0.0855   -0.1603    0.0352   -0.4007   -0.0004    0.0038    0.0000    0.0002
          18    0.0274   -0.0360    0.0003   -0.0088   -0.0026    0.0213    0.0003    0.0007
          19    0.0421   -0.1426   -0.0189    0.0289    0.3909    0.0136    0.0259    0.0017
          20    0.0760   -0.1044    0.0210    0.0262    0.3567    0.0128    0.0175   -0.0001
          21   -0.0422    0.1156   -0.0143   -0.0187    0.8003    0.0381    0.0391    0.0012
          22    0.3507    0.1030    0.0148    0.0055    0.0093    0.0096   -0.2815   -0.2920
          23   -0.2971   -0.0955    0.0285    0.0030   -0.0152   -0.0093    0.2692    0.2803
          24    0.3662    0.1570   -0.0220    0.0021   -0.0276   -0.0178    0.4997    0.6022
          25    0.2969    0.2126    0.0136   -0.0033   -0.0117   -0.0048    0.3137   -0.2615
          26   -0.3136   -0.0898    0.0284   -0.0004    0.0149    0.0057   -0.2841    0.2358
          27   -0.3509   -0.1763    0.0212    0.0040   -0.0302   -0.0122    0.5685   -0.5495
          28   -0.0270    0.0539   -0.1040   -0.0064   -0.0006   -0.0001    0.0006   -0.0193
          29   -0.0247    0.0166    0.1592    0.0109    0.0006    0.0001   -0.0006    0.0190
          30    0.0089   -0.0153   -0.0004    0.0005   -0.0010   -0.0001   -0.0006    0.0002
          31   -0.0367   -0.0311    0.1040    0.0095    0.0061    0.0005    0.0006    0.0015
          32    0.0307   -0.0040    0.1591    0.0119    0.0060    0.0004    0.0005    0.0013
          33    0.0039   -0.0058   -0.0017   -0.0003   -0.0008    0.0001   -0.0014   -0.0001
          34   -0.0527    0.0753   -0.0018    0.0014   -0.0199    0.3646    0.0074    0.0033
          35   -0.0431    0.0702   -0.0038   -0.0041   -0.0161    0.2825    0.0066    0.0018
          36   -0.0033    0.0133   -0.0097    0.1236   -0.0359    0.8327    0.0206    0.0057
          37   -0.0954    0.1388    0.0014   -0.0198    0.0012    0.0355    0.0013    0.0003
          38   -0.0806    0.1137   -0.0007   -0.0219    0.0011    0.0329    0.0010    0.0002
          39   -0.1017    0.1598   -0.0131    0.1321   -0.0015   -0.0810   -0.0027   -0.0006
          40   -0.0649    0.0921   -0.0016   -0.0063    0.0043    0.0054    0.0011   -0.0008
          41   -0.0531    0.0804    0.0005   -0.0003    0.0034    0.0044    0.0010   -0.0006
          42    0.0788   -0.1239    0.0126   -0.1412    0.0047    0.0066    0.0020   -0.0018


   Root No.      33        34        35        36

                33 A      34 A      35 A      36 A   

                3134.6    3146.8    3195.0    3215.4
  
           1   -0.0008   -0.0023    0.0028   -0.0070
           2   -0.0007   -0.0021    0.0033   -0.0077
           3    0.0022   -0.0013    0.0008   -0.0007
           4    0.0004    0.0001    0.0039    0.0095
           5   -0.0004    0.0001   -0.0038   -0.0109
           6    0.0005   -0.0003    0.0000   -0.0002
           7    0.0002   -0.0001   -0.1329   -0.1885
           8   -0.0002    0.0004    0.1308    0.1496
           9    0.0001   -0.0000    0.0014    0.0020
          10   -0.0002    0.0003   -0.1516    0.1755
          11   -0.0001    0.0002   -0.1443    0.1350
          12    0.0000   -0.0000    0.0040   -0.0041
          13    0.0113   -0.0325   -0.0003   -0.0000
          14    0.0098   -0.0268   -0.0001    0.0001
          15   -0.0063   -0.0220    0.0002   -0.0002
          16   -0.0936    0.1580   -0.0000   -0.0002
          17   -0.0698    0.1395    0.0000   -0.0001
          18   -0.2773   -0.1610   -0.0000   -0.0002
          19   -0.0042    0.0023   -0.0021    0.0009
          20   -0.0037    0.0021   -0.0015    0.0015
          21   -0.0033    0.0064   -0.0036    0.0032
          22   -0.0000   -0.0002   -0.0049   -0.0048
          23    0.0002    0.0000    0.0040    0.0053
          24    0.0006    0.0001    0.0089    0.0108
          25   -0.0010    0.0006   -0.0049   -0.0043
          26    0.0010   -0.0004    0.0038    0.0046
          27   -0.0021    0.0007   -0.0090   -0.0101
          28   -0.0006    0.0004    0.4604    0.5006
          29    0.0007   -0.0005   -0.4514   -0.4901
          30    0.0001   -0.0001   -0.0048   -0.0054
          31    0.0005   -0.0004    0.5113   -0.4562
          32    0.0005   -0.0004    0.4937   -0.4398
          33   -0.0000    0.0000   -0.0137    0.0123
          34    0.0110    0.0343    0.0001   -0.0000
          35    0.0089    0.0268   -0.0000    0.0001
          36    0.0153    0.0715   -0.0000    0.0003
          37   -0.1021   -0.3793    0.0001    0.0003
          38   -0.0923   -0.3483   -0.0000    0.0002
          39    0.1667    0.7733   -0.0000   -0.0006
          40    0.3823   -0.0837    0.0000    0.0006
          41    0.2967   -0.0635   -0.0000    0.0004
          42    0.7923   -0.2149    0.0001    0.0012


          DESCRIPTION OF VIBRATIONS


 VIBRATION    1    1A         ATOM PAIR      ENERGY CONTRIBUTION    RADIAL
 FREQ.        80.98         C  5 -- C  6         +15.2% (528.2%)      0.0%
 T-DIPOLE    0.0277         C  1 -- C  4          +9.5% (417.4%)      0.0%
 TRAVEL      0.0616         C  2 -- C  3          +9.1% (407.8%)      0.0%
 RED. MASS   1.2836         C  1 -- C  3          +8.5% (395.9%)      0.0%
 EFF. MASS 219.2246

 VIBRATION    2    2A         ATOM PAIR      ENERGY CONTRIBUTION    RADIAL
 FREQ.       208.22         C  1 -- C  4         +13.9% (258.0%)      0.0%
 T-DIPOLE    0.0411         C  1 -- C  5         +10.5% (223.8%)      0.0%
 TRAVEL      0.0725         C  1 -- C  2          +9.8% (217.2%)      0.0%
 RED. MASS   1.6345         C  5 -- C  6          +9.7% (215.6%)      0.0%
 EFF. MASS  61.5508

 VIBRATION    3    3A         ATOM PAIR      ENERGY CONTRIBUTION    RADIAL
 FREQ.       327.77         C  2 -- C  3         +13.2% (142.5%)      0.0%
 T-DIPOLE    0.0595         C  1 -- C  2         +12.8% (140.1%)      0.1%
 TRAVEL      0.0982         C  2 -- C  4          +9.8% (122.8%)      0.1%
 RED. MASS   0.7477         C  2 -- H  9          +9.0% (117.3%)     47.5%
 EFF. MASS  21.3404

 VIBRATION    4    4A         ATOM PAIR      ENERGY CONTRIBUTION    RADIAL
 FREQ.       406.81         C  5 -- C  6         +20.3% (176.0%)      0.0%
 T-DIPOLE    0.0491         C  1 -- C  5         +14.7% (149.5%)      0.0%
 TRAVEL      0.0787         C  6 -- H 14         +14.4% (148.1%)     52.5%
 RED. MASS   1.2900         C  6 -- H 13         +10.1% (123.9%)     53.1%
 EFF. MASS  26.7359

 VIBRATION    5    5A         ATOM PAIR      ENERGY CONTRIBUTION    RADIAL
 FREQ.       480.17         C  6 -- H 14         +10.1% (112.4%)      4.6%
 T-DIPOLE    0.1154         C  1 -- C  5          +9.5% (109.1%)      5.3%
 TRAVEL      0.0905         C  6 -- H 13          +8.2% (101.4%)     60.9%
 RED. MASS   0.9003         C  5 -- H 12          +8.2% (101.2%)      5.7%
 EFF. MASS  17.1593

 VIBRATION    6    6A         ATOM PAIR      ENERGY CONTRIBUTION    RADIAL
 FREQ.       648.24         C  6 -- H 13         +26.2% ( 78.0%)      0.0%
 T-DIPOLE    0.1772         C  6 -- H 14         +12.0% ( 52.7%)      0.0%
 TRAVEL      0.1474         C  1 -- C  5          +9.4% ( 46.8%)      0.0%
 RED. MASS   0.9030         C  5 -- H 12          +9.4% ( 46.6%)      0.0%
 EFF. MASS   4.7894

 VIBRATION    7    7A         ATOM PAIR      ENERGY CONTRIBUTION    RADIAL
 FREQ.       761.34         C  4 -- H 11         +24.5% ( 76.7%)      1.3%
 T-DIPOLE    0.6234         C  3 -- H 10         +17.1% ( 64.0%)      0.6%
 TRAVEL      0.1594         C  2 -- H  8          +7.3% ( 41.7%)      1.2%
 RED. MASS   0.3389         C  2 -- H  9          +7.2% ( 41.7%)     18.8%
 EFF. MASS   3.4841

 VIBRATION    8    8A         ATOM PAIR      ENERGY CONTRIBUTION    RADIAL
 FREQ.       846.34         C  1 -- C  4         +13.3% ( 81.6%)     65.2%
 T-DIPOLE    0.3092         C  1 -- C  3         +11.9% ( 77.1%)      0.1%
 TRAVEL      0.0924         C  1 -- C  5          +9.5% ( 68.9%)     19.3%
 RED. MASS   0.7710         C  2 -- C  3          +8.8% ( 66.4%)     86.0%
 EFF. MASS   9.3387

 VIBRATION    9    9A         ATOM PAIR      ENERGY CONTRIBUTION    RADIAL
 FREQ.       896.73         C  2 -- H  9         +14.5% ( 66.3%)      0.0%
 T-DIPOLE    0.1437         C  2 -- C  4         +14.0% ( 65.1%)      2.4%
 TRAVEL      0.1115         C  1 -- C  2         +12.7% ( 61.9%)     68.5%
 RED. MASS   0.7340         C  2 -- C  3         +12.3% ( 61.1%)     34.5%
 EFF. MASS   6.0480         C  2 -- H  8         +12.0% ( 60.2%)     48.0%

 VIBRATION   10   10A         ATOM PAIR      ENERGY CONTRIBUTION    RADIAL
 FREQ.       911.35         C  2 -- C  4         +12.9% ( 63.1%)     13.8%
 T-DIPOLE    0.2044         C  2 -- C  3         +11.7% ( 60.0%)     59.6%
 TRAVEL      0.1052         C  3 -- H 10         +10.0% ( 55.4%)      5.7%
 RED. MASS   0.5650         C  3 -- C  4          +9.7% ( 54.6%)      0.0%
 EFF. MASS   6.6914

 VIBRATION   11   11A         ATOM PAIR      ENERGY CONTRIBUTION    RADIAL
 FREQ.       930.28         C  5 -- H 12         +25.2% ( 68.8%)      0.0%
 T-DIPOLE    0.3864         C  3 -- C  4         +11.2% ( 46.0%)      0.0%
 TRAVEL      0.1340         C  6 -- H 14         +10.7% ( 44.9%)      0.7%
 RED. MASS   0.4281         C  1 -- C  3         +10.4% ( 44.3%)     57.7%
 EFF. MASS   4.0353

 VIBRATION   12   12A         ATOM PAIR      ENERGY CONTRIBUTION    RADIAL
 FREQ.       965.39         C  1 -- C  3         +12.0% ( 50.2%)     44.7%
 T-DIPOLE    0.3236         C  1 -- H  7          +9.6% ( 44.9%)      4.7%
 TRAVEL      0.1176         C  6 -- H 14          +9.3% ( 44.3%)      4.8%
 RED. MASS   0.3860         C  6 -- H 13          +8.3% ( 41.7%)     11.3%
 EFF. MASS   5.0503

 VIBRATION   13   13A         ATOM PAIR      ENERGY CONTRIBUTION    RADIAL
 FREQ.       978.67         C  2 -- H  8         +16.8% ( 60.0%)      5.0%
 T-DIPOLE    0.1891         C  2 -- H  9         +11.2% ( 49.0%)     21.7%
 TRAVEL      0.1246         C  6 -- H 14          +8.1% ( 41.7%)      6.9%
 RED. MASS   0.2683         C  2 -- C  3          +7.9% ( 41.2%)      4.2%
 EFF. MASS   4.4366

 VIBRATION   14   14A         ATOM PAIR      ENERGY CONTRIBUTION    RADIAL
 FREQ.       993.74         C  1 -- C  2         +13.3% ( 60.4%)     37.1%
 T-DIPOLE    0.1146         C  2 -- H  9         +12.8% ( 59.2%)      0.0%
 TRAVEL      0.1057         C  1 -- C  4          +9.1% ( 50.0%)     43.5%
 RED. MASS   0.6320         C  1 -- C  5          +9.0% ( 49.6%)     18.7%
 EFF. MASS   6.0682

 VIBRATION   15   15A         ATOM PAIR      ENERGY CONTRIBUTION    RADIAL
 FREQ.      1023.02         C  2 -- H  8         +22.8% ( 58.2%)      9.5%
 T-DIPOLE    0.1736         C  4 -- H 11         +17.8% ( 51.4%)      0.0%
 TRAVEL      0.1270         C  2 -- H  9         +14.9% ( 47.1%)      4.6%
 RED. MASS   0.7363         C  2 -- C  4         +11.9% ( 42.0%)      3.5%
 EFF. MASS   4.0841

 VIBRATION   16   16A         ATOM PAIR      ENERGY CONTRIBUTION    RADIAL
 FREQ.      1031.92         C  6 -- H 13         +22.5% ( 49.1%)      0.0%
 T-DIPOLE    0.2617         C  6 -- H 14         +18.5% ( 44.5%)      0.0%
 TRAVEL      0.1554         C  4 -- H 11         +18.2% ( 44.1%)      0.1%
 RED. MASS   0.4263         C  3 -- H 10         +15.9% ( 41.2%)      0.0%
 EFF. MASS   2.7075

 VIBRATION   17   17A         ATOM PAIR      ENERGY CONTRIBUTION    RADIAL
 FREQ.      1033.91         C  4 -- H 11         +20.4% ( 46.4%)      0.3%
 T-DIPOLE    0.1888         C  3 -- H 10         +15.4% ( 40.4%)      0.0%
 TRAVEL      0.1598         C  6 -- H 13         +13.1% ( 37.3%)      0.0%
 RED. MASS   0.2415         C  1 -- H  7         +10.5% ( 33.3%)      0.5%
 EFF. MASS   2.5544         C  6 -- H 14         +10.5% ( 33.3%)      0.0%

 VIBRATION   18   18A         ATOM PAIR      ENERGY CONTRIBUTION    RADIAL
 FREQ.      1142.60         C  1 -- H  7         +31.1% ( 77.7%)      0.1%
 T-DIPOLE    0.0467         C  1 -- C  2         +14.1% ( 52.3%)     84.7%
 TRAVEL      0.1079         C  1 -- C  5         +10.1% ( 44.3%)      0.0%
 RED. MASS   1.2740         C  1 -- C  4          +9.5% ( 42.9%)      0.1%
 EFF. MASS   5.0689

 VIBRATION   19   19A         ATOM PAIR      ENERGY CONTRIBUTION    RADIAL
 FREQ.      1180.74         C  5 -- H 12         +38.5% ( 71.3%)      0.7%
 T-DIPOLE    0.0350         C  1 -- H  7         +20.3% ( 51.8%)      3.1%
 TRAVEL      0.1464         C  1 -- C  3          +6.7% ( 29.7%)     74.6%
 RED. MASS   0.4351         C  2 -- C  3          +4.5% ( 24.4%)     62.2%
 EFF. MASS   2.6645

 VIBRATION   20   20A         ATOM PAIR      ENERGY CONTRIBUTION    RADIAL
 FREQ.      1190.83         C  1 -- H  7         +14.2% ( 57.8%)     19.1%
 T-DIPOLE    0.0812         C  1 -- C  3         +13.8% ( 57.2%)     55.0%
 TRAVEL      0.0930         C  1 -- C  2         +11.4% ( 51.9%)     11.3%
 RED. MASS   0.8461         C  2 -- C  3          +9.3% ( 46.9%)     77.7%
 EFF. MASS   6.5449

 VIBRATION   21   21A         ATOM PAIR      ENERGY CONTRIBUTION    RADIAL
 FREQ.      1206.95         C  2 -- H  9         +18.7% ( 53.1%)      0.0%
 T-DIPOLE    0.0646         C  2 -- H  8         +18.3% ( 52.5%)      0.0%
 TRAVEL      0.1334         C  4 -- H 11         +14.2% ( 46.3%)      0.3%
 RED. MASS   0.4822         C  3 -- H 10         +13.1% ( 44.5%)      0.2%
 EFF. MASS   3.1382

 VIBRATION   22   22A         ATOM PAIR      ENERGY CONTRIBUTION    RADIAL
 FREQ.      1215.23         C  1 -- C  5         +17.9% ( 60.1%)     45.0%
 T-DIPOLE    0.0439         C  5 -- C  6         +15.6% ( 56.1%)      1.7%
 TRAVEL      0.0897         C  1 -- H  7         +14.6% ( 54.3%)     12.0%
 RED. MASS   1.0641         C  5 -- H 12         +12.8% ( 50.7%)     21.2%
 EFF. MASS   6.8927

 VIBRATION   23   23A         ATOM PAIR      ENERGY CONTRIBUTION    RADIAL
 FREQ.      1291.45         C  2 -- C  4         +21.6% ( 71.6%)     99.7%
 T-DIPOLE    0.1518         C  3 -- C  4         +11.3% ( 51.9%)      0.5%
 TRAVEL      0.0803         C  4 -- H 11         +10.8% ( 50.6%)      9.1%
 RED. MASS   1.7071         C  1 -- C  4         +10.6% ( 50.2%)     74.1%
 EFF. MASS   8.0963

 VIBRATION   24   24A         ATOM PAIR      ENERGY CONTRIBUTION    RADIAL
 FREQ.      1314.51         C  6 -- H 14         +21.2% ( 53.4%)      0.2%
 T-DIPOLE    0.0349         C  6 -- H 13         +18.4% ( 49.7%)      0.5%
 TRAVEL      0.1242         C  1 -- C  3         +11.7% ( 39.6%)     88.2%
 RED. MASS   0.4603         C  1 -- C  5          +8.8% ( 34.3%)     63.5%
 EFF. MASS   3.3253

 VIBRATION   25   25A         ATOM PAIR      ENERGY CONTRIBUTION    RADIAL
 FREQ.      1400.51         C  2 -- H  8         +22.7% ( 58.9%)      3.1%
 T-DIPOLE    0.0516         C  2 -- H  9         +20.4% ( 56.0%)      5.2%
 TRAVEL      0.1100         C  1 -- C  2         +10.4% ( 40.0%)      1.4%
 RED. MASS   0.5471         C  1 -- C  5          +7.9% ( 34.9%)     97.9%
 EFF. MASS   3.9813

 VIBRATION   26   26A         ATOM PAIR      ENERGY CONTRIBUTION    RADIAL
 FREQ.      1422.84         C  1 -- C  5         +17.2% ( 68.6%)     96.3%
 T-DIPOLE    0.1070         C  1 -- C  2         +14.1% ( 62.1%)     60.0%
 TRAVEL      0.0728         C  1 -- C  3         +13.9% ( 61.8%)     56.3%
 RED. MASS   2.4744         C  1 -- H  7         +13.7% ( 61.3%)      0.0%
 EFF. MASS   8.9435         C  1 -- C  4         +12.1% ( 57.6%)     75.0%

 VIBRATION   27   27A         ATOM PAIR      ENERGY CONTRIBUTION    RADIAL
 FREQ.      1773.99         C  3 -- C  4         +36.2% (101.9%)    100.0%
 T-DIPOLE    0.0625         C  1 -- C  4         +11.1% ( 56.5%)     58.1%
 TRAVEL      0.0563         C  2 -- C  3         +11.0% ( 56.3%)     58.6%
 RED. MASS   4.9631         C  2 -- C  4         +10.9% ( 56.0%)      0.1%
 EFF. MASS  11.9883         C  1 -- C  3         +10.8% ( 55.8%)      0.1%

 VIBRATION   28   28A         ATOM PAIR      ENERGY CONTRIBUTION    RADIAL
 FREQ.      1863.37         C  5 -- C  6         +44.4% ( 98.7%)     98.8%
 T-DIPOLE    0.1147         C  1 -- C  5         +17.0% ( 61.0%)     56.0%
 TRAVEL      0.0554         C  5 -- H 12         +15.4% ( 58.1%)      3.7%
 RED. MASS   5.2303         C  6 -- H 14         +10.6% ( 48.3%)     10.9%
 EFF. MASS  11.7967         C  6 -- H 13         +10.4% ( 47.8%)     12.9%

 VIBRATION   29   29A         ATOM PAIR      ENERGY CONTRIBUTION    RADIAL
 FREQ.      2957.20         C  1 -- H  7         +95.2% ( 99.8%)    100.0%
 T-DIPOLE    0.1026         C  1 -- C  5          +1.1% ( 10.6%)     14.4%
 TRAVEL      0.1255         C  1 -- C  2          +1.1% ( 10.6%)     14.0%
 RED. MASS   0.9208         C  1 -- C  4          +1.1% ( 10.5%)     30.6%
 EFF. MASS   1.4478

 VIBRATION   30   30A         ATOM PAIR      ENERGY CONTRIBUTION    RADIAL
 FREQ.      3043.05         C  5 -- H 12         +96.0% ( 99.4%)    100.0%
 T-DIPOLE    0.2518         C  5 -- C  6          +1.4% ( 12.1%)     30.7%
 TRAVEL      0.1214         C  1 -- C  5          +1.3% ( 11.7%)     14.8%
 RED. MASS   0.9077         C  6 -- H 13          +0.9% (  9.8%)     95.5%
 EFF. MASS   1.5034

 VIBRATION   31   31A         ATOM PAIR      ENERGY CONTRIBUTION    RADIAL
 FREQ.      3049.87         C  2 -- H  9         +53.2% ( 75.9%)     97.5%
 T-DIPOLE    0.0903         C  2 -- H  8         +43.2% ( 68.4%)     96.4%
 TRAVEL      0.1198         C  2 -- C  3          +1.1% ( 10.9%)      0.1%
 RED. MASS   0.5206         C  2 -- C  4          +1.1% ( 10.9%)      0.1%
 EFF. MASS   1.5403

 VIBRATION   32   32A         ATOM PAIR      ENERGY CONTRIBUTION    RADIAL
 FREQ.      3105.07         C  2 -- H  8         +54.3% ( 73.2%)     97.6%
 T-DIPOLE    0.1301         C  2 -- H  9         +43.5% ( 65.5%)     96.1%
 TRAVEL      0.1302         C  2 -- C  3          +0.7% (  8.3%)     99.3%
 RED. MASS   0.4885         C  1 -- C  2          +0.7% (  8.3%)     51.1%
 EFF. MASS   1.2808

 VIBRATION   33   33A         ATOM PAIR      ENERGY CONTRIBUTION    RADIAL
 FREQ.      3134.62         C  6 -- H 14         +91.5% ( 97.4%)     99.9%
 T-DIPOLE    0.1983         C  6 -- H 13          +7.1% ( 27.1%)     72.3%
 TRAVEL      0.1182         C  5 -- C  6          +1.3% ( 11.7%)     21.7%
 RED. MASS   0.8495
 EFF. MASS   1.5395

 VIBRATION   34   34A         ATOM PAIR      ENERGY CONTRIBUTION    RADIAL
 FREQ.      3146.81         C  6 -- H 13         +91.5% ( 96.3%)     99.7%
 T-DIPOLE    0.2564         C  6 -- H 14          +6.1% ( 24.8%)     43.3%
 TRAVEL      0.1209         C  5 -- C  6          +1.6% ( 12.7%)     73.9%
 RED. MASS   0.8137         C  5 -- H 12          +0.8% (  9.0%)     94.8%
 EFF. MASS   1.4649

 VIBRATION   35   35A         ATOM PAIR      ENERGY CONTRIBUTION    RADIAL
 FREQ.      3195.01         C  4 -- H 11         +52.6% ( 74.3%)    100.0%
 T-DIPOLE    0.4811         C  3 -- H 10         +43.2% ( 67.3%)    100.0%
 TRAVEL      0.1200         C  3 -- C  4          +1.1% ( 10.6%)      0.4%
 RED. MASS   0.4692         C  1 -- C  4          +0.9% (  9.7%)     99.9%
 EFF. MASS   1.4647

 VIBRATION   36   36A         ATOM PAIR      ENERGY CONTRIBUTION    RADIAL
 FREQ.      3215.38         C  3 -- H 10         +50.9% ( 73.8%)     99.9%
 T-DIPOLE    0.3895         C  4 -- H 11         +41.7% ( 66.8%)     99.9%
 TRAVEL      0.1099         C  3 -- C  4          +3.0% ( 17.9%)     99.9%
 RED. MASS   0.4745         C  2 -- C  3          +1.2% ( 11.3%)     98.4%
 EFF. MASS   1.7362

      SYMMETRY NUMBER FOR POINT-GROUP C1  =  1


          SYSTEM IS A GROUND STATE



 InChI=1S/C6H8/c1-2-6-4-3-5-6/h2-4,6H,1,5H2


          MOLECULE IS NOT LINEAR

          THERE ARE 36 GENUINE VIBRATIONS IN THIS SYSTEM
          THIS THERMODYNAMICS CALCULATION IS LIMITED TO
          MOLECULES WHICH HAVE NO INTERNAL ROTATIONS




                    CALCULATED THERMODYNAMIC PROPERTIES
                                          *
   TEMP. (K)   PARTITION FUNCTION   H.O.F.    ENTHALPY  HEAT CAPACITY ENTROPY
                                   KCAL/MOL   CAL/MOLE    CAL/K/MOL  CAL/K/MOL


 298.00  VIB.     0.9611D+01                  1905.4838    15.6778    10.8911
         ROT.     0.1201D+06                   888.2813     2.9808    26.2235
         INT.     0.1154D+07                  2793.7651    18.6587    37.1146
         TRA.     0.6934D+27                  1480.4688     4.9680    39.0554
         TOT.                       56.434    4274.2339    23.6267    76.1701

 200.00  VIB.     0.3608D+01                   733.3073     8.5245     6.2162
         ROT.     0.6604D+05                   596.1620     2.9808    25.0348
         INT.     0.2382D+06                  1329.4693    11.5054    31.2510
         TRA.     0.3813D+27                   993.6033     4.9680    37.0743
         TOT.                       54.483    2323.0725    16.4734    68.3253

 210.00  VIB.     0.3959D+01                   821.7194     9.1625     6.6474
         ROT.     0.7105D+05                   625.9700     2.9808    25.1802
         INT.     0.2813D+06                  1447.6894    12.1433    31.8277
         TRA.     0.4102D+27                  1043.2834     4.9680    37.3167
         TOT.                       54.651    2490.9728    17.1113    69.1444

 220.00  VIB.     0.4352D+01                   916.6470     9.8274     7.0889
         ROT.     0.7619D+05                   655.7781     2.9808    25.3189
         INT.     0.3316D+06                  1572.4252    12.8082    32.4078
         TRA.     0.4399D+27                  1092.9636     4.9680    37.5478
         TOT.                       54.825    2665.3888    17.7763    69.9556

 230.00  VIB.     0.4791D+01                  1018.3523    10.5177     7.5409
         ROT.     0.8144D+05                   685.5862     2.9808    25.4514
         INT.     0.3902D+06                  1703.9386    13.4985    32.9923
         TRA.     0.4702D+27                  1142.6437     4.9680    37.7686
         TOT.                       55.006    2846.5823    18.4665    70.7610

 240.00  VIB.     0.5282D+01                  1127.0768    11.2309     8.0035
         ROT.     0.8681D+05                   715.3943     2.9808    25.5783
         INT.     0.4585D+06                  1842.4711    14.2117    33.5818
         TRA.     0.5012D+27                  1192.3239     4.9680    37.9801
         TOT.                       55.195    3034.7950    19.1797    71.5619

 250.00  VIB.     0.5833D+01                  1243.0374    11.9644     8.4768
         ROT.     0.9229D+05                   745.2024     2.9808    25.7000
         INT.     0.5384D+06                  1988.2399    14.9452    34.1768
         TRA.     0.5328D+27                  1242.0041     4.9680    38.1829
         TOT.                       55.390    3230.2439    19.9133    72.3596

 260.00  VIB.     0.6453D+01                  1366.4238    12.7155     8.9606
         ROT.     0.9788D+05                   775.0105     2.9808    25.8169
         INT.     0.6316D+06                  2141.4344    15.6963    34.7775
         TRA.     0.5651D+27                  1291.6842     4.9680    38.3777
         TOT.                       55.593    3433.1186    20.6644    73.1552

 270.00  VIB.     0.7150D+01                  1497.3966    13.4812     9.4548
         ROT.     0.1036D+06                   804.8186     2.9808    25.9294
         INT.     0.7406D+06                  2302.2153    16.4620    35.3842
         TRA.     0.5980D+27                  1341.3644     4.9680    38.5652
         TOT.                       55.803    3643.5797    21.4300    73.9494

 280.00  VIB.     0.7935D+01                  1636.0868    14.2585     9.9591
         ROT.     0.1094D+06                   834.6267     2.9808    26.0378
         INT.     0.8680D+06                  2470.7135    17.2393    35.9969
         TRA.     0.6316D+27                  1391.0445     4.9680    38.7459
         TOT.                       56.022    3861.7581    22.2073    74.7428

 290.00  VIB.     0.8820D+01                  1782.5962    15.0446    10.4732
         ROT.     0.1153D+06                   864.4348     2.9808    26.1424
         INT.     0.1017D+07                  2647.0310    18.0254    36.6155
         TRA.     0.6657D+27                  1440.7247     4.9680    38.9202
         TOT.                       56.248    4087.7557    22.9934    75.5358

 300.00  VIB.     0.9821D+01                  1936.9982    15.8366    10.9965
         ROT.     0.1213D+06                   894.2429     2.9808    26.2434
         INT.     0.1192D+07                  2831.2411    18.8174    37.2400
         TRA.     0.7004D+27                  1490.4049     4.9680    39.0887
         TOT.                       56.481    4321.6460    23.7854    76.3286

 310.00  VIB.     0.1095D+02                  2099.3394    16.6320    11.5288
         ROT.     0.1274D+06                   924.0510     2.9808    26.3412
         INT.     0.1396D+07                  3023.3904    19.6128    37.8700
         TRA.     0.7357D+27                  1540.0850     4.9680    39.2516
         TOT.                       56.723    4563.4755    24.5808    77.1215

 320.00  VIB.     0.1224D+02                  2269.6413    17.4284    12.0694
         ROT.     0.1337D+06                   953.8591     2.9808    26.4358
         INT.     0.1635D+07                  3223.5004    20.4092    38.5052
         TRA.     0.7716D+27                  1589.7652     4.9680    39.4093
         TOT.                       56.973    4813.2656    25.3772    77.9145

 330.00  VIB.     0.1369D+02                  2447.9023    18.2235    12.6179
         ROT.     0.1400D+06                   983.6672     2.9808    26.5275
         INT.     0.1916D+07                  3431.5696    21.2043    39.1454
         TRA.     0.8081D+27                  1639.4454     4.9680    39.5622
         TOT.                       57.231    5071.0149    26.1723    78.7076

 340.00  VIB.     0.1534D+02                  2634.1000    19.0154    13.1737
         ROT.     0.1464D+06                  1013.4753     2.9808    26.6165
         INT.     0.2246D+07                  3647.5753    21.9962    39.7902
         TRA.     0.8451D+27                  1689.1255     4.9680    39.7105
         TOT.                       57.497    5336.7008    26.9642    79.5007

 350.00  VIB.     0.1722D+02                  2828.1929    19.8023    13.7363
         ROT.     0.1529D+06                  1043.2834     2.9808    26.7029
         INT.     0.2633D+07                  3871.4763    22.7831    40.4392
         TRA.     0.8827D+27                  1738.8057     4.9680    39.8545
         TOT.                       57.770    5610.2820    27.7511    80.2937

 360.00  VIB.     0.1936D+02                  3030.1232    20.5826    14.3051
         ROT.     0.1595D+06                  1073.0915     2.9808    26.7869
         INT.     0.3087D+07                  4103.2147    23.5634    41.0919
         TRA.     0.9207D+27                  1788.4859     4.9680    39.9944
         TOT.                       58.052    5891.7006    28.5314    81.0864

 370.00  VIB.     0.2179D+02                  3239.8185    21.3550    14.8796
         ROT.     0.1662D+06                  1102.8996     2.9808    26.8686
         INT.     0.3620D+07                  4342.7181    24.3359    41.7481
         TRA.     0.9594D+27                  1838.1660     4.9680    40.1306
         TOT.                       58.341    6180.8841    29.3039    81.8787

 380.00  VIB.     0.2456D+02                  3457.1939    22.1184    15.4592
         ROT.     0.1730D+06                  1132.7077     2.9808    26.9481
         INT.     0.4248D+07                  4589.9016    25.0992    42.4073
         TRA.     0.9985D+27                  1887.8462     4.9680    40.2630
         TOT.                       58.638    6477.7477    30.0673    82.6703

 390.00  VIB.     0.2772D+02                  3682.1537    22.8718    16.0435
         ROT.     0.1798D+06                  1162.5158     2.9808    27.0255
         INT.     0.4985D+07                  4844.6695    25.8526    43.0690
         TRA.     0.1038D+28                  1937.5263     4.9680    40.3921
         TOT.                       58.942    6782.1959    30.8206    83.4611

 400.00  VIB.     0.3134D+02                  3914.5937    23.6143    16.6320
         ROT.     0.1868D+06                  1192.3239     2.9808    27.1009
         INT.     0.5853D+07                  5106.9176    26.5951    43.7329
         TRA.     0.1078D+28                  1987.2065     4.9680    40.5179
         TOT.                       59.254    7094.1241    31.5632    84.2508

   *: NOTE: HEATS OF FORMATION ARE RELATIVE TO THE
            ELEMENTS IN THEIR STANDARD STATE AT 298K
              (=  Standard Enthalpy of Formation).

            Hvib:  Zero-point energy is not included.
                   frequencies of less than zero cm-1 are not included.
            Hrot = (3/2)RT
            Htra = (3/2)RT + pV = (5/2)RT

            Heat capacity is Cp, not Cv

          For more information, see: HTTP://OpenMOPAC.net/Manual/thermochemistry.html


           FORCE CONSTANT IN CARTESIAN COORDINATES (Millidynes/A)

    ATOM   CHEMICAL       X               Y               Z
   NUMBER   SYMBOL  FORCE CONSTANT  FORCE CONSTANT  FORCE CONSTANT

      1       C        7.554284        8.156661        9.108219
      2       C        7.252611        8.296269        8.406927
      3       C       15.158366        8.986826        2.244107
      4       C       15.221701        9.209462        2.211443
      5       C       10.120093        7.990663        9.257576
      6       C        9.840268        7.634058        9.030466
      7       H        1.397164        1.230697        3.604166
      8       H        1.494694        1.389669        3.695821
      9       H        1.509390        1.313734        3.747576
     10       H        3.180704        3.075392        0.337035
     11       H        3.215715        3.034982        0.342251
     12       H        1.232898        0.905481        4.073257
     13       H        1.359729        1.173183        3.947623
     14       H        1.349900        0.973571        4.143757

 **********************
 *                    *
 * JOB ENDED NORMALLY *
 *                    *
 **********************



 TOTAL JOB TIME:             0.69 SECONDS

 == MOPAC DONE ==
