 *******************************************************************************
 ** Site#: 14399        For non-commercial use only    Version 18.184L 64BITS **
 *******************************************************************************
 ** Cite this program as: MOPAC2016, Version: 18.184L, James J. P. Stewart,   **
 ** Stewart Computational Chemistry, web: HTTP://OpenMOPAC.net. Days left:  18**
 *******************************************************************************
 **                                                                           **
 **                                MOPAC2016                                  **
 **                                                                           **
 *******************************************************************************

                              PM3 CALCULATION RESULTS

 *******************************************************************************
 *  CALCULATION DONE:                                Sat Jun 15 15:11:26 2019  *
 *  PM3        - The PM3 Hamiltonian to be used
 *  PRECISE    - CRITERIA TO BE INCREASED BY 100 TIMES
 *  NOSYM      - POINT-GROUP SYMMETRY SET TO C1
 *  THREADS=1  - MULTI-THREADING NOT USED
 *  T=         - A TIME OF 172800.0 SECONDS REQUESTED
 *  DUMP=N     - RESTART FILE WRITTEN EVERY  7200.000 SECONDS
 *******************************************************************************
pm3  precise nosym THREADS=1
 InChI=1S/C7H10/c1-2-7-4-3-6(7)5-7/h1,6H,2-5H2/lp1

   ATOM   CHEMICAL          X               Y               Z
  NUMBER   SYMBOL      (ANGSTROMS)     (ANGSTROMS)     (ANGSTROMS)
 
     1       C          0.16630000  *   0.20170000  *  -0.43140000  *
     2       C         -0.92700000  *   0.56160000  *   0.59770000  *
     3       C         -0.48340000  *   1.57180000  *  -0.43960000  *
     4       C         -0.66020000  *  -0.99850000  *  -0.87320000  *
     5       C         -1.74430000  *  -0.62850000  *   0.11850000  *
     6       C          1.52980000  *  -0.01410000  *   0.24350000  *
     7       C          2.56430000  *  -0.35130000  *  -0.81390000  *
     8       H         -0.51170000  *   0.57670000  *   1.63010000  *
     9       H         -0.17680000  *  -1.97180000  *  -0.63770000  *
    10       H         -0.99560000  *  -0.90700000  *  -1.92890000  *
    11       H         -1.87760000  *  -1.39160000  *   0.91560000  *
    12       H         -2.69130000  *  -0.31660000  *  -0.37330000  *
    13       H         -1.21140000  *   1.73880000  *  -1.26180000  *
    14       H          0.13620000  *   2.39660000  *  -0.02940000  *
    15       H          1.47020000  *  -0.85180000  *   0.97200000  *
    16       H          1.85810000  *   0.90130000  *   0.78190000  *
    17       H          3.55450000  *  -0.51730000  *  -0.33970000  *
 


          CARTESIAN COORDINATES 

    NO.       ATOM           X           Y           Z

     1         C          0.1663      0.2017     -0.4314
     2         C         -0.9270      0.5616      0.5977
     3         C         -0.4834      1.5718     -0.4396
     4         C         -0.6602     -0.9985     -0.8732
     5         C         -1.7443     -0.6285      0.1185
     6         C          1.5298     -0.0141      0.2435
     7         C          2.5643     -0.3513     -0.8139
     8         H         -0.5117      0.5767      1.6301
     9         H         -0.1768     -1.9718     -0.6377
    10         H         -0.9956     -0.9070     -1.9289
    11         H         -1.8776     -1.3916      0.9156
    12         H         -2.6913     -0.3166     -0.3733
    13         H         -1.2114      1.7388     -1.2618
    14         H          0.1362      2.3966     -0.0294
    15         H          1.4702     -0.8518      0.9720
    16         H          1.8581      0.9013      0.7819
    17         H          3.5545     -0.5173     -0.3397

  H: (PM3): J. J. P. STEWART, J. COMP. CHEM. 10, 209 (1989).
  C: (PM3): J. J. P. STEWART, J. COMP. CHEM. 10, 209 (1989).

           Empirical Formula: C7 H10  =    17 atoms



      MOLECULAR POINT GROUP   :   C1  


      RHF CALCULATION, NO. OF DOUBLY OCCUPIED LEVELS = 19


          Geometry optimization using EF

          DIAGONAL MATRIX USED AS START HESSIAN

 CYCLE:     1 TIME:   0.004 TIME LEFT:  2.00D  GRAD.:   143.441 HEAT:  154.8161
 CYCLE:     2 TIME:   0.004 TIME LEFT:  2.00D  GRAD.:    72.224 HEAT:  147.8299
 CYCLE:     3 TIME:   0.004 TIME LEFT:  2.00D  GRAD.:    87.856 HEAT:  144.5073
 CYCLE:     4 TIME:   0.008 TIME LEFT:  2.00D  GRAD.:    75.371 HEAT:  142.3509
 CYCLE:     5 TIME:   0.000 TIME LEFT:  2.00D  GRAD.:    76.550 HEAT:  141.3460
 CYCLE:     6 TIME:   0.008 TIME LEFT:  2.00D  GRAD.:    51.631 HEAT:  140.0665
 CYCLE:     7 TIME:   0.000 TIME LEFT:  2.00D  GRAD.:    58.164 HEAT:  139.6005
 CYCLE:     8 TIME:   0.004 TIME LEFT:  2.00D  GRAD.:    45.751 HEAT:  138.5936
 CYCLE:     9 TIME:   0.004 TIME LEFT:  2.00D  GRAD.:    70.394 HEAT:  138.4491
 CYCLE:    10 TIME:   0.004 TIME LEFT:  2.00D  GRAD.:    44.467 HEAT:  137.2959
 CYCLE:    11 TIME:   0.004 TIME LEFT:  2.00D  GRAD.:    55.506 HEAT:  136.9850
 CYCLE:    12 TIME:   0.000 TIME LEFT:  2.00D  GRAD.:    39.655 HEAT:  136.2113
 CYCLE:    13 TIME:   0.004 TIME LEFT:  2.00D  GRAD.:    46.267 HEAT:  135.9973
 CYCLE:    14 TIME:   0.004 TIME LEFT:  2.00D  GRAD.:    44.313 HEAT:  135.7520
 CYCLE:    15 TIME:   0.004 TIME LEFT:  2.00D  GRAD.:    32.258 HEAT:  135.1757
 CYCLE:    16 TIME:   0.004 TIME LEFT:  2.00D  GRAD.:    22.931 HEAT:  134.6903
 CYCLE:    17 TIME:   0.000 TIME LEFT:  2.00D  GRAD.:    24.590 HEAT:  134.4948
 CYCLE:    18 TIME:   0.004 TIME LEFT:  2.00D  GRAD.:    13.097 HEAT:  134.1655
 CYCLE:    19 TIME:   0.004 TIME LEFT:  2.00D  GRAD.:    17.935 HEAT:  133.9763
 CYCLE:    20 TIME:   0.004 TIME LEFT:  2.00D  GRAD.:    15.186 HEAT:  133.8138
 CYCLE:    21 TIME:   0.000 TIME LEFT:  2.00D  GRAD.:    11.765 HEAT:  133.6743
 CYCLE:    22 TIME:   0.004 TIME LEFT:  2.00D  GRAD.:    13.157 HEAT:  133.5780
 CYCLE:    23 TIME:   0.004 TIME LEFT:  2.00D  GRAD.:    12.168 HEAT:  133.4402
 CYCLE:    24 TIME:   0.004 TIME LEFT:  2.00D  GRAD.:     8.961 HEAT:  133.3502
 CYCLE:    25 TIME:   0.000 TIME LEFT:  2.00D  GRAD.:     6.048 HEAT:  133.2742
 CYCLE:    26 TIME:   0.004 TIME LEFT:  2.00D  GRAD.:     8.054 HEAT:  133.1882
 CYCLE:    27 TIME:   0.004 TIME LEFT:  2.00D  GRAD.:     7.495 HEAT:  133.1197
 CYCLE:    28 TIME:   0.004 TIME LEFT:  2.00D  GRAD.:     5.026 HEAT:  133.0618
 CYCLE:    29 TIME:   0.004 TIME LEFT:  2.00D  GRAD.:     6.200 HEAT:  133.0108
 CYCLE:    30 TIME:   0.004 TIME LEFT:  2.00D  GRAD.:     5.131 HEAT:  132.9800
 CYCLE:    31 TIME:   0.000 TIME LEFT:  2.00D  GRAD.:     3.550 HEAT:  132.9576
 CYCLE:    32 TIME:   0.004 TIME LEFT:  2.00D  GRAD.:     3.951 HEAT:  132.9316
 CYCLE:    33 TIME:   0.004 TIME LEFT:  2.00D  GRAD.:     3.896 HEAT:  132.9138
 CYCLE:    34 TIME:   0.004 TIME LEFT:  2.00D  GRAD.:     3.091 HEAT:  132.8886
 CYCLE:    35 TIME:   0.000 TIME LEFT:  2.00D  GRAD.:     3.161 HEAT:  132.8687
 CYCLE:    36 TIME:   0.004 TIME LEFT:  2.00D  GRAD.:     3.866 HEAT:  132.8455
 CYCLE:    37 TIME:   0.004 TIME LEFT:  2.00D  GRAD.:     3.769 HEAT:  132.8168
 CYCLE:    38 TIME:   0.008 TIME LEFT:  2.00D  GRAD.:     4.075 HEAT:  132.7864
 CYCLE:    39 TIME:   0.004 TIME LEFT:  2.00D  GRAD.:     4.342 HEAT:  132.7759
 CYCLE:    40 TIME:   0.004 TIME LEFT:  2.00D  GRAD.:     3.195 HEAT:  132.7603
 CYCLE:    41 TIME:   0.004 TIME LEFT:  2.00D  GRAD.:     4.561 HEAT:  132.7388
 CYCLE:    42 TIME:   0.000 TIME LEFT:  2.00D  GRAD.:     3.152 HEAT:  132.7239
 CYCLE:    43 TIME:   0.004 TIME LEFT:  2.00D  GRAD.:     1.926 HEAT:  132.7118
 CYCLE:    44 TIME:   0.004 TIME LEFT:  2.00D  GRAD.:     1.511 HEAT:  132.7056
 CYCLE:    45 TIME:   0.004 TIME LEFT:  2.00D  GRAD.:     1.478 HEAT:  132.7022
 CYCLE:    46 TIME:   0.004 TIME LEFT:  2.00D  GRAD.:     1.029 HEAT:  132.6984
 CYCLE:    47 TIME:   0.000 TIME LEFT:  2.00D  GRAD.:     0.894 HEAT:  132.6965
 CYCLE:    48 TIME:   0.004 TIME LEFT:  2.00D  GRAD.:     0.892 HEAT:  132.6944
 CYCLE:    49 TIME:   0.004 TIME LEFT:  2.00D  GRAD.:     0.942 HEAT:  132.6926
 CYCLE:    50 TIME:   0.004 TIME LEFT:  2.00D  GRAD.:     0.747 HEAT:  132.6911
 CYCLE:    51 TIME:   0.000 TIME LEFT:  2.00D  GRAD.:     0.498 HEAT:  132.6904
 CYCLE:    52 TIME:   0.004 TIME LEFT:  2.00D  GRAD.:     0.377 HEAT:  132.6899
 CYCLE:    53 TIME:   0.004 TIME LEFT:  2.00D  GRAD.:     0.304 HEAT:  132.6896
 CYCLE:    54 TIME:   0.004 TIME LEFT:  2.00D  GRAD.:     0.195 HEAT:  132.6895
 CYCLE:    55 TIME:   0.004 TIME LEFT:  2.00D  GRAD.:     0.147 HEAT:  132.6894
 CYCLE:    56 TIME:   0.004 TIME LEFT:  2.00D  GRAD.:     0.121 HEAT:  132.6894
 CYCLE:    57 TIME:   0.000 TIME LEFT:  2.00D  GRAD.:     0.106 HEAT:  132.6894
 CYCLE:    58 TIME:   0.004 TIME LEFT:  2.00D  GRAD.:     0.081 HEAT:  132.6893
 CYCLE:    59 TIME:   0.004 TIME LEFT:  2.00D  GRAD.:     0.069 HEAT:  132.6893
 CYCLE:    60 TIME:   0.000 TIME LEFT:  2.00D  GRAD.:     0.112 HEAT:  132.6893
 CYCLE:    61 TIME:   0.004 TIME LEFT:  2.00D  GRAD.:     0.089 HEAT:  132.6893
 CYCLE:    62 TIME:   0.004 TIME LEFT:  2.00D  GRAD.:     0.092 HEAT:  132.6893
 CYCLE:    63 TIME:   0.004 TIME LEFT:  2.00D  GRAD.:     0.172 HEAT:  132.6892
 CYCLE:    64 TIME:   0.000 TIME LEFT:  2.00D  GRAD.:     0.101 HEAT:  132.6892
 CYCLE:    65 TIME:   0.004 TIME LEFT:  2.00D  GRAD.:     0.058 HEAT:  132.6892
 CYCLE:    66 TIME:   0.004 TIME LEFT:  2.00D  GRAD.:     0.067 HEAT:  132.6892
 CYCLE:    67 TIME:   0.004 TIME LEFT:  2.00D  GRAD.:     0.271 HEAT:  132.6893
 CYCLE:    68 TIME:   0.004 TIME LEFT:  2.00D  GRAD.:     0.126 HEAT:  132.6891
 CYCLE:    69 TIME:   0.004 TIME LEFT:  2.00D  GRAD.:     0.101 HEAT:  132.6890
 CYCLE:    70 TIME:   0.000 TIME LEFT:  2.00D  GRAD.:     0.166 HEAT:  132.6890
 CYCLE:    71 TIME:   0.004 TIME LEFT:  2.00D  GRAD.:     0.122 HEAT:  132.6889
 CYCLE:    72 TIME:   0.004 TIME LEFT:  2.00D  GRAD.:     0.133 HEAT:  132.6889
 CYCLE:    73 TIME:   0.004 TIME LEFT:  2.00D  GRAD.:     0.142 HEAT:  132.6888
 CYCLE:    74 TIME:   0.000 TIME LEFT:  2.00D  GRAD.:     0.171 HEAT:  132.6886
 CYCLE:    75 TIME:   0.004 TIME LEFT:  2.00D  GRAD.:     0.189 HEAT:  132.6885
 CYCLE:    76 TIME:   0.004 TIME LEFT:  2.00D  GRAD.:     0.226 HEAT:  132.6883
 CYCLE:    77 TIME:   0.004 TIME LEFT:  2.00D  GRAD.:     0.170 HEAT:  132.6883
 CYCLE:    78 TIME:   0.004 TIME LEFT:  2.00D  GRAD.:     0.218 HEAT:  132.6882
 CYCLE:    79 TIME:   0.000 TIME LEFT:  2.00D  GRAD.:     0.089 HEAT:  132.6882
 CYCLE:    80 TIME:   0.004 TIME LEFT:  2.00D  GRAD.:     0.063 HEAT:  132.6882
 CYCLE:    81 TIME:   0.004 TIME LEFT:  2.00D  GRAD.:     0.052 HEAT:  132.6882
 CYCLE:    82 TIME:   0.004 TIME LEFT:  2.00D  GRAD.:     0.139 HEAT:  132.6882
 CYCLE:    83 TIME:   0.004 TIME LEFT:  2.00D  GRAD.:     0.038 HEAT:  132.6882

     GRADIENT =  0.03820  IS LESS THAN CUTOFF =  0.05000



 -------------------------------------------------------------------------------
 pm3  precise nosym THREADS=1
 InChI=1S/C7H10/c1-2-7-4-3-6(7)5-7/h1,6H,2-5H2/lp1



     GEOMETRY OPTIMISED USING EIGENVECTOR FOLLOWING (EF).     
     SCF FIELD WAS ACHIEVED                                   


                              PM3 CALCULATION
                                                       MOPAC2016 (Version: 18.184L)
                                                       Sat Jun 15 15:11:26 2019
                                                       No. of days remaining =  18




          FINAL HEAT OF FORMATION =        132.68815 KCAL/MOL =     555.16724 KJ/MOL


          TOTAL ENERGY            =       -978.05579 EV
          ELECTRONIC ENERGY       =      -4594.21544 EV  POINT GROUP:     C1  
          CORE-CORE REPULSION     =       3616.15965 EV
          COSMO AREA              =        146.74 SQUARE ANGSTROMS
          COSMO VOLUME            =        142.62 CUBIC ANGSTROMS

          GRADIENT NORM           =          0.03820 = 0.00926 PER ATOM
          IONIZATION POTENTIAL    =          8.739597 EV
          HOMO LUMO ENERGIES (EV) =         -8.740 -0.624
          NO. OF FILLED LEVELS    =         19
          MOLECULAR WEIGHT        =         94.1560

          MOLECULAR DIMENSIONS (Angstroms)

            Atom       Atom       Distance
            H    17    H    12     6.24481
            H    14    H     9     4.40702
            H    10    H     8     3.38070


          SCF CALCULATIONS        =         89
 
          WALL-CLOCK TIME         =          0.277 SECONDS
          COMPUTATION TIME        =          0.247 SECONDS




   ATOM   CHEMICAL          X               Y               Z
  NUMBER   SYMBOL      (ANGSTROMS)     (ANGSTROMS)     (ANGSTROMS)
 
     1       C          0.21641236  *   0.14295635  *  -0.17336016  *
     2       C         -0.99230362  *   0.55365573  *   0.66739965  *
     3       C         -0.45515731  *   1.47279766  *  -0.39690995  *
     4       C         -0.59833839  *  -0.99328416  *  -0.81651301  *
     5       C         -1.82836666  *  -0.57213644  *   0.04237549  *
     6       C          1.64902581  *  -0.00193703  *   0.19849813  *
     7       C          2.47932501  *  -0.43088859  *  -0.90426931  *
     8       H         -1.07358793  *   0.82312407  *   1.72132501  *
     9       H         -0.20502620  *  -1.99632894  *  -0.59694680  *
    10       H         -0.72695784  *  -0.91250866  *  -1.90556765  *
    11       H         -2.16026878  *  -1.33062619  *   0.76549545  *
    12       H         -2.70929053  *  -0.23986804  *  -0.52606755  *
    13       H         -1.02244290  *   1.66747048  *  -1.31470272  *
    14       H          0.06845638  *   2.38233884  *  -0.08012831  *
    15       H          1.77578097  *  -0.86897602  *   0.89218658  *
    16       H          1.98935778  *   0.89645187  *   0.75483621  *
    17       H          3.53194153  *  -0.17161974  *  -0.72597061  *

                             CARTESIAN COORDINATES

   1    C        0.216412364     0.142956353    -0.173360164
   2    C       -0.992303615     0.553655729     0.667399645
   3    C       -0.455157313     1.472797657    -0.396909946
   4    C       -0.598338391    -0.993284158    -0.816513007
   5    C       -1.828366664    -0.572136437     0.042375488
   6    C        1.649025808    -0.001937033     0.198498133
   7    C        2.479325006    -0.430888593    -0.904269313
   8    H       -1.073587929     0.823124073     1.721325009
   9    H       -0.205026204    -1.996328937    -0.596946802
  10    H       -0.726957837    -0.912508664    -1.905567648
  11    H       -2.160268784    -1.330626187     0.765495450
  12    H       -2.709290532    -0.239868036    -0.526067551
  13    H       -1.022442900     1.667470476    -1.314702723
  14    H        0.068456383     2.382338838    -0.080128307
  15    H        1.775780968    -0.868976024     0.892186580
  16    H        1.989357777     0.896451867     0.754836209
  17    H        3.531941533    -0.171619736    -0.725970611


           Empirical Formula: C7 H10  =    17 atoms



      MOLECULAR POINT GROUP   :   C1  


                  EIGENVALUES  
 -42.22221 -32.58003 -28.71956 -24.15964 -21.80231 -19.98887 -18.18914 -16.58039
 -16.27061 -15.49483 -14.59043 -13.89221 -13.39424 -12.94339 -12.28593 -12.02157
 -11.14514 -10.44700  -8.73960  -0.62379   2.44024   2.88713   3.00398   3.29399
   3.37703   3.55853   3.65659   3.80967   4.03695   4.20611   4.31857   4.34954
   4.57996   4.84509   5.00328   5.04352   5.17591   5.54961


              NET ATOMIC CHARGES AND DIPOLE CONTRIBUTIONS

  ATOM NO.   TYPE          CHARGE      No. of ELECS.   s-Pop       p-Pop       
    1          C          -0.119927        4.1199     1.19709     2.92284
    2          C          -0.168225        4.1682     1.19999     2.96823
    3          C          -0.113500        4.1135     1.16313     2.95037
    4          C          -0.057363        4.0574     1.16782     2.88954
    5          C          -0.083826        4.0838     1.16965     2.91417
    6          C          -0.152047        4.1520     1.15834     2.99371
    7          C           0.059644        3.9404     1.64626     2.29410
    8          H           0.112128        0.8879     0.88787
    9          H           0.061644        0.9384     0.93836
   10          H           0.065233        0.9348     0.93477
   11          H           0.057406        0.9426     0.94259
   12          H           0.058594        0.9414     0.94141
   13          H           0.080630        0.9194     0.91937
   14          H           0.074796        0.9252     0.92520
   15          H           0.108860        0.8911     0.89114
   16          H           0.067387        0.9326     0.93261
   17          H          -0.051434        1.0514     1.05143
 DIPOLE           X         Y         Z       TOTAL
 POINT-CHG.    -0.564    -0.439     0.149     0.730
 HYBRID         0.726     1.013     1.835     2.218
 SUM            0.162     0.574     1.984     2.072


          ATOMIC ORBITAL ELECTRON POPULATIONS

     Atom    s        px        py        pz   
    1  C   1.19709   0.91669   0.96625   1.03990
    2  C   1.19999   0.97874   1.01156   0.97793
    3  C   1.16313   1.02209   0.92857   0.99971
    4  C   1.16782   0.93634   0.96372   0.98948
    5  C   1.16965   0.96102   0.96686   0.98629
    6  C   1.15834   0.98337   0.99404   1.01629
    7  C   1.64626   0.92740   0.43104   0.93565
    8  H   0.88787
    9  H   0.93836
   10  H   0.93477
   11  H   0.94259
   12  H   0.94141
   13  H   0.91937
   14  H   0.92520
   15  H   0.89114
   16  H   0.93261
   17  H   1.05143
 *******************************************************************************
 ** Site#: 14399        For non-commercial use only    Version 18.184L 64BITS **
 *******************************************************************************
 ** Cite this program as: MOPAC2016, Version: 18.184L, James J. P. Stewart,   **
 ** Stewart Computational Chemistry, web: HTTP://OpenMOPAC.net. Days left:  18**
 *******************************************************************************
 **                                                                           **
 **                                MOPAC2016                                  **
 **                                                                           **
 *******************************************************************************

                              PM3 CALCULATION RESULTS

 *******************************************************************************
 *  CALCULATION DONE:                                Sat Jun 15 15:11:26 2019  *
 *  PM3        - The PM3 Hamiltonian to be used
 *  OLDGEO     - PREVIOUS GEOMETRY TO BE USED
 *  PRECISE    - CRITERIA TO BE INCREASED BY 100 TIMES
 *  NOSYM      - POINT-GROUP SYMMETRY SET TO C1
 *  THREADS=1  - MULTI-THREADING NOT USED
 *  T=         - A TIME OF 172800.0 SECONDS REQUESTED
 *  DUMP=N     - RESTART FILE WRITTEN EVERY  7200.000 SECONDS
 *  THERMO     - THERMODYNAMIC QUANTITIES TO BE CALCULATED
 *******************************************************************************
oldgeo thermo nosym precise THREADS=1  pm3
 InChI=1S/C7H10/c1-2-7-4-3-6(7)5-7/h1,6H,2-5H2/lp1

   ATOM   CHEMICAL          X               Y               Z
  NUMBER   SYMBOL      (ANGSTROMS)     (ANGSTROMS)     (ANGSTROMS)
 
     1       C          0.21641236  *   0.14295635  *  -0.17336016  *
     2       C         -0.99230362  *   0.55365573  *   0.66739965  *
     3       C         -0.45515731  *   1.47279766  *  -0.39690995  *
     4       C         -0.59833839  *  -0.99328416  *  -0.81651301  *
     5       C         -1.82836666  *  -0.57213644  *   0.04237549  *
     6       C          1.64902581  *  -0.00193703  *   0.19849813  *
     7       C          2.47932501  *  -0.43088859  *  -0.90426931  *
     8       H         -1.07358793  *   0.82312407  *   1.72132501  *
     9       H         -0.20502620  *  -1.99632894  *  -0.59694680  *
    10       H         -0.72695784  *  -0.91250866  *  -1.90556765  *
    11       H         -2.16026878  *  -1.33062619  *   0.76549545  *
    12       H         -2.70929053  *  -0.23986804  *  -0.52606755  *
    13       H         -1.02244290  *   1.66747048  *  -1.31470272  *
    14       H          0.06845638  *   2.38233884  *  -0.08012831  *
    15       H          1.77578097  *  -0.86897602  *   0.89218658  *
    16       H          1.98935778  *   0.89645187  *   0.75483621  *
    17       H          3.53194153  *  -0.17161974  *  -0.72597061  *
 


          CARTESIAN COORDINATES 

    NO.       ATOM           X           Y           Z

     1         C          0.2164      0.1430     -0.1734
     2         C         -0.9923      0.5537      0.6674
     3         C         -0.4552      1.4728     -0.3969
     4         C         -0.5983     -0.9933     -0.8165
     5         C         -1.8284     -0.5721      0.0424
     6         C          1.6490     -0.0019      0.1985
     7         C          2.4793     -0.4309     -0.9043
     8         H         -1.0736      0.8231      1.7213
     9         H         -0.2050     -1.9963     -0.5969
    10         H         -0.7270     -0.9125     -1.9056
    11         H         -2.1603     -1.3306      0.7655
    12         H         -2.7093     -0.2399     -0.5261
    13         H         -1.0224      1.6675     -1.3147
    14         H          0.0685      2.3823     -0.0801
    15         H          1.7758     -0.8690      0.8922
    16         H          1.9894      0.8965      0.7548
    17         H          3.5319     -0.1716     -0.7260

  H: (PM3): J. J. P. STEWART, J. COMP. CHEM. 10, 209 (1989).
  C: (PM3): J. J. P. STEWART, J. COMP. CHEM. 10, 209 (1989).

           Empirical Formula: C7 H10  =    17 atoms



      MOLECULAR POINT GROUP   :   C1  


      RHF CALCULATION, NO. OF DOUBLY OCCUPIED LEVELS = 19



          HEAT OF FORMATION =     132.688155 KCALS/MOLE


          CARTESIAN COORDINATE DERIVATIVES

   NUMBER  ATOM         X            Y            Z

     1       C     -0.004926     0.003232    -0.000358
     2       C     -0.002080    -0.001362    -0.002698
     3       C     -0.000451     0.003309     0.002936
     4       C      0.000428    -0.002482     0.000559
     5       C     -0.001598    -0.004035    -0.004848
     6       C     -0.008121     0.001877     0.005412
     7       C     -0.007492     0.008295    -0.004696
     8       H      0.000582    -0.000516     0.001308
     9       H      0.015399     0.000907     0.008061
    10       H     -0.004105     0.003736    -0.003946
    11       H      0.006056    -0.003076     0.005834
    12       H     -0.009271    -0.008519    -0.005190
    13       H     -0.001221     0.007619    -0.005184
    14       H      0.004334    -0.001669     0.004795
    15       H      0.008425    -0.001198    -0.000713
    16       H     -0.000365    -0.001523    -0.005083
    17       H      0.004406    -0.004594     0.003810
 


          GRADIENT NORM =   0.03560


          TIME FOR SCF CALCULATION =    0.00

          TIME FOR DERIVATIVES     =    0.00

          MOLECULAR WEIGHT =   94.16



          ROTATIONAL CONSTANTS IN CM(-1)

          A =    0.17500151   B =    0.07299245   C =    0.06191259



           PRINCIPAL MOMENTS OF INERTIA IN UNITS OF 10**(-40)*GRAM-CM**2

          A =      159.9573   B =      383.5023   C =      452.1338


          ORIENTATION OF MOLECULE IN FORCE CALCULATION

    NO.       ATOM         X         Y         Z

     1          C      -0.0887    0.0874   -0.1581
     2          C       1.4399    0.0874   -0.1581
     3          C       0.6767    1.3850   -0.1581
     4          C      -0.1035   -0.5359    1.2490
     5          C       1.4547   -0.5347    1.2454
     6          C      -1.0559   -0.2961   -1.2206
     7          C      -2.4343   -0.1624   -0.8062
     8          H       2.1563   -0.1985   -0.9295
     9          H      -0.5632   -1.5341    1.2838
    10          H      -0.5791    0.0817    2.0246
    11          H       1.9111   -1.5341    1.2817
    12          H       1.9279    0.0805    2.0246
    13          H       0.6728    2.0385    0.7222
    14          H       0.6813    1.9889   -1.0730
    15          H      -1.0076   -1.3983   -1.3987
    16          H      -0.7777    0.1885   -2.1799
    17          H      -3.0989   -0.0801   -1.6771


    FIRST DERIVATIVES WILL BE USED IN THE CALCULATION OF SECOND DERIVATIVES

          ESTIMATED TIME TO COMPLETE CALCULATION =        0.80 SECONDS

    FOR POINT-GROUP C1   THERE ARE   1 UNIQUE SYMMETRY FUNCTIONS.

 STEP:   1 TIME =     0.01 SECS, INTEGRAL =      0.01 TIME LEFT: 172799.98
 STEP:   2 TIME =     0.01 SECS, INTEGRAL =      0.02 TIME LEFT: 172799.97
 STEP:   3 TIME =     0.01 SECS, INTEGRAL =      0.04 TIME LEFT: 172799.96
 STEP:   4 TIME =     0.01 SECS, INTEGRAL =      0.05 TIME LEFT: 172799.95
 STEP:   5 TIME =     0.01 SECS, INTEGRAL =      0.06 TIME LEFT: 172799.94
 STEP:   6 TIME =     0.01 SECS, INTEGRAL =      0.07 TIME LEFT: 172799.93
 STEP:   7 TIME =     0.01 SECS, INTEGRAL =      0.08 TIME LEFT: 172799.91
 STEP:   8 TIME =     0.01 SECS, INTEGRAL =      0.09 TIME LEFT: 172799.90
 STEP:   9 TIME =     0.02 SECS, INTEGRAL =      0.11 TIME LEFT: 172799.89
 STEP:  10 TIME =     0.01 SECS, INTEGRAL =      0.12 TIME LEFT: 172799.88
 STEP:  11 TIME =     0.01 SECS, INTEGRAL =      0.13 TIME LEFT: 172799.86
 STEP:  12 TIME =     0.01 SECS, INTEGRAL =      0.14 TIME LEFT: 172799.85
 STEP:  13 TIME =     0.01 SECS, INTEGRAL =      0.16 TIME LEFT: 172799.84
 STEP:  14 TIME =     0.01 SECS, INTEGRAL =      0.17 TIME LEFT: 172799.83
 STEP:  15 TIME =     0.01 SECS, INTEGRAL =      0.18 TIME LEFT: 172799.82
 STEP:  16 TIME =     0.01 SECS, INTEGRAL =      0.19 TIME LEFT: 172799.80
 STEP:  17 TIME =     0.02 SECS, INTEGRAL =      0.21 TIME LEFT: 172799.79
 STEP:  18 TIME =     0.01 SECS, INTEGRAL =      0.22 TIME LEFT: 172799.78
 STEP:  19 TIME =     0.01 SECS, INTEGRAL =      0.23 TIME LEFT: 172799.77
 STEP:  20 TIME =     0.02 SECS, INTEGRAL =      0.25 TIME LEFT: 172799.75
 STEP:  21 TIME =     0.01 SECS, INTEGRAL =      0.26 TIME LEFT: 172799.74
 STEP:  22 TIME =     0.02 SECS, INTEGRAL =      0.27 TIME LEFT: 172799.72
 STEP:  23 TIME =     0.01 SECS, INTEGRAL =      0.29 TIME LEFT: 172799.71
 STEP:  24 TIME =     0.01 SECS, INTEGRAL =      0.30 TIME LEFT: 172799.70
 STEP:  25 TIME =     0.02 SECS, INTEGRAL =      0.31 TIME LEFT: 172799.68
 STEP:  26 TIME =     0.01 SECS, INTEGRAL =      0.32 TIME LEFT: 172799.67
 STEP:  27 TIME =     0.01 SECS, INTEGRAL =      0.34 TIME LEFT: 172799.66
 STEP:  28 TIME =     0.01 SECS, INTEGRAL =      0.35 TIME LEFT: 172799.65
 STEP:  29 TIME =     0.02 SECS, INTEGRAL =      0.36 TIME LEFT: 172799.63
 STEP:  30 TIME =     0.01 SECS, INTEGRAL =      0.38 TIME LEFT: 172799.62
 STEP:  31 TIME =     0.01 SECS, INTEGRAL =      0.39 TIME LEFT: 172799.61
 STEP:  32 TIME =     0.01 SECS, INTEGRAL =      0.40 TIME LEFT: 172799.60
 STEP:  33 TIME =     0.01 SECS, INTEGRAL =      0.41 TIME LEFT: 172799.59
 STEP:  34 TIME =     0.01 SECS, INTEGRAL =      0.42 TIME LEFT: 172799.57
 STEP:  35 TIME =     0.02 SECS, INTEGRAL =      0.44 TIME LEFT: 172799.56
 STEP:  36 TIME =     0.01 SECS, INTEGRAL =      0.45 TIME LEFT: 172799.55
 STEP:  37 TIME =     0.01 SECS, INTEGRAL =      0.46 TIME LEFT: 172799.54
 STEP:  38 TIME =     0.01 SECS, INTEGRAL =      0.47 TIME LEFT: 172799.52
 STEP:  39 TIME =     0.01 SECS, INTEGRAL =      0.48 TIME LEFT: 172799.51
 STEP:  40 TIME =     0.01 SECS, INTEGRAL =      0.50 TIME LEFT: 172799.50
 STEP:  41 TIME =     0.01 SECS, INTEGRAL =      0.51 TIME LEFT: 172799.49
 STEP:  42 TIME =     0.01 SECS, INTEGRAL =      0.52 TIME LEFT: 172799.48
 STEP:  43 TIME =     0.02 SECS, INTEGRAL =      0.54 TIME LEFT: 172799.46
 STEP:  44 TIME =     0.01 SECS, INTEGRAL =      0.55 TIME LEFT: 172799.45
 STEP:  45 TIME =     0.01 SECS, INTEGRAL =      0.56 TIME LEFT: 172799.44
 STEP:  46 TIME =     0.02 SECS, INTEGRAL =      0.57 TIME LEFT: 172799.42
 STEP:  47 TIME =     0.01 SECS, INTEGRAL =      0.59 TIME LEFT: 172799.41
 STEP:  48 TIME =     0.01 SECS, INTEGRAL =      0.60 TIME LEFT: 172799.40
 STEP:  49 TIME =     0.01 SECS, INTEGRAL =      0.61 TIME LEFT: 172799.39
 STEP:  50 TIME =     0.02 SECS, INTEGRAL =      0.62 TIME LEFT: 172799.37
 STEP:  51 TIME =     0.02 SECS, INTEGRAL =      0.64 TIME LEFT: 172799.36

(To convert to Hartree/Bohr^2, multiply by (10^(-21) x N x a0^2)/(4.184 x 627.51) =  0.0642)


           FORCE MATRIX IN MILLIDYNES/ANGSTROM


                  C  1       C  2       C  3       C  4       C  5       C  6
 ------------------------------------------------------------------------------
     C    1  15.931984
     C    2   4.012270  15.296694
     C    3   4.707327   4.820682  15.308734
     C    4   3.588777   1.868784   0.625531  14.361547
     C    5   1.883205   3.749923   0.651318   3.259784  14.438212
     C    6   4.963023   0.388382   0.480045   0.438180   0.050652  14.671122
     C    7   0.801853   0.042762   0.024590   0.035360   0.007154   5.890855
     H    8   0.356812   4.991673   0.414849   0.040981   0.387122   0.023325
     H    9   0.457030   0.027995   0.046032   4.719275   0.444970   0.010101
     H   10   0.449823   0.041590   0.020910   4.716433   0.428154   0.016087
     H   11   0.028820   0.450172   0.049689   0.444224   4.725864   0.004273
     H   12   0.041974   0.445985   0.021915   0.428346   4.699551   0.007921
     H   13   0.459852   0.459453   4.800608   0.027820   0.028250   0.028839
     H   14   0.459347   0.457884   4.809755   0.047050   0.051315   0.020956
     H   15   0.437750   0.014515   0.037714   0.013883   0.003223   4.146974
     H   16   0.433768   0.007915   0.023379   0.037856   0.005083   4.322025
     H   17   0.072999   0.010359   0.008006   0.005550   0.001904   0.526750


                  C  7       H  8       H  9       H 10       H 11       H 12
 ------------------------------------------------------------------------------
     C    7   9.237644
     H    8   0.004540   5.522570
     H    9   0.009150   0.002289   5.327806
     H   10   0.005421   0.005243   0.539716   5.336923
     H   11   0.001601   0.014435   0.022929   0.031725   5.333227
     H   12   0.001644   0.016460   0.031404   0.020007   0.539554   5.323737
     H   13   0.005287   0.030501   0.004187   0.011796   0.004400   0.011913
     H   14   0.003305   0.015934   0.007424   0.004044   0.008219   0.004275
     H   15   0.269293   0.001830   0.007429   0.000956   0.000635   0.001019
     H   16   0.464712   0.001879   0.002686   0.003234   0.000650   0.000733
     H   17   4.725471   0.001744   0.003109   0.001829   0.000686   0.000678


                  H 13       H 14       H 15       H 16       H 17
 ------------------------------------------------------------------
     H   13   5.417147
     H   14   0.482634   5.403804
     H   15   0.006518   0.002593   4.735065
     H   16   0.001355   0.016914   0.521676   4.946692
     H   17   0.001260   0.001628   0.056948   0.053616   4.847939


          HEAT OF FORMATION =     132.688155 KCALS/MOLE

          ZERO POINT ENERGY      91.055 KCAL/MOL


           NORMAL COORDINATE ANALYSIS (Total motion = 1 Angstrom)


   Root No.       1         2         3         4         5         6         7         8

                 1 A       2 A       3 A       4 A       5 A       6 A       7 A       8 A   

                  44.7     192.3     269.1     344.7     388.5     439.3     449.3     604.4
  
           1   -0.0030    0.0160   -0.0096   -0.0054   -0.0077    0.0182   -0.0154   -0.0023
           2   -0.0254   -0.0225   -0.0156   -0.0294    0.0261   -0.0223    0.0058    0.0123
           3    0.0082   -0.0286    0.0204    0.0024    0.0108   -0.0362    0.0004   -0.0018
           4   -0.0032    0.0164   -0.0074   -0.0096   -0.0078    0.0264   -0.0310    0.0076
           5    0.0146    0.0027   -0.0249   -0.0009   -0.0038   -0.0044   -0.0310    0.0100
           6   -0.0012    0.0135   -0.0079   -0.0015   -0.0078   -0.0004   -0.0407    0.0036
           7   -0.0372   -0.0042    0.0046   -0.0365    0.0238    0.0111    0.0089    0.0248
           8   -0.0054   -0.0105   -0.0209   -0.0133    0.0120   -0.0146   -0.0048    0.0112
           9    0.0041   -0.0171   -0.0088   -0.0024   -0.0011    0.0454    0.0432    0.0052
          10    0.0217   -0.0118    0.0204    0.0041   -0.0047    0.0102   -0.0142    0.0013
          11   -0.0270   -0.0308   -0.0198    0.0217   -0.0153    0.0292    0.0077    0.0043
          12    0.0077   -0.0337    0.0197    0.0270   -0.0096   -0.0129    0.0007   -0.0115
          13    0.0218   -0.0132    0.0223    0.0065   -0.0052    0.0116   -0.0086   -0.0005
          14    0.0155    0.0297    0.0335   -0.0049    0.0092    0.0134    0.0288    0.0020
          15   -0.0011    0.0276    0.0170   -0.0046   -0.0016    0.0064   -0.0141   -0.0017
          16   -0.0001   -0.0057   -0.0128    0.0158    0.0013   -0.0336    0.0213   -0.0126
          17   -0.0452    0.0025    0.0407    0.0025    0.0017    0.0004   -0.0205   -0.0742
          18    0.0130   -0.0179   -0.0002   -0.0279    0.0130   -0.0074   -0.0175    0.0228
          19   -0.0023    0.0152   -0.0272    0.0263   -0.0022   -0.0375    0.0354   -0.0427
          20    0.0849    0.0206   -0.0050   -0.0085   -0.0391   -0.0156    0.0144    0.0144
          21   -0.0343    0.0550   -0.0355    0.0075   -0.0075   -0.0133    0.0173   -0.0048
          22   -0.0002    0.0471   -0.0259   -0.0066   -0.0282    0.0606   -0.0720    0.0112
          23    0.0337    0.0062   -0.0526    0.0161   -0.0307    0.0366   -0.0564    0.0093
          24   -0.0056    0.0412   -0.0145   -0.0052   -0.0167    0.0173   -0.0679    0.0070
          25    0.0507    0.0286    0.0629   -0.0213    0.0175   -0.0040    0.0027    0.0059
          26   -0.0402   -0.0509   -0.0396    0.0371   -0.0286    0.0391    0.0003    0.0006
          27    0.0104   -0.0645    0.0133    0.0916   -0.0613    0.0442    0.0047   -0.0367
          28    0.0093   -0.0715   -0.0012    0.0394   -0.0263    0.0140   -0.0219   -0.0074
          29   -0.0407   -0.0598   -0.0453    0.0768   -0.0636    0.0832    0.0023   -0.0151
          30    0.0111   -0.0476    0.0261    0.0063    0.0143   -0.0517    0.0001   -0.0021
          31    0.0493    0.0279    0.0640   -0.0162    0.0161    0.0007    0.0147   -0.0041
          32    0.0279    0.0504    0.0553   -0.0165    0.0203    0.0098    0.0441   -0.0001
          33   -0.0030    0.0712    0.0709   -0.0261    0.0197    0.0348    0.0569   -0.0097
          34    0.0092   -0.0716   -0.0022    0.0394   -0.0250    0.0101   -0.0195   -0.0032
          35    0.0289    0.0692    0.0949   -0.0239    0.0334    0.0254    0.0997   -0.0085
          36   -0.0040    0.0324   -0.0154   -0.0103   -0.0080   -0.0012   -0.0616    0.0083
          37   -0.0492   -0.0370    0.0342   -0.0524    0.0569   -0.0248    0.0629    0.0326
          38   -0.0057   -0.0024   -0.0096   -0.0118    0.0128   -0.0766   -0.0744    0.0036
          39    0.0042   -0.0234   -0.0171   -0.0037   -0.0015    0.0944    0.0979    0.0118
          40   -0.0590    0.0075   -0.0151   -0.0507    0.0253    0.0343   -0.0094    0.0530
          41   -0.0053   -0.0188   -0.0312   -0.0143    0.0103    0.0528    0.0675    0.0214
          42    0.0041   -0.0227   -0.0160   -0.0032   -0.0022    0.0925    0.0938    0.0123
          43   -0.0695   -0.0156    0.0091    0.0143   -0.0789   -0.1060    0.0696    0.2565
          44   -0.0623    0.0089    0.0559    0.0160   -0.0219   -0.0111   -0.0167   -0.0198
          45    0.1015   -0.0523   -0.0859   -0.0989    0.1097    0.0249   -0.0143   -0.1564
          46    0.0594   -0.0399   -0.0102    0.0227    0.0523   -0.0294    0.0128   -0.0932
          47   -0.1395    0.0293    0.1176    0.0638   -0.0868   -0.0370   -0.0171    0.1043
          48   -0.0173   -0.0139    0.0376    0.0042   -0.0141   -0.0234   -0.0183    0.0819
          49    0.0277   -0.0279    0.0000    0.0174    0.0211   -0.0322    0.0036    0.0389
          50    0.0610    0.0662   -0.0041    0.2490    0.2640    0.0441   -0.0540    0.1419
          51   -0.0594    0.0926   -0.0570    0.0397    0.0045   -0.0123    0.0361   -0.0573


   Root No.       9        10        11        12        13        14        15        16

                 9 A      10 A      11 A      12 A      13 A      14 A      15 A      16 A   

                 698.1     811.4     836.8     872.0     895.0     939.4     951.4     976.3
  
           1    0.0341   -0.0085    0.0010   -0.0025   -0.0178    0.0197    0.0023    0.0145
           2   -0.0292   -0.0224    0.0008   -0.0082    0.0177    0.0055    0.0026   -0.0060
           3    0.0153    0.0118   -0.0016   -0.0032    0.0117   -0.0138   -0.0131   -0.0122
           4    0.0294    0.0088   -0.0065   -0.0083    0.0246    0.0061    0.0016   -0.0243
           5    0.0068    0.0320    0.0087   -0.0037   -0.0105   -0.0007   -0.0034   -0.0083
           6   -0.0383   -0.0055    0.0005    0.0021   -0.0002   -0.0248   -0.0057   -0.0077
           7   -0.0117    0.0413    0.0092    0.0088   -0.0098   -0.0037   -0.0032    0.0008
           8   -0.0131   -0.0014    0.0156   -0.0078   -0.0304    0.0226   -0.0068    0.0285
           9   -0.0028    0.0023    0.0011    0.0012    0.0128   -0.0301   -0.0148    0.0130
          10   -0.0320   -0.0171    0.0015   -0.0159   -0.0044    0.0244    0.0092    0.0096
          11    0.0002   -0.0220   -0.0334   -0.0023    0.0139   -0.0006   -0.0196   -0.0096
          12   -0.0130    0.0356    0.0003    0.0173    0.0036    0.0416    0.0107    0.0028
          13   -0.0290   -0.0223   -0.0083   -0.0073   -0.0010   -0.0368   -0.0152   -0.0053
          14    0.0093    0.0274   -0.0231    0.0141   -0.0036   -0.0193    0.0118   -0.0157
          15   -0.0203   -0.0180   -0.0115   -0.0315   -0.0184    0.0112    0.0037    0.0091
          16    0.0181   -0.0084   -0.0006    0.0056   -0.0017   -0.0022    0.0017   -0.0005
          17    0.0163   -0.0110   -0.0009    0.0034    0.0076   -0.0064    0.0269    0.0023
          18    0.0625   -0.0246   -0.0007    0.0170   -0.0122   -0.0033   -0.0032   -0.0004
          19    0.0012   -0.0006   -0.0018    0.0070   -0.0039   -0.0001   -0.0111   -0.0021
          20   -0.0042    0.0013    0.0002   -0.0008    0.0008    0.0001   -0.0010   -0.0007
          21   -0.0008   -0.0030    0.0000    0.0037   -0.0021   -0.0027    0.0036    0.0022
          22    0.0505    0.0652    0.0117    0.0301    0.1298    0.0649    0.0097    0.0204
          23    0.0321    0.0647    0.0477    0.0675    0.1231    0.0260   -0.0513    0.0846
          24   -0.0268    0.0338    0.0028    0.0097    0.0500    0.0221    0.0195    0.0006
          25   -0.0536    0.0276   -0.1390    0.0246   -0.0065    0.0238    0.0497    0.0939
          26    0.0104   -0.0406    0.0418   -0.0224    0.0111   -0.0067   -0.0337   -0.0461
          27    0.0125    0.1055    0.1237    0.0080   -0.0621   -0.0407    0.1151    0.0870
          28   -0.0524   -0.0253    0.1501   -0.0313    0.0173    0.0595   -0.0003   -0.0845
          29    0.0352   -0.0135    0.1021   -0.0358   -0.0462   -0.0966    0.0286    0.0344
          30   -0.0509    0.0250   -0.0077    0.0323    0.0633    0.1378   -0.0313   -0.0915
          31   -0.0385   -0.0266    0.1425   -0.0097   -0.0100   -0.0656   -0.0129   -0.0837
          32    0.0074    0.0197    0.0552    0.0133   -0.0032   -0.0290    0.0079   -0.0488
          33   -0.0042   -0.1282    0.0842   -0.0347    0.0635    0.1028   -0.0676    0.1064
          34   -0.0530    0.0034   -0.1495    0.0352    0.0061   -0.0378   -0.0175    0.0834
          35    0.0213   -0.0411    0.1061    0.0395    0.0580    0.0234   -0.0449    0.0346
          36   -0.0164    0.0173   -0.0192   -0.0778   -0.0681   -0.0190    0.0479   -0.0853
          37    0.0320    0.1643    0.0030   -0.1896    0.0196   -0.0313   -0.0570    0.0496
          38   -0.0284    0.0096    0.0455   -0.0019    0.0182   -0.0761   -0.0617    0.0949
          39    0.0092   -0.0056   -0.0226   -0.0049   -0.0251    0.0480    0.0284   -0.0409
          40   -0.1368   -0.0074    0.0452    0.2508   -0.0469   -0.0257    0.0185   -0.0083
          41    0.0025   -0.0102   -0.0132   -0.0189   -0.0839    0.1382    0.0495   -0.0387
          42    0.0071   -0.0042   -0.0195   -0.0049   -0.0252    0.0501    0.0251   -0.0351
          43    0.0005   -0.0611    0.0111   -0.0345    0.1092   -0.0498    0.2084    0.0167
          44    0.0206   -0.0106   -0.0008    0.0045    0.0025   -0.0031    0.0138    0.0005
          45    0.0246   -0.0468    0.0043   -0.0063    0.0596   -0.0383    0.1489    0.0157
          46    0.0366    0.0005   -0.0062    0.0226   -0.0023   -0.0242   -0.0312   -0.0306
          47    0.0557   -0.0105   -0.0039    0.0256   -0.0375    0.0115   -0.0568   -0.0081
          48    0.0868   -0.0212   -0.0039    0.0334   -0.0350   -0.0013   -0.0542   -0.0147
          49    0.0945   -0.0587   -0.0008    0.0517   -0.0502   -0.0027    0.0079    0.0298
          50    0.0088   -0.0152    0.0026   -0.0085    0.0120   -0.0008    0.0245    0.0051
          51   -0.0729    0.0409   -0.0006   -0.0322    0.0364   -0.0014   -0.0084   -0.0228


   Root No.      17        18        19        20        21        22        23        24

                17 A      18 A      19 A      20 A      21 A      22 A      23 A      24 A   

                1005.9    1034.6    1040.1    1071.9    1088.7    1092.8    1132.2    1149.0
  
           1   -0.0288   -0.0203    0.0150    0.0110   -0.0130   -0.0321    0.0097    0.0136
           2    0.0109    0.0102   -0.0010   -0.0154    0.0224    0.0053   -0.0259   -0.0217
           3   -0.0123    0.0051   -0.0121   -0.0015    0.0066    0.0184   -0.0136   -0.0096
           4   -0.0310    0.0169    0.0169   -0.0072    0.0206    0.0315   -0.0060    0.0056
           5   -0.0157    0.0073    0.0054    0.0017    0.0011    0.0367    0.0108    0.0191
           6    0.0085   -0.0140    0.0111   -0.0237    0.0153    0.0094    0.0100    0.0192
           7   -0.0086   -0.0009    0.0054    0.0026    0.0008    0.0019    0.0002   -0.0487
           8   -0.0130   -0.0180    0.0025   -0.0051   -0.0026   -0.0210    0.0099   -0.0038
           9   -0.0104    0.0260    0.0206    0.0024   -0.0108   -0.0252    0.0041   -0.0001
          10    0.0171    0.0460   -0.0119   -0.0068   -0.0099   -0.0135    0.0034    0.0065
          11    0.0037    0.0099   -0.0024    0.0202    0.0210   -0.0158    0.0175    0.0142
          12   -0.0164   -0.0180    0.0175    0.0212    0.0123   -0.0101    0.0064    0.0025
          13    0.0004   -0.0410   -0.0039    0.0120    0.0058    0.0167   -0.0070   -0.0107
          14    0.0066    0.0073    0.0067   -0.0141   -0.0338   -0.0040   -0.0128   -0.0093
          15    0.0069   -0.0053   -0.0135    0.0197   -0.0250    0.0060   -0.0095   -0.0171
          16   -0.0015   -0.0003   -0.0066   -0.0030   -0.0016   -0.0047   -0.0013    0.0027
          17    0.0032   -0.0049    0.0025    0.0065   -0.0063    0.0026    0.0105    0.0052
          18    0.0036    0.0013   -0.0185   -0.0100   -0.0025   -0.0140   -0.0223    0.0106
          19    0.0129    0.0061   -0.0028   -0.0027    0.0048   -0.0028   -0.0442    0.0089
          20   -0.0015    0.0001   -0.0011   -0.0005    0.0001   -0.0001   -0.0009   -0.0001
          21    0.0205    0.0025    0.0149    0.0046    0.0006    0.0141    0.0341   -0.0111
          22    0.1170   -0.0424   -0.0542   -0.0678    0.0171   -0.0878   -0.0178   -0.0448
          23    0.0862   -0.0322   -0.1119    0.1714   -0.0482    0.0475   -0.0548   -0.0861
          24    0.1118   -0.0542   -0.0134   -0.1453    0.0302   -0.1067    0.0231    0.0121
          25    0.0182    0.1144   -0.0312    0.0064    0.1498   -0.0277    0.0332    0.0311
          26    0.0053   -0.0198    0.0049    0.0096   -0.0504   -0.0073    0.0012    0.0008
          27   -0.0063    0.0482   -0.0144   -0.0606    0.0809    0.0565   -0.0426   -0.0344
          28    0.0539    0.0678    0.0340   -0.0758   -0.1440    0.0086   -0.0093   -0.0023
          29    0.0160    0.0063   -0.0433   -0.0345    0.0079    0.0175   -0.0289   -0.0184
          30   -0.0037    0.0007    0.0774    0.0211   -0.0602   -0.0205    0.0332    0.0210
          31    0.0326   -0.0960   -0.0034    0.0779    0.1272   -0.1012    0.0394    0.0075
          32    0.0174   -0.0175    0.0074    0.0161    0.0241   -0.0525    0.0097    0.0013
          33   -0.0546    0.0298   -0.0154   -0.0119    0.0144    0.1390    0.0001    0.0136
          34   -0.0047   -0.1258    0.0250   -0.1021   -0.0978    0.0613   -0.0243   -0.0268
          35   -0.0293   -0.0380    0.0255   -0.0459    0.0368    0.0159    0.0286    0.0372
          36    0.0387    0.0829   -0.0456    0.1145   -0.0146   -0.0351   -0.0307   -0.0428
          37    0.1206   -0.0378   -0.0302    0.0212   -0.0318    0.0340    0.0460    0.2172
          38   -0.0535    0.0551    0.0603    0.0116   -0.0350   -0.0906    0.0249   -0.0131
          39    0.0222   -0.0316   -0.0251   -0.0129    0.0164    0.0313   -0.0077    0.0083
          40    0.0111    0.0313   -0.0750    0.0511   -0.0551    0.0506    0.0018    0.1738
          41    0.0243   -0.0998   -0.0613   -0.0282    0.0385    0.0562   -0.0005   -0.0047
          42    0.0163   -0.0311   -0.0241   -0.0139    0.0174    0.0286   -0.0034    0.0017
          43   -0.0507   -0.0383   -0.0167    0.0304   -0.0454   -0.0011    0.0794    0.0186
          44    0.0009   -0.0021   -0.0033    0.0015   -0.0039    0.0008    0.0155   -0.0003
          45   -0.0062   -0.0292    0.0063    0.0281   -0.0311   -0.0076   -0.0509    0.0617
          46   -0.0233    0.0293   -0.1408   -0.0531   -0.0284    0.0222    0.3266   -0.0760
          47    0.0123    0.0140   -0.0324   -0.0240    0.0083   -0.0219   -0.0818    0.0301
          48    0.0016    0.0191   -0.0759   -0.0401   -0.0033   -0.0186    0.0228    0.0027
          49    0.1956    0.0188    0.1489    0.0424    0.0192    0.0777    0.0627   -0.0346
          50   -0.0118   -0.0070    0.0043    0.0033   -0.0012   -0.0093   -0.0234    0.0088
          51   -0.1254   -0.0080   -0.1068   -0.0313   -0.0112   -0.0509   -0.0537    0.0248


   Root No.      25        26        27        28        29        30        31        32

                25 A      26 A      27 A      28 A      29 A      30 A      31 A      32 A   

                1200.3    1211.8    1234.1    1285.0    1296.2    1357.6    1393.6    1400.9
  
           1   -0.0064   -0.0152    0.0166    0.0155   -0.0042   -0.0006    0.0207    0.0008
           2   -0.0325   -0.0017    0.0451    0.0059    0.0168   -0.0231    0.0087    0.0008
           3   -0.0128    0.0180   -0.0241   -0.0042   -0.0317    0.0513    0.0276   -0.0049
           4   -0.0295    0.0005    0.0291   -0.0102    0.0099    0.0192   -0.0115    0.0039
           5    0.0215    0.0282   -0.0285   -0.0300   -0.0098   -0.0300    0.0026   -0.0011
           6    0.0383   -0.0125    0.0168    0.0515    0.0114    0.0070   -0.0061    0.0027
           7    0.0421    0.0109   -0.0249   -0.0000   -0.0012   -0.0054   -0.0033    0.0001
           8   -0.0134   -0.0167   -0.0121    0.0023   -0.0009    0.0149    0.0173   -0.0034
           9   -0.0097    0.0002   -0.0016   -0.0104    0.0036   -0.0066   -0.0047    0.0004
          10    0.0082    0.0558    0.0004    0.0212    0.0081   -0.0000   -0.0082   -0.0219
          11    0.0206   -0.0092   -0.0127   -0.0120   -0.0137    0.0066   -0.0004   -0.0130
          12   -0.0194    0.0271    0.0029    0.0184    0.0277   -0.0183   -0.0050    0.0264
          13   -0.0216   -0.0358   -0.0364    0.0095    0.0094   -0.0089    0.0023   -0.0203
          14   -0.0107   -0.0125    0.0023    0.0241    0.0090    0.0012   -0.0022    0.0125
          15   -0.0025    0.0146    0.0261   -0.0475   -0.0137    0.0035    0.0038   -0.0248
          16    0.0001   -0.0042    0.0064    0.0089   -0.0091    0.0064    0.0490    0.0035
          17    0.0048    0.0015   -0.0054    0.0059   -0.0203   -0.0050   -0.0096    0.0002
          18    0.0109   -0.0076    0.0072    0.0113   -0.0295   -0.0295   -0.0276    0.0018
          19    0.0119    0.0030   -0.0086   -0.0075    0.0005   -0.0142   -0.0445   -0.0019
          20   -0.0001    0.0001    0.0001   -0.0003    0.0015    0.0013    0.0031    0.0001
          21   -0.0080    0.0016    0.0009   -0.0011    0.0053    0.0078    0.0136    0.0001
          22   -0.0909    0.0067   -0.0789   -0.0585   -0.0198    0.0085    0.0129   -0.0064
          23    0.0738   -0.0374    0.0976    0.0782    0.0104    0.0294    0.0030    0.0029
          24   -0.0374    0.0191   -0.1320   -0.0334   -0.0255   -0.0257    0.0180   -0.0095
          25    0.0801   -0.1168    0.0210   -0.0444   -0.0672    0.0511    0.0526    0.1136
          26   -0.0121    0.0632   -0.0189    0.0176    0.0186   -0.0155   -0.0250   -0.0689
          27   -0.0258   -0.1649    0.0585   -0.0552   -0.0073   -0.0489   -0.0276   -0.1682
          28    0.0719   -0.1321    0.0322   -0.0371   -0.0625    0.0551    0.0477    0.1145
          29   -0.0150    0.0851    0.0070    0.0380   -0.0062    0.0504    0.0518    0.1761
          30    0.0448   -0.1625    0.0073   -0.0594   -0.0207   -0.0227   -0.0158   -0.0571
          31    0.0270    0.0433    0.0861   -0.1289   -0.0325   -0.0240   -0.0262    0.1061
          32    0.0126    0.0220    0.0518   -0.0347   -0.0097   -0.0052   -0.0132    0.0644
          33   -0.0191   -0.0614   -0.1370    0.0021    0.0188   -0.0880   -0.0255    0.1596
          34    0.0190    0.0441    0.1047   -0.1211   -0.0281   -0.0287   -0.0242    0.1061
          35    0.0546    0.0576    0.0377    0.0197   -0.0138    0.0566    0.0313   -0.1678
          36   -0.0776   -0.0893   -0.0871    0.0329    0.0282   -0.0341   -0.0099    0.0564
          37   -0.0336   -0.0320    0.0478    0.0196    0.0133   -0.0121   -0.0111    0.0023
          38   -0.0510   -0.0284   -0.0168   -0.0319    0.0239    0.1164   -0.1688    0.0202
          39    0.0181    0.0096    0.0016    0.0158   -0.0151   -0.0749    0.1266   -0.0162
          40   -0.1118    0.0114   -0.0068   -0.0446   -0.0358    0.0267    0.0146   -0.0040
          41    0.0010   -0.0193   -0.0148    0.0228    0.0006    0.1562   -0.1524    0.0189
          42    0.0012   -0.0006   -0.0038    0.0054    0.0020    0.0829   -0.1076    0.0139
          43    0.0291    0.0021   -0.0304    0.0015   -0.0276   -0.0145   -0.0613   -0.0023
          44   -0.0031    0.0005    0.0033    0.0154   -0.0435   -0.0159   -0.0194    0.0002
          45    0.0843   -0.0065   -0.0631   -0.0828    0.2100    0.0618    0.0492   -0.0012
          46   -0.0279   -0.0257    0.0470   -0.0148    0.0778   -0.0345   -0.0406   -0.0006
          47    0.0516   -0.0192   -0.0111   -0.0799    0.2355    0.0391    0.0602    0.0002
          48    0.0306   -0.0253    0.0130   -0.0461    0.1440   -0.0123   -0.0109    0.0006
          49   -0.0209    0.0191   -0.0161   -0.0175    0.0229    0.0150   -0.0183   -0.0036
          50    0.0048   -0.0016   -0.0001    0.0032   -0.0072   -0.0035   -0.0010    0.0004
          51    0.0198   -0.0113    0.0062    0.0063   -0.0130   -0.0179   -0.0140    0.0013


   Root No.      33        34        35        36        37        38        39        40

                33 A      34 A      35 A      36 A      37 A      38 A      39 A      40 A   

                1428.7    1450.5    1622.1    2888.7    2959.0    2979.9    3039.8    3053.4
  
           1    0.0003   -0.0040    0.1440   -0.0003    0.0004    0.0001    0.0001    0.0001
           2   -0.0090    0.0211    0.0676   -0.0006    0.0001   -0.0000   -0.0000   -0.0003
           3    0.0148   -0.0379    0.0745   -0.0002    0.0002   -0.0002    0.0001   -0.0001
           4   -0.0048   -0.0253   -0.0755    0.0001    0.0000   -0.0000   -0.0006   -0.0008
           5   -0.0080    0.0336    0.0373    0.0000    0.0000   -0.0000    0.0002    0.0000
           6    0.0118   -0.0134    0.0013   -0.0000   -0.0000   -0.0001    0.0005    0.0006
           7    0.0009    0.0048   -0.0075    0.0004    0.0000    0.0000   -0.0001   -0.0000
           8   -0.0019   -0.0619   -0.0916    0.0001   -0.0001    0.0002   -0.0000   -0.0001
           9   -0.0028    0.0062   -0.0065    0.0002    0.0001   -0.0004   -0.0001    0.0007
          10    0.0270   -0.0100   -0.0009   -0.0001   -0.0001    0.0001    0.0000    0.0000
          11    0.0111   -0.0055    0.0016   -0.0000    0.0001   -0.0003    0.0263   -0.0289
          12   -0.0226    0.0153   -0.0214   -0.0002    0.0000    0.0001    0.0117   -0.0130
          13   -0.0263    0.0198   -0.0093   -0.0000   -0.0000   -0.0000   -0.0007   -0.0008
          14    0.0108   -0.0093    0.0047   -0.0000   -0.0000    0.0000   -0.0292   -0.0255
          15   -0.0229    0.0135   -0.0159   -0.0000   -0.0000    0.0000   -0.0138   -0.0122
          16    0.0388    0.0731   -0.0766   -0.0045   -0.0034    0.0103    0.0000   -0.0000
          17   -0.0005    0.0006   -0.0182   -0.0592    0.0001    0.0011    0.0000   -0.0000
          18   -0.0071    0.0126   -0.0445    0.0132    0.0173   -0.0337   -0.0002    0.0002
          19   -0.0273   -0.0414    0.0174    0.0010   -0.0308   -0.0133   -0.0000    0.0000
          20    0.0020    0.0029   -0.0024   -0.0018    0.0038    0.0014    0.0000   -0.0000
          21    0.0071    0.0080   -0.0030   -0.0010   -0.0351   -0.0167   -0.0000    0.0000
          22   -0.0101    0.0000   -0.0285    0.0001   -0.0005   -0.0003    0.0066    0.0075
          23    0.0183   -0.0238    0.0126   -0.0001    0.0001    0.0000   -0.0035   -0.0038
          24   -0.0013    0.0329    0.0681   -0.0001    0.0005    0.0000   -0.0057   -0.0069
          25   -0.0975    0.0218    0.0206    0.0001   -0.0001    0.0013   -0.0930    0.1064
          26    0.0625   -0.0180   -0.0037    0.0006   -0.0005    0.0028   -0.2004    0.2192
          27    0.1060   -0.0157    0.0626   -0.0008    0.0002   -0.0002    0.0107   -0.0117
          28   -0.0944    0.0157    0.0081    0.0001    0.0006   -0.0005    0.0941   -0.1073
          29   -0.1249    0.0233   -0.0071   -0.0002   -0.0007    0.0005   -0.1170    0.1278
          30    0.0242    0.0037   -0.0072   -0.0002   -0.0009    0.0008   -0.1536    0.1677
          31    0.0982   -0.0474   -0.0047   -0.0000   -0.0002    0.0001   -0.1001   -0.0904
          32    0.0622   -0.0365    0.0104    0.0001    0.0003   -0.0003    0.2148    0.1846
          33    0.1116   -0.0219    0.0457   -0.0000    0.0000    0.0001   -0.0121   -0.0104
          34    0.0936   -0.0425    0.0042    0.0001   -0.0001   -0.0001    0.1094    0.1004
          35   -0.1285    0.0542   -0.0268    0.0000   -0.0000   -0.0002    0.1365    0.1204
          36    0.0273   -0.0045   -0.0002    0.0000   -0.0000   -0.0002    0.1797    0.1581
          37   -0.0012    0.0059   -0.0160    0.0001   -0.0001   -0.0000   -0.0003    0.0000
          38    0.0173    0.1157   -0.0108    0.0010   -0.0004   -0.0001    0.0005   -0.0018
          39   -0.0160   -0.1204   -0.0639    0.0013   -0.0003   -0.0003    0.0006   -0.0032
          40    0.0003   -0.0114    0.0192    0.0002    0.0002   -0.0005   -0.0003    0.0000
          41    0.0337    0.0921    0.0345    0.0008    0.0013   -0.0033   -0.0001    0.0070
          42    0.0206    0.0994    0.0775   -0.0003   -0.0013    0.0038    0.0002   -0.0097
          43   -0.0310   -0.0566    0.0102   -0.0424    0.0019   -0.0083   -0.0001    0.0001
          44   -0.0044    0.0009   -0.0177    0.6274   -0.1254    0.2123    0.0010   -0.0009
          45    0.0128   -0.0128    0.0016    0.1005   -0.0095    0.0128   -0.0002    0.0002
          46   -0.0412   -0.0424    0.0513    0.0754    0.0594   -0.1166   -0.0005    0.0004
          47    0.0096    0.0087    0.0228    0.1069    0.1200   -0.2209   -0.0009    0.0006
          48   -0.0228   -0.0161    0.0155   -0.2507   -0.2128    0.3937    0.0014   -0.0010
          49   -0.0186   -0.0468    0.0355    0.0077    0.3416    0.1581    0.0001   -0.0001
          50    0.0006    0.0041   -0.0012   -0.0028   -0.0424   -0.0199   -0.0000    0.0000
          51   -0.0039    0.0063   -0.0151    0.0082    0.4318    0.1960    0.0001   -0.0001


   Root No.      41        42        43        44        45

                41 A      42 A      43 A      44 A      45 A   

                3083.9    3105.9    3107.1    3122.1    3145.5
  
           1    0.0002   -0.0008   -0.0005    0.0009   -0.0014
           2    0.0001    0.0003   -0.0003   -0.0001   -0.0008
           3   -0.0006   -0.0008    0.0005    0.0001   -0.0009
           4   -0.0025   -0.0002   -0.0008   -0.0002    0.0439
           5    0.0009   -0.0001    0.0008   -0.0003   -0.0171
           6    0.0019    0.0011    0.0011   -0.0007   -0.0452
           7    0.0002   -0.0001    0.0000   -0.0000    0.0004
           8   -0.0004    0.0008    0.0011   -0.0415    0.0023
           9   -0.0561   -0.0016   -0.0013   -0.0004   -0.0047
          10    0.0006    0.0038   -0.0265   -0.0006   -0.0026
          11   -0.0010    0.0008   -0.0103    0.0002   -0.0014
          12   -0.0009   -0.0026    0.0235    0.0007    0.0022
          13   -0.0008    0.0271    0.0023    0.0005    0.0012
          14   -0.0006   -0.0129   -0.0015    0.0002   -0.0023
          15   -0.0009    0.0231    0.0028    0.0006   -0.0003
          16    0.0000    0.0000   -0.0000    0.0001    0.0001
          17    0.0002    0.0000    0.0001    0.0002    0.0000
          18    0.0003    0.0000    0.0001   -0.0003    0.0002
          19   -0.0000    0.0000    0.0001   -0.0001    0.0001
          20    0.0000    0.0000   -0.0000    0.0000   -0.0000
          21    0.0000    0.0000    0.0001   -0.0001    0.0001
          22    0.0258    0.0063    0.0186   -0.0083   -0.5076
          23   -0.0079   -0.0023   -0.0072    0.0037    0.2006
          24   -0.0288   -0.0057   -0.0197    0.0081    0.5374
          25   -0.0005   -0.0163    0.1552    0.0026    0.0103
          26   -0.0024   -0.0406    0.3690    0.0068    0.0242
          27   -0.0000   -0.0000    0.0018    0.0002   -0.0003
          28   -0.0079   -0.0203    0.1667    0.0057    0.0083
          29    0.0096    0.0297   -0.2454   -0.0088   -0.0128
          30    0.0126    0.0352   -0.2849   -0.0097   -0.0143
          31    0.0033   -0.1653   -0.0185   -0.0020   -0.0101
          32   -0.0088    0.3934    0.0428    0.0054    0.0244
          33    0.0003    0.0012    0.0005    0.0001   -0.0035
          34    0.0082   -0.1612   -0.0184   -0.0047    0.0040
          35    0.0104   -0.2395   -0.0267   -0.0075    0.0024
          36    0.0134   -0.2786   -0.0308   -0.0081    0.0071
          37   -0.0012    0.0004   -0.0002   -0.0017   -0.0024
          38    0.2555    0.0027   -0.0008    0.2649    0.0176
          39    0.3213    0.0032   -0.0012    0.3775    0.0172
          40   -0.0024   -0.0003   -0.0001    0.0023    0.0015
          41   -0.2476   -0.0100   -0.0106    0.2286   -0.0274
          42    0.3545    0.0150    0.0163   -0.3717    0.0374
          43    0.0003   -0.0000    0.0001    0.0001    0.0001
          44   -0.0019    0.0001   -0.0010    0.0005   -0.0000
          45    0.0000   -0.0000    0.0003   -0.0000    0.0001
          46    0.0015   -0.0000    0.0002   -0.0013    0.0003
          47    0.0024   -0.0000    0.0005   -0.0024    0.0002
          48   -0.0026    0.0001   -0.0008    0.0031   -0.0002
          49   -0.0002   -0.0001   -0.0006    0.0005   -0.0006
          50   -0.0000    0.0000    0.0001   -0.0001    0.0001
          51   -0.0001   -0.0001   -0.0009    0.0007   -0.0009


           MASS-WEIGHTED COORDINATE ANALYSIS (NORMAL COORDINATES)


   Root No.       1         2         3         4         5         6         7         8

                 1 A       2 A       3 A       4 A       5 A       6 A       7 A       8 A   

                  44.7     192.3     269.1     344.7     388.5     439.3     449.3     604.4
  
           1   -0.0212    0.1271   -0.0799   -0.0450   -0.0651    0.1470   -0.1197   -0.0155
           2   -0.1769   -0.1782   -0.1294   -0.2438    0.2219   -0.1800    0.0455    0.0832
           3    0.0568   -0.2265    0.1698    0.0197    0.0917   -0.2928    0.0035   -0.0121
           4   -0.0220    0.1298   -0.0611   -0.0793   -0.0663    0.2133   -0.2416    0.0515
           5    0.1014    0.0216   -0.2066   -0.0074   -0.0322   -0.0358   -0.2415    0.0676
           6   -0.0085    0.1073   -0.0658   -0.0128   -0.0663   -0.0029   -0.3171    0.0244
           7   -0.2591   -0.0329    0.0381   -0.3026    0.2022    0.0893    0.0693    0.1676
           8   -0.0376   -0.0833   -0.1739   -0.1105    0.1021   -0.1176   -0.0374    0.0758
           9    0.0286   -0.1353   -0.0729   -0.0199   -0.0094    0.3669    0.3363    0.0348
          10    0.1512   -0.0938    0.1698    0.0337   -0.0402    0.0828   -0.1105    0.0084
          11   -0.1878   -0.2439   -0.1640    0.1797   -0.1298    0.2358    0.0597    0.0287
          12    0.0539   -0.2668    0.1638    0.2241   -0.0813   -0.1042    0.0058   -0.0777
          13    0.1516   -0.1044    0.1851    0.0538   -0.0445    0.0939   -0.0674   -0.0031
          14    0.1075    0.2353    0.2785   -0.0408    0.0785    0.1080    0.2241    0.0138
          15   -0.0076    0.2187    0.1414   -0.0377   -0.0133    0.0515   -0.1098   -0.0114
          16   -0.0010   -0.0452   -0.1064    0.1309    0.0107   -0.2713    0.1658   -0.0850
          17   -0.3146    0.0196    0.3383    0.0204    0.0144    0.0030   -0.1595   -0.5004
          18    0.0907   -0.1420   -0.0014   -0.2313    0.1105   -0.0596   -0.1364    0.1540
          19   -0.0157    0.1208   -0.2262    0.2182   -0.0189   -0.3030    0.2756   -0.2882
          20    0.5910    0.1635   -0.0412   -0.0704   -0.3326   -0.1261    0.1121    0.0968
          21   -0.2384    0.4359   -0.2945    0.0619   -0.0634   -0.1078    0.1344   -0.0324
          22   -0.0005    0.1082   -0.0623   -0.0159   -0.0693    0.1418   -0.1624    0.0220
          23    0.0680    0.0142   -0.1266    0.0386   -0.0756    0.0856   -0.1273    0.0181
          24   -0.0113    0.0946   -0.0348   -0.0126   -0.0412    0.0406   -0.1532    0.0137
          25    0.1023    0.0657    0.1514   -0.0512    0.0431   -0.0092    0.0062    0.0114
          26   -0.0811   -0.1170   -0.0953    0.0890   -0.0704    0.0916    0.0007    0.0012
          27    0.0209   -0.1480    0.0321    0.2200   -0.1509    0.1034    0.0106   -0.0717
          28    0.0188   -0.1641   -0.0029    0.0945   -0.0648    0.0328   -0.0495   -0.0145
          29   -0.0821   -0.1373   -0.1089    0.1843   -0.1566    0.1947    0.0051   -0.0294
          30    0.0223   -0.1092    0.0629    0.0150    0.0352   -0.1210    0.0001   -0.0041
          31    0.0993    0.0641    0.1540   -0.0390    0.0397    0.0016    0.0333   -0.0081
          32    0.0563    0.1157    0.1329   -0.0396    0.0500    0.0230    0.0996   -0.0002
          33   -0.0061    0.1636    0.1706   -0.0626    0.0484    0.0814    0.1284   -0.0189
          34    0.0186   -0.1643   -0.0052    0.0945   -0.0615    0.0237   -0.0440   -0.0063
          35    0.0582    0.1589    0.2284   -0.0573    0.0822    0.0595    0.2249   -0.0167
          36   -0.0081    0.0744   -0.0370   -0.0247   -0.0196   -0.0029   -0.1389    0.0162
          37   -0.0993   -0.0850    0.0822   -0.1259    0.1401   -0.0582    0.1419    0.0638
          38   -0.0114   -0.0054   -0.0232   -0.0284    0.0315   -0.1794   -0.1679    0.0070
          39    0.0085   -0.0537   -0.0412   -0.0088   -0.0038    0.2209    0.2208    0.0230
          40   -0.1190    0.0172   -0.0363   -0.1217    0.0622    0.0804   -0.0212    0.1035
          41   -0.0107   -0.0432   -0.0751   -0.0342    0.0254    0.1235    0.1524    0.0419
          42    0.0083   -0.0521   -0.0384   -0.0076   -0.0053    0.2165    0.2117    0.0241
          43   -0.1402   -0.0358    0.0218    0.0344   -0.1941   -0.2481    0.1570    0.5012
          44   -0.1257    0.0205    0.1345    0.0383   -0.0539   -0.0261   -0.0377   -0.0388
          45    0.2047   -0.1202   -0.2066   -0.2375    0.2699    0.0583   -0.0323   -0.3057
          46    0.1197   -0.0916   -0.0247    0.0544    0.1287   -0.0687    0.0289   -0.1820
          47   -0.2813    0.0674    0.2829    0.1532   -0.2137   -0.0866   -0.0385    0.2038
          48   -0.0349   -0.0320    0.0904    0.0100   -0.0346   -0.0547   -0.0413    0.1601
          49    0.0559   -0.0641    0.0001    0.0417    0.0519   -0.0754    0.0082    0.0761
          50    0.1229    0.1521   -0.0098    0.5978    0.6496    0.1032   -0.1218    0.2773
          51   -0.1197    0.2126   -0.1372    0.0954    0.0111   -0.0288    0.0814   -0.1120


   Root No.       9        10        11        12        13        14        15        16

                 9 A      10 A      11 A      12 A      13 A      14 A      15 A      16 A   

                 698.1     811.4     836.8     872.0     895.0     939.4     951.4     976.3
  
           1    0.2566   -0.0693    0.0082   -0.0221   -0.1691    0.1622    0.0209    0.1391
           2   -0.2198   -0.1830    0.0067   -0.0711    0.1680    0.0454    0.0233   -0.0578
           3    0.1153    0.0967   -0.0138   -0.0282    0.1113   -0.1131   -0.1192   -0.1166
           4    0.2218    0.0716   -0.0550   -0.0726    0.2337    0.0502    0.0147   -0.2328
           5    0.0513    0.2619    0.0731   -0.0324   -0.0997   -0.0058   -0.0312   -0.0792
           6   -0.2883   -0.0452    0.0044    0.0184   -0.0019   -0.2037   -0.0521   -0.0738
           7   -0.0883    0.3374    0.0772    0.0764   -0.0933   -0.0308   -0.0289    0.0076
           8   -0.0985   -0.0117    0.1305   -0.0680   -0.2891    0.1858   -0.0621    0.2733
           9   -0.0213    0.0192    0.0094    0.0104    0.1216   -0.2474   -0.1344    0.1245
          10   -0.2409   -0.1394    0.0122   -0.1382   -0.0414    0.2010    0.0833    0.0919
          11    0.0014   -0.1794   -0.2800   -0.0201    0.1317   -0.0053   -0.1782   -0.0917
          12   -0.0980    0.2908    0.0024    0.1510    0.0342    0.3418    0.0976    0.0269
          13   -0.2186   -0.1826   -0.0699   -0.0633   -0.0094   -0.3023   -0.1380   -0.0508
          14    0.0701    0.2239   -0.1943    0.1233   -0.0346   -0.1587    0.1071   -0.1506
          15   -0.1530   -0.1470   -0.0963   -0.2748   -0.1750    0.0923    0.0339    0.0868
          16    0.1364   -0.0689   -0.0052    0.0488   -0.0157   -0.0179    0.0156   -0.0049
          17    0.1225   -0.0900   -0.0072    0.0297    0.0726   -0.0528    0.2444    0.0225
          18    0.4709   -0.2014   -0.0060    0.1478   -0.1161   -0.0273   -0.0293   -0.0042
          19    0.0089   -0.0049   -0.0154    0.0612   -0.0373   -0.0010   -0.1014   -0.0198
          20   -0.0316    0.0109    0.0013   -0.0074    0.0080    0.0006   -0.0087   -0.0069
          21   -0.0059   -0.0244    0.0003    0.0321   -0.0198   -0.0222    0.0329    0.0215
          22    0.1101    0.1543    0.0283    0.0761    0.3574    0.1547    0.0257    0.0567
          23    0.0701    0.1532    0.1159    0.1703    0.3391    0.0620   -0.1352    0.2348
          24   -0.0585    0.0801    0.0069    0.0245    0.1376    0.0526    0.0514    0.0018
          25   -0.1169    0.0654   -0.3380    0.0622   -0.0178    0.0566    0.1310    0.2606
          26    0.0228   -0.0960    0.1016   -0.0566    0.0306   -0.0160   -0.0888   -0.1279
          27    0.0272    0.2497    0.3007    0.0201   -0.1709   -0.0969    0.3033    0.2415
          28   -0.1142   -0.0599    0.3650   -0.0791    0.0477    0.1417   -0.0008   -0.2345
          29    0.0767   -0.0319    0.2484   -0.0905   -0.1273   -0.2303    0.0755    0.0954
          30   -0.1111    0.0591   -0.0188    0.0816    0.1744    0.3283   -0.0825   -0.2542
          31   -0.0840   -0.0629    0.3465   -0.0246   -0.0277   -0.1564   -0.0339   -0.2325
          32    0.0162    0.0466    0.1342    0.0336   -0.0088   -0.0690    0.0208   -0.1355
          33   -0.0091   -0.3034    0.2046   -0.0876    0.1749    0.2450   -0.1780    0.2953
          34   -0.1157    0.0081   -0.3636    0.0889    0.0167   -0.0900   -0.0461    0.2317
          35    0.0465   -0.0973    0.2580    0.0997    0.1597    0.0557   -0.1182    0.0960
          36   -0.0358    0.0410   -0.0466   -0.1964   -0.1874   -0.0452    0.1262   -0.2369
          37    0.0698    0.3888    0.0073   -0.4787    0.0540   -0.0746   -0.1502    0.1376
          38   -0.0619    0.0228    0.1106   -0.0048    0.0502   -0.1814   -0.1626    0.2635
          39    0.0201   -0.0132   -0.0551   -0.0123   -0.0691    0.1145    0.0748   -0.1136
          40   -0.2985   -0.0176    0.1100    0.6334   -0.1291   -0.0613    0.0487   -0.0231
          41    0.0054   -0.0241   -0.0321   -0.0478   -0.2310    0.3294    0.1304   -0.1074
          42    0.0155   -0.0101   -0.0474   -0.0124   -0.0695    0.1193    0.0662   -0.0974
          43    0.0011   -0.1447    0.0269   -0.0870    0.3007   -0.1187    0.5490    0.0465
          44    0.0450   -0.0251   -0.0021    0.0114    0.0070   -0.0075    0.0365    0.0015
          45    0.0537   -0.1108    0.0103   -0.0160    0.1642   -0.0913    0.3923    0.0437
          46    0.0800    0.0012   -0.0151    0.0571   -0.0062   -0.0577   -0.0822   -0.0851
          47    0.1215   -0.0248   -0.0095    0.0647   -0.1034    0.0273   -0.1495   -0.0225
          48    0.1894   -0.0503   -0.0095    0.0842   -0.0963   -0.0032   -0.1427   -0.0409
          49    0.2061   -0.1389   -0.0021    0.1305   -0.1382   -0.0065    0.0207    0.0827
          50    0.0191   -0.0360    0.0064   -0.0214    0.0330   -0.0020    0.0646    0.0141
          51   -0.1590    0.0969   -0.0014   -0.0814    0.1003   -0.0034   -0.0221   -0.0633


   Root No.      17        18        19        20        21        22        23        24

                17 A      18 A      19 A      20 A      21 A      22 A      23 A      24 A   

                1005.9    1034.6    1040.1    1071.9    1088.7    1092.8    1132.2    1149.0
  
           1   -0.2428   -0.1756    0.1401    0.0990   -0.1169   -0.2735    0.0723    0.1148
           2    0.0921    0.0883   -0.0095   -0.1388    0.2011    0.0454   -0.1934   -0.1832
           3   -0.1036    0.0443   -0.1136   -0.0134    0.0596    0.1566   -0.1017   -0.0813
           4   -0.2612    0.1465    0.1580   -0.0654    0.1847    0.2677   -0.0447    0.0478
           5   -0.1319    0.0633    0.0506    0.0150    0.0096    0.3120    0.0810    0.1619
           6    0.0720   -0.1209    0.1037   -0.2144    0.1378    0.0800    0.0744    0.1620
           7   -0.0723   -0.0074    0.0505    0.0236    0.0072    0.0158    0.0017   -0.4118
           8   -0.1092   -0.1559    0.0236   -0.0464   -0.0231   -0.1789    0.0742   -0.0322
           9   -0.0876    0.2250    0.1929    0.0217   -0.0966   -0.2141    0.0307   -0.0010
          10    0.1443    0.3983   -0.1113   -0.0611   -0.0890   -0.1149    0.0256    0.0550
          11    0.0315    0.0853   -0.0226    0.1824    0.1889   -0.1346    0.1303    0.1197
          12   -0.1379   -0.1555    0.1636    0.1915    0.1108   -0.0863    0.0480    0.0208
          13    0.0031   -0.3548   -0.0366    0.1083    0.0522    0.1421   -0.0526   -0.0909
          14    0.0554    0.0633    0.0632   -0.1275   -0.3037   -0.0345   -0.0953   -0.0784
          15    0.0581   -0.0458   -0.1265    0.1783   -0.2245    0.0510   -0.0706   -0.1450
          16   -0.0123   -0.0030   -0.0616   -0.0271   -0.0140   -0.0396   -0.0093    0.0227
          17    0.0272   -0.0423    0.0231    0.0587   -0.0568    0.0224    0.0783    0.0441
          18    0.0299    0.0116   -0.1732   -0.0902   -0.0222   -0.1187   -0.1663    0.0894
          19    0.1088    0.0531   -0.0264   -0.0247    0.0430   -0.0237   -0.3296    0.0752
          20   -0.0130    0.0005   -0.0107   -0.0046    0.0013   -0.0007   -0.0065   -0.0005
          21    0.1730    0.0219    0.1393    0.0420    0.0056    0.1201    0.2543   -0.0938
          22    0.2854   -0.1062   -0.1468   -0.1776    0.0445   -0.2164   -0.0385   -0.1097
          23    0.2104   -0.0806   -0.3034    0.4485   -0.1254    0.1171   -0.1184   -0.2110
          24    0.2726   -0.1357   -0.0364   -0.3804    0.0786   -0.2630    0.0500    0.0298
          25    0.0443    0.2868   -0.0847    0.0167    0.3897   -0.0682    0.0718    0.0763
          26    0.0128   -0.0496    0.0133    0.0251   -0.1310   -0.0180    0.0025    0.0021
          27   -0.0154    0.1208   -0.0390   -0.1585    0.2105    0.1394   -0.0922   -0.0843
          28    0.1315    0.1700    0.0921   -0.1983   -0.3745    0.0211   -0.0202   -0.0055
          29    0.0389    0.0157   -0.1175   -0.0902    0.0206    0.0432   -0.0626   -0.0452
          30   -0.0089    0.0018    0.2099    0.0552   -0.1567   -0.0505    0.0718    0.0515
          31    0.0796   -0.2406   -0.0093    0.2039    0.3310   -0.2496    0.0851    0.0183
          32    0.0424   -0.0437    0.0202    0.0422    0.0626   -0.1294    0.0209    0.0033
          33   -0.1332    0.0746   -0.0416   -0.0310    0.0375    0.3426    0.0001    0.0333
          34   -0.0116   -0.3152    0.0677   -0.2673   -0.2545    0.1511   -0.0524   -0.0657
          35   -0.0714   -0.0953    0.0692   -0.1202    0.0958    0.0392    0.0619    0.0911
          36    0.0944    0.2076   -0.1236    0.2997   -0.0379   -0.0866   -0.0663   -0.1048
          37    0.2942   -0.0948   -0.0819    0.0556   -0.0828    0.0837    0.0995    0.5322
          38   -0.1305    0.1381    0.1633    0.0304   -0.0911   -0.2234    0.0539   -0.0322
          39    0.0541   -0.0792   -0.0680   -0.0337    0.0427    0.0773   -0.0166    0.0204
          40    0.0270    0.0785   -0.2032    0.1339   -0.1434    0.1248    0.0038    0.4261
          41    0.0594   -0.2501   -0.1662   -0.0739    0.1001    0.1387   -0.0011   -0.0114
          42    0.0398   -0.0780   -0.0655   -0.0365    0.0453    0.0705   -0.0074    0.0041
          43   -0.1237   -0.0960   -0.0453    0.0795   -0.1181   -0.0026    0.1716    0.0455
          44    0.0022   -0.0053   -0.0091    0.0040   -0.0100    0.0020    0.0336   -0.0007
          45   -0.0151   -0.0732    0.0171    0.0734   -0.0808   -0.0186   -0.1101    0.1512
          46   -0.0567    0.0734   -0.3816   -0.1391   -0.0739    0.0548    0.7062   -0.1863
          47    0.0299    0.0351   -0.0878   -0.0629    0.0215   -0.0541   -0.1768    0.0739
          48    0.0040    0.0479   -0.2058   -0.1049   -0.0085   -0.0459    0.0493    0.0067
          49    0.4770    0.0471    0.4036    0.1110    0.0499    0.1915    0.1355   -0.0849
          50   -0.0288   -0.0176    0.0117    0.0087   -0.0031   -0.0230   -0.0505    0.0215
          51   -0.3058   -0.0200   -0.2895   -0.0819   -0.0292   -0.1255   -0.1160    0.0609


   Root No.      25        26        27        28        29        30        31        32

                25 A      26 A      27 A      28 A      29 A      30 A      31 A      32 A   

                1200.3    1211.8    1234.1    1285.0    1296.2    1357.6    1393.6    1400.9
  
           1   -0.0542   -0.1139    0.1304    0.1283   -0.0328   -0.0053    0.1627    0.0063
           2   -0.2770   -0.0129    0.3542    0.0489    0.1302   -0.1981    0.0688    0.0058
           3   -0.1090    0.1347   -0.1895   -0.0347   -0.2458    0.4393    0.2168   -0.0370
           4   -0.2513    0.0039    0.2284   -0.0843    0.0769    0.1643   -0.0902    0.0298
           5    0.1832    0.2114   -0.2240   -0.2477   -0.0761   -0.2573    0.0207   -0.0081
           6    0.3256   -0.0940    0.1318    0.4252    0.0880    0.0597   -0.0483    0.0201
           7    0.3586    0.0820   -0.1953   -0.0001   -0.0096   -0.0460   -0.0259    0.0008
           8   -0.1142   -0.1254   -0.0951    0.0187   -0.0073    0.1279    0.1363   -0.0256
           9   -0.0824    0.0015   -0.0127   -0.0859    0.0276   -0.0567   -0.0372    0.0029
          10    0.0702    0.4180    0.0032    0.1753    0.0625   -0.0004   -0.0648   -0.1655
          11    0.1755   -0.0692   -0.1001   -0.0990   -0.1062    0.0563   -0.0028   -0.0978
          12   -0.1655    0.2034    0.0231    0.1524    0.2150   -0.1569   -0.0393    0.1995
          13   -0.1841   -0.2684   -0.2858    0.0781    0.0728   -0.0761    0.0179   -0.1532
          14   -0.0911   -0.0935    0.0177    0.1994    0.0699    0.0104   -0.0176    0.0945
          15   -0.0213    0.1097    0.2053   -0.3926   -0.1062    0.0298    0.0302   -0.1873
          16    0.0006   -0.0311    0.0504    0.0736   -0.0702    0.0548    0.3858    0.0265
          17    0.0408    0.0116   -0.0428    0.0485   -0.1575   -0.0432   -0.0758    0.0012
          18    0.0925   -0.0571    0.0565    0.0930   -0.2284   -0.2531   -0.2174    0.0139
          19    0.1015    0.0226   -0.0675   -0.0618    0.0041   -0.1220   -0.3499   -0.0143
          20   -0.0009    0.0007    0.0006   -0.0025    0.0114    0.0107    0.0247    0.0006
          21   -0.0677    0.0119    0.0074   -0.0089    0.0407    0.0671    0.1066    0.0008
          22   -0.2240    0.0145   -0.1797   -0.1401   -0.0445    0.0211    0.0294   -0.0139
          23    0.1820   -0.0811    0.2223    0.1871    0.0233    0.0730    0.0069    0.0063
          24   -0.0922    0.0415   -0.3005   -0.0799   -0.0572   -0.0637    0.0411   -0.0208
          25    0.1976   -0.2536    0.0478   -0.1063   -0.1509    0.1267    0.1198    0.2484
          26   -0.0299    0.1372   -0.0430    0.0420    0.0418   -0.0385   -0.0570   -0.1506
          27   -0.0637   -0.3581    0.1332   -0.1321   -0.0165   -0.1214   -0.0629   -0.3675
          28    0.1773   -0.2868    0.0733   -0.0888   -0.1403    0.1367    0.1088    0.2502
          29   -0.0369    0.1848    0.0159    0.0908   -0.0139    0.1251    0.1182    0.3848
          30    0.1105   -0.3529    0.0167   -0.1421   -0.0466   -0.0562   -0.0360   -0.1248
          31    0.0667    0.0940    0.1960   -0.3084   -0.0730   -0.0597   -0.0598    0.2318
          32    0.0311    0.0478    0.1179   -0.0830   -0.0217   -0.0130   -0.0301    0.1407
          33   -0.0471   -0.1333   -0.3118    0.0049    0.0422   -0.2184   -0.0580    0.3489
          34    0.0470    0.0957    0.2385   -0.2898   -0.0632   -0.0712   -0.0553    0.2319
          35    0.1346    0.1252    0.0858    0.0473   -0.0311    0.1404    0.0712   -0.3667
          36   -0.1914   -0.1939   -0.1984    0.0788    0.0634   -0.0847   -0.0226    0.1233
          37   -0.0827   -0.0696    0.1089    0.0468    0.0299   -0.0301   -0.0254    0.0050
          38   -0.1259   -0.0618   -0.0383   -0.0762    0.0537    0.2887   -0.3849    0.0441
          39    0.0447    0.0209    0.0038    0.0379   -0.0340   -0.1859    0.2885   -0.0354
          40   -0.2757    0.0248   -0.0155   -0.1067   -0.0804    0.0662    0.0333   -0.0086
          41    0.0026   -0.0419   -0.0338    0.0547    0.0013    0.3877   -0.3474    0.0413
          42    0.0029   -0.0012   -0.0087    0.0130    0.0045    0.2057   -0.2454    0.0304
          43    0.0717    0.0046   -0.0692    0.0036   -0.0619   -0.0360   -0.1398   -0.0051
          44   -0.0077    0.0011    0.0074    0.0369   -0.0977   -0.0395   -0.0443    0.0005
          45    0.2079   -0.0141   -0.1435   -0.1980    0.4714    0.1533    0.1122   -0.0027
          46   -0.0688   -0.0558    0.1070   -0.0354    0.1746   -0.0856   -0.0926   -0.0013
          47    0.1273   -0.0418   -0.0252   -0.1913    0.5288    0.0969    0.1373    0.0004
          48    0.0753   -0.0550    0.0297   -0.1102    0.3234   -0.0304   -0.0250    0.0013
          49   -0.0517    0.0416   -0.0366   -0.0418    0.0515    0.0372   -0.0416   -0.0079
          50    0.0118   -0.0034   -0.0003    0.0077   -0.0161   -0.0086   -0.0024    0.0010
[...]
 EFF. MASS   4.2758

 VIBRATION   24   24A         ATOM PAIR      ENERGY CONTRIBUTION    RADIAL
 FREQ.      1149.02         C  3 -- H 13         +23.9% ( 61.5%)      0.0%
 T-DIPOLE    0.1535         C  3 -- H 14         +18.1% ( 53.5%)      0.0%
 TRAVEL      0.1184         C  2 -- C  3          +6.4% ( 31.9%)      1.6%
 RED. MASS   0.5641         C  1 -- C  3          +6.1% ( 31.1%)      6.2%
 EFF. MASS   4.1861

 VIBRATION   25   25A         ATOM PAIR      ENERGY CONTRIBUTION    RADIAL
 FREQ.      1200.30         C  2 -- C  3         +14.4% ( 62.5%)     51.0%
 T-DIPOLE    0.1381         C  2 -- C  4         +11.6% ( 56.0%)     85.4%
 TRAVEL      0.0858         C  1 -- C  2         +11.0% ( 54.5%)      8.8%
 RED. MASS   0.9582         C  2 -- C  5          +9.6% ( 51.0%)     21.1%
 EFF. MASS   7.6334

 VIBRATION   26   26A         ATOM PAIR      ENERGY CONTRIBUTION    RADIAL
 FREQ.      1211.84         C  4 -- H 10         +19.6% ( 62.6%)      0.3%
 T-DIPOLE    0.0686         C  4 -- H  9         +18.1% ( 60.2%)      0.7%
 TRAVEL      0.1036         C  4 -- C  5         +11.9% ( 48.9%)     98.0%
 RED. MASS   0.8506         C  2 -- C  4          +7.9% ( 39.6%)      0.1%
 EFF. MASS   5.1870

 VIBRATION   27   27A         ATOM PAIR      ENERGY CONTRIBUTION    RADIAL
 FREQ.      1234.06         C  2 -- H  8         +12.4% ( 52.9%)      1.1%
 T-DIPOLE    0.1778         C  5 -- H 11          +9.9% ( 47.1%)      1.7%
 TRAVEL      0.0973         C  1 -- C  3          +9.5% ( 46.2%)     90.0%
 RED. MASS   0.8335         C  1 -- C  2          +9.5% ( 46.2%)      2.1%
 EFF. MASS   5.7711

 VIBRATION   28   28A         ATOM PAIR      ENERGY CONTRIBUTION    RADIAL
 FREQ.      1284.97         C  2 -- C  5         +18.4% ( 66.3%)     96.1%
 T-DIPOLE    0.0867         C  2 -- H  8          +9.5% ( 47.8%)      9.5%
 TRAVEL      0.0865         C  2 -- C  4          +9.1% ( 46.7%)     98.8%
 RED. MASS   1.3139         C  1 -- C  2          +8.8% ( 45.9%)     13.1%
 EFF. MASS   7.0067

 VIBRATION   29   29A         ATOM PAIR      ENERGY CONTRIBUTION    RADIAL
 FREQ.      1296.22         C  6 -- H 16         +27.4% ( 61.8%)      1.6%
 T-DIPOLE    0.3375         C  6 -- H 15         +14.7% ( 45.2%)      5.9%
 TRAVEL      0.1219         C  1 -- C  4          +9.4% ( 36.3%)     96.1%
 RED. MASS   0.4405         C  1 -- C  6          +5.8% ( 28.5%)      8.8%
 EFF. MASS   3.4984

 VIBRATION   30   30A         ATOM PAIR      ENERGY CONTRIBUTION    RADIAL
 FREQ.      1357.56         C  1 -- C  6         +12.4% ( 49.2%)     34.1%
 T-DIPOLE    0.2343         C  1 -- C  2         +11.5% ( 47.3%)     16.3%
 TRAVEL      0.0897         C  1 -- C  4         +10.9% ( 46.0%)    100.0%
 RED. MASS   0.8981         C  1 -- C  3          +9.6% ( 43.3%)     19.1%
 EFF. MASS   6.1734

 VIBRATION   31   31A         ATOM PAIR      ENERGY CONTRIBUTION    RADIAL
 FREQ.      1393.58         C  6 -- C  7         +20.7% ( 58.6%)     98.4%
 T-DIPOLE    0.5549         C  1 -- C  6         +11.8% ( 44.3%)     15.8%
 TRAVEL      0.0906         C  3 -- H 13         +11.4% ( 43.6%)      0.6%
 RED. MASS   0.8779         C  6 -- H 15         +10.1% ( 41.0%)      2.9%
 EFF. MASS   5.8901

 VIBRATION   32   32A         ATOM PAIR      ENERGY CONTRIBUTION    RADIAL
 FREQ.      1400.85         C  4 -- H 10         +19.1% ( 46.8%)      3.7%
 T-DIPOLE    0.0313         C  4 -- H  9         +18.5% ( 46.0%)      4.1%
 TRAVEL      0.1420         C  5 -- H 12         +17.2% ( 44.4%)      3.6%
 RED. MASS   0.3059         C  5 -- H 11         +16.5% ( 43.4%)      4.2%
 EFF. MASS   2.3885

 VIBRATION   33   33A         ATOM PAIR      ENERGY CONTRIBUTION    RADIAL
 FREQ.      1428.71         C  5 -- H 12         +10.3% ( 41.2%)      5.3%
 T-DIPOLE    0.3039         C  5 -- H 11         +10.2% ( 41.1%)      5.3%
 TRAVEL      0.0961         C  4 -- H 10         +10.1% ( 40.9%)      5.3%
 RED. MASS   0.4683         C  4 -- H  9          +9.9% ( 40.4%)      5.7%
 EFF. MASS   5.1068

 VIBRATION   34   34A         ATOM PAIR      ENERGY CONTRIBUTION    RADIAL
 FREQ.      1450.52         C  6 -- C  7         +12.6% ( 55.7%)     88.9%
 T-DIPOLE    0.5518         C  2 -- C  3         +10.8% ( 51.6%)     91.4%
 TRAVEL      0.0710         C  1 -- C  6         +10.3% ( 50.4%)     73.5%
 RED. MASS   1.4700         C  3 -- H 13          +9.0% ( 47.0%)      5.3%
 EFF. MASS   9.2176

 VIBRATION   35   35A         ATOM PAIR      ENERGY CONTRIBUTION    RADIAL
 FREQ.      1622.14         C  1 -- C  6         +17.3% ( 74.8%)     89.5%
 T-DIPOLE    0.2279         C  1 -- C  3         +17.1% ( 74.4%)     83.5%
 TRAVEL      0.0596         C  1 -- C  2         +16.1% ( 72.1%)     88.5%
 RED. MASS   4.0335         C  1 -- C  5         +11.6% ( 61.2%)     62.3%
 EFF. MASS  11.7071         C  1 -- C  4         +11.5% ( 61.1%)     10.3%

 VIBRATION   36   36A         ATOM PAIR      ENERGY CONTRIBUTION    RADIAL
 FREQ.      2888.75         C  6 -- H 15         +79.9% ( 91.9%)     99.1%
 T-DIPOLE    0.3445         C  6 -- H 16         +18.2% ( 43.8%)     89.1%
 TRAVEL      0.1256         C  6 -- C  7          +0.9% (  9.9%)      0.5%
 RED. MASS   0.6968         C  1 -- C  6          +0.9% (  9.9%)      1.9%
 EFF. MASS   1.4800

 VIBRATION   37   37A         ATOM PAIR      ENERGY CONTRIBUTION    RADIAL
 FREQ.      2959.00         C  7 -- H 17         +79.6% ( 89.6%)     99.9%
 T-DIPOLE    0.5366         C  6 -- H 16         +15.8% ( 39.9%)     99.7%
 TRAVEL      0.1271         C  6 -- H 15          +3.6% ( 19.2%)     88.5%
 RED. MASS   0.6211         C  6 -- C  7          +0.8% (  8.7%)      3.7%
 EFF. MASS   1.4104

 VIBRATION   38   38A         ATOM PAIR      ENERGY CONTRIBUTION    RADIAL
 FREQ.      2979.85         C  6 -- H 16         +66.0% ( 80.8%)     99.7%
 T-DIPOLE    0.3496         C  7 -- H 17         +20.0% ( 44.4%)     99.9%
 TRAVEL      0.1297         C  6 -- H 15         +12.6% ( 35.3%)     83.8%
 RED. MASS   0.4723         C  6 -- C  7          +0.8% (  9.0%)     88.7%
 EFF. MASS   1.3458

 VIBRATION   39   39A         ATOM PAIR      ENERGY CONTRIBUTION    RADIAL
 FREQ.      3039.75         C  5 -- H 12         +28.1% ( 55.5%)     97.0%
 T-DIPOLE    0.0191         C  5 -- H 11         +25.5% ( 52.7%)     96.5%
 TRAVEL      0.1193         C  4 -- H  9         +22.0% ( 49.0%)     96.9%
 RED. MASS   0.2636         C  4 -- H 10         +20.8% ( 47.7%)     96.5%
 EFF. MASS   1.5599

 VIBRATION   40   40A         ATOM PAIR      ENERGY CONTRIBUTION    RADIAL
 FREQ.      3053.44         C  4 -- H  9         +27.7% ( 54.6%)     97.1%
 T-DIPOLE    0.1055         C  4 -- H 10         +26.1% ( 53.1%)     96.8%
 TRAVEL      0.1199         C  5 -- H 12         +22.9% ( 49.8%)     97.4%
 RED. MASS   0.2631         C  5 -- H 11         +19.8% ( 46.3%)     96.6%
 EFF. MASS   1.5357

 VIBRATION   41   41A         ATOM PAIR      ENERGY CONTRIBUTION    RADIAL
 FREQ.      3083.87         C  3 -- H 14         +50.8% ( 73.7%)     97.4%
 T-DIPOLE    0.1503         C  3 -- H 13         +46.2% ( 70.3%)     96.9%
 TRAVEL      0.1185         C  2 -- C  3          +1.2% ( 11.3%)      0.2%
 RED. MASS   0.5163         C  1 -- C  3          +1.2% ( 11.2%)      0.0%
 EFF. MASS   1.5567

 VIBRATION   42   42A         ATOM PAIR      ENERGY CONTRIBUTION    RADIAL
 FREQ.      3105.91         C  5 -- H 11         +51.4% ( 71.2%)     97.5%
 T-DIPOLE    0.0729         C  5 -- H 12         +45.1% ( 66.7%)     96.5%
 TRAVEL      0.1300         C  4 -- H 10          +0.7% (  8.4%)     97.2%
 RED. MASS   0.4724         C  1 -- C  5          +0.7% (  8.3%)     99.6%
 EFF. MASS   1.2841

 VIBRATION   43   43A         ATOM PAIR      ENERGY CONTRIBUTION    RADIAL
 FREQ.      3107.13         C  4 -- H 10         +49.6% ( 69.9%)     97.2%
 T-DIPOLE    0.0999         C  4 -- H  9         +46.8% ( 67.9%)     96.9%
 TRAVEL      0.1302         C  4 -- C  5          +0.7% (  8.3%)     62.3%
 RED. MASS   0.4693         C  2 -- C  4          +0.7% (  8.2%)     99.9%
 EFF. MASS   1.2808

 VIBRATION   44   44A         ATOM PAIR      ENERGY CONTRIBUTION    RADIAL
 FREQ.      3122.11         C  3 -- H 13         +51.9% ( 71.6%)     96.6%
 T-DIPOLE    0.1816         C  3 -- H 14         +46.3% ( 67.6%)     95.9%
 TRAVEL      0.1290         C  1 -- C  3          +0.8% (  9.1%)     76.0%
 RED. MASS   0.4844         C  2 -- C  3          +0.8% (  9.0%)     74.8%
 EFF. MASS   1.2976

 VIBRATION   45   45A         ATOM PAIR      ENERGY CONTRIBUTION    RADIAL
 FREQ.      3145.54         C  2 -- H  8         +94.0% ( 99.6%)    100.0%
 T-DIPOLE    0.3376         C  2 -- C  4          +1.3% ( 11.8%)     74.9%
 TRAVEL      0.1200         C  1 -- C  2          +1.3% ( 11.8%)     48.0%
 RED. MASS   0.9147         C  2 -- C  3          +1.3% ( 11.8%)     38.5%
 EFF. MASS   1.4899

      SYMMETRY NUMBER FOR POINT-GROUP C1  =  1


          SYSTEM IS A GROUND STATE



 InChI=1S/C7H10/c1-2-7-4-3-6(7)5-7/h1,6H,2-5H2/lp1


          MOLECULE IS NOT LINEAR

          THERE ARE 45 GENUINE VIBRATIONS IN THIS SYSTEM
          THIS THERMODYNAMICS CALCULATION IS LIMITED TO
          MOLECULES WHICH HAVE NO INTERNAL ROTATIONS




                    CALCULATED THERMODYNAMIC PROPERTIES
                                          *
   TEMP. (K)   PARTITION FUNCTION   H.O.F.    ENTHALPY  HEAT CAPACITY ENTROPY
                                   KCAL/MOL   CAL/MOLE    CAL/K/MOL  CAL/K/MOL


 298.00  VIB.     0.2812D+02                  2567.9994    20.6685    15.2479
         ROT.     0.1879D+06                   888.2813     2.9808    27.1125
         INT.     0.5284D+07                  3456.2808    23.6493    42.3604
         TRA.     0.8833D+27                  1480.4688     4.9680    39.5363
         TOT.                      132.688    4936.7496    28.6173    81.8967

 200.00  VIB.     0.7433D+01                  1001.6591    11.5917     8.9945
         ROT.     0.1033D+06                   596.1620     2.9808    25.9238
         INT.     0.7678D+06                  1597.8211    14.5726    34.9183
         TRA.     0.4856D+27                   993.6033     4.9680    37.5551
         TOT.                      130.343    2591.4243    19.5406    72.4734

 210.00  VIB.     0.8440D+01                  1121.7094    12.4229     9.5801
         ROT.     0.1111D+06                   625.9700     2.9808    26.0692
         INT.     0.9380D+06                  1747.6794    15.4037    35.6493
         TRA.     0.5225D+27                  1043.2834     4.9680    37.7975
         TOT.                      130.542    2790.9628    20.3717    73.4468

 220.00  VIB.     0.9602D+01                  1250.2071    13.2811    10.1777
         ROT.     0.1192D+06                   655.7781     2.9808    26.2079
         INT.     0.1144D+07                  1905.9853    16.2619    36.3856
         TRA.     0.5603D+27                  1092.9636     4.9680    38.0286
         TOT.                      130.750    2998.9489    21.2299    74.4142

 230.00  VIB.     0.1095D+02                  1387.4173    14.1651    10.7874
         ROT.     0.1274D+06                   685.5862     2.9808    26.3404
         INT.     0.1394D+07                  2073.0035    17.1459    37.1278
         TRA.     0.5989D+27                  1142.6437     4.9680    38.2495
         TOT.                      130.967    3215.6472    22.1139    75.3773

 240.00  VIB.     0.1250D+02                  1533.5882    15.0729    11.4094
         ROT.     0.1358D+06                   715.3943     2.9808    26.4673
         INT.     0.1698D+07                  2248.9826    18.0537    37.8767
         TRA.     0.6384D+27                  1192.3239     4.9680    38.4609
         TOT.                      131.193    3441.3065    23.0217    76.3376

 250.00  VIB.     0.1431D+02                  1688.9467    16.0021    12.0435
         ROT.     0.1444D+06                   745.2024     2.9808    26.5889
         INT.     0.2066D+07                  2434.1492    18.9830    38.6324
         TRA.     0.6787D+27                  1242.0041     4.9680    38.6637
         TOT.                      131.428    3676.1532    23.9510    77.2962

 260.00  VIB.     0.1641D+02                  1853.6934    16.9501    12.6895
         ROT.     0.1531D+06                   775.0105     2.9808    26.7059
         INT.     0.2512D+07                  2628.7039    19.9309    39.3954
         TRA.     0.7198D+27                  1291.6842     4.9680    38.8586
         TOT.                      131.672    3920.3882    24.8989    78.2539

 270.00  VIB.     0.1886D+02                  2028.0000    17.9136    13.3472
         ROT.     0.1620D+06                   804.8186     2.9808    26.8184
         INT.     0.3055D+07                  2832.8186    20.8944    40.1656
         TRA.     0.7618D+27                  1341.3644     4.9680    39.0461
         TOT.                      131.926    4174.1830    25.8624    79.2117

 280.00  VIB.     0.2171D+02                  2212.0076    18.8897    14.0163
         ROT.     0.1711D+06                   834.6267     2.9808    26.9268
         INT.     0.3715D+07                  3046.6343    21.8706    40.9431
         TRA.     0.8045D+27                  1391.0445     4.9680    39.2267
         TOT.                      132.189    4437.6789    26.8386    80.1698

 290.00  VIB.     0.2505D+02                  2405.8263    19.8753    14.6964
         ROT.     0.1804D+06                   864.4348     2.9808    27.0314
         INT.     0.4518D+07                  3270.2611    22.8561    41.7277
         TRA.     0.8479D+27                  1440.7247     4.9680    39.4011
         TOT.                      132.462    4710.9858    27.8241    81.1288

 300.00  VIB.     0.2895D+02                  2609.5352    20.8673    15.3869
         ROT.     0.1898D+06                   894.2429     2.9808    27.1324
         INT.     0.5495D+07                  3503.7782    23.8481    42.5193
         TRA.     0.8922D+27                  1490.4049     4.9680    39.5695
         TOT.                      132.746    4994.1830    28.8161    82.0888

 310.00  VIB.     0.3354D+02                  2823.1835    21.8627    16.0873
         ROT.     0.1993D+06                   924.0510     2.9808    27.2302
         INT.     0.6685D+07                  3747.2345    24.8435    43.3175
         TRA.     0.9372D+27                  1540.0850     4.9680    39.7324
         TOT.                      133.039    5287.3196    29.8115    83.0499

 320.00  VIB.     0.3892D+02                  3046.7919    22.8588    16.7972
         ROT.     0.2091D+06                   953.8591     2.9808    27.3248
         INT.     0.8135D+07                  4000.6510    25.8397    44.1220
         TRA.     0.9829D+27                  1589.7652     4.9680    39.8901
         TOT.                      133.342    5590.4162    30.8077    84.0121

 330.00  VIB.     0.4524D+02                  3280.3543    23.8531    17.5158
         ROT.     0.2189D+06                   983.6672     2.9808    27.4165
         INT.     0.9905D+07                  4264.0215    26.8339    44.9323
         TRA.     0.1029D+28                  1639.4454     4.9680    40.0430
         TOT.                      133.655    5903.4669    31.8019    84.9753

 340.00  VIB.     0.5270D+02                  3523.8402    24.8432    18.2426
         ROT.     0.2290D+06                  1013.4753     2.9808    27.5055
         INT.     0.1207D+08                  4537.3156    27.8240    45.7481
         TRA.     0.1076D+28                  1689.1255     4.9680    40.1913
         TOT.                      133.978    6226.4411    32.7920    85.9394

 350.00  VIB.     0.6149D+02                  3777.1970    25.8269    18.9770
         ROT.     0.2391D+06                  1043.2834     2.9808    27.5919
         INT.     0.1470D+08                  4820.4804    28.8077    46.5689
         TRA.     0.1124D+28                  1738.8057     4.9680    40.3353
         TOT.                      134.311    6559.2861    33.7758    86.9042

 360.00  VIB.     0.7187D+02                  4040.3517    26.8025    19.7182
         ROT.     0.2495D+06                  1073.0915     2.9808    27.6759
         INT.     0.1793D+08                  5113.4432    29.7833    47.3941
         TRA.     0.1173D+28                  1788.4859     4.9680    40.4753
         TOT.                      134.653    6901.9291    34.7513    87.8694

 370.00  VIB.     0.8415D+02                  4313.2140    27.7682    20.4658
         ROT.     0.2599D+06                  1102.8996     2.9808    27.7575
         INT.     0.2187D+08                  5416.1136    30.7490    48.2233
         TRA.     0.1222D+28                  1838.1660     4.9680    40.6114
         TOT.                      135.006    7254.2796    35.7170    88.8347

 380.00  VIB.     0.9868D+02                  4595.6782    28.7226    21.2190
         ROT.     0.2705D+06                  1132.7077     2.9808    27.8370
         INT.     0.2670D+08                  5728.3859    31.7034    49.0560
         TRA.     0.1272D+28                  1887.8462     4.9680    40.7439
         TOT.                      135.368    7616.2320    36.6715    89.7999

 390.00  VIB.     0.1159D+03                  4887.6251    29.6646    21.9773
         ROT.     0.2813D+06                  1162.5158     2.9808    27.9145
         INT.     0.3260D+08                  6050.1409    32.6454    49.8918
         TRA.     0.1322D+28                  1937.5263     4.9680    40.8729
         TOT.                      135.739    7987.6673    37.6134    90.7647

 400.00  VIB.     0.1364D+03                  5188.9248    30.5930    22.7401
         ROT.     0.2922D+06                  1192.3239     2.9808    27.9899
         INT.     0.3984D+08                  6381.2487    33.5738    50.7300
         TRA.     0.1374D+28                  1987.2065     4.9680    40.9987
         TOT.                      136.120    8368.4552    38.5419    91.7287

   *: NOTE: HEATS OF FORMATION ARE RELATIVE TO THE
            ELEMENTS IN THEIR STANDARD STATE AT 298K
              (=  Standard Enthalpy of Formation).

            Hvib:  Zero-point energy is not included.
                   frequencies of less than zero cm-1 are not included.
            Hrot = (3/2)RT
            Htra = (3/2)RT + pV = (5/2)RT

            Heat capacity is Cp, not Cv

          For more information, see: HTTP://OpenMOPAC.net/Manual/thermochemistry.html


           FORCE CONSTANT IN CARTESIAN COORDINATES (Millidynes/A)

    ATOM   CHEMICAL       X               Y               Z
   NUMBER   SYMBOL  FORCE CONSTANT  FORCE CONSTANT  FORCE CONSTANT

      1       C       10.136012        6.807227        8.762801
      2       C        9.550199        6.558953        8.456977
      3       C        4.407306       11.614181        8.944043
      4       C        7.657588        8.579898        8.047970
      5       C        7.620039        8.618342        8.167530
      6       C        9.908090        6.691378        8.443065
      7       C        7.956893        0.211026        4.516104
      8       H        2.706222        0.920363        3.014788
      9       H        1.455347        4.469756        0.677299
     10       H        1.515016        2.175818        2.922224
     11       H        1.454110        4.481277        0.680017
     12       H        1.506967        2.161039        2.932907
     13       H        0.528252        2.421235        3.690290
     14       H        0.530362        2.151911        3.926893
     15       H        0.425203        4.585002        0.635845
     16       H        0.945201        1.477914        3.722532
     17       H        2.217478        0.123017        3.102516

 **********************
 *                    *
 * JOB ENDED NORMALLY *
 *                    *
 **********************



 TOTAL JOB TIME:             1.22 SECONDS

 == MOPAC DONE ==
