 *******************************************************************************
 ** Site#: 14399        For non-commercial use only    Version 18.184L 64BITS **
 *******************************************************************************
 ** Cite this program as: MOPAC2016, Version: 18.184L, James J. P. Stewart,   **
 ** Stewart Computational Chemistry, web: HTTP://OpenMOPAC.net. Days left:  18**
 *******************************************************************************
 **                                                                           **
 **                                MOPAC2016                                  **
 **                                                                           **
 *******************************************************************************

                              PM3 CALCULATION RESULTS

 *******************************************************************************
 *  CALCULATION DONE:                                Sat Jun 15 11:08:07 2019  *
 *  PM3        - The PM3 Hamiltonian to be used
 *  PRECISE    - CRITERIA TO BE INCREASED BY 100 TIMES
 *  NOSYM      - POINT-GROUP SYMMETRY SET TO C1
 *  THREADS=1  - MULTI-THREADING NOT USED
 *  T=         - A TIME OF 172800.0 SECONDS REQUESTED
 *  DUMP=N     - RESTART FILE WRITTEN EVERY  7200.000 SECONDS
 *******************************************************************************
pm3  precise nosym THREADS=1
 InChI=1S/C7H12O2/c8-5-6-3-1-2-4-7(6)9/h5-7,9H,1-4H2

   ATOM   CHEMICAL          X               Y               Z
  NUMBER   SYMBOL      (ANGSTROMS)     (ANGSTROMS)     (ANGSTROMS)
 
     1       O          1.42330000  *   2.01060000  *  -0.24780000  *
     2       O          3.30820000  *  -0.85950000  *  -0.60370000  *
     3       C          1.00880000  *  -0.36050000  *  -0.31420000  *
     4       C          0.55650000  *   1.01270000  *   0.22760000  *
     5       C          0.02890000  *  -1.46750000  *   0.11660000  *
     6       C         -0.88200000  *   1.32460000  *  -0.22470000  *
     7       C         -1.85110000  *   0.21670000  *   0.20420000  *
     8       C         -1.40030000  *  -1.14510000  *  -0.33520000  *
     9       C          2.39090000  *  -0.68900000  *   0.18350000  *
    10       H          1.02590000  *  -0.31860000  *  -1.42780000  *
    11       H          0.58690000  *   0.98910000  *   1.34370000  *
    12       H         -1.90910000  *   0.17920000  *   1.31440000  *
    13       H         -2.86650000  *   0.44690000  *  -0.18420000  *
    14       H         -0.91310000  *   1.43690000  *  -1.33120000  *
    15       H         -1.21120000  *   2.28610000  *   0.22540000  *
    16       H         -1.45060000  *  -1.14310000  *  -1.44640000  *
    17       H         -2.08960000  *  -1.93330000  *   0.03720000  *
    18       H          0.04510000  *  -1.58440000  *   1.22350000  *
    19       H          0.33820000  *  -2.43570000  *  -0.33480000  *
    20       H          2.57880000  *  -0.77570000  *   1.24930000  *
    21       H          1.28200000  *   2.80960000  *   0.32460000  *
 


          CARTESIAN COORDINATES 

    NO.       ATOM           X           Y           Z

     1         O          1.4233      2.0106     -0.2478
     2         O          3.3082     -0.8595     -0.6037
     3         C          1.0088     -0.3605     -0.3142
     4         C          0.5565      1.0127      0.2276
     5         C          0.0289     -1.4675      0.1166
     6         C         -0.8820      1.3246     -0.2247
     7         C         -1.8511      0.2167      0.2042
     8         C         -1.4003     -1.1451     -0.3352
     9         C          2.3909     -0.6890      0.1835
    10         H          1.0259     -0.3186     -1.4278
    11         H          0.5869      0.9891      1.3437
    12         H         -1.9091      0.1792      1.3144
    13         H         -2.8665      0.4469     -0.1842
    14         H         -0.9131      1.4369     -1.3312
    15         H         -1.2112      2.2861      0.2254
    16         H         -1.4506     -1.1431     -1.4464
    17         H         -2.0896     -1.9333      0.0372
    18         H          0.0451     -1.5844      1.2235
    19         H          0.3382     -2.4357     -0.3348
    20         H          2.5788     -0.7757      1.2493
    21         H          1.2820      2.8096      0.3246

  H: (PM3): J. J. P. STEWART, J. COMP. CHEM. 10, 209 (1989).
  C: (PM3): J. J. P. STEWART, J. COMP. CHEM. 10, 209 (1989).
  O: (PM3): J. J. P. STEWART, J. COMP. CHEM. 10, 209 (1989).

           Empirical Formula: C7 H12 O2  =    21 atoms



      MOLECULAR POINT GROUP   :   C1  


      RHF CALCULATION, NO. OF DOUBLY OCCUPIED LEVELS = 26


          Geometry optimization using EF

          DIAGONAL MATRIX USED AS START HESSIAN

 CYCLE:     1 TIME:   0.008 TIME LEFT:  2.00D  GRAD.:    89.861 HEAT: -98.03210
 CYCLE:     2 TIME:   0.012 TIME LEFT:  2.00D  GRAD.:    75.870 HEAT: -99.31968
 CYCLE:     3 TIME:   0.008 TIME LEFT:  2.00D  GRAD.:    41.026 HEAT: -99.89268
 CYCLE:     4 TIME:   0.004 TIME LEFT:  2.00D  GRAD.:    23.979 HEAT: -100.2105
 CYCLE:     5 TIME:   0.004 TIME LEFT:  2.00D  GRAD.:    19.378 HEAT: -100.3911
 CYCLE:     6 TIME:   0.008 TIME LEFT:  2.00D  GRAD.:    15.015 HEAT: -100.4990
 CYCLE:     7 TIME:   0.004 TIME LEFT:  2.00D  GRAD.:    19.602 HEAT: -100.5414
 CYCLE:     8 TIME:   0.004 TIME LEFT:  2.00D  GRAD.:    21.285 HEAT: -100.6046
 CYCLE:     9 TIME:   0.008 TIME LEFT:  2.00D  GRAD.:     9.724 HEAT: -100.7019
 CYCLE:    10 TIME:   0.004 TIME LEFT:  2.00D  GRAD.:    15.191 HEAT: -100.7113
 CYCLE:    11 TIME:   0.004 TIME LEFT:  2.00D  GRAD.:     8.356 HEAT: -100.7860
 CYCLE:    12 TIME:   0.012 TIME LEFT:  2.00D  GRAD.:     7.745 HEAT: -100.8051
 CYCLE:    13 TIME:   0.004 TIME LEFT:  2.00D  GRAD.:     5.587 HEAT: -100.8279
 CYCLE:    14 TIME:   0.004 TIME LEFT:  2.00D  GRAD.:     8.661 HEAT: -100.8427
 CYCLE:    15 TIME:   0.004 TIME LEFT:  2.00D  GRAD.:     5.609 HEAT: -100.8692
 CYCLE:    16 TIME:   0.008 TIME LEFT:  2.00D  GRAD.:     8.060 HEAT: -100.8763
 CYCLE:    17 TIME:   0.004 TIME LEFT:  2.00D  GRAD.:     3.236 HEAT: -100.8979
 CYCLE:    18 TIME:   0.012 TIME LEFT:  2.00D  GRAD.:     3.978 HEAT: -100.9024
 CYCLE:    19 TIME:   0.004 TIME LEFT:  2.00D  GRAD.:     2.940 HEAT: -100.9106
 CYCLE:    20 TIME:   0.004 TIME LEFT:  2.00D  GRAD.:     9.093 HEAT: -100.9254
 CYCLE:    21 TIME:   0.008 TIME LEFT:  2.00D  GRAD.:     7.296 HEAT: -100.9410
 CYCLE:    22 TIME:   0.004 TIME LEFT:  2.00D  GRAD.:     9.654 HEAT: -100.9429
 CYCLE:    23 TIME:   0.004 TIME LEFT:  2.00D  GRAD.:     4.856 HEAT: -100.9701
 CYCLE:    24 TIME:   0.004 TIME LEFT:  2.00D  GRAD.:     4.354 HEAT: -100.9841
 CYCLE:    25 TIME:   0.004 TIME LEFT:  2.00D  GRAD.:     5.736 HEAT: -101.0019
 CYCLE:    26 TIME:   0.004 TIME LEFT:  2.00D  GRAD.:     6.883 HEAT: -101.0459
 CYCLE:    27 TIME:   0.004 TIME LEFT:  2.00D  GRAD.:     5.070 HEAT: -101.0762
 CYCLE:    28 TIME:   0.004 TIME LEFT:  2.00D  GRAD.:     4.636 HEAT: -101.1040
 CYCLE:    29 TIME:   0.004 TIME LEFT:  2.00D  GRAD.:    10.675 HEAT: -101.1136
 CYCLE:    30 TIME:   0.004 TIME LEFT:  2.00D  GRAD.:     4.983 HEAT: -101.1464
 CYCLE:    31 TIME:   0.008 TIME LEFT:  2.00D  GRAD.:     6.094 HEAT: -101.1549
 CYCLE:    32 TIME:   0.004 TIME LEFT:  2.00D  GRAD.:     2.825 HEAT: -101.1716
 CYCLE:    33 TIME:   0.004 TIME LEFT:  2.00D  GRAD.:     3.680 HEAT: -101.1863
 CYCLE:    34 TIME:   0.004 TIME LEFT:  2.00D  GRAD.:     3.069 HEAT: -101.1993
 CYCLE:    35 TIME:   0.004 TIME LEFT:  2.00D  GRAD.:     2.238 HEAT: -101.2074
 CYCLE:    36 TIME:   0.004 TIME LEFT:  2.00D  GRAD.:     1.726 HEAT: -101.2132
 CYCLE:    37 TIME:   0.004 TIME LEFT:  2.00D  GRAD.:     1.678 HEAT: -101.2186
 CYCLE:    38 TIME:   0.004 TIME LEFT:  2.00D  GRAD.:     1.447 HEAT: -101.2234
 CYCLE:    39 TIME:   0.004 TIME LEFT:  2.00D  GRAD.:     1.985 HEAT: -101.2258
 CYCLE:    40 TIME:   0.008 TIME LEFT:  2.00D  GRAD.:     1.288 HEAT: -101.2288
 CYCLE:    41 TIME:   0.004 TIME LEFT:  2.00D  GRAD.:     1.482 HEAT: -101.2319
 CYCLE:    42 TIME:   0.004 TIME LEFT:  2.00D  GRAD.:     1.564 HEAT: -101.2348
 CYCLE:    43 TIME:   0.004 TIME LEFT:  2.00D  GRAD.:     1.517 HEAT: -101.2380
 CYCLE:    44 TIME:   0.004 TIME LEFT:  2.00D  GRAD.:     1.535 HEAT: -101.2414
 CYCLE:    45 TIME:   0.004 TIME LEFT:  2.00D  GRAD.:     1.319 HEAT: -101.2454
 CYCLE:    46 TIME:   0.004 TIME LEFT:  2.00D  GRAD.:     1.736 HEAT: -101.2490
 CYCLE:    47 TIME:   0.004 TIME LEFT:  2.00D  GRAD.:     1.408 HEAT: -101.2530
 CYCLE:    48 TIME:   0.008 TIME LEFT:  2.00D  GRAD.:     1.128 HEAT: -101.2569
 CYCLE:    49 TIME:   0.004 TIME LEFT:  2.00D  GRAD.:     1.519 HEAT: -101.2594
 CYCLE:    50 TIME:   0.004 TIME LEFT:  2.00D  GRAD.:     1.321 HEAT: -101.2612
 CYCLE:    51 TIME:   0.004 TIME LEFT:  2.00D  GRAD.:     1.090 HEAT: -101.2635
 CYCLE:    52 TIME:   0.004 TIME LEFT:  2.00D  GRAD.:     0.985 HEAT: -101.2671
 CYCLE:    53 TIME:   0.004 TIME LEFT:  2.00D  GRAD.:     1.048 HEAT: -101.2693
 CYCLE:    54 TIME:   0.004 TIME LEFT:  2.00D  GRAD.:     1.189 HEAT: -101.2713
 CYCLE:    55 TIME:   0.004 TIME LEFT:  2.00D  GRAD.:     1.050 HEAT: -101.2728
 CYCLE:    56 TIME:   0.004 TIME LEFT:  2.00D  GRAD.:     0.993 HEAT: -101.2742
 CYCLE:    57 TIME:   0.008 TIME LEFT:  2.00D  GRAD.:     0.615 HEAT: -101.2752
 CYCLE:    58 TIME:   0.004 TIME LEFT:  2.00D  GRAD.:     0.709 HEAT: -101.2760
 CYCLE:    59 TIME:   0.004 TIME LEFT:  2.00D  GRAD.:     0.590 HEAT: -101.2765
 CYCLE:    60 TIME:   0.004 TIME LEFT:  2.00D  GRAD.:     0.496 HEAT: -101.2770
 CYCLE:    61 TIME:   0.004 TIME LEFT:  2.00D  GRAD.:     0.456 HEAT: -101.2777
 CYCLE:    62 TIME:   0.004 TIME LEFT:  2.00D  GRAD.:     0.481 HEAT: -101.2783
 CYCLE:    63 TIME:   0.004 TIME LEFT:  2.00D  GRAD.:     0.484 HEAT: -101.2788
 CYCLE:    64 TIME:   0.004 TIME LEFT:  2.00D  GRAD.:     0.446 HEAT: -101.2792
 CYCLE:    65 TIME:   0.004 TIME LEFT:  2.00D  GRAD.:     0.388 HEAT: -101.2796
 CYCLE:    66 TIME:   0.004 TIME LEFT:  2.00D  GRAD.:     0.597 HEAT: -101.2799
 CYCLE:    67 TIME:   0.008 TIME LEFT:  2.00D  GRAD.:     0.428 HEAT: -101.2802
 CYCLE:    68 TIME:   0.004 TIME LEFT:  2.00D  GRAD.:     0.360 HEAT: -101.2805
 CYCLE:    69 TIME:   0.004 TIME LEFT:  2.00D  GRAD.:     0.352 HEAT: -101.2807
 CYCLE:    70 TIME:   0.004 TIME LEFT:  2.00D  GRAD.:     0.236 HEAT: -101.2808
 CYCLE:    71 TIME:   0.004 TIME LEFT:  2.00D  GRAD.:     0.225 HEAT: -101.2810
 CYCLE:    72 TIME:   0.004 TIME LEFT:  2.00D  GRAD.:     0.231 HEAT: -101.2811
 CYCLE:    73 TIME:   0.004 TIME LEFT:  2.00D  GRAD.:     0.157 HEAT: -101.2812
 CYCLE:    74 TIME:   0.004 TIME LEFT:  2.00D  GRAD.:     0.127 HEAT: -101.2813
 CYCLE:    75 TIME:   0.004 TIME LEFT:  2.00D  GRAD.:     0.124 HEAT: -101.2813
 CYCLE:    76 TIME:   0.004 TIME LEFT:  2.00D  GRAD.:     0.106 HEAT: -101.2813
 CYCLE:    77 TIME:   0.004 TIME LEFT:  2.00D  GRAD.:     0.109 HEAT: -101.2813
 CYCLE:    78 TIME:   0.004 TIME LEFT:  2.00D  GRAD.:     0.086 HEAT: -101.2814
 CYCLE:    79 TIME:   0.008 TIME LEFT:  2.00D  GRAD.:     0.059 HEAT: -101.2814
 CYCLE:    80 TIME:   0.004 TIME LEFT:  2.00D  GRAD.:     0.354 HEAT: -101.2813
 CYCLE:    81 TIME:   0.004 TIME LEFT:  2.00D  GRAD.:     0.100 HEAT: -101.2814
 CYCLE:    82 TIME:   0.004 TIME LEFT:  2.00D  GRAD.:     0.049 HEAT: -101.2814

     GRADIENT =  0.04917  IS LESS THAN CUTOFF =  0.05000



 -------------------------------------------------------------------------------
 pm3  precise nosym THREADS=1
 InChI=1S/C7H12O2/c8-5-6-3-1-2-4-7(6)9/h5-7,9H,1-4H2



     GEOMETRY OPTIMISED USING EIGENVECTOR FOLLOWING (EF).     
     SCF FIELD WAS ACHIEVED                                   


                              PM3 CALCULATION
                                                       MOPAC2016 (Version: 18.184L)
                                                       Sat Jun 15 11:08:08 2019
                                                       No. of days remaining =  18




          FINAL HEAT OF FORMATION =       -101.28138 KCAL/MOL =    -423.76130 KJ/MOL


          TOTAL ENERGY            =      -1602.71690 EV
          ELECTRONIC ENERGY       =      -7874.35629 EV  POINT GROUP:     C1  
          CORE-CORE REPULSION     =       6271.63939 EV
          COSMO AREA              =        162.54 SQUARE ANGSTROMS
          COSMO VOLUME            =        165.60 CUBIC ANGSTROMS

          GRADIENT NORM           =          0.04917 = 0.01073 PER ATOM
          IONIZATION POTENTIAL    =         10.402120 EV
          HOMO LUMO ENERGIES (EV) =        -10.402  0.993
          NO. OF FILLED LEVELS    =         26
          MOLECULAR WEIGHT        =        128.1706

          MOLECULAR DIMENSIONS (Angstroms)

            Atom       Atom       Distance
            H    13    O     2     6.32743
            H    21    H    17     5.44046
            H    20    H    16     2.84277


          SCF CALCULATIONS        =         93
 
          WALL-CLOCK TIME         =          0.398 SECONDS
          COMPUTATION TIME        =          0.368 SECONDS




   ATOM   CHEMICAL          X               Y               Z
  NUMBER   SYMBOL      (ANGSTROMS)     (ANGSTROMS)     (ANGSTROMS)
 
     1       O          1.42656569  *   2.03557186  *  -0.19578989  *
     2       O          3.24963211  *  -1.15590032  *  -0.53931123  *
     3       C          1.01568340  *  -0.30136449  *  -0.34376968  *
     4       C          0.53102877  *   1.03537028  *   0.25397716  *
     5       C          0.06956704  *  -1.42876686  *   0.06963811  *
     6       C         -0.91341666  *   1.32383574  *  -0.18810868  *
     7       C         -1.83587175  *   0.18926607  *   0.22158531  *
     8       C         -1.35822848  *  -1.13220579  *  -0.35800474  *
     9       C          2.41134393  *  -0.63629631  *   0.15845937  *
    10       H          1.01897141  *  -0.21789331  *  -1.45938013  *
    11       H          0.58019847  *   0.98683508  *   1.37154332  *
    12       H         -1.88673460  *   0.12220956  *   1.32692426  *
    13       H         -2.86839934  *   0.40191437  *  -0.11593200  *
    14       H         -0.95173212  *   1.46931573  *  -1.28658586  *
    15       H         -1.26523897  *   2.27635704  *   0.25529389  *
    16       H         -1.42438607  *  -1.10624533  *  -1.46413503  *
    17       H         -2.02651470  *  -1.95297294  *  -0.03385321  *
    18       H          0.11343314  *  -1.57506056  *   1.16809152  *
    19       H          0.40859048  *  -2.38262158  *  -0.37910119  *
    20       H          2.63227297  *  -0.39554322  *   1.21149575  *
    21       H          1.07053151  *   2.86691858  *   0.08755156  *

                             CARTESIAN COORDINATES

   1    O        1.426565689     2.035571858    -0.195789893
   2    O        3.249632109    -1.155900323    -0.539311232
   3    C        1.015683401    -0.301364487    -0.343769678
   4    C        0.531028773     1.035370282     0.253977159
   5    C        0.069567040    -1.428766862     0.069638113
   6    C       -0.913416660     1.323835743    -0.188108677
   7    C       -1.835871751     0.189266074     0.221585309
   8    C       -1.358228476    -1.132205794    -0.358004739
   9    C        2.411343931    -0.636296308     0.158459374
  10    H        1.018971407    -0.217893307    -1.459380127
  11    H        0.580198473     0.986835076     1.371543316
  12    H       -1.886734605     0.122209559     1.326924258
  13    H       -2.868399341     0.401914366    -0.115932003
  14    H       -0.951732120     1.469315727    -1.286585863
  15    H       -1.265238970     2.276357042     0.255293893
  16    H       -1.424386072    -1.106245332    -1.464135026
  17    H       -2.026514699    -1.952972939    -0.033853215
  18    H        0.113433138    -1.575060558     1.168091517
  19    H        0.408590480    -2.382621585    -0.379101186
  20    H        2.632272970    -0.395543224     1.211495745
  21    H        1.070531506     2.866918576     0.087551562


           Empirical Formula: C7 H12 O2  =    21 atoms



      MOLECULAR POINT GROUP   :   C1  


                  EIGENVALUES  
 -42.35063 -37.52065 -36.52330 -31.33395 -29.31666 -23.55419 -22.17329 -20.63361
 -20.31903 -17.85694 -17.35004 -16.58667 -15.82183 -15.56117 -15.33306 -14.62105
 -14.41624 -14.24010 -13.33603 -13.18300 -12.66448 -12.25283 -11.94563 -11.76702
 -11.29549 -10.40212   0.99257   2.56395   2.84045   3.13937   3.22598   3.35564
   3.45418   3.46683   3.66066   3.73014   3.82218   3.91663   4.07200   4.26950
   4.41183   4.55813   4.58872   4.71023   4.76189   4.89572   5.43563   6.97738


              NET ATOMIC CHARGES AND DIPOLE CONTRIBUTIONS

  ATOM NO.   TYPE          CHARGE      No. of ELECS.   s-Pop       p-Pop       
    1          O          -0.310916        6.3109     1.81015     4.50077
    2          O          -0.311156        6.3112     1.86027     4.45088
    3          C          -0.173587        4.1736     1.19805     2.97554
    4          C           0.089897        3.9101     1.17352     2.73659
    5          C          -0.084223        4.0842     1.15965     2.92457
    6          C          -0.138135        4.1381     1.17201     2.96612
    7          C          -0.091667        4.0917     1.15860     2.93307
    8          C          -0.098757        4.0988     1.16016     2.93860
    9          C           0.294217        3.7058     1.20303     2.50275
   10          H           0.103028        0.8970     0.89697
   11          H           0.043484        0.9565     0.95652
   12          H           0.050626        0.9494     0.94937
   13          H           0.052945        0.9471     0.94706
   14          H           0.067035        0.9330     0.93296
   15          H           0.050237        0.9498     0.94976
   16          H           0.056380        0.9436     0.94362
   17          H           0.053340        0.9467     0.94666
   18          H           0.050128        0.9499     0.94987
   19          H           0.060800        0.9392     0.93920
   20          H           0.045680        0.9543     0.95432
   21          H           0.190644        0.8094     0.80936
 DIPOLE           X         Y         Z       TOTAL
 POINT-CHG.    -2.542     0.556     1.504     3.005
 HYBRID        -0.729     0.570     0.411     1.013
 SUM           -3.271     1.126     1.914     3.954


          ATOMIC ORBITAL ELECTRON POPULATIONS

     Atom    s        px        py        pz   
    1  O   1.81015   1.49590   1.18619   1.81868
    2  O   1.86027   1.50360   1.29717   1.65011
    3  C   1.19805   0.97750   0.95879   1.03924
    4  C   1.17352   0.89070   0.88511   0.96078
    5  C   1.15965   0.94751   0.96945   1.00761
    6  C   1.17201   0.95957   0.98170   1.02486
    7  C   1.15860   0.98086   0.94827   1.00394
    8  C   1.16016   0.95936   0.97061   1.00862
    9  C   1.20303   0.85994   0.74118   0.90163
   10  H   0.89697
   11  H   0.95652
   12  H   0.94937
   13  H   0.94706
   14  H   0.93296
   15  H   0.94976
   16  H   0.94362
   17  H   0.94666
   18  H   0.94987
   19  H   0.93920
   20  H   0.95432
   21  H   0.80936
 *******************************************************************************
 ** Site#: 14399        For non-commercial use only    Version 18.184L 64BITS **
 *******************************************************************************
 ** Cite this program as: MOPAC2016, Version: 18.184L, James J. P. Stewart,   **
 ** Stewart Computational Chemistry, web: HTTP://OpenMOPAC.net. Days left:  18**
 *******************************************************************************
 **                                                                           **
 **                                MOPAC2016                                  **
 **                                                                           **
 *******************************************************************************

                              PM3 CALCULATION RESULTS

 *******************************************************************************
 *  CALCULATION DONE:                                Sat Jun 15 11:08:08 2019  *
 *  PM3        - The PM3 Hamiltonian to be used
 *  OLDGEO     - PREVIOUS GEOMETRY TO BE USED
 *  PRECISE    - CRITERIA TO BE INCREASED BY 100 TIMES
 *  NOSYM      - POINT-GROUP SYMMETRY SET TO C1
 *  THREADS=1  - MULTI-THREADING NOT USED
 *  T=         - A TIME OF 172800.0 SECONDS REQUESTED
 *  DUMP=N     - RESTART FILE WRITTEN EVERY  7200.000 SECONDS
 *  THERMO     - THERMODYNAMIC QUANTITIES TO BE CALCULATED
 *******************************************************************************
oldgeo thermo nosym precise THREADS=1  pm3
 InChI=1S/C7H12O2/c8-5-6-3-1-2-4-7(6)9/h5-7,9H,1-4H2

   ATOM   CHEMICAL          X               Y               Z
  NUMBER   SYMBOL      (ANGSTROMS)     (ANGSTROMS)     (ANGSTROMS)
 
     1       O          1.42656569  *   2.03557186  *  -0.19578989  *
     2       O          3.24963211  *  -1.15590032  *  -0.53931123  *
     3       C          1.01568340  *  -0.30136449  *  -0.34376968  *
     4       C          0.53102877  *   1.03537028  *   0.25397716  *
     5       C          0.06956704  *  -1.42876686  *   0.06963811  *
     6       C         -0.91341666  *   1.32383574  *  -0.18810868  *
     7       C         -1.83587175  *   0.18926607  *   0.22158531  *
     8       C         -1.35822848  *  -1.13220579  *  -0.35800474  *
     9       C          2.41134393  *  -0.63629631  *   0.15845937  *
    10       H          1.01897141  *  -0.21789331  *  -1.45938013  *
    11       H          0.58019847  *   0.98683508  *   1.37154332  *
    12       H         -1.88673460  *   0.12220956  *   1.32692426  *
    13       H         -2.86839934  *   0.40191437  *  -0.11593200  *
    14       H         -0.95173212  *   1.46931573  *  -1.28658586  *
    15       H         -1.26523897  *   2.27635704  *   0.25529389  *
    16       H         -1.42438607  *  -1.10624533  *  -1.46413503  *
    17       H         -2.02651470  *  -1.95297294  *  -0.03385321  *
    18       H          0.11343314  *  -1.57506056  *   1.16809152  *
    19       H          0.40859048  *  -2.38262158  *  -0.37910119  *
    20       H          2.63227297  *  -0.39554322  *   1.21149575  *
    21       H          1.07053151  *   2.86691858  *   0.08755156  *
 


          CARTESIAN COORDINATES 

    NO.       ATOM           X           Y           Z

     1         O          1.4266      2.0356     -0.1958
     2         O          3.2496     -1.1559     -0.5393
     3         C          1.0157     -0.3014     -0.3438
     4         C          0.5310      1.0354      0.2540
     5         C          0.0696     -1.4288      0.0696
     6         C         -0.9134      1.3238     -0.1881
     7         C         -1.8359      0.1893      0.2216
     8         C         -1.3582     -1.1322     -0.3580
     9         C          2.4113     -0.6363      0.1585
    10         H          1.0190     -0.2179     -1.4594
    11         H          0.5802      0.9868      1.3715
    12         H         -1.8867      0.1222      1.3269
    13         H         -2.8684      0.4019     -0.1159
    14         H         -0.9517      1.4693     -1.2866
    15         H         -1.2652      2.2764      0.2553
    16         H         -1.4244     -1.1062     -1.4641
    17         H         -2.0265     -1.9530     -0.0339
    18         H          0.1134     -1.5751      1.1681
    19         H          0.4086     -2.3826     -0.3791
    20         H          2.6323     -0.3955      1.2115
    21         H          1.0705      2.8669      0.0876

  H: (PM3): J. J. P. STEWART, J. COMP. CHEM. 10, 209 (1989).
  C: (PM3): J. J. P. STEWART, J. COMP. CHEM. 10, 209 (1989).
  O: (PM3): J. J. P. STEWART, J. COMP. CHEM. 10, 209 (1989).

           Empirical Formula: C7 H12 O2  =    21 atoms



      MOLECULAR POINT GROUP   :   C1  


      RHF CALCULATION, NO. OF DOUBLY OCCUPIED LEVELS = 26



          HEAT OF FORMATION =    -101.281382 KCALS/MOLE


          CARTESIAN COORDINATE DERIVATIVES

   NUMBER  ATOM         X            Y            Z

     1       O     -0.014415     0.001105    -0.000417
     2       O     -0.012990     0.000174    -0.024587
     3       C      0.000525    -0.004758     0.000483
     4       C     -0.000412    -0.000000     0.001275
     5       C      0.002123    -0.000930     0.002413
     6       C      0.002430     0.000150     0.001665
     7       C      0.002014    -0.001223    -0.000679
     8       C      0.000010     0.003259    -0.000131
     9       C      0.015151    -0.016081     0.009199
    10       H      0.003695    -0.000575     0.001210
    11       H      0.003312    -0.003260     0.000289
    12       H      0.004845    -0.004415    -0.001226
    13       H     -0.003713    -0.003485    -0.002784
    14       H      0.001219     0.010770     0.000802
    15       H      0.001700    -0.007702     0.002589
    16       H     -0.008789     0.009829     0.000815
    17       H     -0.002424     0.005949     0.001164
    18       H      0.007012     0.001383     0.001476
    19       H     -0.000783     0.002634     0.003082
    20       H     -0.009340     0.007401     0.005373
    21       H      0.008828    -0.000225    -0.002011
 


          GRADIENT NORM =   0.04959


          TIME FOR SCF CALCULATION =    0.00

          TIME FOR DERIVATIVES     =    0.00

          MOLECULAR WEIGHT =  128.17



          ROTATIONAL CONSTANTS IN CM(-1)

          A =    0.07919330   B =    0.04432383   C =    0.03053272



           PRINCIPAL MOMENTS OF INERTIA IN UNITS OF 10**(-40)*GRAM-CM**2

          A =      353.4740   B =      631.5514   C =      916.8124


          ORIENTATION OF MOLECULE IN FORCE CALCULATION

    NO.       ATOM         X         Y         Z

     1          O      -1.2922   -1.7702    0.1868
     2          O       2.3993   -1.7702    0.1868
     3          C       0.5391   -0.2541    0.1868
     4          C      -0.9116   -0.4893   -0.2815
     5          C       1.0080    1.1333   -0.2516
     6          C      -1.8332    0.6138    0.2651
     7          C      -1.3460    1.9842   -0.1716
     8          C       0.0863    2.2182    0.2802
     9          C       1.4711   -1.2909   -0.4202
    10          H       0.5723   -0.3149    1.3034
    11          H      -0.9493   -0.4913   -1.4006
    12          H      -1.4160    2.0780   -1.2739
    13          H      -2.0083    2.7692    0.2410
    14          H      -1.8757    0.5585    1.3716
    15          H      -2.8717    0.4520   -0.0856
    16          H       0.1341    2.2463    1.3872
    17          H       0.4357    3.2108   -0.0633
    18          H       1.0540    1.1842   -1.3585
    19          H       2.0419    1.3068    0.1050
    20          H       1.2741   -1.5867   -1.4639
    21          H      -2.2131   -1.8704   -0.0132


    FIRST DERIVATIVES WILL BE USED IN THE CALCULATION OF SECOND DERIVATIVES

          ESTIMATED TIME TO COMPLETE CALCULATION =        1.97 SECONDS

    FOR POINT-GROUP C1   THERE ARE   1 UNIQUE SYMMETRY FUNCTIONS.

 STEP:   1 TIME =     0.02 SECS, INTEGRAL =      0.02 TIME LEFT: 172799.97
 STEP:   2 TIME =     0.02 SECS, INTEGRAL =      0.04 TIME LEFT: 172799.96
 STEP:   3 TIME =     0.02 SECS, INTEGRAL =      0.05 TIME LEFT: 172799.94
 STEP:   4 TIME =     0.02 SECS, INTEGRAL =      0.07 TIME LEFT: 172799.92
 STEP:   5 TIME =     0.02 SECS, INTEGRAL =      0.09 TIME LEFT: 172799.90
 STEP:   6 TIME =     0.02 SECS, INTEGRAL =      0.11 TIME LEFT: 172799.88
 STEP:   7 TIME =     0.02 SECS, INTEGRAL =      0.13 TIME LEFT: 172799.86
 STEP:   8 TIME =     0.02 SECS, INTEGRAL =      0.15 TIME LEFT: 172799.84
 STEP:   9 TIME =     0.02 SECS, INTEGRAL =      0.17 TIME LEFT: 172799.82
 STEP:  10 TIME =     0.02 SECS, INTEGRAL =      0.18 TIME LEFT: 172799.81
 STEP:  11 TIME =     0.02 SECS, INTEGRAL =      0.20 TIME LEFT: 172799.79
 STEP:  12 TIME =     0.02 SECS, INTEGRAL =      0.22 TIME LEFT: 172799.77
 STEP:  13 TIME =     0.02 SECS, INTEGRAL =      0.24 TIME LEFT: 172799.75
 STEP:  14 TIME =     0.02 SECS, INTEGRAL =      0.25 TIME LEFT: 172799.74
 STEP:  15 TIME =     0.02 SECS, INTEGRAL =      0.27 TIME LEFT: 172799.72
 STEP:  16 TIME =     0.02 SECS, INTEGRAL =      0.29 TIME LEFT: 172799.70
 STEP:  17 TIME =     0.02 SECS, INTEGRAL =      0.31 TIME LEFT: 172799.68
 STEP:  18 TIME =     0.02 SECS, INTEGRAL =      0.33 TIME LEFT: 172799.66
 STEP:  19 TIME =     0.02 SECS, INTEGRAL =      0.35 TIME LEFT: 172799.64
 STEP:  20 TIME =     0.02 SECS, INTEGRAL =      0.36 TIME LEFT: 172799.63
 STEP:  21 TIME =     0.02 SECS, INTEGRAL =      0.38 TIME LEFT: 172799.61
 STEP:  22 TIME =     0.02 SECS, INTEGRAL =      0.40 TIME LEFT: 172799.59
 STEP:  23 TIME =     0.02 SECS, INTEGRAL =      0.42 TIME LEFT: 172799.57
 STEP:  24 TIME =     0.02 SECS, INTEGRAL =      0.44 TIME LEFT: 172799.55
 STEP:  25 TIME =     0.02 SECS, INTEGRAL =      0.46 TIME LEFT: 172799.54
 STEP:  26 TIME =     0.02 SECS, INTEGRAL =      0.48 TIME LEFT: 172799.52
 STEP:  27 TIME =     0.02 SECS, INTEGRAL =      0.49 TIME LEFT: 172799.50
 STEP:  28 TIME =     0.02 SECS, INTEGRAL =      0.51 TIME LEFT: 172799.48
 STEP:  29 TIME =     0.02 SECS, INTEGRAL =      0.53 TIME LEFT: 172799.46
 STEP:  30 TIME =     0.02 SECS, INTEGRAL =      0.55 TIME LEFT: 172799.44
 STEP:  31 TIME =     0.02 SECS, INTEGRAL =      0.57 TIME LEFT: 172799.43
 STEP:  32 TIME =     0.02 SECS, INTEGRAL =      0.59 TIME LEFT: 172799.41
 STEP:  33 TIME =     0.02 SECS, INTEGRAL =      0.61 TIME LEFT: 172799.39
 STEP:  34 TIME =     0.02 SECS, INTEGRAL =      0.62 TIME LEFT: 172799.37
 STEP:  35 TIME =     0.02 SECS, INTEGRAL =      0.64 TIME LEFT: 172799.35
 STEP:  36 TIME =     0.02 SECS, INTEGRAL =      0.66 TIME LEFT: 172799.33
 STEP:  37 TIME =     0.02 SECS, INTEGRAL =      0.68 TIME LEFT: 172799.31
 STEP:  38 TIME =     0.02 SECS, INTEGRAL =      0.70 TIME LEFT: 172799.30
 STEP:  39 TIME =     0.02 SECS, INTEGRAL =      0.71 TIME LEFT: 172799.28
 STEP:  40 TIME =     0.02 SECS, INTEGRAL =      0.73 TIME LEFT: 172799.26
 STEP:  41 TIME =     0.02 SECS, INTEGRAL =      0.75 TIME LEFT: 172799.24
 STEP:  42 TIME =     0.02 SECS, INTEGRAL =      0.77 TIME LEFT: 172799.22
 STEP:  43 TIME =     0.02 SECS, INTEGRAL =      0.79 TIME LEFT: 172799.20
 STEP:  44 TIME =     0.02 SECS, INTEGRAL =      0.81 TIME LEFT: 172799.18
 STEP:  45 TIME =     0.02 SECS, INTEGRAL =      0.82 TIME LEFT: 172799.17
 STEP:  46 TIME =     0.02 SECS, INTEGRAL =      0.84 TIME LEFT: 172799.15
 STEP:  47 TIME =     0.02 SECS, INTEGRAL =      0.86 TIME LEFT: 172799.13
 STEP:  48 TIME =     0.02 SECS, INTEGRAL =      0.88 TIME LEFT: 172799.11
 STEP:  49 TIME =     0.02 SECS, INTEGRAL =      0.90 TIME LEFT: 172799.09
 STEP:  50 TIME =     0.02 SECS, INTEGRAL =      0.91 TIME LEFT: 172799.08
 STEP:  51 TIME =     0.02 SECS, INTEGRAL =      0.93 TIME LEFT: 172799.06
 STEP:  52 TIME =     0.02 SECS, INTEGRAL =      0.95 TIME LEFT: 172799.04
 STEP:  53 TIME =     0.02 SECS, INTEGRAL =      0.97 TIME LEFT: 172799.02
 STEP:  54 TIME =     0.02 SECS, INTEGRAL =      0.99 TIME LEFT: 172799.00
 STEP:  55 TIME =     0.02 SECS, INTEGRAL =      1.00 TIME LEFT: 172798.99
 STEP:  56 TIME =     0.02 SECS, INTEGRAL =      1.02 TIME LEFT: 172798.97
 STEP:  57 TIME =     0.02 SECS, INTEGRAL =      1.04 TIME LEFT: 172798.95
 STEP:  58 TIME =     0.02 SECS, INTEGRAL =      1.06 TIME LEFT: 172798.93
 STEP:  59 TIME =     0.02 SECS, INTEGRAL =      1.08 TIME LEFT: 172798.91
 STEP:  60 TIME =     0.02 SECS, INTEGRAL =      1.10 TIME LEFT: 172798.89
 STEP:  61 TIME =     0.02 SECS, INTEGRAL =      1.12 TIME LEFT: 172798.88
 STEP:  62 TIME =     0.02 SECS, INTEGRAL =      1.14 TIME LEFT: 172798.86
 STEP:  63 TIME =     0.02 SECS, INTEGRAL =      1.16 TIME LEFT: 172798.84

(To convert to Hartree/Bohr^2, multiply by (10^(-21) x N x a0^2)/(4.184 x 627.51) =  0.0642)


           FORCE MATRIX IN MILLIDYNES/ANGSTROM


                  O  1       O  2       C  3       C  4       C  5       C  6
 ------------------------------------------------------------------------------
     O    1  11.958393
     O    2   0.024164  16.329999
     C    3   0.835257   1.201727  14.094168
     C    4   5.112048   0.093827   3.498779  14.380499
     C    5   0.066257   0.077189   3.870843   0.633066  14.329507
     C    6   0.848806   0.021146   0.602892   3.610676   0.058274  14.292122
     C    7   0.077177   0.003323   0.054620   0.630494   0.675392   4.238587
     C    8   0.004134   0.019234   0.665096   0.061966   4.195629   0.675964
     C    9   0.059440  15.047897   3.757982   0.667044   0.673117   0.048827
     H   10   0.057379   0.069713   4.225441   0.446593   0.427600   0.021743
     H   11   0.411205   0.005991   0.429465   4.065979   0.019782   0.426661
     H   12   0.004808   0.001856   0.003828   0.025855   0.020125   0.444545
     H   13   0.014228   0.000798   0.002855   0.047026   0.051950   0.437525
     H   14   0.037348   0.003049   0.017636   0.461747   0.004857   4.456287
     H   15   0.039382   0.004903   0.046747   0.444133   0.002644   4.463272
     H   16   0.001442   0.002642   0.017963   0.006780   0.445341   0.019888
     H   17   0.001317   0.004835   0.053467   0.004917   0.431246   0.051384
     H   18   0.003397   0.004099   0.446983   0.024590   4.423441   0.004277
     H   19   0.011377   0.007624   0.435777   0.050005   4.499111   0.002863
     H   20   0.007170   0.658550   0.465570   0.032686   0.026196   0.002938
     H   21   8.325559   0.007328   0.106967   0.802683   0.017131   0.089926


                  C  7       C  8       C  9       H 10       H 11       H 12
 ------------------------------------------------------------------------------
     C    7  14.427507
     C    8   4.192277  14.413938
     C    9   0.004320   0.057231  20.148564
     H   10   0.005312   0.023315   0.466419   4.724381
     H   11   0.019575   0.004334   0.039843   0.039872   4.504750
     H   12   4.441256   0.444919   0.002649   0.000787   0.013641   5.058688
     H   13   4.501673   0.434570   0.001242   0.000518   0.001268   0.565360
     H   14   0.443657   0.020618   0.004495   0.015299   0.043815   0.045638
     H   15   0.436872   0.052087   0.008151   0.001954   0.026710   0.030743
     H   16   0.444816   4.453495   0.003824   0.015323   0.000793   0.046167
     H   17   0.434206   4.499663   0.011292   0.002150   0.000453   0.030656
     H   18   0.020245   0.445212   0.040935   0.042794   0.013697   0.013155
     H   19   0.050703   0.432398   0.037680   0.030790   0.001223   0.001923
     H   20   0.000800   0.005929   4.391514   0.035486   0.025501   0.000194
     H   21   0.008065   0.002726   0.010548   0.003972   0.049607   0.001384


                  H 13       H 14       H 15       H 16       H 17       H 18
 ------------------------------------------------------------------------------
     H   13   5.113761
     H   14   0.030866   5.075626
     H   15   0.031685   0.561988   5.088203
     H   16   0.030821   0.013497   0.002098   5.066637
     H   17   0.030936   0.002155   0.008640   0.563260   5.112301
     H   18   0.002060   0.000682   0.000275   0.046177   0.031137   5.040626
     H   19   0.008350   0.000286   0.000341   0.031322   0.031908   0.556963
     H   20   0.000220   0.000766   0.000549   0.000712   0.001192   0.006634
     H   21   0.001887   0.008612   0.033492   0.000502   0.000964   0.000583


                  H 19       H 20       H 21
 ------------------------------------------
     H   19   5.100996
     H   20   0.002067   4.808774
     H   21   0.002958   0.001351   8.573883


          HEAT OF FORMATION =    -101.281382 KCALS/MOLE

          ZERO POINT ENERGY     113.157 KCAL/MOL


           NORMAL COORDINATE ANALYSIS (Total motion = 1 Angstrom)


   Root No.       1         2         3         4         5         6         7         8

                 1 A       2 A       3 A       4 A       5 A       6 A       7 A       8 A   

                  60.9      96.5     170.1     226.9     260.6     294.3     322.8     363.6
  
           1   -0.0463    0.0009   -0.0047    0.0298    0.0646    0.0117    0.0232    0.0137
           2    0.0040    0.0071   -0.0062   -0.0283    0.0035    0.0002   -0.0148   -0.0314
           3   -0.0003    0.0492   -0.0303   -0.0410   -0.0047   -0.0010    0.0201   -0.0172
           4    0.0738   -0.0021    0.0019   -0.0090   -0.0081   -0.0137   -0.0352   -0.0171
           5    0.0898   -0.0143   -0.0054    0.0089   -0.0145    0.0123    0.0363    0.0146
           6   -0.0287   -0.0396   -0.0171    0.0052   -0.0236    0.0119    0.0169   -0.0150
           7   -0.0201    0.0029   -0.0001   -0.0064    0.0096   -0.0014   -0.0260   -0.0163
           8   -0.0275   -0.0028   -0.0024    0.0038    0.0223    0.0078    0.0013    0.0107
           9    0.0089    0.0119    0.0231   -0.0049    0.0146   -0.0224   -0.0313    0.0461
          10   -0.0203    0.0039    0.0010   -0.0079    0.0165   -0.0070   -0.0194   -0.0061
          11   -0.0040   -0.0075    0.0072   -0.0013    0.0188    0.0044   -0.0143   -0.0084
          12   -0.0019    0.0095    0.0139   -0.0008    0.0012   -0.0015   -0.0239    0.0297
          13    0.0053    0.0072    0.0108    0.0023    0.0079    0.0000    0.0276   -0.0053
          14   -0.0332    0.0056   -0.0009    0.0026    0.0164    0.0107   -0.0030   -0.0136
          15    0.0165    0.0433    0.0354    0.0050    0.0042   -0.0123    0.0246   -0.0178
          16   -0.0077   -0.0085    0.0110   -0.0018   -0.0148    0.0097    0.0014   -0.0119
          17    0.0122    0.0040    0.0015    0.0052   -0.0022    0.0048   -0.0123    0.0020
          18   -0.0128   -0.0358    0.0387   -0.0033   -0.0199    0.0265   -0.0019   -0.0053
          19    0.0195    0.0066   -0.0064    0.0081   -0.0127    0.0145    0.0169    0.0297
          20    0.0042   -0.0031   -0.0125    0.0009    0.0068   -0.0142   -0.0096   -0.0061
          21   -0.0073   -0.0391   -0.0244   -0.0086    0.0068   -0.0312    0.0184   -0.0062
          22    0.0178   -0.0131   -0.0086    0.0022   -0.0094   -0.0047    0.0245    0.0281
          23   -0.0199   -0.0012    0.0162   -0.0001    0.0088   -0.0133    0.0088   -0.0036
          24    0.0100    0.0205   -0.0317    0.0097   -0.0000    0.0317   -0.0140    0.0005
          25   -0.0226    0.0018   -0.0075   -0.0113   -0.0588   -0.0125   -0.0218   -0.0190
          26   -0.0357    0.0146    0.0016   -0.0022   -0.0488   -0.0073    0.0099    0.0394
          27    0.0188   -0.0222    0.0031   -0.0003    0.0283   -0.0059   -0.0236    0.0108
          28   -0.0295    0.0062   -0.0017   -0.0077    0.0100    0.0041   -0.0425   -0.0067
          29   -0.0313   -0.0286   -0.0170    0.0019    0.0387    0.0125   -0.0182    0.0289
          30    0.0089    0.0102    0.0217   -0.0046    0.0154   -0.0209   -0.0295    0.0450
          31   -0.0118    0.0127    0.0038   -0.0220    0.0265   -0.0296   -0.0455    0.0166
          32   -0.0069   -0.0413    0.0387   -0.0161    0.0225    0.0138   -0.0306    0.0033
          33   -0.0022    0.0091    0.0134    0.0007   -0.0001   -0.0008   -0.0218    0.0274
          34    0.0342    0.0540   -0.0078    0.0246   -0.0197    0.0710   -0.0044    0.0500
          35    0.0054   -0.0203   -0.0639   -0.0096    0.0291   -0.0765    0.0060   -0.0196
          36   -0.0081   -0.0436   -0.0287   -0.0106    0.0092   -0.0404    0.0211   -0.0093
          37    0.0274   -0.0109   -0.0123    0.0036   -0.0119   -0.0038    0.0250    0.0332
          38    0.0150    0.0035    0.0012    0.0059   -0.0027    0.0098   -0.0150    0.0080
          39   -0.0151   -0.0798   -0.0603   -0.0254    0.0265   -0.1090    0.0427   -0.0285
          40   -0.0209   -0.0429    0.0637   -0.0034   -0.0557    0.0624    0.0093   -0.0598
          41    0.0133    0.0208    0.0273    0.0115   -0.0124    0.0293   -0.0319    0.0122
          42   -0.0132   -0.0362    0.0417   -0.0030   -0.0224    0.0298   -0.0024   -0.0078
          43   -0.0065    0.0022   -0.0043   -0.0032    0.0006   -0.0067   -0.0037    0.0006
          44    0.0293    0.0000   -0.0125    0.0172   -0.0126    0.0006    0.0098    0.0175
          45   -0.0242   -0.0657    0.0914   -0.0067   -0.0607    0.0799    0.0038   -0.0493
          46    0.0059   -0.0566   -0.0174   -0.0084   -0.0081   -0.0392    0.0408    0.0366
          47   -0.0241   -0.0121    0.0762   -0.0109    0.0112   -0.0796    0.0603   -0.0102
          48    0.0106    0.0226   -0.0329    0.0105   -0.0001    0.0352   -0.0162   -0.0001
          49    0.0380   -0.0016   -0.0128    0.0053   -0.0181    0.0006    0.0138    0.0330
          50   -0.0246    0.0028    0.0004    0.0032    0.0113    0.0082   -0.0043   -0.0047
          51    0.0169    0.0438   -0.0824    0.0229   -0.0019    0.1022   -0.0646    0.0025
          52    0.0157    0.0435    0.0663    0.0076    0.0121   -0.0196    0.1076   -0.0677
          53   -0.0316    0.0172   -0.0162    0.0105    0.0110    0.0349    0.0183   -0.0472
          54    0.0171    0.0452    0.0368    0.0057    0.0048   -0.0116    0.0296   -0.0232
          55    0.0050   -0.0051   -0.0067    0.0012    0.0044    0.0054    0.0080    0.0178
          56   -0.0503    0.0058    0.0045   -0.0044    0.0271    0.0043   -0.0381   -0.0208
          57    0.0261    0.0790    0.0843    0.0117    0.0080   -0.0262    0.1021   -0.0829
          58   -0.1127    0.0044   -0.0233   -0.0176   -0.1788   -0.0193    0.0067   -0.0097
          59   -0.1606    0.0562    0.0115   -0.0179   -0.1636   -0.0431   -0.0020    0.1020
          60    0.0714   -0.0349    0.0031    0.0057    0.0827    0.0061   -0.0247   -0.0095
          61   -0.0454    0.0039   -0.0065   -0.1353    0.0766    0.0231    0.0359    0.0211
          62    0.0177   -0.0030    0.0079    0.2104   -0.0470   -0.0280   -0.0678   -0.0455
          63   -0.0117    0.0402   -0.0291    0.5997   -0.0329   -0.0389   -0.0097   -0.0433


   Root No.       9        10        11        12        13        14        15        16

                 9 A      10 A      11 A      12 A      13 A      14 A      15 A      16 A   

                 430.7     456.3     535.8     554.3     591.8     832.9     880.5     909.2
  
           1   -0.0412   -0.0338    0.0053   -0.0097    0.0076    0.0031    0.0037   -0.0015
           2   -0.0268    0.0205    0.0305   -0.0271    0.0316    0.0068    0.0132   -0.0056
           3    0.0050   -0.0032    0.0078   -0.0111   -0.0007   -0.0008   -0.0027    0.0045
           4   -0.0078   -0.0115   -0.0220   -0.0324   -0.0087    0.0016    0.0047    0.0017
           5   -0.0020    0.0080    0.0189    0.0334    0.0103   -0.0001   -0.0002    0.0076
           6   -0.0075   -0.0002   -0.0047    0.0228    0.0083   -0.0038    0.0021    0.0010
           7    0.0054    0.0226   -0.0030    0.0359    0.0059   -0.0170   -0.0129    0.0036
           8    0.0196    0.0295   -0.0052   -0.0183   -0.0182   -0.0070   -0.0100   -0.0143
           9    0.0014   -0.0003    0.0330    0.0006    0.0045   -0.0083    0.0069    0.0236
          10    0.0192    0.0147    0.0286    0.0324    0.0137    0.0160   -0.0139    0.0008
          11   -0.0401    0.0116    0.0034   -0.0066    0.0153   -0.0007    0.0098   -0.0056
          12   -0.0111    0.0144   -0.0309    0.0593   -0.0053    0.0049    0.0118   -0.0207
          13   -0.0134    0.0507   -0.0031    0.0003   -0.0281   -0.0283   -0.0099    0.0290
          14    0.0378    0.0186   -0.0250   -0.0039   -0.0114   -0.0084    0.0131    0.0066
          15   -0.0004   -0.0157    0.0009    0.0052    0.0119   -0.0215    0.0082   -0.0060
          16    0.0488   -0.0260    0.0407    0.0160   -0.0064    0.0314   -0.0006   -0.0175
          17   -0.0241   -0.0306   -0.0132    0.0156   -0.0135   -0.0006   -0.0180   -0.0037
          18   -0.0158    0.0046   -0.0100   -0.0060    0.0029    0.0187    0.0053    0.0018
          19    0.0193    0.0006   -0.0136   -0.0152    0.0131    0.0054    0.0261   -0.0209
          20   -0.0064   -0.0479   -0.0009    0.0305   -0.0264    0.0058   -0.0304    0.0208
          21    0.0042    0.0106   -0.0057   -0.0090    0.0089    0.0144   -0.0261    0.0167
          22    0.0046    0.0056   -0.0084   -0.0129    0.0044   -0.0087    0.0135    0.0075
          23    0.0490   -0.0271   -0.0321   -0.0053    0.0187    0.0063    0.0367    0.0317
          24    0.0152   -0.0081   -0.0056   -0.0064    0.0111   -0.0123   -0.0205   -0.0114
          25   -0.0185   -0.0089   -0.0241   -0.0074    0.0001   -0.0071    0.0002   -0.0120
          26   -0.0016    0.0112    0.0177   -0.0216   -0.0134    0.0005   -0.0154   -0.0283
          27    0.0112   -0.0004    0.0032   -0.0566   -0.0233    0.0115   -0.0061   -0.0062
          28    0.0043    0.0356   -0.0190    0.1102    0.0190   -0.0272   -0.0088   -0.0065
          29    0.0357    0.0501   -0.0108   -0.0447   -0.0479    0.0198   -0.0446   -0.0341
          30    0.0017    0.0001    0.0331   -0.0024    0.0024   -0.0052    0.0047    0.0211
          31    0.0330    0.0327    0.0559    0.0505    0.0241    0.0074   -0.0249    0.0363
          32   -0.0680    0.0192   -0.0071    0.0055    0.0280    0.0147    0.0453   -0.0206
          33   -0.0111    0.0127   -0.0315    0.0564   -0.0070    0.0036    0.0112   -0.0206
          34    0.0327   -0.0025   -0.0524   -0.0418    0.0614    0.0315   -0.1044    0.0249
          35   -0.0006   -0.0606    0.0430    0.0671   -0.0810   -0.0620    0.0729   -0.0737
          36    0.0036    0.0090    0.0021   -0.0029   -0.0014    0.0050   -0.0048    0.0043
          37   -0.0211    0.0095   -0.0075   -0.0075   -0.0138   -0.0198    0.0479   -0.0476
          38   -0.0386   -0.0374   -0.0248    0.0174   -0.0153    0.0151   -0.0922    0.0484
          39    0.0006    0.0045    0.0509    0.0312   -0.0596   -0.0475    0.1330   -0.0832
          40    0.0684   -0.0810    0.1214   -0.0383   -0.0505   -0.0958   -0.0253    0.0114
          41   -0.0340   -0.0450   -0.0193    0.0496   -0.0340   -0.0388    0.0004   -0.0589
          42   -0.0144    0.0012   -0.0045   -0.0074   -0.0009    0.0092    0.0061   -0.0000
          43    0.0416   -0.0092    0.0208    0.0369    0.0073    0.0717    0.0006   -0.0258
          44   -0.0157   -0.0337   -0.0390   -0.0160   -0.0098    0.0074   -0.0071   -0.0006
          45    0.0011   -0.0490    0.0639   -0.0553   -0.0434   -0.1116   -0.0082    0.0258
          46    0.0130    0.0148   -0.0221   -0.0330    0.0339   -0.0061   -0.0745    0.0068
          47    0.0687   -0.0469   -0.0632   -0.0269    0.1057   -0.0637   -0.0910   -0.0688
          48    0.0134   -0.0074   -0.0030   -0.0042    0.0048   -0.0089   -0.0095   -0.0078
          49   -0.0136   -0.0388    0.0082    0.0103   -0.0075    0.0064    0.0191   -0.0051
          50    0.0494   -0.0063   -0.0288   -0.0051   -0.0063    0.0202    0.0842    0.0676
          51   -0.0033    0.0076    0.0247    0.0186   -0.0780    0.0474    0.1298    0.0852
          52   -0.0476    0.0834   -0.0200    0.0077   -0.1014    0.1093   -0.0291    0.0128
          53    0.0439    0.0236   -0.0537   -0.0055   -0.0231    0.0066   -0.0046   -0.0549
          54   -0.0017   -0.0130   -0.0018    0.0056    0.0059   -0.0121    0.0073   -0.0091
          55   -0.0027    0.0390    0.0007   -0.0062   -0.0058   -0.0691   -0.0037    0.0368
          56    0.0330    0.0297   -0.0105    0.0208   -0.0103   -0.0305   -0.0037    0.0273
          57   -0.0313    0.0145   -0.0182    0.0127   -0.0586    0.1134   -0.0062   -0.0409
          58   -0.0668   -0.0286   -0.0236    0.0045    0.0135    0.0133    0.0355    0.0674
          59   -0.0479   -0.0049    0.0481   -0.0667   -0.0233    0.0332    0.0099    0.0645
          60    0.0327    0.0079   -0.0060   -0.0433   -0.0219   -0.0023   -0.0193   -0.0472
          61   -0.0441   -0.0420    0.0006   -0.0089    0.0051    0.0023    0.0036   -0.0013
          62    0.0219    0.0723    0.0416    0.0199    0.0336    0.0217   -0.0067   -0.0141
          63   -0.0080    0.0052    0.0227   -0.0401    0.0088   -0.0054    0.0079    0.0092


   Root No.      17        18        19        20        21        22        23        24

                17 A      18 A      19 A      20 A      21 A      22 A      23 A      24 A   

                 923.7     937.6     973.1    1005.8    1068.2    1073.4    1092.1    1110.8
  
           1    0.0028   -0.0013    0.0011   -0.0009   -0.0018   -0.0060   -0.0063   -0.0008
           2    0.0049   -0.0037   -0.0021   -0.0032    0.0058   -0.0102   -0.0220   -0.0048
           3   -0.0032    0.0011   -0.0005    0.0023   -0.0036    0.0088    0.0170    0.0031
           4    0.0072    0.0041    0.0012    0.0015    0.0009   -0.0004   -0.0008    0.0018
           5    0.0062    0.0039    0.0044    0.0035    0.0016    0.0015   -0.0008   -0.0013
           6   -0.0029   -0.0040    0.0014   -0.0022    0.0017   -0.0006    0.0020    0.0008
           7   -0.0092   -0.0064    0.0131    0.0071    0.0188    0.0087   -0.0035   -0.0176
           8   -0.0051   -0.0028   -0.0051    0.0090    0.0093   -0.0051   -0.0066    0.0308
           9   -0.0035   -0.0172    0.0184   -0.0073    0.0042   -0.0053    0.0177    0.0127
          10    0.0023   -0.0007   -0.0159    0.0186   -0.0269    0.0045   -0.0026    0.0102
          11    0.0069    0.0026   -0.0029   -0.0093    0.0051    0.0047    0.0097   -0.0046
          12    0.0222   -0.0015   -0.0128   -0.0102    0.0024   -0.0130   -0.0191   -0.0121
          13   -0.0035    0.0318   -0.0083   -0.0188   -0.0013   -0.0102    0.0077    0.0007
          14    0.0011    0.0043    0.0206    0.0046   -0.0117    0.0125   -0.0030   -0.0078
          15   -0.0196    0.0146   -0.0013    0.0087   -0.0004    0.0008   -0.0162    0.0046
          16   -0.0045    0.0301    0.0110   -0.0218    0.0092   -0.0074    0.0028   -0.0041
          17   -0.0032    0.0056    0.0234   -0.0039   -0.0140   -0.0186    0.0039    0.0028
          18   -0.0206    0.0165   -0.0027    0.0114   -0.0038    0.0074    0.0038    0.0181
          19    0.0006   -0.0112    0.0321    0.0088   -0.0011    0.0044    0.0030    0.0051
          20   -0.0090    0.0025   -0.0164    0.0065    0.0062    0.0120    0.0002   -0.0018
          21   -0.0029   -0.0097    0.0127   -0.0059    0.0007   -0.0072   -0.0077   -0.0044
          22   -0.0004   -0.0095   -0.0279    0.0061   -0.0004    0.0080   -0.0091   -0.0058
          23    0.0021   -0.0108   -0.0241   -0.0076    0.0023   -0.0071    0.0009   -0.0002
          24    0.0198    0.0060   -0.0107   -0.0046    0.0008   -0.0009    0.0081    0.0068
          25   -0.0212   -0.0186   -0.0082   -0.0116   -0.0010   -0.0068    0.0082    0.0151
          26   -0.0318   -0.0149   -0.0177   -0.0139   -0.0042   -0.0002    0.0016   -0.0205
          27    0.0100    0.0164   -0.0027    0.0060   -0.0014    0.0084   -0.0108   -0.0320
          28    0.0229   -0.0529    0.0282    0.0255    0.1024   -0.0233    0.0101   -0.1431
          29    0.0590    0.0081   -0.0237    0.0637    0.0836   -0.0624    0.0277    0.1908
          30   -0.0007   -0.0152    0.0154   -0.0047    0.0050   -0.0080    0.0183    0.0234
          31    0.0308   -0.0607   -0.0188    0.0682   -0.0832   -0.0290    0.1130    0.0481
          32    0.0129    0.0191   -0.0252   -0.0341    0.0137    0.1413    0.2536   -0.0187
          33    0.0201   -0.0001   -0.0109   -0.0113    0.0051   -0.0156   -0.0299   -0.0131
          34    0.0420   -0.0531    0.0281   -0.0685    0.0402    0.0569   -0.0113    0.0393
          35    0.0539   -0.0011   -0.0081   -0.0342    0.0246    0.0632    0.0199    0.0601
          36    0.0005   -0.0077    0.0121   -0.0034   -0.0003   -0.0057   -0.0061   -0.0003
          37   -0.0339   -0.0164    0.0770    0.1177   -0.0820    0.0252   -0.0031   -0.0145
          38   -0.0494   -0.0075    0.0116    0.0891   -0.0564    0.0277   -0.0109   -0.0292
          39    0.0192    0.0042    0.0355    0.0112   -0.0123   -0.0073    0.0067    0.0184
          40    0.0686   -0.0834    0.0124   -0.0077    0.0153   -0.0274    0.0018   -0.0457
          41    0.0562    0.0075   -0.0145   -0.0533   -0.1003    0.0397   -0.0708    0.0639
          42   -0.0126    0.0099   -0.0047    0.0091   -0.0072    0.0087   -0.0006    0.0199
          43   -0.0222    0.0670   -0.0039   -0.0298    0.0016    0.0121   -0.0050    0.0057
          44   -0.0400   -0.0085    0.1491    0.0186    0.0408   -0.1362    0.0859   -0.0146
          45    0.0527   -0.0944   -0.0123    0.0282   -0.0097    0.0020   -0.0095   -0.0022
          46    0.0535   -0.0544    0.0044   -0.0730   -0.0820    0.0548   -0.0466   -0.0224
          47    0.0535    0.0489   -0.0151    0.0204    0.0290   -0.0089    0.0444    0.0169
          48    0.0149    0.0046   -0.0113   -0.0009    0.0035   -0.0026    0.0075    0.0080
          49   -0.0378   -0.0145   -0.1203    0.1048    0.1288    0.0597   -0.0443    0.0046
          50   -0.0022   -0.0239    0.0001   -0.0424   -0.0439   -0.0281    0.0059   -0.0070
          51   -0.0347   -0.0373   -0.0398   -0.0082   -0.0000   -0.0150   -0.0141   -0.0004
          52    0.0602   -0.0872    0.0093   -0.0285    0.0198    0.0083    0.0225    0.0165
          53    0.0552    0.0255   -0.0311    0.0702   -0.0468   -0.0361    0.0799   -0.1498
          54   -0.0126    0.0082   -0.0025    0.0110   -0.0015   -0.0012   -0.0117   -0.0014
          55   -0.0182    0.0682   -0.0403   -0.0202   -0.0123   -0.0373    0.0175   -0.0048
          56   -0.0354    0.0019    0.1724   -0.0085    0.0385    0.1431   -0.0854    0.0395
          57    0.0439   -0.0966    0.0149    0.0203    0.0118    0.0168   -0.0049   -0.0024
          58    0.1019    0.0599    0.0337    0.0418   -0.0042   -0.0062   -0.0129    0.0605
          59    0.1152    0.0904    0.0400    0.0486    0.0257    0.0304   -0.0289   -0.0688
          60   -0.0549   -0.0287   -0.0266   -0.0221   -0.0090   -0.0007    0.0023   -0.0263
          61    0.0021   -0.0008    0.0034   -0.0025    0.0001   -0.0064   -0.0054   -0.0022
          62    0.0116   -0.0041   -0.0290    0.0311   -0.0452   -0.0144   -0.0371    0.0286
          63   -0.0041   -0.0004    0.0048   -0.0098    0.0154    0.0159    0.0286   -0.0099


   Root No.      25        26        27        28        29        30        31        32

                25 A      26 A      27 A      28 A      29 A      30 A      31 A      32 A   

                1120.3    1126.7    1142.0    1149.0    1153.6    1159.8    1177.5    1217.3
  
           1   -0.0012   -0.0019   -0.0035    0.0000    0.0006    0.0002   -0.0016    0.0034
           2   -0.0056    0.0100   -0.0110    0.0055    0.0030    0.0068    0.0051    0.0120
           3    0.0010   -0.0050    0.0057   -0.0026   -0.0009   -0.0022   -0.0024   -0.0046
           4    0.0055    0.0013    0.0003   -0.0005    0.0009   -0.0002   -0.0017   -0.0004
           5   -0.0048   -0.0002    0.0022   -0.0000    0.0003    0.0004   -0.0021   -0.0002
           6   -0.0013    0.0043   -0.0001    0.0008   -0.0002    0.0021   -0.0082    0.0049
           7   -0.0329    0.0006    0.0207    0.0004    0.0030    0.0015   -0.0140   -0.0102
           8    0.0248    0.0007    0.0117   -0.0059    0.0086   -0.0073    0.0054   -0.0415
           9   -0.0096    0.0335   -0.0224   -0.0054   -0.0018    0.0156   -0.0117   -0.0235
          10   -0.0110   -0.0245    0.0071    0.0005    0.0025   -0.0055   -0.0216   -0.0114
          11    0.0280   -0.0026   -0.0013    0.0010   -0.0050   -0.0111   -0.0008   -0.0074
          12    0.0365   -0.0104   -0.0116    0.0099   -0.0036   -0.0102   -0.0096    0.0161
          13   -0.0054   -0.0043   -0.0127    0.0099   -0.0070    0.0005    0.0039    0.0097
          14    0.0131    0.0084   -0.0189   -0.0136    0.0015    0.0067   -0.0030   -0.0138
          15    0.0238   -0.0049    0.0282   -0.0064    0.0210    0.0100    0.0051    0.0092
          16    0.0201    0.0155   -0.0003   -0.0025   -0.0057   -0.0005    0.0051   -0.0010
          17   -0.0109   -0.0059    0.0110   -0.0183   -0.0120   -0.0001    0.0016   -0.0003
          18   -0.0324   -0.0007   -0.0135   -0.0043    0.0258   -0.0006    0.0127    0.0014
          19   -0.0003   -0.0093   -0.0026    0.0169   -0.0022    0.0076    0.0035    0.0017
          20    0.0047    0.0050   -0.0112    0.0133    0.0154   -0.0023    0.0012    0.0068
          21    0.0178   -0.0110    0.0111    0.0050   -0.0256    0.0304    0.0008   -0.0041
          22    0.0020    0.0101    0.0023   -0.0200   -0.0010   -0.0056   -0.0029    0.0080
          23   -0.0179   -0.0044    0.0081    0.0091   -0.0082   -0.0092    0.0004    0.0044
          24   -0.0218    0.0132   -0.0096    0.0011   -0.0122   -0.0381    0.0008   -0.0010
          25    0.0052    0.0096   -0.0061    0.0018   -0.0022    0.0040   -0.0098    0.0083
          26   -0.0088   -0.0100   -0.0011    0.0044   -0.0035   -0.0035    0.0135    0.0085
          27   -0.0085   -0.0196    0.0091    0.0013    0.0010   -0.0079    0.0160   -0.0007
          28   -0.0545    0.0447    0.0919    0.0121    0.0425    0.0045    0.1825   -0.0302
          29    0.0072    0.0829    0.1112    0.0303    0.0279    0.0528   -0.0248    0.1456
          30   -0.0092    0.0359   -0.0191   -0.0037   -0.0012    0.0189   -0.0200   -0.0148
          31    0.0390   -0.0650   -0.0497   -0.0681   -0.0074   -0.0054    0.1780    0.1446
          32    0.0650   -0.0166    0.1006    0.0037   -0.0373   -0.0009   -0.0376   -0.0082
          33    0.0330   -0.0080   -0.0134    0.0125   -0.0015   -0.0106   -0.0179    0.0090
          34    0.0167   -0.1005   -0.0358    0.0620    0.0940    0.1443    0.0139   -0.0260
          35   -0.0754   -0.0568   -0.0659    0.0440    0.1428    0.0330    0.0152   -0.0085
          36    0.0082   -0.0107    0.0080    0.0049   -0.0222    0.0249    0.0019   -0.0039
          37    0.0216    0.0622    0.0074    0.1195   -0.0177   -0.0325    0.0057   -0.0204
          38    0.0464    0.0633    0.0035    0.1032   -0.0082   -0.0135    0.0009   -0.0114
          39   -0.0343   -0.0085   -0.0007    0.0001   -0.0063   -0.0136    0.0057   -0.0048
          40    0.1000   -0.0194    0.0090    0.0231   -0.0325   -0.0125   -0.0268    0.0075
          41   -0.1074    0.0166    0.0909   -0.0548   -0.1342    0.1370    0.0505   -0.0374
          42   -0.0328   -0.0025   -0.0103   -0.0047    0.0190    0.0060    0.0133    0.0006
          43    0.0133    0.0403   -0.0061    0.0032   -0.0037    0.0072    0.0293    0.0004
          44   -0.0321   -0.0970    0.0135   -0.0898    0.0401   -0.0540   -0.0669   -0.0108
          45    0.0018   -0.0364    0.0019    0.0147   -0.0039    0.0035   -0.0254    0.0029
          46    0.0260    0.0942    0.0611   -0.1129    0.1527   -0.0933   -0.0231    0.0211
          47   -0.0693    0.0007   -0.0660    0.0472   -0.0715   -0.0462    0.0056    0.0015
          48   -0.0213    0.0098   -0.0088    0.0044   -0.0185   -0.0339    0.0015   -0.0004
          49    0.0162   -0.0279   -0.0553   -0.1178   -0.0775    0.0261   -0.0204   -0.0349
          50   -0.0193    0.0020    0.0417    0.0463    0.0203   -0.0047    0.0056    0.0285
          51   -0.0080   -0.0094    0.0351    0.0062   -0.0094    0.0069   -0.0010    0.0204
          52   -0.0639    0.0197   -0.0422    0.0149   -0.0477   -0.0605    0.0054   -0.0249
          53    0.0021    0.0677   -0.0861   -0.0627    0.0449    0.1719   -0.0652    0.0408
          54    0.0197    0.0007    0.0243   -0.0085    0.0218    0.0150    0.0015    0.0106
          55    0.0072   -0.0076    0.0010    0.0170    0.0129    0.0162    0.0094   -0.0103
          56    0.0222   -0.0147   -0.0528   -0.0497   -0.0644   -0.0416    0.0079    0.1546
          57   -0.0198    0.0207    0.0056   -0.0138   -0.0037   -0.0137   -0.0146   -0.0150
          58    0.0766   -0.0041   -0.0252   -0.0293    0.0121   -0.0178    0.1222   -0.1400
          59   -0.0577   -0.0209    0.0586    0.0133    0.0067   -0.0002   -0.0818    0.0672
          60   -0.0065   -0.0131   -0.0051    0.0041   -0.0044   -0.0048    0.0209    0.0065
          61   -0.0010    0.0011   -0.0041   -0.0005   -0.0003    0.0011    0.0012    0.0045
          62   -0.0091   -0.0781    0.0108    0.0011    0.0173   -0.0282   -0.0745   -0.0320
          63    0.0041    0.0304   -0.0033    0.0005   -0.0067    0.0127    0.0323    0.0156


   Root No.      33        34        35        36        37        38        39        40

                33 A      34 A      35 A      36 A      37 A      38 A      39 A      40 A   

                1226.2    1257.6    1288.6    1314.2    1335.7    1365.9    1382.4    1400.0
  
           1    0.0070   -0.0065   -0.0079   -0.0014    0.0020   -0.0017   -0.0059    0.0038
           2    0.0115   -0.0210    0.0090   -0.0181    0.0116    0.0054   -0.0134   -0.0009
           3   -0.0017    0.0055   -0.0067    0.0059   -0.0041   -0.0032    0.0037    0.0016
           4   -0.0104   -0.0051   -0.0091   -0.0011   -0.0023   -0.0017   -0.0017   -0.0010
           5    0.0006    0.0020    0.0052   -0.0008    0.0009    0.0006   -0.0001    0.0008
           6   -0.0137   -0.0056   -0.0082   -0.0001   -0.0013   -0.0010   -0.0008   -0.0007
           7   -0.0066    0.0206    0.0598   -0.0153    0.0031    0.0011   -0.0060    0.0119
           8   -0.0319   -0.0034   -0.0063   -0.0288   -0.0231   -0.0207   -0.0320    0.0006
           9    0.0036    0.0026   -0.0101    0.0025   -0.0015   -0.0021   -0.0011    0.0005
          10    0.0127    0.0088   -0.0146    0.0104    0.0040    0.0100    0.0133   -0.0134
          11   -0.0285    0.0359    0.0050    0.0335   -0.0289   -0.0122    0.0471   -0.0045
          12    0.0068   -0.0117    0.0112   -0.0089    0.0042    0.0026   -0.0049   -0.0013
          13    0.0087   -0.0074   -0.0033    0.0089   -0.0013   -0.0085   -0.0036   -0.0112
          14   -0.0066   -0.0216   -0.0089    0.0041    0.0390    0.0426    0.0272   -0.0047
          15    0.0004   -0.0009   -0.0001    0.0003    0.0034   -0.0029    0.0002    0.0063
          16   -0.0040   -0.0104    0.0052    0.0010   -0.0105   -0.0037    0.0072   -0.0184
          17   -0.0107    0.0285   -0.0093    0.0239    0.0255    0.0317   -0.0337   -0.0014
          18   -0.0066    0.0018   -0.0026    0.0013   -0.0022    0.0041   -0.0042    0.0125
          19   -0.0055    0.0168   -0.0068   -0.0172    0.0281   -0.0391    0.0112    0.0100
          20    0.0045    0.0037   -0.0089   -0.0318    0.0156   -0.0312    0.0045   -0.0052
          21   -0.0006   -0.0011   -0.0005   -0.0020   -0.0007    0.0018    0.0055    0.0046
          22    0.0043    0.0146   -0.0181   -0.0310   -0.0212    0.0517    0.0077    0.0030
          23    0.0049   -0.0031    0.0132    0.0182   -0.0029   -0.0186    0.0003    0.0101
          24    0.0006   -0.0037   -0.0003   -0.0003    0.0019   -0.0029    0.0053    0.0059
          25   -0.0085   -0.0051   -0.0107    0.0028   -0.0016   -0.0014    0.0007   -0.0011
          26    0.0227    0.0070    0.0091    0.0072    0.0037    0.0024    0.0064    0.0002
          27    0.0134    0.0062    0.0125    0.0004    0.0027    0.0023    0.0024    0.0011
          28    0.0130   -0.0329   -0.1812    0.0500   -0.0142   -0.0060    0.0179   -0.0218
          29    0.0884    0.0269    0.0135    0.0596    0.0362    0.0344    0.0569    0.0015
          30    0.0114    0.0071   -0.0013    0.0053    0.0017    0.0006    0.0029    0.0019
          31   -0.1084   -0.0341    0.0596   -0.0257   -0.0065   -0.0126   -0.0129    0.0112
          32    0.0752   -0.0621   -0.0110   -0.0487    0.0391    0.0169   -0.0637    0.0013
          33    0.0095   -0.0064    0.0120   -0.0063    0.0036    0.0038   -0.0015   -0.0023
          34   -0.0173   -0.0255    0.0253    0.0841   -0.0167    0.0443   -0.0670   -0.0580
          35   -0.0009   -0.0319    0.0123    0.0107   -0.0722    0.0784    0.0573    0.0578
          36   -0.0012   -0.0009   -0.0003   -0.0016   -0.0024    0.0034    0.0087    0.0088
          37    0.0026   -0.0635    0.0530    0.0918   -0.0415    0.0123   -0.0321   -0.0218
          38    0.0209   -0.0751    0.0354    0.0215   -0.0740    0.0352    0.0270    0.0152
          39   -0.0163    0.0170    0.0101    0.0615    0.0495   -0.0361   -0.0899   -0.0692
          40    0.0019    0.0010    0.0083    0.0386   -0.0196    0.0688   -0.0597    0.1556
          41    0.0101   -0.0847    0.0187   -0.0303   -0.0686   -0.0524    0.0619    0.0164
          42   -0.0057   -0.0019   -0.0009   -0.0015   -0.0048   -0.0010    0.0017    0.0093
          43   -0.0255    0.0070   -0.0008    0.0249   -0.0108    0.0299   -0.0325    0.0498
          44    0.0689   -0.1188    0.0437   -0.0273   -0.0897   -0.0052    0.0716   -0.0134
          45    0.0187    0.0125   -0.0060   -0.0391    0.0433   -0.0648    0.0554   -0.1492
          46    0.0159   -0.0447    0.0547    0.0787    0.0114   -0.0802   -0.0354   -0.0291
          47    0.0088    0.0078   -0.0108   -0.0045   -0.0718    0.0460   -0.0778   -0.0817
          48    0.0008   -0.0014   -0.0019   -0.0026   -0.0019    0.0024    0.0032    0.0039
          49   -0.0061   -0.0769    0.0452    0.1227    0.0306   -0.0345   -0.0177   -0.0134
          50    0.0157    0.0328   -0.0014   -0.0230   -0.0544    0.0208   -0.0304   -0.0197
          51    0.0167    0.0073    0.0194    0.0305   -0.0793    0.0195   -0.0896   -0.0766
          52   -0.0028   -0.0268   -0.0044    0.0416    0.0292   -0.0599    0.0022    0.0834
          53    0.0535    0.0666   -0.0038    0.0077   -0.0741   -0.0935   -0.0438    0.0205
          54    0.0035    0.0039    0.0005   -0.0003   -0.0018   -0.0059   -0.0018    0.0056
          55   -0.0028   -0.0302    0.0014    0.0306    0.0335   -0.0291    0.0046    0.0221
          56    0.0855    0.0385   -0.0580    0.0030   -0.0877   -0.0447   -0.0351    0.0047
          57   -0.0093    0.0316    0.0103   -0.0537   -0.0312    0.0831    0.0043   -0.0758
          58    0.1688    0.0647    0.0714   -0.0128    0.0009   -0.0001   -0.0065    0.0059
          59   -0.1477   -0.0425   -0.0318   -0.0116   -0.0059   -0.0032   -0.0078   -0.0008
          60    0.0332    0.0091    0.0101    0.0086    0.0048    0.0035    0.0076    0.0002
          61    0.0033   -0.0053   -0.0007   -0.0019    0.0022    0.0011   -0.0030    0.0009
          62    0.0723   -0.0156   -0.1588    0.0288   -0.0206   -0.0575   -0.0388    0.0591
          63   -0.0254    0.0021    0.0627   -0.0148    0.0117    0.0232    0.0128   -0.0238


   Root No.      41        42        43        44        45        46        47        48

                41 A      42 A      43 A      44 A      45 A      46 A      47 A      48 A   

                1404.4    1414.9    1417.5    1423.6    1985.6    2818.2    2885.1    2932.5
  
           1   -0.0051   -0.0023    0.0014    0.0150    0.0001    0.0005   -0.0002   -0.0000
           2    0.0049    0.0002   -0.0059   -0.0095    0.0001   -0.0004   -0.0002    0.0000
           3   -0.0037   -0.0006    0.0032    0.0072   -0.0001    0.0006   -0.0002   -0.0000
           4    0.0008   -0.0001   -0.0015   -0.0024   -0.2042    0.0001   -0.0002    0.0050
           5   -0.0002   -0.0000    0.0007    0.0017    0.1060   -0.0001    0.0000   -0.0028
           6    0.0001   -0.0001   -0.0008   -0.0012   -0.1331    0.0001   -0.0006    0.0029
           7   -0.0047   -0.0024    0.0094    0.0312   -0.0185   -0.0008   -0.0017   -0.0003
           8    0.0106   -0.0059   -0.0146   -0.0118    0.0111   -0.0004    0.0031    0.0001
           9   -0.0037   -0.0012   -0.0002    0.0026    0.0005    0.0035   -0.0599   -0.0063
          10    0.0176    0.0092   -0.0093   -0.0585   -0.0077   -0.0027   -0.0011    0.0003
          11   -0.0056    0.0037    0.0169    0.0014    0.0026   -0.0011   -0.0002   -0.0003
          12    0.0037   -0.0002   -0.0031   -0.0023    0.0007   -0.0667   -0.0038    0.0002
          13   -0.0304   -0.0098   -0.0159   -0.0108    0.0020   -0.0001    0.0025    0.0008
          14   -0.0084    0.0160    0.0196    0.0134    0.0055   -0.0001    0.0008    0.0002
          15    0.0187    0.0085    0.0067    0.0028   -0.0007   -0.0003    0.0038    0.0011
          16    0.0106   -0.0093   -0.0057    0.0267    0.0012    0.0019    0.0002   -0.0001
          17    0.0137   -0.0025   -0.0305    0.0073   -0.0006   -0.0003    0.0001    0.0000
          18   -0.0078    0.0021    0.0080   -0.0122   -0.0003    0.0020    0.0000   -0.0002
          19   -0.0182    0.0298   -0.0118   -0.0083    0.0000   -0.0000   -0.0000   -0.0000
          20   -0.0122    0.0026    0.0338   -0.0134    0.0000   -0.0001   -0.0000    0.0000
          21   -0.0002    0.0113   -0.0151    0.0059   -0.0001   -0.0003   -0.0001    0.0000
          22    0.0244   -0.0190    0.0191    0.0082   -0.0004   -0.0000   -0.0000    0.0000
          23   -0.0015   -0.0309   -0.0194   -0.0062   -0.0012   -0.0001    0.0002    0.0001
          24    0.0002   -0.0217   -0.0046   -0.0039    0.0002    0.0000   -0.0005   -0.0002
          25   -0.0003   -0.0002   -0.0011   -0.0027    0.2914   -0.0006    0.0021   -0.0179
          26   -0.0026    0.0005    0.0025    0.0028   -0.1639   -0.0000    0.0007   -0.0150
          27   -0.0001    0.0006    0.0021    0.0029    0.1594   -0.0009    0.0053   -0.0674
          28   -0.0033    0.0019   -0.0110   -0.0348    0.0494    0.0035    0.0234   -0.0012
          29   -0.0119    0.0079    0.0232    0.0145   -0.0383    0.0034   -0.0372   -0.0010
          30   -0.0046   -0.0008    0.0021    0.0047   -0.0083   -0.0479    0.7322    0.0711
          31   -0.0197   -0.0119    0.0099    0.0702   -0.0026    0.0351    0.0061    0.0025
          32    0.0088   -0.0068   -0.0223   -0.0003    0.0027    0.0220    0.0018   -0.0012
          33    0.0064    0.0014   -0.0039   -0.0096    0.0028    0.8052    0.0434   -0.0048
          34    0.0289   -0.0954    0.0924   -0.0065   -0.0005    0.0006    0.0000   -0.0000
          35    0.0170    0.0551   -0.1385    0.0422    0.0003   -0.0018   -0.0001    0.0000
          36   -0.0000    0.0155   -0.0236    0.0073    0.0001    0.0032    0.0003   -0.0005
          37    0.0143   -0.0613    0.0098    0.0098   -0.0000    0.0006   -0.0001    0.0001
          38    0.0135   -0.0025   -0.0504    0.0326    0.0001   -0.0008    0.0001   -0.0001
          39    0.0023   -0.1047    0.1465   -0.0455   -0.0002   -0.0004    0.0001   -0.0000
          40   -0.0840    0.0334    0.0543   -0.1099   -0.0005   -0.0016   -0.0012   -0.0003
          41   -0.0307    0.0066    0.0554   -0.0282   -0.0009    0.0051    0.0006   -0.0000
          42   -0.0071    0.0017    0.0093   -0.0106   -0.0008   -0.0241    0.0001    0.0022
          43   -0.0261    0.0021    0.0121   -0.0083    0.0012   -0.0158   -0.0033    0.0013
          44    0.0074   -0.0076    0.0505   -0.0558   -0.0019   -0.0051   -0.0006    0.0002
          45    0.0851   -0.0208   -0.0675    0.0881   -0.0007   -0.0081   -0.0013    0.0004
          46   -0.0453    0.0767   -0.0182   -0.0056    0.0009    0.0000    0.0003    0.0001
          47   -0.0149    0.1825    0.0575    0.0254    0.0010    0.0001    0.0011    0.0002
          48    0.0016   -0.0160   -0.0015   -0.0024   -0.0003   -0.0006    0.0062    0.0024
          49   -0.0341    0.0312   -0.0426    0.0011    0.0028    0.0001    0.0000   -0.0003
          50    0.0115    0.0401    0.0200    0.0084   -0.0028    0.0002    0.0001   -0.0009
          51   -0.0147    0.1877    0.0350    0.0253   -0.0010   -0.0000   -0.0001    0.0003
          52    0.1990    0.0567    0.0587    0.0333   -0.0013   -0.0013    0.0005    0.0006
          53    0.0395   -0.0185   -0.0227   -0.0164    0.0046   -0.0010   -0.0024   -0.0009
          54    0.0152    0.0053    0.0036    0.0014    0.0009    0.0034   -0.0391   -0.0106
          55    0.0491    0.0276    0.0151    0.0077    0.0018   -0.0004   -0.0274   -0.0097
          56    0.0378   -0.0337   -0.0273   -0.0363   -0.0005   -0.0004   -0.0019   -0.0010
          57   -0.1889   -0.0641   -0.0485   -0.0196    0.0003   -0.0000   -0.0110   -0.0036
          58    0.0004   -0.0014    0.0022    0.0091   -0.0054   -0.0007   -0.0134    0.1327
          59    0.0047    0.0001   -0.0025   -0.0027    0.0972    0.0035   -0.0148    0.2262
          60   -0.0024    0.0008    0.0030    0.0026    0.2188    0.0081   -0.0617    0.7643
          61   -0.0009   -0.0007   -0.0002    0.0036   -0.0003   -0.0025   -0.0008    0.0000
          62   -0.0866   -0.0303    0.0414    0.2190    0.0012    0.0061   -0.0002   -0.0002
          63    0.0349    0.0122   -0.0177   -0.0878    0.0004   -0.0035   -0.0001   -0.0001


   Root No.      49        50        51        52        53        54        55        56

                49 A      50 A      51 A      52 A      53 A      54 A      55 A      56 A   

                2952.6    2955.6    2961.2    2967.0    3031.4    3033.6    3038.6    3043.5
  
           1   -0.0000   -0.0000   -0.0000   -0.0000   -0.0000    0.0001   -0.0000    0.0000
           2   -0.0000   -0.0000   -0.0000   -0.0000    0.0000   -0.0001    0.0001   -0.0000
           3    0.0000   -0.0000   -0.0000   -0.0000    0.0000   -0.0000    0.0000    0.0000
           4    0.0000    0.0000   -0.0000    0.0000   -0.0000   -0.0000   -0.0000   -0.0000
           5   -0.0000   -0.0000    0.0000   -0.0000   -0.0000    0.0000   -0.0000    0.0000
           6    0.0000    0.0000   -0.0000   -0.0000   -0.0000   -0.0000   -0.0000   -0.0000
           7   -0.0001    0.0000    0.0001    0.0001   -0.0001   -0.0002   -0.0000   -0.0001
           8    0.0003    0.0001   -0.0000   -0.0001   -0.0004   -0.0001   -0.0001    0.0001
           9   -0.0012   -0.0013    0.0007   -0.0005    0.0001    0.0002    0.0001    0.0001
          10    0.0001   -0.0000   -0.0001   -0.0000   -0.0000    0.0004   -0.0001    0.0001
          11    0.0003   -0.0001   -0.0000    0.0002    0.0002   -0.0003    0.0001    0.0001
          12    0.0004   -0.0008   -0.0007   -0.0004   -0.0000   -0.0003    0.0001   -0.0001
          13   -0.0086   -0.0097    0.0066   -0.0051   -0.0189   -0.0087   -0.0065   -0.0050
          14   -0.0009   -0.0011    0.0008   -0.0005   -0.0035   -0.0017   -0.0014   -0.0011
          15   -0.0162   -0.0177    0.0112   -0.0081    0.0087    0.0039    0.0024    0.0012
          16    0.0050   -0.0105   -0.0117   -0.0060   -0.0046    0.0169   -0.0091    0.0051
          17    0.0006   -0.0011   -0.0012   -0.0008   -0.0011    0.0036   -0.0016    0.0008
          18    0.0081   -0.0165   -0.0170   -0.0082    0.0033   -0.0117    0.0053   -0.0021
          19    0.0044   -0.0045    0.0037    0.0060    0.0038   -0.0064   -0.0076    0.0097
          20   -0.0050    0.0053   -0.0044   -0.0069   -0.0044    0.0081    0.0087   -0.0118
          21   -0.0144    0.0145   -0.0109   -0.0165    0.0030   -0.0055   -0.0047    0.0049
          22   -0.0024   -0.0005   -0.0021    0.0036    0.0030   -0.0007   -0.0043   -0.0054
          23   -0.0079   -0.0019   -0.0071    0.0116    0.0082   -0.0010   -0.0106   -0.0147
          24    0.0147    0.0034    0.0121   -0.0188    0.0060   -0.0004   -0.0062   -0.0069
          25   -0.0001   -0.0000    0.0001   -0.0000   -0.0000   -0.0000    0.0000    0.0000
          26   -0.0000   -0.0000    0.0000   -0.0000   -0.0002   -0.0001   -0.0001   -0.0001
          27   -0.0003   -0.0002    0.0002   -0.0000   -0.0000   -0.0000   -0.0000   -0.0000
          28   -0.0004    0.0002    0.0005    0.0001   -0.0005    0.0001   -0.0002   -0.0001
          29   -0.0016   -0.0022    0.0014   -0.0014    0.0002   -0.0000   -0.0002   -0.0002
          30    0.0149    0.0154   -0.0084    0.0054    0.0012   -0.0012    0.0000   -0.0010
          31    0.0006   -0.0003   -0.0011   -0.0003   -0.0001    0.0000   -0.0002    0.0001
          32   -0.0001    0.0011    0.0012    0.0010   -0.0004    0.0005   -0.0001   -0.0001
          33   -0.0044    0.0086    0.0079    0.0037    0.0009    0.0010   -0.0007    0.0009
          34    0.0087   -0.0101    0.0051    0.0121   -0.0018    0.0027    0.0020   -0.0021
          35   -0.0123    0.0110   -0.0111   -0.0144    0.0026   -0.0046   -0.0038    0.0036
          36    0.1397   -0.1386    0.1010    0.1501   -0.0665    0.1233    0.1222   -0.1469
          37   -0.0590    0.0635   -0.0522   -0.0820   -0.0412    0.0776    0.0861   -0.1186
          38    0.0701   -0.0753    0.0614    0.0973    0.0496   -0.0891   -0.1050    0.1389
          39    0.0340   -0.0364    0.0300    0.0474    0.0315   -0.0573   -0.0639    0.0842
          40    0.0039   -0.0081   -0.0090   -0.0051   -0.0012    0.0050   -0.0033    0.0018
          41    0.0028   -0.0063   -0.0084   -0.0053    0.0024   -0.0082    0.0040   -0.0021
          42   -0.0789    0.1574    0.1568    0.0741   -0.0636    0.2294   -0.1135    0.0522
          43   -0.0613    0.1335    0.1500    0.0758    0.0573   -0.2113    0.1164   -0.0633
          44   -0.0092    0.0203    0.0227    0.0113    0.0079   -0.0302    0.0185   -0.0107
          45   -0.0195    0.0425    0.0477    0.0242    0.0238   -0.0870    0.0466   -0.0248
          46   -0.0067   -0.0037   -0.0036    0.0095   -0.0029    0.0002    0.0023    0.0030
          47   -0.0037    0.0001   -0.0046    0.0073    0.0035   -0.0002   -0.0050   -0.0073
          48   -0.1483   -0.0330   -0.1177    0.1789   -0.1141    0.0102    0.1324    0.1619
          49    0.0339    0.0089    0.0318   -0.0513   -0.0361    0.0024    0.0455    0.0659
          50    0.0963    0.0249    0.0896   -0.1455   -0.0996    0.0126    0.1350    0.1857
          51   -0.0307   -0.0079   -0.0285    0.0463    0.0436   -0.0050   -0.0561   -0.0757
          52   -0.0070   -0.0079    0.0058   -0.0052   -0.0055   -0.0029   -0.0025   -0.0018
          53   -0.0090   -0.0090    0.0045   -0.0023    0.0072    0.0033    0.0022    0.0011
          54    0.1622    0.1738   -0.1074    0.0768   -0.2029   -0.0932   -0.0644   -0.0416
          55    0.1077    0.1247   -0.0850    0.0643    0.2331    0.1094    0.0844    0.0638
          56    0.0184    0.0211   -0.0144    0.0111    0.0396    0.0180    0.0129    0.0092
          57    0.0336    0.0389   -0.0266    0.0202    0.0960    0.0446    0.0334    0.0247
          58    0.0005    0.0002   -0.0003    0.0000    0.0002    0.0001    0.0000    0.0000
          59    0.0011    0.0008   -0.0007    0.0003    0.0001    0.0000    0.0000    0.0000
          60    0.0030    0.0019   -0.0018    0.0004    0.0008    0.0003    0.0003    0.0002
          61   -0.0001    0.0001    0.0001    0.0001    0.0000   -0.0000    0.0000   -0.0000
          62   -0.0003    0.0006    0.0007    0.0003    0.0003   -0.0011    0.0006   -0.0003
          63    0.0001   -0.0001   -0.0001   -0.0000    0.0001   -0.0003    0.0001   -0.0001


   Root No.      57

                57 A   

                3900.5
  
           1   -0.0561
           2   -0.0063
           3   -0.0121
           4    0.0000
           5    0.0000
           6    0.0000
           7    0.0002
           8    0.0001
           9    0.0001
          10   -0.0015
          11   -0.0014
          12   -0.0000
          13    0.0000
          14    0.0000
          15    0.0000
          16    0.0002
          17   -0.0003
          18   -0.0000
          19   -0.0000
          20    0.0000
          21    0.0000
          22   -0.0000
          23    0.0000
          24   -0.0000
          25    0.0000
          26    0.0000
          27   -0.0000
          28    0.0003
          29    0.0003
          30    0.0005
          31   -0.0010
          32   -0.0008
          33    0.0033
          34    0.0000
          35    0.0000
          36   -0.0000
          37    0.0001
          38    0.0001
          39   -0.0001
          40   -0.0001
          41   -0.0002
          42   -0.0002
          43   -0.0009
[...]
 TRAVEL      0.0886         C  7 -- H 13          +8.2% ( 39.6%)      1.8%
 RED. MASS   0.6508         C  6 -- C  7          +7.8% ( 38.5%)     88.4%
 EFF. MASS   6.5366

 VIBRATION   37   37A         ATOM PAIR      ENERGY CONTRIBUTION    RADIAL
 FREQ.      1335.71         C  5 -- H 19          +9.4% ( 41.3%)      0.3%
 T-DIPOLE    0.1597         C  3 -- C  5          +8.7% ( 39.7%)     73.6%
 TRAVEL      0.0920         C  5 -- H 18          +8.2% ( 38.5%)      0.1%
 RED. MASS   0.5645         C  7 -- H 13          +7.2% ( 36.1%)      0.3%
 EFF. MASS   5.9683

 VIBRATION   38   38A         ATOM PAIR      ENERGY CONTRIBUTION    RADIAL
 FREQ.      1365.89         C  7 -- C  8         +14.1% ( 54.9%)     88.0%
 T-DIPOLE    0.1383         C  5 -- C  8         +12.4% ( 51.5%)     87.3%
 TRAVEL      0.0800         C  8 -- H 16          +9.0% ( 43.8%)      0.0%
 RED. MASS   1.1959         C  6 -- C  7          +8.9% ( 43.5%)     87.3%
 EFF. MASS   7.7179

 VIBRATION   39   39A         ATOM PAIR      ENERGY CONTRIBUTION    RADIAL
 FREQ.      1382.42         C  4 -- C  6         +13.0% ( 48.7%)     44.5%
 T-DIPOLE    0.4665         C  3 -- C  4         +12.1% ( 46.9%)     12.7%
 TRAVEL      0.0863         O  1 -- C  4         +10.7% ( 44.1%)     96.0%
 RED. MASS   0.8730         C  4 -- H 11         +10.0% ( 42.6%)      0.3%
 EFF. MASS   6.5515

 VIBRATION   40   40A         ATOM PAIR      ENERGY CONTRIBUTION    RADIAL
 FREQ.      1399.98         C  6 -- H 15         +19.8% ( 43.8%)      3.9%
 T-DIPOLE    0.0960         C  6 -- H 14         +19.8% ( 43.7%)      3.8%
 TRAVEL      0.1448         C  5 -- H 18          +6.4% ( 24.8%)      3.2%
 RED. MASS   0.1797         C  8 -- H 16          +6.1% ( 24.3%)      2.9%
 EFF. MASS   2.2962

 VIBRATION   41   41A         ATOM PAIR      ENERGY CONTRIBUTION    RADIAL
 FREQ.      1404.35         C  5 -- H 18         +21.3% ( 51.3%)      4.2%
 T-DIPOLE    0.2628         C  5 -- H 19         +19.9% ( 49.7%)      5.7%
 TRAVEL      0.1149         C  5 -- C  8          +8.8% ( 33.0%)     35.6%
 RED. MASS   0.3502         C  3 -- C  5          +6.2% ( 27.6%)     65.4%
 EFF. MASS   3.6379

 VIBRATION   42   42A         ATOM PAIR      ENERGY CONTRIBUTION    RADIAL
 FREQ.      1414.94         C  8 -- H 16         +21.5% ( 51.5%)      4.9%
 T-DIPOLE    0.0898         C  8 -- H 17         +20.1% ( 49.9%)      6.5%
 TRAVEL      0.1144         C  7 -- C  8         +13.3% ( 40.5%)     80.9%
 RED. MASS   0.4389         C  7 -- H 13          +9.5% ( 34.3%)      2.8%
 EFF. MASS   3.6395

 VIBRATION   43   43A         ATOM PAIR      ENERGY CONTRIBUTION    RADIAL
 FREQ.      1417.48         C  7 -- H 12         +15.0% ( 48.2%)      4.1%
 T-DIPOLE    0.2635         C  7 -- H 13         +12.7% ( 44.4%)      8.0%
 TRAVEL      0.0957         C  6 -- C  7         +11.4% ( 42.0%)     83.6%
 RED. MASS   0.4813         C  7 -- C  8          +8.4% ( 36.1%)     14.8%
 EFF. MASS   5.1891

 VIBRATION   44   44A         ATOM PAIR      ENERGY CONTRIBUTION    RADIAL
 FREQ.      1423.55         O  1 -- H 21         +18.8% ( 54.4%)      3.3%
 T-DIPOLE    0.4133         C  3 -- C  4         +14.0% ( 47.0%)     85.3%
 TRAVEL      0.0922         C  4 -- C  6         +12.4% ( 44.2%)     34.3%
 RED. MASS   0.9069         C  4 -- H 11         +10.8% ( 41.3%)      0.1%
 EFF. MASS   5.5688

 VIBRATION   45   45A         ATOM PAIR      ENERGY CONTRIBUTION    RADIAL
 FREQ.      1985.64         O  2 -- C  9         +56.8% ( 99.6%)     99.8%
 T-DIPOLE    3.7404         C  3 -- C  9         +21.7% ( 61.6%)     39.8%
 TRAVEL      0.0503         C  9 -- H 20         +21.3% ( 61.0%)      6.4%
 RED. MASS   6.5465
 EFF. MASS  13.3959

 VIBRATION   46   46A         ATOM PAIR      ENERGY CONTRIBUTION    RADIAL
 FREQ.      2818.20         C  4 -- H 11         +96.2% ( 99.7%)     99.9%
 T-DIPOLE    0.1285         C  3 -- C  4          +1.1% ( 10.6%)     10.9%
 TRAVEL      0.1284         C  4 -- C  6          +1.1% ( 10.5%)     10.4%
 RED. MASS   0.9202         O  1 -- C  4          +1.1% ( 10.5%)      9.5%
 EFF. MASS   1.4502

 VIBRATION   47   47A         ATOM PAIR      ENERGY CONTRIBUTION    RADIAL
 FREQ.      2885.12         C  3 -- H 10         +95.3% ( 99.2%)    100.0%
 T-DIPOLE    0.2613         C  3 -- C  9          +1.0% ( 10.4%)     11.4%
 TRAVEL      0.1274         C  3 -- C  5          +1.0% ( 10.3%)      8.9%
 RED. MASS   0.9006         C  3 -- C  4          +1.0% ( 10.0%)      9.3%
 EFF. MASS   1.4396

 VIBRATION   48   48A         ATOM PAIR      ENERGY CONTRIBUTION    RADIAL
 FREQ.      2932.49         C  9 -- H 20         +95.8% ( 99.5%)    100.0%
 T-DIPOLE    0.1589         O  2 -- C  9          +1.8% ( 13.8%)     42.2%
 TRAVEL      0.1218         C  3 -- C  9          +1.6% ( 12.8%)     13.4%
 RED. MASS   0.9140         C  3 -- H 10          +0.7% (  8.6%)     99.7%
 EFF. MASS   1.5496

 VIBRATION   49   49A         ATOM PAIR      ENERGY CONTRIBUTION    RADIAL
 FREQ.      2952.62         C  5 -- H 18         +22.3% ( 49.2%)     97.9%
 T-DIPOLE    0.0389         C  8 -- H 16         +18.7% ( 45.0%)     97.7%
 TRAVEL      0.1212         C  7 -- H 12         +16.7% ( 42.5%)     97.8%
 RED. MASS   0.1610         C  5 -- H 19         +11.7% ( 35.6%)     94.2%
 EFF. MASS   1.5539         C  8 -- H 17         +10.2% ( 33.2%)     94.2%

 VIBRATION   50   50A         ATOM PAIR      ENERGY CONTRIBUTION    RADIAL
 FREQ.      2955.55         C  5 -- H 18         +23.2% ( 50.0%)     97.7%
 T-DIPOLE    0.0586         C  6 -- H 14         +19.3% ( 45.6%)     97.0%
 TRAVEL      0.1217         C  6 -- H 15         +15.8% ( 41.2%)     95.9%
 RED. MASS   0.1793         C  7 -- H 12         +14.9% ( 40.1%)     97.7%
 EFF. MASS   1.5402         C  5 -- H 19         +14.0% ( 38.9%)     94.8%

 VIBRATION   51   51A         ATOM PAIR      ENERGY CONTRIBUTION    RADIAL
 FREQ.      2961.19         C  6 -- H 15         +22.2% ( 48.9%)     96.6%
 T-DIPOLE    0.0368         C  6 -- H 14         +21.7% ( 48.3%)     96.6%
 TRAVEL      0.1219         C  8 -- H 16         +12.1% ( 36.0%)     97.4%
 RED. MASS   0.1586         C  5 -- H 18         +10.0% ( 32.8%)     97.5%
 EFF. MASS   1.5327

 VIBRATION   52   52A         ATOM PAIR      ENERGY CONTRIBUTION    RADIAL
 FREQ.      2967.02         C  8 -- H 16         +25.5% ( 52.3%)     97.2%
 T-DIPOLE    0.0550         C  8 -- H 17         +21.1% ( 47.5%)     96.0%
 TRAVEL      0.1215         C  7 -- H 12         +18.1% ( 44.1%)     97.2%
 RED. MASS   0.1876         C  7 -- H 13         +15.0% ( 40.1%)     96.1%
 EFF. MASS   1.5393

 VIBRATION   53   53A         ATOM PAIR      ENERGY CONTRIBUTION    RADIAL
 FREQ.      3031.41         C  5 -- H 19         +43.3% ( 65.0%)     98.7%
 T-DIPOLE    0.0676         C  5 -- H 18         +26.6% ( 50.9%)     95.6%
 TRAVEL      0.1318         C  8 -- H 17          +8.7% ( 29.1%)     97.8%
 RED. MASS   0.2728         C  8 -- H 16          +8.6% ( 28.9%)     97.3%
 EFF. MASS   1.2804

 VIBRATION   54   54A         ATOM PAIR      ENERGY CONTRIBUTION    RADIAL
 FREQ.      3033.63         C  6 -- H 15         +32.5% ( 56.2%)     97.7%
 T-DIPOLE    0.0607         C  6 -- H 14         +32.2% ( 55.9%)     97.5%
 TRAVEL      0.1321         C  7 -- H 13         +10.6% ( 32.2%)     98.1%
 RED. MASS   0.2376         C  7 -- H 12          +9.3% ( 30.0%)     97.0%
 EFF. MASS   1.2729

 VIBRATION   55   55A         ATOM PAIR      ENERGY CONTRIBUTION    RADIAL
 FREQ.      3038.57         C  8 -- H 17         +19.5% ( 43.5%)     98.4%
 T-DIPOLE    0.0786         C  7 -- H 13         +18.8% ( 42.7%)     98.6%
 TRAVEL      0.1321         C  8 -- H 16         +14.3% ( 37.3%)     96.5%
 RED. MASS   0.1411         C  6 -- H 15         +13.2% ( 35.8%)     98.2%
 EFF. MASS   1.2717         C  7 -- H 12         +12.1% ( 34.3%)     96.0%
                            C  6 -- H 14         +10.5% ( 32.0%)     97.0%

 VIBRATION   56   56A         ATOM PAIR      ENERGY CONTRIBUTION    RADIAL
 FREQ.      3043.50         C  8 -- H 17         +30.3% ( 54.2%)     98.8%
 T-DIPOLE    0.0695         C  7 -- H 13         +27.5% ( 51.7%)     98.9%
 TRAVEL      0.1314         C  8 -- H 16         +17.3% ( 41.0%)     95.4%
 RED. MASS   0.2162         C  7 -- H 12         +14.2% ( 37.1%)     94.9%
 EFF. MASS   1.2824

 VIBRATION   57   57A         ATOM PAIR      ENERGY CONTRIBUTION    RADIAL
 FREQ.      3900.47         O  1 -- H 21         +99.6% (100.0%)    100.0%
 T-DIPOLE    0.2185         O  1 -- C  4          +0.4% (  6.3%)      7.4%
 TRAVEL      0.1116
 RED. MASS   0.9481
 EFF. MASS   1.3890

      SYMMETRY NUMBER FOR POINT-GROUP C1  =  1


          SYSTEM IS A GROUND STATE



 InChI=1S/C7H12O2/c8-5-6-3-1-2-4-7(6)9/h5-7,9H,1-4H2


          MOLECULE IS NOT LINEAR

          THERE ARE 57 GENUINE VIBRATIONS IN THIS SYSTEM
          THIS THERMODYNAMICS CALCULATION IS LIMITED TO
          MOLECULES WHICH HAVE NO INTERNAL ROTATIONS




                    CALCULATED THERMODYNAMIC PROPERTIES
                                          *
   TEMP. (K)   PARTITION FUNCTION   H.O.F.    ENTHALPY  HEAT CAPACITY ENTROPY
                                   KCAL/MOL   CAL/MOLE    CAL/K/MOL  CAL/K/MOL


 298.00  VIB.     0.1474D+03                  3850.0225    28.2037    22.8416
         ROT.     0.5103D+06                   888.2813     2.9808    29.0984
         INT.     0.7521D+08                  4738.3039    31.1845    51.9400
         TRA.     0.1403D+28                  1480.4688     4.9680    40.4556
         TOT.                     -101.281    6218.7727    36.1525    92.3956

 200.00  VIB.     0.1858D+02                  1621.3579    17.5901    13.9132
         ROT.     0.2806D+06                   596.1620     2.9808    27.9097
         INT.     0.5212D+07                  2217.5199    20.5709    41.8228
         TRA.     0.7713D+27                   993.6033     4.9680    38.4745
         TOT.                     -104.289    3211.1231    25.5389    80.2973

 210.00  VIB.     0.2280D+02                  1802.1976    18.5813    14.7953
         ROT.     0.3019D+06                   625.9700     2.9808    28.0551
         INT.     0.6883D+07                  2428.1677    21.5621    42.8504
         TRA.     0.8299D+27                  1043.2834     4.9680    38.7168
         TOT.                     -104.029    3471.4511    26.5302    81.5672

 220.00  VIB.     0.2803D+02                  1993.0573    19.5943    15.6830
         ROT.     0.3237D+06                   655.7781     2.9808    28.1938
         INT.     0.9073D+07                  2648.8354    22.5752    43.8767
         TRA.     0.8899D+27                  1092.9636     4.9680    38.9480
         TOT.                     -103.758    3741.7990    27.5432    82.8247

 230.00  VIB.     0.3451D+02                  2194.1609    20.6302    16.5767
         ROT.     0.3460D+06                   685.5862     2.9808    28.3263
         INT.     0.1194D+08                  2879.7472    23.6110    44.9030
         TRA.     0.9512D+27                  1142.6437     4.9680    39.1688
         TOT.                     -103.478    4022.3909    28.5791    84.0718

 240.00  VIB.     0.4254D+02                  2405.7384    21.6891    17.4770
         ROT.     0.3689D+06                   715.3943     2.9808    28.4531
         INT.     0.1569D+08                  3121.1328    24.6699    45.9302
         TRA.     0.1014D+28                  1192.3239     4.9680    39.3802
         TOT.                     -103.187    4313.4567    29.6379    85.3104

 250.00  VIB.     0.5253D+02                  2628.0158    22.7700    18.3843
         ROT.     0.3921D+06                   745.2024     2.9808    28.5748
         INT.     0.2060D+08                  3373.2183    25.7508    46.9591
         TRA.     0.1078D+28                  1242.0041     4.9680    39.5830
         TOT.                     -102.885    4615.2223    30.7188    86.5421

 260.00  VIB.     0.6496D+02                  2861.2073    23.8716    19.2987
         ROT.     0.4159D+06                   775.0105     2.9808    28.6917
         INT.     0.2702D+08                  3636.2178    26.8524    47.9905
         TRA.     0.1143D+28                  1291.6842     4.9680    39.7779
         TOT.                     -102.572    4927.9020    31.8204    87.7683

 270.00  VIB.     0.8043D+02                  3105.5086    24.9916    20.2206
         ROT.     0.4401D+06                   804.8186     2.9808    28.8042
         INT.     0.3540D+08                  3910.3272    27.9724    49.0248
         TRA.     0.1210D+28                  1341.3644     4.9680    39.9654
         TOT.                     -102.248    5251.6916    32.9404    88.9902

 280.00  VIB.     0.9973D+02                  3361.0923    26.1276    21.1500
         ROT.     0.4648D+06                   834.6267     2.9808    28.9126
         INT.     0.4636D+08                  4195.7190    29.1084    50.0626
         TRA.     0.1278D+28                  1391.0445     4.9680    40.1461
         TOT.                     -101.913    5586.7636    34.0764    90.2087

 290.00  VIB.     0.1238D+03                  3628.1045    27.2768    22.0868
         ROT.     0.4899D+06                   864.4348     2.9808    29.0172
         INT.     0.6067D+08                  4492.5393    30.2576    51.1041
         TRA.     0.1347D+28                  1440.7247     4.9680    40.3204
         TOT.                     -101.567    5933.2640    35.2256    91.4245

 300.00  VIB.     0.1540D+03                  3906.6624    28.4363    23.0311
         ROT.     0.5155D+06                   894.2429     2.9808    29.1183
         INT.     0.7936D+08                  4800.9054    31.4171    52.1494
         TRA.     0.1417D+28                  1490.4049     4.9680    40.4888
         TOT.                     -101.209    6291.3102    36.3851    92.6382

 310.00  VIB.     0.1917D+03                  4196.8538    29.6030    23.9825
         ROT.     0.5415D+06                   924.0510     2.9808    29.2160
         INT.     0.1038D+09                  5120.9048    32.5838    53.1985
         TRA.     0.1488D+28                  1540.0850     4.9680    40.6517
         TOT.                     -100.839    6660.9899    37.5518    93.8503

 320.00  VIB.     0.2389D+03                  4498.7366    30.7741    24.9408
         ROT.     0.5679D+06                   953.8591     2.9808    29.3107
         INT.     0.1357D+09                  5452.5957    33.7549    54.2515
         TRA.     0.1561D+28                  1589.7652     4.9680    40.8094
         TOT.                     -100.458    7042.3609    38.7229    95.0610

 330.00  VIB.     0.2982D+03                  4812.3400    31.9466    25.9058
         ROT.     0.5947D+06                   983.6672     2.9808    29.4024
         INT.     0.1774D+09                  5796.0073    34.9275    55.3082
         TRA.     0.1635D+28                  1639.4454     4.9680    40.9623
         TOT.                     -100.065    7435.4526    39.8955    96.2705

 340.00  VIB.     0.3728D+03                  5137.6655    33.1180    26.8769
         ROT.     0.6220D+06                  1013.4753     2.9808    29.4914
         INT.     0.2318D+09                  6151.1408    36.0989    56.3682
         TRA.     0.1710D+28                  1689.1255     4.9680    41.1106
         TOT.                      -99.660    7840.2664    41.0669    97.4789

 350.00  VIB.     0.4665D+03                  5474.6886    34.2858    27.8537
         ROT.     0.6496D+06                  1043.2834     2.9808    29.5778
         INT.     0.3030D+09                  6517.9720    37.2666    57.4315
         TRA.     0.1786D+28                  1738.8057     4.9680    41.2546
         TOT.                      -99.243    8256.7777    42.2346    98.6862

 360.00  VIB.     0.5845D+03                  5823.3608    35.4475    28.8359
         ROT.     0.6776D+06                  1073.0915     2.9808    29.6618
         INT.     0.3961D+09                  6896.4523    38.4283    58.4977
         TRA.     0.1863D+28                  1788.4859     4.9680    41.3946
         TOT.                      -98.815    8684.9381    43.3963    99.8923

 370.00  VIB.     0.7332D+03                  6183.6119    36.6012    29.8229
         ROT.     0.7061D+06                  1102.8996     2.9808    29.7434
         INT.     0.5177D+09                  7286.5115    39.5820    59.5663
         TRA.     0.1941D+28                  1838.1660     4.9680    41.5307
         TOT.                      -98.375    9124.6775    44.5500   101.0970

 380.00  VIB.     0.9208D+03                  6555.3521    37.7450    30.8142
         ROT.     0.7349D+06                  1132.7077     2.9808    29.8229
         INT.     0.6767D+09                  7688.0598    40.7259    60.6371
         TRA.     0.2020D+28                  1887.8462     4.9680    41.6632
         TOT.                      -97.924    9575.9060    45.6939   102.3003

 390.00  VIB.     0.1158D+04                  6938.4743    38.8774    31.8093
         ROT.     0.7641D+06                  1162.5158     2.9808    29.9003
         INT.     0.8847D+09                  8100.9901    41.8582    61.7096
         TRA.     0.2100D+28                  1937.5263     4.9680    41.7923
         TOT.                      -97.462   10038.5165    46.8262   103.5019

 400.00  VIB.     0.1457D+04                  7332.8563    39.9968    32.8077
         ROT.     0.7937D+06                  1192.3239     2.9808    29.9758
         INT.     0.1157D+10                  8525.1802    42.9776    62.7835
         TRA.     0.2182D+28                  1987.2065     4.9680    41.9180
         TOT.                      -96.988   10512.3867    47.9456   104.7016

   *: NOTE: HEATS OF FORMATION ARE RELATIVE TO THE
            ELEMENTS IN THEIR STANDARD STATE AT 298K
              (=  Standard Enthalpy of Formation).

            Hvib:  Zero-point energy is not included.
                   frequencies of less than zero cm-1 are not included.
            Hrot = (3/2)RT
            Htra = (3/2)RT + pV = (5/2)RT

            Heat capacity is Cp, not Cv

          For more information, see: HTTP://OpenMOPAC.net/Manual/thermochemistry.html


           FORCE CONSTANT IN CARTESIAN COORDINATES (Millidynes/A)

    ATOM   CHEMICAL       X               Y               Z
   NUMBER   SYMBOL  FORCE CONSTANT  FORCE CONSTANT  FORCE CONSTANT

      1       O        9.493163        5.817012        1.666808
      2       O        9.828961        3.133154        4.663460
      3       C        7.979824        8.054553        8.356110
      4       C        7.958686        8.689242        8.209298
      5       C        8.687257        7.942054        8.170302
      6       C        8.484938        8.065649        8.172513
      7       C        8.304347        8.438845        8.227260
      8       C        8.066690        8.647070        8.232821
      9       C       12.057897        6.703768       10.422490
     10       H        0.765187        0.733437        4.592482
     11       H        0.748528        0.700318        4.378597
     12       H        0.732227        0.737038        4.924316
     13       H        2.236218        2.842089        1.368227
     14       H        0.705510        0.748123        4.962394
     15       H        4.415030        0.843286        1.182135
     16       H        0.737954        0.705367        4.957830
     17       H        1.149697        4.121028        1.172206
     18       H        0.700293        0.750769        4.926212
     19       H        4.393454        0.838771        1.202046
     20       H        0.738494        0.821538        4.269084
     21       H        8.034492        0.956186        0.507451

 **********************
 *                    *
 * JOB ENDED NORMALLY *
 *                    *
 **********************



 TOTAL JOB TIME:             1.98 SECONDS

 == MOPAC DONE ==
