 *******************************************************************************
 ** Site#: 14399        For non-commercial use only    Version 18.184L 64BITS **
 *******************************************************************************
 ** Cite this program as: MOPAC2016, Version: 18.184L, James J. P. Stewart,   **
 ** Stewart Computational Chemistry, web: HTTP://OpenMOPAC.net. Days left:  18**
 *******************************************************************************
 **                                                                           **
 **                                MOPAC2016                                  **
 **                                                                           **
 *******************************************************************************

                              PM3 CALCULATION RESULTS

 *******************************************************************************
 *  CALCULATION DONE:                                Sat Jun 15 10:30:38 2019  *
 *  PM3        - The PM3 Hamiltonian to be used
 *  PRECISE    - CRITERIA TO BE INCREASED BY 100 TIMES
 *  NOSYM      - POINT-GROUP SYMMETRY SET TO C1
 *  THREADS=1  - MULTI-THREADING NOT USED
 *  T=         - A TIME OF 172800.0 SECONDS REQUESTED
 *  DUMP=N     - RESTART FILE WRITTEN EVERY  7200.000 SECONDS
 *******************************************************************************
pm3  precise nosym THREADS=1
 InChI=1S/C7H10O4/c1-2-4-6-7(5-3-1)9-11-10-8-6/h2,4,6-7H,1,3,5H2

   ATOM   CHEMICAL          X               Y               Z
  NUMBER   SYMBOL      (ANGSTROMS)     (ANGSTROMS)     (ANGSTROMS)
 
     1       O          1.92800000  *  -1.67300000  *  -0.44730000  *
     2       O          2.56150000  *   0.84250000  *   0.12110000  *
     3       O          3.05970000  *  -1.19400000  *   0.04920000  *
     4       O          3.24600000  *  -0.04680000  *  -0.58410000  *
     5       C          0.87990000  *  -0.89590000  *   0.09550000  *
     6       C         -0.43000000  *  -1.33490000  *  -0.58210000  *
     7       C          1.19330000  *   0.60920000  *  -0.14240000  *
     8       C         -1.68980000  *  -0.72400000  *   0.04610000  *
     9       C         -1.81000000  *   0.78260000  *  -0.21240000  *
    10       C          0.38280000  *   1.49610000  *   0.77080000  *
    11       C         -0.95560000  *   1.57810000  *   0.73470000  *
    12       H          0.81310000  *  -1.10510000  *   1.18850000  *
    13       H         -2.57210000  *  -1.22280000  *  -0.41120000  *
    14       H         -1.72220000  *  -0.93910000  *   1.13720000  *
    15       H         -0.39560000  *  -1.10200000  *  -1.66930000  *
    16       H         -0.51210000  *  -2.44040000  *  -0.49190000  *
    17       H          0.98380000  *   0.88910000  *  -1.20000000  *
    18       H         -2.86880000  *   1.08210000  *  -0.05550000  *
    19       H         -1.55080000  *   1.02920000  *  -1.26490000  *
    20       H         -1.45090000  *   2.25450000  *   1.42550000  *
    21       H          0.90990000  *   2.11460000  *   1.49240000  *
 


          CARTESIAN COORDINATES 

    NO.       ATOM           X           Y           Z

     1         O          1.9280     -1.6730     -0.4473
     2         O          2.5615      0.8425      0.1211
     3         O          3.0597     -1.1940      0.0492
     4         O          3.2460     -0.0468     -0.5841
     5         C          0.8799     -0.8959      0.0955
     6         C         -0.4300     -1.3349     -0.5821
     7         C          1.1933      0.6092     -0.1424
     8         C         -1.6898     -0.7240      0.0461
     9         C         -1.8100      0.7826     -0.2124
    10         C          0.3828      1.4961      0.7708
    11         C         -0.9556      1.5781      0.7347
    12         H          0.8131     -1.1051      1.1885
    13         H         -2.5721     -1.2228     -0.4112
    14         H         -1.7222     -0.9391      1.1372
    15         H         -0.3956     -1.1020     -1.6693
    16         H         -0.5121     -2.4404     -0.4919
    17         H          0.9838      0.8891     -1.2000
    18         H         -2.8688      1.0821     -0.0555
    19         H         -1.5508      1.0292     -1.2649
    20         H         -1.4509      2.2545      1.4255
    21         H          0.9099      2.1146      1.4924

  H: (PM3): J. J. P. STEWART, J. COMP. CHEM. 10, 209 (1989).
  C: (PM3): J. J. P. STEWART, J. COMP. CHEM. 10, 209 (1989).
  O: (PM3): J. J. P. STEWART, J. COMP. CHEM. 10, 209 (1989).

           Empirical Formula: C7 H10 O4  =    21 atoms



      MOLECULAR POINT GROUP   :   C1  


      RHF CALCULATION, NO. OF DOUBLY OCCUPIED LEVELS = 31


          Geometry optimization using EF

          DIAGONAL MATRIX USED AS START HESSIAN

 CYCLE:     1 TIME:   0.008 TIME LEFT:  2.00D  GRAD.:   211.360 HEAT:  35.43574
 CYCLE:     2 TIME:   0.004 TIME LEFT:  2.00D  GRAD.:    80.241 HEAT:  23.17115
 CYCLE:     3 TIME:   0.012 TIME LEFT:  2.00D  GRAD.:    75.664 HEAT:  21.22201
 CYCLE:     4 TIME:   0.004 TIME LEFT:  2.00D  GRAD.:    44.253 HEAT:  18.74497
 CYCLE:     5 TIME:   0.008 TIME LEFT:  2.00D  GRAD.:    54.498 HEAT:  18.44343
 CYCLE:     6 TIME:   0.008 TIME LEFT:  2.00D  GRAD.:    48.313 HEAT:  17.87128
 CYCLE:     7 TIME:   0.008 TIME LEFT:  2.00D  GRAD.:    20.098 HEAT:  17.22376
 CYCLE:     8 TIME:   0.008 TIME LEFT:  2.00D  GRAD.:    18.389 HEAT:  17.10690
 CYCLE:     9 TIME:   0.004 TIME LEFT:  2.00D  GRAD.:    11.847 HEAT:  16.98382
 CYCLE:    10 TIME:   0.012 TIME LEFT:  2.00D  GRAD.:    10.765 HEAT:  16.92549
 CYCLE:    11 TIME:   0.008 TIME LEFT:  2.00D  GRAD.:     9.296 HEAT:  16.88766
 CYCLE:    12 TIME:   0.004 TIME LEFT:  2.00D  GRAD.:     7.042 HEAT:  16.84272
 CYCLE:    13 TIME:   0.008 TIME LEFT:  2.00D  GRAD.:     7.811 HEAT:  16.82557
 CYCLE:    14 TIME:   0.004 TIME LEFT:  2.00D  GRAD.:     6.804 HEAT:  16.80952
 CYCLE:    15 TIME:   0.008 TIME LEFT:  2.00D  GRAD.:     5.605 HEAT:  16.79488
 CYCLE:    16 TIME:   0.008 TIME LEFT:  2.00D  GRAD.:     4.474 HEAT:  16.78757
 CYCLE:    17 TIME:   0.004 TIME LEFT:  2.00D  GRAD.:     4.461 HEAT:  16.78359
 CYCLE:    18 TIME:   0.008 TIME LEFT:  2.00D  GRAD.:     3.971 HEAT:  16.77741
 CYCLE:    19 TIME:   0.004 TIME LEFT:  2.00D  GRAD.:     5.721 HEAT:  16.77829
 CYCLE:    20 TIME:   0.004 TIME LEFT:  2.00D  GRAD.:     3.225 HEAT:  16.76960
 CYCLE:    21 TIME:   0.004 TIME LEFT:  2.00D  GRAD.:     3.442 HEAT:  16.76655
 CYCLE:    22 TIME:   0.004 TIME LEFT:  2.00D  GRAD.:     2.581 HEAT:  16.76229
 CYCLE:    23 TIME:   0.004 TIME LEFT:  2.00D  GRAD.:     3.140 HEAT:  16.75971
 CYCLE:    24 TIME:   0.008 TIME LEFT:  2.00D  GRAD.:     1.926 HEAT:  16.75603
 CYCLE:    25 TIME:   0.004 TIME LEFT:  2.00D  GRAD.:     2.525 HEAT:  16.75444
 CYCLE:    26 TIME:   0.004 TIME LEFT:  2.00D  GRAD.:     1.401 HEAT:  16.75138
 CYCLE:    27 TIME:   0.008 TIME LEFT:  2.00D  GRAD.:     1.505 HEAT:  16.74851
 CYCLE:    28 TIME:   0.004 TIME LEFT:  2.00D  GRAD.:     1.469 HEAT:  16.74546
 CYCLE:    29 TIME:   0.004 TIME LEFT:  2.00D  GRAD.:     1.009 HEAT:  16.74292
 CYCLE:    30 TIME:   0.004 TIME LEFT:  2.00D  GRAD.:     1.011 HEAT:  16.74171
 CYCLE:    31 TIME:   0.008 TIME LEFT:  2.00D  GRAD.:     1.211 HEAT:  16.74036
 CYCLE:    32 TIME:   0.004 TIME LEFT:  2.00D  GRAD.:     1.011 HEAT:  16.73800
 CYCLE:    33 TIME:   0.004 TIME LEFT:  2.00D  GRAD.:     0.672 HEAT:  16.73610
 CYCLE:    34 TIME:   0.008 TIME LEFT:  2.00D  GRAD.:     0.564 HEAT:  16.73541
 CYCLE:    35 TIME:   0.004 TIME LEFT:  2.00D  GRAD.:     0.542 HEAT:  16.73482
 CYCLE:    36 TIME:   0.004 TIME LEFT:  2.00D  GRAD.:     0.580 HEAT:  16.73406
 CYCLE:    37 TIME:   0.004 TIME LEFT:  2.00D  GRAD.:     0.594 HEAT:  16.73338
 CYCLE:    38 TIME:   0.004 TIME LEFT:  2.00D  GRAD.:     0.548 HEAT:  16.73265
 CYCLE:    39 TIME:   0.008 TIME LEFT:  2.00D  GRAD.:     0.524 HEAT:  16.73208
 CYCLE:    40 TIME:   0.004 TIME LEFT:  2.00D  GRAD.:     0.504 HEAT:  16.73150
 CYCLE:    41 TIME:   0.004 TIME LEFT:  2.00D  GRAD.:     0.429 HEAT:  16.73099
 CYCLE:    42 TIME:   0.008 TIME LEFT:  2.00D  GRAD.:     0.369 HEAT:  16.73042
 CYCLE:    43 TIME:   0.004 TIME LEFT:  2.00D  GRAD.:     0.269 HEAT:  16.73011
 CYCLE:    44 TIME:   0.004 TIME LEFT:  2.00D  GRAD.:     0.186 HEAT:  16.72989
 CYCLE:    45 TIME:   0.004 TIME LEFT:  2.00D  GRAD.:     0.165 HEAT:  16.72984
 CYCLE:    46 TIME:   0.004 TIME LEFT:  2.00D  GRAD.:     0.158 HEAT:  16.72977
 CYCLE:    47 TIME:   0.008 TIME LEFT:  2.00D  GRAD.:     0.166 HEAT:  16.72971
 CYCLE:    48 TIME:   0.004 TIME LEFT:  2.00D  GRAD.:     0.154 HEAT:  16.72964
 CYCLE:    49 TIME:   0.004 TIME LEFT:  2.00D  GRAD.:     0.133 HEAT:  16.72959
 CYCLE:    50 TIME:   0.004 TIME LEFT:  2.00D  GRAD.:     0.113 HEAT:  16.72954
 CYCLE:    51 TIME:   0.008 TIME LEFT:  2.00D  GRAD.:     0.117 HEAT:  16.72950
 CYCLE:    52 TIME:   0.004 TIME LEFT:  2.00D  GRAD.:     0.124 HEAT:  16.72945
 CYCLE:    53 TIME:   0.004 TIME LEFT:  2.00D  GRAD.:     0.114 HEAT:  16.72940
 CYCLE:    54 TIME:   0.004 TIME LEFT:  2.00D  GRAD.:     0.091 HEAT:  16.72937
 CYCLE:    55 TIME:   0.004 TIME LEFT:  2.00D  GRAD.:     0.075 HEAT:  16.72935
 CYCLE:    56 TIME:   0.008 TIME LEFT:  2.00D  GRAD.:     0.069 HEAT:  16.72934
 CYCLE:    57 TIME:   0.004 TIME LEFT:  2.00D  GRAD.:     0.063 HEAT:  16.72933
 CYCLE:    58 TIME:   0.004 TIME LEFT:  2.00D  GRAD.:     0.049 HEAT:  16.72932

     GRADIENT =  0.04877  IS LESS THAN CUTOFF =  0.05000



 -------------------------------------------------------------------------------
 pm3  precise nosym THREADS=1
 InChI=1S/C7H10O4/c1-2-4-6-7(5-3-1)9-11-10-8-6/h2,4,6-7H,1,3,5H2



     GEOMETRY OPTIMISED USING EIGENVECTOR FOLLOWING (EF).     
     SCF FIELD WAS ACHIEVED                                   


                              PM3 CALCULATION
                                                       MOPAC2016 (Version: 18.184L)
                                                       Sat Jun 15 10:30:38 2019
                                                       No. of days remaining =  18




          FINAL HEAT OF FORMATION =         16.72932 KCAL/MOL =      69.99546 KJ/MOL


          TOTAL ENERGY            =      -2150.78397 EV
          ELECTRONIC ENERGY       =     -10971.23437 EV  POINT GROUP:     C1  
          CORE-CORE REPULSION     =       8820.45040 EV
          COSMO AREA              =        171.22 SQUARE ANGSTROMS
          COSMO VOLUME            =        178.42 CUBIC ANGSTROMS

          GRADIENT NORM           =          0.04877 = 0.01064 PER ATOM
          IONIZATION POTENTIAL    =         10.266897 EV
          HOMO LUMO ENERGIES (EV) =        -10.267 -0.148
          NO. OF FILLED LEVELS    =         31
          MOLECULAR WEIGHT        =        158.1536

          MOLECULAR DIMENSIONS (Angstroms)

            Atom       Atom       Distance
            H    18    O     3     6.52437
            H    21    H    16     5.20061
            H    14    H    17     3.23444


          SCF CALCULATIONS        =         67
 
          WALL-CLOCK TIME         =          0.328 SECONDS
          COMPUTATION TIME        =          0.303 SECONDS




   ATOM   CHEMICAL          X               Y               Z
  NUMBER   SYMBOL      (ANGSTROMS)     (ANGSTROMS)     (ANGSTROMS)
 
     1       O          1.84780533  *  -1.71363823  *  -0.43713343  *
     2       O          2.51861945  *   0.90883786  *   0.13692092  *
     3       O          3.22589303  *  -1.19157911  *   0.09373087  *
     4       O          3.39256109  *  -0.13594283  *  -0.63330539  *
     5       C          0.83853509  *  -0.88499186  *   0.10414471  *
     6       C         -0.45257098  *  -1.31179904  *  -0.61018401  *
     7       C          1.16199910  *   0.62395721  *  -0.14995839  *
     8       C         -1.69509120  *  -0.72485921  *   0.03882963  *
     9       C         -1.83603346  *   0.77635731  *  -0.17697859  *
    10       C          0.36296609  *   1.50548588  *   0.76258828  *
    11       C         -0.96911584  *   1.56814237  *   0.73650568  *
    12       H          0.76218201  *  -1.07691692  *   1.20169289  *
    13       H         -2.58410425  *  -1.23236767  *  -0.38587913  *
    14       H         -1.70798964  *  -0.95495733  *   1.12280108  *
    15       H         -0.41000596  *  -1.02815470  *  -1.68219994  *
    16       H         -0.53062853  *  -2.41863167  *  -0.59780184  *
    17       H          0.95734442  *   0.88901541  *  -1.21772227  *
    18       H         -2.89325198  *   1.06885070  *  -0.02408234  *
    19       H         -1.60254335  *   1.04030381  *  -1.22971848  *
    20       H         -1.48672976  *   2.24614097  *   1.42582405  *
    21       H          0.92633116  *   2.12808847  *   1.47110320  *

                             CARTESIAN COORDINATES

   1    O        1.847805330    -1.713638228    -0.437133435
   2    O        2.518619448     0.908837863     0.136920919
   3    O        3.225893032    -1.191579106     0.093730869
   4    O        3.392561093    -0.135942831    -0.633305388
   5    C        0.838535093    -0.884991863     0.104144711
   6    C       -0.452570975    -1.311799039    -0.610184011
   7    C        1.161999096     0.623957211    -0.149958390
   8    C       -1.695091201    -0.724859214     0.038829627
   9    C       -1.836033462     0.776357309    -0.176978592
  10    C        0.362966087     1.505485875     0.762588283
  11    C       -0.969115842     1.568142367     0.736505677
  12    H        0.762182010    -1.076916923     1.201692891
  13    H       -2.584104250    -1.232367668    -0.385879131
  14    H       -1.707989636    -0.954957330     1.122801084
  15    H       -0.410005960    -1.028154696    -1.682199941
  16    H       -0.530628532    -2.418631673    -0.597801841
  17    H        0.957344416     0.889015410    -1.217722273
  18    H       -2.893251976     1.068850699    -0.024082336
  19    H       -1.602543351     1.040303809    -1.229718479
  20    H       -1.486729758     2.246140969     1.425824050
  21    H        0.926331160     2.128088474     1.471103199


           Empirical Formula: C7 H10 O4  =    21 atoms



      MOLECULAR POINT GROUP   :   C1  


                  EIGENVALUES  
 -41.43466 -35.99445 -34.88568 -34.77859 -31.59903 -30.58261 -28.96894 -24.09352
 -23.18748 -21.02446 -19.70450 -18.86447 -18.35137 -17.91599 -17.82800 -16.53616
 -16.18694 -15.76766 -15.43978 -15.24508 -14.68295 -14.21920 -13.13161 -12.92075
 -12.72288 -12.47605 -12.35641 -11.97458 -11.81400 -11.40844 -10.26690  -0.14831
   0.10428   0.57235   2.47659   2.97023   3.09231   3.10831   3.23899   3.30809
   3.42841   3.43296   3.57700   3.74183   3.77020   3.90771   4.06399   4.27817
   4.32098   4.53372   4.63595   4.79084   5.20225   5.46111


              NET ATOMIC CHARGES AND DIPOLE CONTRIBUTIONS

  ATOM NO.   TYPE          CHARGE      No. of ELECS.   s-Pop       p-Pop       
    1          O          -0.176020        6.1760     1.91558     4.26044
    2          O          -0.172598        6.1726     1.91603     4.25657
    3          O           0.031241        5.9688     1.94165     4.02711
    4          O           0.031371        5.9686     1.94146     4.02717
    5          C           0.031275        3.9687     1.18924     2.77948
    6          C          -0.104498        4.1045     1.16457     2.93993
    7          C           0.066000        3.9340     1.17402     2.75998
    8          C          -0.090452        4.0905     1.15939     2.93106
    9          C          -0.070413        4.0704     1.14909     2.92132
   10          C          -0.158323        4.1583     1.19634     2.96199
   11          C          -0.124342        4.1243     1.19515     2.92919
   12          H           0.075129        0.9249     0.92487
   13          H           0.054111        0.9459     0.94589
   14          H           0.059941        0.9401     0.94006
   15          H           0.065761        0.9342     0.93424
   16          H           0.067057        0.9329     0.93294
   17          H           0.076323        0.9237     0.92368
   18          H           0.055375        0.9446     0.94463
   19          H           0.062379        0.9376     0.93762
   20          H           0.101145        0.8989     0.89886
   21          H           0.119539        0.8805     0.88046
 DIPOLE           X         Y         Z       TOTAL
 POINT-CHG.    -2.551     0.338     0.121     2.576
 HYBRID        -0.285     0.107     0.045     0.307
 SUM           -2.836     0.445     0.166     2.875


          ATOMIC ORBITAL ELECTRON POPULATIONS

     Atom    s        px        py        pz   
    1  O   1.91558   1.08919   1.48452   1.68674
    2  O   1.91603   1.16616   1.42937   1.66104
    3  O   1.94165   1.24256   1.28007   1.50449
    4  O   1.94146   1.57935   1.08593   1.36188
    5  C   1.18924   0.88681   0.90295   0.98972
    6  C   1.16457   0.92833   1.01567   0.99594
    7  C   1.17402   0.83652   0.93551   0.98795
    8  C   1.15939   0.96916   0.94982   1.01208
    9  C   1.14909   0.98815   0.94418   0.98899
   10  C   1.19634   0.95580   1.00363   1.00256
   11  C   1.19515   0.95008   0.98962   0.98949
   12  H   0.92487
   13  H   0.94589
   14  H   0.94006
   15  H   0.93424
   16  H   0.93294
   17  H   0.92368
   18  H   0.94463
   19  H   0.93762
   20  H   0.89886
   21  H   0.88046
 *******************************************************************************
 ** Site#: 14399        For non-commercial use only    Version 18.184L 64BITS **
 *******************************************************************************
 ** Cite this program as: MOPAC2016, Version: 18.184L, James J. P. Stewart,   **
 ** Stewart Computational Chemistry, web: HTTP://OpenMOPAC.net. Days left:  18**
 *******************************************************************************
 **                                                                           **
 **                                MOPAC2016                                  **
 **                                                                           **
 *******************************************************************************

                              PM3 CALCULATION RESULTS

 *******************************************************************************
 *  CALCULATION DONE:                                Sat Jun 15 10:30:38 2019  *
 *  PM3        - The PM3 Hamiltonian to be used
 *  OLDGEO     - PREVIOUS GEOMETRY TO BE USED
 *  PRECISE    - CRITERIA TO BE INCREASED BY 100 TIMES
 *  NOSYM      - POINT-GROUP SYMMETRY SET TO C1
 *  THREADS=1  - MULTI-THREADING NOT USED
 *  T=         - A TIME OF 172800.0 SECONDS REQUESTED
 *  DUMP=N     - RESTART FILE WRITTEN EVERY  7200.000 SECONDS
 *  THERMO     - THERMODYNAMIC QUANTITIES TO BE CALCULATED
 *******************************************************************************
oldgeo thermo nosym precise THREADS=1  pm3
 InChI=1S/C7H10O4/c1-2-4-6-7(5-3-1)9-11-10-8-6/h2,4,6-7H,1,3,5H2

   ATOM   CHEMICAL          X               Y               Z
  NUMBER   SYMBOL      (ANGSTROMS)     (ANGSTROMS)     (ANGSTROMS)
 
     1       O          1.84780533  *  -1.71363823  *  -0.43713343  *
     2       O          2.51861945  *   0.90883786  *   0.13692092  *
     3       O          3.22589303  *  -1.19157911  *   0.09373087  *
     4       O          3.39256109  *  -0.13594283  *  -0.63330539  *
     5       C          0.83853509  *  -0.88499186  *   0.10414471  *
     6       C         -0.45257098  *  -1.31179904  *  -0.61018401  *
     7       C          1.16199910  *   0.62395721  *  -0.14995839  *
     8       C         -1.69509120  *  -0.72485921  *   0.03882963  *
     9       C         -1.83603346  *   0.77635731  *  -0.17697859  *
    10       C          0.36296609  *   1.50548588  *   0.76258828  *
    11       C         -0.96911584  *   1.56814237  *   0.73650568  *
    12       H          0.76218201  *  -1.07691692  *   1.20169289  *
    13       H         -2.58410425  *  -1.23236767  *  -0.38587913  *
    14       H         -1.70798964  *  -0.95495733  *   1.12280108  *
    15       H         -0.41000596  *  -1.02815470  *  -1.68219994  *
    16       H         -0.53062853  *  -2.41863167  *  -0.59780184  *
    17       H          0.95734442  *   0.88901541  *  -1.21772227  *
    18       H         -2.89325198  *   1.06885070  *  -0.02408234  *
    19       H         -1.60254335  *   1.04030381  *  -1.22971848  *
    20       H         -1.48672976  *   2.24614097  *   1.42582405  *
    21       H          0.92633116  *   2.12808847  *   1.47110320  *
 


          CARTESIAN COORDINATES 

    NO.       ATOM           X           Y           Z

     1         O          1.8478     -1.7136     -0.4371
     2         O          2.5186      0.9088      0.1369
     3         O          3.2259     -1.1916      0.0937
     4         O          3.3926     -0.1359     -0.6333
     5         C          0.8385     -0.8850      0.1041
     6         C         -0.4526     -1.3118     -0.6102
     7         C          1.1620      0.6240     -0.1500
     8         C         -1.6951     -0.7249      0.0388
     9         C         -1.8360      0.7764     -0.1770
    10         C          0.3630      1.5055      0.7626
    11         C         -0.9691      1.5681      0.7365
    12         H          0.7622     -1.0769      1.2017
    13         H         -2.5841     -1.2324     -0.3859
    14         H         -1.7080     -0.9550      1.1228
    15         H         -0.4100     -1.0282     -1.6822
    16         H         -0.5306     -2.4186     -0.5978
    17         H          0.9573      0.8890     -1.2177
    18         H         -2.8933      1.0689     -0.0241
    19         H         -1.6025      1.0403     -1.2297
    20         H         -1.4867      2.2461      1.4258
    21         H          0.9263      2.1281      1.4711

  H: (PM3): J. J. P. STEWART, J. COMP. CHEM. 10, 209 (1989).
  C: (PM3): J. J. P. STEWART, J. COMP. CHEM. 10, 209 (1989).
  O: (PM3): J. J. P. STEWART, J. COMP. CHEM. 10, 209 (1989).

           Empirical Formula: C7 H10 O4  =    21 atoms



      MOLECULAR POINT GROUP   :   C1  


      RHF CALCULATION, NO. OF DOUBLY OCCUPIED LEVELS = 31



          HEAT OF FORMATION =      16.729318 KCALS/MOLE


          CARTESIAN COORDINATE DERIVATIVES

   NUMBER  ATOM         X            Y            Z

     1       O     -0.002762    -0.000213     0.008819
     2       O      0.007466    -0.003759     0.008037
     3       O      0.002164    -0.003442     0.011396
     4       O     -0.016468     0.011867    -0.008292
     5       C     -0.003635     0.005420    -0.002935
     6       C     -0.010388     0.008652     0.001604
     7       C      0.004623    -0.009811    -0.006584
     8       C      0.006634     0.006807     0.001094
     9       C      0.006244     0.005325     0.002508
    10       C      0.000250    -0.003030     0.002769
    11       C      0.006352    -0.003830    -0.002461
    12       H      0.006837    -0.005155    -0.001728
    13       H      0.003220    -0.000393    -0.002183
    14       H      0.004970    -0.010118    -0.005532
    15       H      0.004361     0.007753    -0.002085
    16       H     -0.014346     0.011431     0.005547
    17       H     -0.003914     0.008037    -0.000956
    18       H     -0.004918    -0.007871     0.005631
    19       H      0.005077    -0.019571    -0.000712
    20       H     -0.000490     0.003189    -0.008296
    21       H     -0.001280    -0.001288    -0.005640
 


          GRADIENT NORM =   0.05395


          TIME FOR SCF CALCULATION =    0.00

          TIME FOR DERIVATIVES     =    0.00

          MOLECULAR WEIGHT =  158.15



          ROTATIONAL CONSTANTS IN CM(-1)

          A =    0.07297275   B =    0.02912835   C =    0.02231773



           PRINCIPAL MOMENTS OF INERTIA IN UNITS OF 10**(-40)*GRAM-CM**2

          A =      383.6059   B =      961.0147   C =     1254.2841


          ORIENTATION OF MOLECULE IN FORCE CALCULATION

    NO.       ATOM         X         Y         Z

     1          O      -1.3802    1.2729    0.4901
     2          O       1.3869    1.2729    0.4901
     3          O      -0.4412    2.5266    0.4901
     4          O       0.4489    2.1749    1.3590
     5          C      -0.7272    0.2487   -0.2330
     6          C      -1.5929   -1.0023   -0.0211
     7          C       0.7286    0.0347    0.2971
     8          C      -1.2032   -2.1408   -0.9494
     9          C       0.1406   -2.7684   -0.6025
    10          C       1.5596   -0.7126   -0.7025
    11          C       1.2907   -1.9603   -1.0896
    12          H      -0.6999    0.5291   -1.3137
    13          H      -1.9878   -2.9215   -0.8934
    14          H      -1.1995   -1.7945   -2.0021
    15          H      -1.5362   -1.3339    1.0364
    16          H      -2.6582   -0.7459   -0.1961
    17          H       0.7086   -0.5171    1.2704
    18          H       0.1932   -3.7834   -1.0426
    19          H       0.2290   -2.9138    0.4946
    20          H       1.9507   -2.4495   -1.8161
    21          H       2.4332   -0.1884   -1.1136


    FIRST DERIVATIVES WILL BE USED IN THE CALCULATION OF SECOND DERIVATIVES

          ESTIMATED TIME TO COMPLETE CALCULATION =        1.97 SECONDS

    FOR POINT-GROUP C1   THERE ARE   1 UNIQUE SYMMETRY FUNCTIONS.

 STEP:   1 TIME =     0.02 SECS, INTEGRAL =      0.02 TIME LEFT: 172799.97
 STEP:   2 TIME =     0.02 SECS, INTEGRAL =      0.05 TIME LEFT: 172799.95
 STEP:   3 TIME =     0.02 SECS, INTEGRAL =      0.07 TIME LEFT: 172799.93
 STEP:   4 TIME =     0.02 SECS, INTEGRAL =      0.09 TIME LEFT: 172799.90
 STEP:   5 TIME =     0.02 SECS, INTEGRAL =      0.11 TIME LEFT: 172799.88
 STEP:   6 TIME =     0.02 SECS, INTEGRAL =      0.14 TIME LEFT: 172799.86
 STEP:   7 TIME =     0.02 SECS, INTEGRAL =      0.16 TIME LEFT: 172799.84
 STEP:   8 TIME =     0.02 SECS, INTEGRAL =      0.18 TIME LEFT: 172799.82
 STEP:   9 TIME =     0.02 SECS, INTEGRAL =      0.20 TIME LEFT: 172799.79
 STEP:  10 TIME =     0.02 SECS, INTEGRAL =      0.22 TIME LEFT: 172799.77
 STEP:  11 TIME =     0.02 SECS, INTEGRAL =      0.25 TIME LEFT: 172799.75
 STEP:  12 TIME =     0.02 SECS, INTEGRAL =      0.27 TIME LEFT: 172799.73
 STEP:  13 TIME =     0.02 SECS, INTEGRAL =      0.29 TIME LEFT: 172799.70
 STEP:  14 TIME =     0.02 SECS, INTEGRAL =      0.31 TIME LEFT: 172799.68
 STEP:  15 TIME =     0.02 SECS, INTEGRAL =      0.33 TIME LEFT: 172799.66
 STEP:  16 TIME =     0.02 SECS, INTEGRAL =      0.35 TIME LEFT: 172799.64
 STEP:  17 TIME =     0.02 SECS, INTEGRAL =      0.37 TIME LEFT: 172799.62
 STEP:  18 TIME =     0.02 SECS, INTEGRAL =      0.39 TIME LEFT: 172799.60
 STEP:  19 TIME =     0.02 SECS, INTEGRAL =      0.41 TIME LEFT: 172799.58
 STEP:  20 TIME =     0.02 SECS, INTEGRAL =      0.44 TIME LEFT: 172799.55
 STEP:  21 TIME =     0.02 SECS, INTEGRAL =      0.46 TIME LEFT: 172799.54
 STEP:  22 TIME =     0.02 SECS, INTEGRAL =      0.48 TIME LEFT: 172799.51
 STEP:  23 TIME =     0.02 SECS, INTEGRAL =      0.50 TIME LEFT: 172799.49
 STEP:  24 TIME =     0.02 SECS, INTEGRAL =      0.52 TIME LEFT: 172799.47
 STEP:  25 TIME =     0.02 SECS, INTEGRAL =      0.54 TIME LEFT: 172799.45
 STEP:  26 TIME =     0.02 SECS, INTEGRAL =      0.57 TIME LEFT: 172799.43
 STEP:  27 TIME =     0.02 SECS, INTEGRAL =      0.59 TIME LEFT: 172799.41
 STEP:  28 TIME =     0.02 SECS, INTEGRAL =      0.61 TIME LEFT: 172799.38
 STEP:  29 TIME =     0.02 SECS, INTEGRAL =      0.63 TIME LEFT: 172799.36
 STEP:  30 TIME =     0.02 SECS, INTEGRAL =      0.65 TIME LEFT: 172799.34
 STEP:  31 TIME =     0.02 SECS, INTEGRAL =      0.67 TIME LEFT: 172799.32
 STEP:  32 TIME =     0.02 SECS, INTEGRAL =      0.70 TIME LEFT: 172799.30
 STEP:  33 TIME =     0.02 SECS, INTEGRAL =      0.71 TIME LEFT: 172799.28
 STEP:  34 TIME =     0.02 SECS, INTEGRAL =      0.74 TIME LEFT: 172799.25
 STEP:  35 TIME =     0.02 SECS, INTEGRAL =      0.76 TIME LEFT: 172799.23
 STEP:  36 TIME =     0.02 SECS, INTEGRAL =      0.78 TIME LEFT: 172799.21
 STEP:  37 TIME =     0.02 SECS, INTEGRAL =      0.80 TIME LEFT: 172799.20
 STEP:  38 TIME =     0.02 SECS, INTEGRAL =      0.82 TIME LEFT: 172799.18
 STEP:  39 TIME =     0.02 SECS, INTEGRAL =      0.84 TIME LEFT: 172799.15
 STEP:  40 TIME =     0.02 SECS, INTEGRAL =      0.86 TIME LEFT: 172799.13
 STEP:  41 TIME =     0.02 SECS, INTEGRAL =      0.88 TIME LEFT: 172799.11
 STEP:  42 TIME =     0.02 SECS, INTEGRAL =      0.90 TIME LEFT: 172799.09
 STEP:  43 TIME =     0.02 SECS, INTEGRAL =      0.93 TIME LEFT: 172799.07
 STEP:  44 TIME =     0.02 SECS, INTEGRAL =      0.95 TIME LEFT: 172799.04
 STEP:  45 TIME =     0.02 SECS, INTEGRAL =      0.97 TIME LEFT: 172799.02
 STEP:  46 TIME =     0.02 SECS, INTEGRAL =      0.99 TIME LEFT: 172799.00
 STEP:  47 TIME =     0.02 SECS, INTEGRAL =      1.02 TIME LEFT: 172798.98
 STEP:  48 TIME =     0.02 SECS, INTEGRAL =      1.04 TIME LEFT: 172798.95
 STEP:  49 TIME =     0.02 SECS, INTEGRAL =      1.06 TIME LEFT: 172798.93
 STEP:  50 TIME =     0.02 SECS, INTEGRAL =      1.09 TIME LEFT: 172798.91
 STEP:  51 TIME =     0.02 SECS, INTEGRAL =      1.11 TIME LEFT: 172798.88
 STEP:  52 TIME =     0.02 SECS, INTEGRAL =      1.13 TIME LEFT: 172798.86
 STEP:  53 TIME =     0.02 SECS, INTEGRAL =      1.15 TIME LEFT: 172798.84
 STEP:  54 TIME =     0.02 SECS, INTEGRAL =      1.18 TIME LEFT: 172798.82
 STEP:  55 TIME =     0.02 SECS, INTEGRAL =      1.20 TIME LEFT: 172798.79
 STEP:  56 TIME =     0.02 SECS, INTEGRAL =      1.22 TIME LEFT: 172798.77
 STEP:  57 TIME =     0.02 SECS, INTEGRAL =      1.24 TIME LEFT: 172798.75
 STEP:  58 TIME =     0.02 SECS, INTEGRAL =      1.26 TIME LEFT: 172798.73
 STEP:  59 TIME =     0.02 SECS, INTEGRAL =      1.29 TIME LEFT: 172798.71
 STEP:  60 TIME =     0.02 SECS, INTEGRAL =      1.30 TIME LEFT: 172798.69
 STEP:  61 TIME =     0.02 SECS, INTEGRAL =      1.32 TIME LEFT: 172798.67
 STEP:  62 TIME =     0.02 SECS, INTEGRAL =      1.34 TIME LEFT: 172798.65
 STEP:  63 TIME =     0.02 SECS, INTEGRAL =      1.36 TIME LEFT: 172798.63

(To convert to Hartree/Bohr^2, multiply by (10^(-21) x N x a0^2)/(4.184 x 627.51) =  0.0642)


           FORCE MATRIX IN MILLIDYNES/ANGSTROM


                  O  1       O  2       O  3       O  4       C  5       C  6
 ------------------------------------------------------------------------------
     O    1   7.104770
     O    2   0.149204   7.100126
     O    3   2.065207   1.397778   6.321044
     O    4   1.396611   2.055822   4.974272   6.315993
     C    5   4.928138   0.815357   1.029196   0.198409  14.055111
     C    6   0.903073   0.071983   0.117460   0.027838   3.656005  14.127470
     C    7   0.834910   4.926894   0.199108   1.007530   2.842764   0.538466
     C    8   0.068854   0.007940   0.022840   0.006978   0.611780   4.175701
     C    9   0.006065   0.006495   0.002821   0.002642   0.038048   0.617223
     C   10   0.070273   0.945962   0.031502   0.122853   0.584366   0.028743
     C   11   0.007829   0.078952   0.006332   0.023718   0.045576   0.025301
     H   12   0.426556   0.021218   0.038741   0.012724   4.188436   0.422337
     H   13   0.012307   0.001526   0.004709   0.001265   0.052308   0.425455
     H   14   0.002960   0.000993   0.002190   0.001390   0.029718   0.445223
     H   15   0.049754   0.004907   0.004212   0.003085   0.459044   4.419316
     H   16   0.100827   0.012037   0.005551   0.005014   0.456925   4.443639
     H   17   0.020390   0.424650   0.012870   0.038699   0.442812   0.037013
     H   18   0.000642   0.001325   0.000600   0.000615   0.003205   0.048448
     H   19   0.001047   0.002560   0.001304   0.001728   0.006784   0.034032
     H   20   0.003257   0.009779   0.002360   0.004274   0.014168   0.000764
     H   21   0.008141   0.096421   0.006646   0.007926   0.022655   0.001145


                  C  7       C  8       C  9       C 10       C 11       H 12
 ------------------------------------------------------------------------------
     C    7  14.487237
     C    8   0.042078  14.245318
     C    9   0.110913   4.059786  14.588566
     C   10   4.529914   0.038872   0.780739  18.065979
     C   11   0.806343   0.666444   4.963692  10.664908  18.062989
     H   12   0.437467   0.027442   0.003175   0.031570   0.004876   4.613403
     H   13   0.004533   4.467170   0.432377   0.003548   0.047510   0.001876
     H   14   0.004103   4.461888   0.442701   0.004781   0.030867   0.025909
     H   15   0.034000   0.443987   0.027414   0.001994   0.002839   0.041049
     H   16   0.042731   0.429961   0.049873   0.002036   0.002604   0.019154
     H   17   4.102791   0.006379   0.023159   0.405917   0.027746   0.040204
     H   18   0.003101   0.431068   4.492183   0.051621   0.437066   0.000333
     H   19   0.026721   0.453661   4.378629   0.026654   0.424527   0.000896
     H   20   0.125444   0.026216   0.432817   0.434265   4.809145   0.000587
     H   21   0.470241   0.014527   0.121252   4.767930   0.439486   0.002140


                  H 13       H 14       H 15       H 16       H 17       H 18
 ------------------------------------------------------------------------------
     H   13   5.056097
     H   14   0.566587   5.077914
     H   15   0.026404   0.044143   5.048916
     H   16   0.039810   0.025194   0.562947   5.054337
     H   17   0.000652   0.000926   0.029307   0.001916   4.521331
     H   18   0.037207   0.018698   0.002539   0.007708   0.000658   5.063584
     H   19   0.017670   0.043735   0.029487   0.002725   0.015546   0.567450
     H   20   0.003872   0.002856   0.000406   0.000444   0.011847   0.033141
     H   21   0.002383   0.000898   0.000470   0.000397   0.022292   0.005986


                  H 19       H 20       H 21
 ------------------------------------------
     H   19   4.988731
     H   20   0.024758   5.155306
     H   21   0.012269   0.074975   5.140943


          HEAT OF FORMATION =      16.729318 KCALS/MOLE

          ZERO POINT ENERGY     102.793 KCAL/MOL


           NORMAL COORDINATE ANALYSIS (Total motion = 1 Angstrom)


   Root No.       1         2         3         4         5         6         7         8

                 1 A       2 A       3 A       4 A       5 A       6 A       7 A       8 A   

                 104.0     108.0     175.2     267.9     292.2     313.6     340.2     386.5
  
           1    0.0040   -0.0024    0.0116    0.0185    0.0068    0.0021    0.0170    0.0373
           2   -0.0212   -0.0029   -0.0170   -0.0259   -0.0142   -0.0064    0.0023    0.0005
           3    0.0542    0.0100    0.0541   -0.0019   -0.0047    0.0062    0.0363    0.0269
           4   -0.0041   -0.0066    0.0096    0.0055    0.0096    0.0297   -0.0052   -0.0198
           5    0.0202    0.0112   -0.0268    0.0233    0.0063   -0.0025   -0.0099    0.0678
           6   -0.0437   -0.0429    0.0363   -0.0075    0.0070    0.0402    0.0121    0.0024
           7   -0.0242   -0.0074    0.0035   -0.0216   -0.0224   -0.0323   -0.0136    0.0518
           8   -0.0001    0.0016   -0.0130   -0.0071   -0.0161    0.0309   -0.0115   -0.0343
           9    0.0023    0.0517   -0.0370    0.0083   -0.0140    0.0241   -0.0225   -0.0523
          10    0.0185    0.0144    0.0091   -0.0073   -0.0333   -0.0236   -0.0261   -0.0166
          11    0.0297   -0.0272    0.0311    0.0057   -0.0192    0.0509   -0.0220   -0.0336
          12   -0.0284    0.0184   -0.0242    0.0019   -0.0002    0.0036   -0.0021    0.0399
          13   -0.0015   -0.0065   -0.0089    0.0351    0.0230    0.0234   -0.0043    0.0043
          14   -0.0021    0.0154   -0.0018   -0.0121   -0.0089    0.0245    0.0204   -0.0027
          15    0.0201   -0.0225    0.0145   -0.0074    0.0067   -0.0174   -0.0179   -0.0030
          16    0.0016   -0.0132   -0.0255   -0.0076    0.0129    0.0441   -0.0079    0.0178
          17   -0.0073    0.0161    0.0015    0.0140    0.0050    0.0075    0.0334   -0.0164
          18   -0.0080   -0.0417   -0.0362   -0.0286    0.0248   -0.0169    0.0033   -0.0184
          19    0.0024   -0.0040   -0.0080    0.0296    0.0315    0.0169   -0.0024    0.0042
          20    0.0060    0.0083   -0.0139    0.0036   -0.0023    0.0142   -0.0028    0.0424
          21    0.0097   -0.0327    0.0094    0.0172   -0.0063   -0.0158   -0.0363   -0.0016
          22    0.0013    0.0167    0.0120   -0.0331   -0.0015    0.0066   -0.0094   -0.0084
          23    0.0213   -0.0040   -0.0047   -0.0263    0.0414   -0.0188    0.0127   -0.0275
          24   -0.0427   -0.0041   -0.0139    0.0150   -0.0198   -0.0005    0.0332   -0.0198
          25   -0.0193    0.0058    0.0114   -0.0137   -0.0218   -0.0108    0.0030   -0.0168
          26   -0.0127    0.0033    0.0161    0.0123    0.0239   -0.0560    0.0084   -0.0321
          27   -0.0265    0.0539    0.0297   -0.0022    0.0292   -0.0038   -0.0199    0.0005
          28    0.0116   -0.0027   -0.0139    0.0259    0.0146   -0.0300    0.0259   -0.0373
          29   -0.0232   -0.0028    0.0160   -0.0056   -0.0061   -0.0180   -0.0050    0.0304
          30    0.0400   -0.0225   -0.0195    0.0226   -0.0210   -0.0368   -0.0109   -0.0112
          31    0.0091    0.0083   -0.0040   -0.0237   -0.0110   -0.0195    0.0333   -0.0281
          32   -0.0197   -0.0191    0.0123    0.0178   -0.0078   -0.0368   -0.0140    0.0110
          33    0.0312    0.0223   -0.0133   -0.0190   -0.0024    0.0064    0.0123    0.0412
          34   -0.0085   -0.0125   -0.0066    0.0588    0.0202    0.0180   -0.0292   -0.0118
          35    0.0236    0.0390    0.0308   -0.0063   -0.0160    0.0424    0.0406    0.0067
          36    0.0263   -0.0161    0.0225   -0.0054    0.0042   -0.0122   -0.0123   -0.0013
          37   -0.0138    0.0137    0.0183   -0.0212   -0.0189   -0.0194   -0.0004   -0.0213
          38    0.0331   -0.0015   -0.0118   -0.0335    0.0554    0.0084    0.0064   -0.0144
          39   -0.0929   -0.0129   -0.0271    0.0935   -0.0905    0.0198    0.0901   -0.0177
          40    0.0353    0.0518    0.0373   -0.0818    0.0497    0.0102   -0.0562    0.0021
          41    0.0604   -0.0264   -0.0156   -0.0840    0.0891   -0.0368   -0.0171   -0.0355
          42   -0.0298   -0.0113   -0.0174   -0.0034   -0.0043   -0.0063    0.0236   -0.0222
          43    0.0071   -0.0558   -0.0855   -0.0570    0.0468    0.0629   -0.0169    0.0300
          44   -0.0365    0.0333   -0.0002    0.0317   -0.0175    0.0164    0.0581   -0.0256
          45   -0.0175   -0.0339   -0.0337   -0.0203    0.0163   -0.0143    0.0118   -0.0218
          46    0.0006   -0.0055   -0.0131    0.0075    0.0078    0.0399   -0.0061    0.0171
          47   -0.0031    0.0165    0.0125    0.0510    0.0133    0.0026    0.0338   -0.0107
          48    0.0041   -0.0885   -0.0950   -0.0729    0.0686   -0.0003   -0.0110   -0.0035
          49    0.0088   -0.0043   -0.0091    0.0276    0.0474    0.0105   -0.0165    0.0252
          50    0.0385    0.0142   -0.0358    0.0206   -0.0095   -0.0053   -0.0238    0.0513
          51    0.0282   -0.0288   -0.0036    0.0260   -0.0101   -0.0270   -0.0469    0.0036
          52   -0.0254    0.0099    0.0244   -0.0001   -0.0320   -0.0205   -0.0221    0.0115
          53    0.0002   -0.0205   -0.0063    0.0068    0.0006   -0.0433    0.0273   -0.0135
          54   -0.0572    0.1098    0.0839    0.0118    0.0836   -0.0350   -0.0683   -0.0400
          55   -0.0504   -0.0116    0.0062    0.0027   -0.0369   -0.0152    0.0155   -0.0459
          56   -0.0484    0.0619    0.0742    0.0297    0.0766   -0.0890   -0.0419   -0.0752
          57   -0.0289    0.0631    0.0378   -0.0009    0.0380   -0.0086   -0.0276   -0.0036
          58    0.0371    0.0064   -0.0264   -0.0543   -0.0385   -0.0159    0.0733   -0.0107
          59   -0.0263   -0.0429    0.0177    0.0280   -0.0293   -0.0375   -0.0477    0.0171
          60    0.0606    0.0370   -0.0366   -0.0539   -0.0125    0.0091    0.0710    0.0517
          61    0.0394   -0.0127   -0.0398    0.0464    0.0093   -0.0535    0.0490   -0.0652
          62   -0.0452   -0.0036    0.0393   -0.0252   -0.0143   -0.0221   -0.0180    0.0310
          63    0.0696   -0.0440   -0.0442    0.0415   -0.0405   -0.0908    0.0225   -0.0689


   Root No.       9        10        11        12        13        14        15        16

                 9 A      10 A      11 A      12 A      13 A      14 A      15 A      16 A   

                 407.5     448.7     463.2     521.7     547.4     608.4     627.8     675.6
  
           1    0.0196    0.0415   -0.0052   -0.0529    0.0143    0.0281   -0.0443   -0.0354
           2    0.0372   -0.0086    0.0056    0.0315    0.0208   -0.0104   -0.0723    0.0156
           3    0.0166    0.0111    0.0193    0.0158    0.0081    0.0060    0.0106    0.0017
           4   -0.0351   -0.0430    0.0013    0.0530   -0.0059    0.0287    0.0271   -0.0433
           5    0.0029   -0.0021   -0.0064    0.0126   -0.0239   -0.0170   -0.0470   -0.0171
           6   -0.0273    0.0009    0.0053    0.0031   -0.0082   -0.0008   -0.0621   -0.0032
           7   -0.0010    0.0332   -0.0073    0.0218   -0.0168   -0.0048    0.0727    0.0080
           8    0.0316    0.0443   -0.0161    0.0157    0.0335    0.0424    0.0096   -0.0153
           9   -0.0151    0.0043   -0.0076   -0.0094    0.0044    0.0086   -0.0015   -0.0038
          10   -0.0362   -0.0239    0.0094   -0.0299   -0.0032   -0.0183   -0.0672    0.0144
          11   -0.0235    0.0431   -0.0167   -0.0157   -0.0300   -0.0282    0.0193    0.0176
          12    0.0041    0.0325   -0.0086    0.0013   -0.0247   -0.0218    0.0162    0.0061
          13    0.0153   -0.0111   -0.0110   -0.0274    0.0145   -0.0103    0.0045    0.0033
          14    0.0107   -0.0175    0.0325    0.0125    0.0036   -0.0088    0.0155    0.0082
          15    0.0336   -0.0206   -0.0354    0.0471    0.0156   -0.0177   -0.0133    0.0196
          16    0.0063   -0.0045    0.0437   -0.0095    0.0286   -0.0252    0.0258    0.0241
          17    0.0190   -0.0295    0.0049   -0.0232   -0.0097   -0.0161    0.0261    0.0066
          18   -0.0065    0.0088   -0.0048   -0.0106   -0.0118    0.0086   -0.0110   -0.0125
          19    0.0051   -0.0111   -0.0227    0.0283   -0.0011    0.0001   -0.0015    0.0167
          20   -0.0283   -0.0117    0.0096    0.0270   -0.0212    0.0097   -0.0089   -0.0262
          21    0.0314   -0.0310   -0.0063   -0.0206    0.0215   -0.0181    0.0273   -0.0143
          22    0.0359   -0.0156    0.0081   -0.0109   -0.0259    0.0100    0.0029    0.0020
          23    0.0091   -0.0171   -0.0063   -0.0303   -0.0235   -0.0051    0.0237   -0.0056
          24    0.0115   -0.0172   -0.0050   -0.0171   -0.0266    0.0080    0.0114    0.0007
          25    0.0209   -0.0051    0.0023   -0.0017   -0.0084   -0.0008    0.0000   -0.0144
          26   -0.0300    0.0161   -0.0013    0.0010    0.0215   -0.0185    0.0190   -0.0156
          27   -0.0006    0.0058    0.0128   -0.0048   -0.0019    0.0123    0.0021    0.0188
          28   -0.0126    0.0294    0.0007    0.0271   -0.0073    0.0193   -0.0172    0.0652
          29   -0.0312   -0.0180   -0.0127   -0.0191    0.0232    0.0226    0.0114    0.0185
          30    0.0091   -0.0026    0.0367    0.0001   -0.0087    0.0129    0.0127   -0.0226
          31   -0.0072    0.0062   -0.0242    0.0020    0.0115   -0.0319    0.0021   -0.0276
          32   -0.0178   -0.0107    0.0113   -0.0113    0.0108    0.0354    0.0132    0.0235
          33   -0.0408   -0.0179   -0.0215   -0.0149    0.0278    0.0206    0.0162    0.0237
          34    0.0405   -0.0447   -0.0283   -0.0483    0.0325   -0.0406    0.0364    0.0132
          35    0.0214   -0.0238    0.0569    0.0199    0.0114   -0.0218    0.0578    0.0352
          36    0.0362   -0.0217   -0.0276    0.0491    0.0183   -0.0209   -0.0013    0.0268
          37    0.0210   -0.0037   -0.0020    0.0020   -0.0126    0.0004    0.0017   -0.0233
          38    0.0231   -0.0291    0.0057   -0.0425   -0.0328   -0.0003    0.0280    0.0193
          39   -0.0078   -0.0226    0.0139    0.0092    0.0492   -0.0821    0.0675   -0.0044
          40    0.0615   -0.0209    0.0063   -0.0309   -0.0807    0.0771   -0.0308    0.0321
          41    0.0151   -0.0107   -0.0229   -0.0504   -0.0719    0.0458   -0.0097   -0.0184
          42    0.0125   -0.0143   -0.0099   -0.0225   -0.0400    0.0225    0.0009   -0.0040
          43   -0.0539    0.0499    0.1284   -0.0311    0.0808   -0.0446    0.0585    0.0213
          44    0.0226   -0.0404    0.0112   -0.0464   -0.0380   -0.0048    0.0396    0.0005
          45   -0.0033    0.0031   -0.0048   -0.0176   -0.0216    0.0114   -0.0061   -0.0137
          46    0.0183   -0.0148    0.0227   -0.0067    0.0210   -0.0219    0.0166    0.0247
          47    0.0263   -0.0398   -0.0318   -0.0250   -0.0029   -0.0220    0.0122    0.0074
          48   -0.0704    0.0666    0.0752   -0.0297    0.0526   -0.0182    0.0167   -0.0162
          49    0.0238   -0.0186   -0.0704    0.0476    0.0165   -0.0288   -0.0162    0.0455
          50   -0.0109   -0.0195    0.0253    0.0278   -0.0321    0.0062    0.0222   -0.0830
          51    0.0401   -0.0346    0.0033   -0.0195    0.0158   -0.0196    0.0441   -0.0460
          52   -0.0028    0.0058    0.0144    0.0148    0.0270    0.0228   -0.0095    0.0062
          53   -0.0318   -0.0132   -0.0207   -0.0219    0.0114    0.0173    0.0346    0.0205
          54    0.0009    0.0763    0.0610    0.0506    0.0267   -0.0706   -0.0353   -0.0666
          55    0.0459   -0.0055    0.0145   -0.0016   -0.0429   -0.0037   -0.0037   -0.0344
          56   -0.0251    0.0867    0.0483    0.0585    0.0477   -0.1032   -0.0183   -0.1097
          57   -0.0030    0.0168    0.0193    0.0041    0.0059   -0.0010   -0.0030    0.0060
          58   -0.0483    0.0024   -0.0558    0.0071    0.0399   -0.0682   -0.0035   -0.0943
          59    0.0244   -0.0346    0.0396   -0.0311   -0.0082    0.0618    0.0318    0.0090
          60   -0.1062   -0.0048   -0.0687    0.0025    0.0667   -0.0305   -0.0006   -0.0283
          61   -0.0293    0.0662    0.0360    0.0798   -0.0395    0.0349   -0.0598    0.0781
          62   -0.0128   -0.0391   -0.0326   -0.0682    0.0521    0.0012    0.0441   -0.0060
          63   -0.0034    0.0511    0.0853    0.0495   -0.0408    0.0176   -0.0393   -0.0239


   Root No.      17        18        19        20        21        22        23        24

                17 A      18 A      19 A      20 A      21 A      22 A      23 A      24 A   

                 732.5     761.9     863.7     875.1     929.3     956.1     986.9    1029.6
  
           1    0.0604    0.0055   -0.0034    0.0088   -0.0037    0.0004    0.0013   -0.0034
           2    0.0944   -0.0016    0.0006   -0.0000    0.0078    0.0049   -0.0001   -0.0053
           3   -0.0069   -0.0052    0.0032   -0.0045    0.0043    0.0036   -0.0012   -0.0042
           4    0.0600   -0.0009    0.0024    0.0038    0.0017   -0.0018    0.0013   -0.0092
           5   -0.0616   -0.0147    0.0075    0.0045    0.0034    0.0019   -0.0032   -0.0062
           6   -0.0702   -0.0083   -0.0017    0.0028    0.0002   -0.0000    0.0009    0.0026
           7   -0.0463   -0.0001    0.0006   -0.0034   -0.0014   -0.0021    0.0002    0.0026
           8   -0.0903   -0.0054   -0.0005    0.0014    0.0011    0.0009    0.0007   -0.0025
           9    0.0025    0.0011   -0.0011    0.0007   -0.0024   -0.0008    0.0014    0.0002
          10   -0.0449   -0.0048    0.0002    0.0007    0.0012    0.0020   -0.0011    0.0006
          11    0.0634    0.0036    0.0002   -0.0002   -0.0005    0.0002   -0.0006    0.0008
          12    0.0645    0.0021    0.0005    0.0008    0.0029    0.0013   -0.0010   -0.0022
          13   -0.0127    0.0174   -0.0050   -0.0104    0.0063   -0.0214   -0.0005    0.0281
          14    0.0021   -0.0048    0.0125   -0.0128    0.0050    0.0065   -0.0158    0.0070
          15   -0.0006    0.0161   -0.0138    0.0096   -0.0080   -0.0236    0.0149    0.0198
          16   -0.0192    0.0242   -0.0383   -0.0113    0.0268   -0.0018    0.0052   -0.0158
          17   -0.0114   -0.0010    0.0125   -0.0036   -0.0269   -0.0124    0.0072    0.0148
          18    0.0035    0.0044   -0.0189   -0.0194   -0.0056    0.0042   -0.0110    0.0070
          19   -0.0046   -0.0127    0.0178    0.0010   -0.0053    0.0232   -0.0114   -0.0056
          20   -0.0043    0.0028   -0.0133   -0.0008   -0.0002   -0.0114    0.0088    0.0103
          21    0.0014   -0.0063    0.0270   -0.0003    0.0050    0.0222   -0.0118   -0.0338
          22   -0.0057    0.0117   -0.0174    0.0308   -0.0137    0.0312   -0.0068   -0.0006
          23   -0.0194   -0.0035   -0.0165    0.0276   -0.0234    0.0085    0.0086   -0.0068
          24   -0.0162    0.0080    0.0094   -0.0085    0.0178    0.0049    0.0005   -0.0102
          25    0.0082   -0.0053    0.0094    0.0022   -0.0127   -0.0119   -0.0013    0.0218
          26    0.0004   -0.0035   -0.0119    0.0248    0.0532    0.0009   -0.0134    0.0115
          27    0.0015   -0.0023    0.0110    0.0219    0.0209   -0.0215    0.0092   -0.0004
          28    0.0033   -0.0300    0.0008   -0.0161   -0.0029    0.0262    0.0202   -0.0054
          29    0.0100    0.0194    0.0056   -0.0081   -0.0164   -0.0072   -0.0009   -0.0240
          30    0.0129   -0.0176   -0.0118   -0.0071    0.0042    0.0101    0.0167    0.0266
          31    0.0006   -0.0336    0.0018   -0.0150    0.0060   -0.0402   -0.0031   -0.0302
          32    0.0169    0.0219    0.0046   -0.0051   -0.0080    0.0124    0.0100    0.0038
          33    0.0185   -0.0146   -0.0170   -0.0013   -0.0188   -0.0067   -0.0191    0.0016
          34   -0.0398    0.0208    0.0605   -0.0082    0.0027   -0.0279   -0.0395    0.0419
          35   -0.0324   -0.0099    0.0496   -0.0293    0.0299    0.0097   -0.0570    0.0421
          36   -0.0094    0.0130   -0.0010    0.0051   -0.0011   -0.0209    0.0021    0.0289
          37    0.0106   -0.0088   -0.0287    0.0746   -0.0099    0.0694   -0.0810    0.0771
          38   -0.0366    0.0161   -0.0091   -0.0103   -0.0360   -0.0281    0.0849   -0.0840
          39   -0.0340   -0.0198   -0.0842    0.1243   -0.1031    0.0445    0.0299   -0.0378
          40    0.0010    0.0400    0.0767   -0.0350    0.0701   -0.0274    0.0569   -0.0269
          41   -0.0153    0.0153    0.0136   -0.0917    0.0430    0.0116   -0.0682    0.0248
          42   -0.0144    0.0128    0.0186   -0.0457    0.0360    0.0056   -0.0244    0.0009
          43    0.0086   -0.0497    0.1207    0.0629   -0.0280   -0.0129    0.0122    0.0071
          44   -0.0293    0.0081    0.0153   -0.0637   -0.0045    0.0462   -0.0753   -0.0225
          45   -0.0043    0.0098   -0.0239   -0.0398    0.0024    0.0228   -0.0363   -0.0058
          46   -0.0233    0.0415   -0.0699   -0.0316    0.0414   -0.0152    0.0115   -0.0085
          47   -0.0158    0.0233   -0.0259   -0.0445   -0.0179   -0.1041    0.0621    0.0815
          48    0.0369   -0.0712    0.1362    0.0538   -0.0771   -0.0453    0.0249    0.0650
          49   -0.0392    0.0201    0.0470    0.0309   -0.0423    0.0024   -0.0457   -0.0074
          50    0.0266   -0.0213   -0.0159   -0.0014    0.0262    0.0047    0.0359   -0.0186
          51    0.0184   -0.0173    0.0242   -0.0004    0.0191    0.0295    0.0036   -0.0483
          52    0.0517    0.0058    0.0072   -0.0406   -0.0514   -0.0171   -0.0722    0.1546
          53    0.0105   -0.0154   -0.0022    0.0671    0.1116   -0.0228   -0.0179    0.0321
          54   -0.0172    0.0280   -0.0128   -0.0863   -0.1210    0.0319    0.0110   -0.0313
          55   -0.0179    0.0312    0.0667    0.0107    0.0397   -0.0047    0.0960    0.0324
          56   -0.0186    0.0330   -0.0360   -0.0883   -0.0785    0.0629   -0.0130   -0.0024
          57    0.0005    0.0009    0.0019    0.0048   -0.0041   -0.0119    0.0005   -0.0032
          58   -0.0262    0.1152    0.0640   -0.0329   -0.0009    0.0502    0.0622    0.0269
          59    0.0529   -0.0570   -0.0312   -0.0330   -0.0756   -0.0839   -0.0185   -0.0020
          60   -0.0298    0.1745    0.0631    0.0012    0.0198    0.1408    0.0598    0.0572
          61   -0.0304    0.1227    0.0286    0.0372   -0.0401   -0.0548   -0.0569   -0.0563
          62    0.0322   -0.0785   -0.0055   -0.0564    0.0133    0.0105    0.0656   -0.0390
          63   -0.0351    0.1816    0.0323    0.0478   -0.0348   -0.1370   -0.0650   -0.0948


   Root No.      25        26        27        28        29        30        31        32

                25 A      26 A      27 A      28 A      29 A      30 A      31 A      32 A   

                1049.5    1073.1    1079.4    1086.8    1097.9    1103.2    1121.9    1142.1
  
           1    0.0066    0.0022   -0.0040   -0.0338   -0.0014   -0.0092    0.0062    0.0042
           2   -0.0001    0.0057    0.0103   -0.0042    0.0042    0.0196   -0.0092    0.0055
           3   -0.0072    0.0015    0.0116    0.0244    0.0023    0.0214   -0.0085    0.0006
           4   -0.0033   -0.0005   -0.0173    0.0223   -0.0023    0.0052    0.0052    0.0068
           5   -0.0047    0.0085   -0.0216   -0.0036    0.0103    0.0186    0.0094    0.0107
           6    0.0003    0.0035    0.0088   -0.0163   -0.0010    0.0005   -0.0023    0.0008
           7   -0.0005    0.0075    0.0072   -0.0367    0.0079    0.0200   -0.0010    0.0024
           8   -0.0024   -0.0065   -0.0048    0.0445   -0.0073   -0.0156   -0.0003   -0.0020
           9    0.0017    0.0121    0.0096   -0.0557    0.0096    0.0228   -0.0005    0.0052
          10   -0.0006   -0.0075   -0.0039    0.0387   -0.0070   -0.0194   -0.0005   -0.0045
          11    0.0013    0.0039   -0.0005   -0.0078    0.0018    0.0046   -0.0005    0.0008
          12   -0.0018   -0.0132   -0.0127    0.0698   -0.0123   -0.0273    0.0006   -0.0050
          13    0.0023   -0.0245   -0.0063   -0.0004   -0.0025    0.0123    0.0009   -0.0102
          14   -0.0002   -0.0103   -0.0158   -0.0191    0.0134   -0.0032    0.0029   -0.0188
          15    0.0119   -0.0118   -0.0062   -0.0255   -0.0209   -0.0098    0.0188    0.0103
          16   -0.0002    0.0144    0.0034    0.0059    0.0029   -0.0045   -0.0058    0.0097
          17   -0.0124    0.0129    0.0141    0.0057   -0.0041    0.0001    0.0149   -0.0095
          18   -0.0208    0.0005   -0.0058    0.0009    0.0136    0.0032    0.0053   -0.0326
          19    0.0021    0.0201    0.0033    0.0025    0.0180   -0.0144   -0.0068   -0.0107
          20    0.0037   -0.0144    0.0214   -0.0135   -0.0105   -0.0010   -0.0036   -0.0044
          21   -0.0189   -0.0017    0.0023   -0.0009    0.0271   -0.0073    0.0078    0.0003
          22    0.0026   -0.0075    0.0007   -0.0026   -0.0115    0.0121    0.0154   -0.0107
          23    0.0004   -0.0036   -0.0069    0.0029    0.0059   -0.0054   -0.0170    0.0167
          24    0.0219   -0.0041    0.0021   -0.0022   -0.0148    0.0006    0.0113    0.0216
          25   -0.0085    0.0047    0.0045    0.0076    0.0164   -0.0111   -0.0111    0.0125
          26    0.0103    0.0115    0.0096    0.0076   -0.0014    0.0003    0.0184   -0.0010
          27   -0.0229    0.0055   -0.0149   -0.0074    0.0008   -0.0040   -0.0315   -0.0020
          28   -0.0117   -0.0186    0.0001   -0.0104   -0.0044    0.0028   -0.0002    0.0029
          29    0.0008   -0.0115   -0.0009   -0.0036    0.0036    0.0028    0.0002   -0.0040
          30    0.0155    0.0213   -0.0135    0.0030   -0.0148    0.0062   -0.0083   -0.0051
          31   -0.0033   -0.0009   -0.0040   -0.0088   -0.0067    0.0005   -0.0007   -0.0046
          32   -0.0015    0.0016   -0.0056   -0.0004   -0.0046    0.0006   -0.0044   -0.0019
          33    0.0301   -0.0035    0.0164    0.0176    0.0190   -0.0027    0.0132    0.0042
          34    0.0150   -0.1202    0.0310    0.0909   -0.0861    0.2164   -0.0440    0.0527
          35    0.0729   -0.0721   -0.1404   -0.1995   -0.0016   -0.1916    0.0164   -0.0232
          36    0.0321   -0.0305   -0.0416   -0.0766   -0.0255   -0.0614    0.0235    0.0096
          37    0.0044   -0.0628    0.0024   -0.0146    0.0053    0.0587   -0.0392   -0.0889
          38   -0.0042    0.0530   -0.0088    0.0160   -0.0103   -0.0540    0.0393    0.0976
          39   -0.0128   -0.0078   -0.0298   -0.0100   -0.0069   -0.0150    0.0036    0.0316
          40    0.0307    0.0460    0.0387    0.0183   -0.0467    0.0174    0.1812   -0.0741
          41    0.0326   -0.0370   -0.0065   -0.0118    0.0050   -0.0175   -0.1275    0.1291
          42    0.0312   -0.0159    0.0009   -0.0083   -0.0153   -0.0040   -0.0242    0.0580
          43    0.0419    0.0022    0.0303   -0.0010   -0.0671    0.0103    0.0184    0.0508
          44   -0.0141    0.0620    0.0530    0.0108   -0.1017    0.0183    0.0285   -0.0159
          45   -0.0233    0.0159    0.0042    0.0026   -0.0151    0.0087    0.0110   -0.0359
          46   -0.0130    0.0176    0.0055    0.0139    0.0260   -0.0064   -0.0165   -0.0082
          47   -0.0650    0.0135    0.0301    0.0432    0.0902   -0.0045   -0.0132   -0.0800
          48   -0.0099   -0.0268    0.0053    0.0014   -0.0005    0.0193    0.0341   -0.0284
          49    0.0966    0.1568    0.0810   -0.0008   -0.1073   -0.0737   -0.1228   -0.0773
          50   -0.0626   -0.1132    0.2003   -0.1013   -0.0653   -0.1408   -0.0472   -0.0209
          51   -0.0541   -0.0553    0.0986   -0.0481   -0.0024   -0.0832   -0.0142   -0.0079
          52   -0.1311    0.0870    0.0297    0.0289   -0.0016   -0.0871    0.0684    0.1532
          53   -0.0158    0.0319    0.0098    0.0092   -0.0008   -0.0119    0.0129    0.0069
          54    0.0258   -0.0276   -0.0110   -0.0058   -0.0028    0.0117   -0.0082    0.0021
          55    0.1592   -0.0243    0.0656    0.0915    0.1763   -0.0237   -0.0397    0.0045
          56    0.0873   -0.0094    0.0409    0.0315    0.0097    0.0036    0.0690    0.0133
          57   -0.0257    0.0044   -0.0170   -0.0114   -0.0114   -0.0017   -0.0229    0.0014
          58   -0.0259    0.0523   -0.0536   -0.0072   -0.0409   -0.0093   -0.0781   -0.0291
          59    0.0710    0.0589   -0.0252    0.0357   -0.0174   -0.0132   -0.0695   -0.0388
          60   -0.0364    0.0069   -0.0165   -0.0044   -0.0037   -0.0013   -0.0144    0.0052
          61   -0.0143   -0.0328    0.0344    0.0055    0.0430   -0.0206    0.0148    0.0099
          62   -0.0204   -0.0073   -0.0785   -0.0504   -0.0775    0.0497   -0.0356   -0.0327
          63   -0.0155   -0.0015   -0.0359   -0.0197   -0.0130    0.0155   -0.0180   -0.0231


   Root No.      33        34        35        36        37        38        39        40

                33 A      34 A      35 A      36 A      37 A      38 A      39 A      40 A   

                1148.4    1161.2    1175.4    1212.8    1227.8    1260.2    1308.1    1319.4
  
           1    0.0010    0.0071   -0.0010    0.0134    0.0006   -0.0208   -0.0068    0.0106
           2    0.0005   -0.0072    0.0006   -0.0173    0.0076    0.0178    0.0123   -0.0062
           3    0.0024   -0.0062   -0.0006   -0.0098    0.0019    0.0145    0.0078   -0.0063
           4   -0.0078    0.0080   -0.0061   -0.0102    0.0063   -0.0148   -0.0036   -0.0167
           5   -0.0075    0.0060   -0.0016   -0.0185    0.0033   -0.0166   -0.0107   -0.0215
           6    0.0011   -0.0007    0.0002   -0.0055   -0.0004   -0.0015   -0.0028   -0.0027
           7    0.0013   -0.0015    0.0007   -0.0045    0.0003    0.0035    0.0012   -0.0040
           8   -0.0033    0.0002   -0.0002   -0.0005    0.0015    0.0008    0.0019    0.0010
           9    0.0008   -0.0005    0.0007   -0.0039    0.0018   -0.0006    0.0006   -0.0019
          10   -0.0000   -0.0009    0.0005    0.0039   -0.0018    0.0017   -0.0000    0.0047
          11    0.0000   -0.0004   -0.0001   -0.0036   -0.0003    0.0003   -0.0016   -0.0021
          12   -0.0024    0.0013   -0.0015    0.0026   -0.0011   -0.0013   -0.0014    0.0010
          13    0.0025   -0.0074    0.0091   -0.0083   -0.0206    0.0598    0.0133   -0.0424
          14    0.0256   -0.0030   -0.0087    0.0381   -0.0376   -0.0151   -0.0390    0.0015
          15   -0.0141    0.0167    0.0176    0.0188   -0.0114   -0.0176   -0.0166    0.0089
          16   -0.0111    0.0028    0.0001    0.0013    0.0025   -0.0246    0.0058    0.0009
          17   -0.0240    0.0100    0.0052    0.0104   -0.0116   -0.0239   -0.0056   -0.0142
          18    0.0265    0.0154   -0.0047   -0.0037    0.0006   -0.0068   -0.0003   -0.0070
          19    0.0051   -0.0203    0.0164   -0.0039   -0.0164    0.0357   -0.0034    0.0487
          20    0.0094   -0.0017    0.0028    0.0462    0.0067    0.0180    0.0361    0.0472
          21   -0.0036   -0.0027   -0.0006    0.0218    0.0091   -0.0101    0.0169    0.0094
          22   -0.0051   -0.0104   -0.0059   -0.0074    0.0099    0.0105   -0.0309    0.0151
          23    0.0080   -0.0015   -0.0010   -0.0079   -0.0080   -0.0032    0.0422   -0.0077
          24   -0.0120   -0.0379   -0.0097    0.0012   -0.0057   -0.0032    0.0101   -0.0039
          25    0.0036    0.0103   -0.0005    0.0110    0.0148    0.0195   -0.0248   -0.0211
          26    0.0035   -0.0065    0.0019   -0.0042    0.0023    0.0024   -0.0138    0.0024
          27    0.0054    0.0117    0.0128    0.0042    0.0001   -0.0032    0.0010    0.0029
          28   -0.0031    0.0073   -0.0030    0.0014    0.0005   -0.0243    0.0021   -0.0008
          29   -0.0051    0.0026   -0.0034    0.0087    0.0062    0.0064    0.0081   -0.0072
          30    0.0015    0.0019   -0.0075    0.0120    0.0058    0.0175    0.0026   -0.0052
          31    0.0013   -0.0015   -0.0000    0.0163    0.0048    0.0043    0.0172   -0.0029
          32   -0.0005   -0.0007   -0.0001    0.0060    0.0094    0.0081   -0.0031   -0.0165
          33   -0.0006    0.0022   -0.0011   -0.0155   -0.0047   -0.0017   -0.0121   -0.0019
          34    0.1659    0.0221   -0.0407   -0.0282    0.0722   -0.1080   -0.0171    0.0764
          35    0.0496    0.0181   -0.0315   -0.1066    0.1257    0.0069    0.0735    0.0093
          36   -0.0052    0.0241    0.0127   -0.0220    0.0357   -0.0133    0.0142    0.0148
          37   -0.1016   -0.0182    0.0033   -0.0125   -0.0313   -0.0789    0.1080   -0.0000
          38    0.1072    0.0074   -0.0120   -0.0076    0.0372    0.0891   -0.0955    0.0155
          39    0.0519   -0.0123   -0.0166   -0.0306    0.0220    0.0362    0.0034    0.0469
          40    0.0400   -0.0620   -0.0151   -0.0365   -0.0086   -0.0290    0.0895    0.0012
          41   -0.0939   -0.0249   -0.0089    0.0277    0.0130    0.0198   -0.0744    0.0456
          42   -0.0446   -0.0475   -0.0135    0.0120    0.0021    0.0041   -0.0263    0.0156
          43   -0.0718    0.0107    0.0364    0.0038    0.0015   -0.0060    0.0292    0.0161
          44   -0.0487    0.2004    0.1298   -0.0377    0.0763    0.0641    0.0020    0.0568
          45    0.0218    0.0745    0.0336   -0.0204    0.0300    0.0215   -0.0003    0.0148
          46   -0.0158   -0.0085   -0.0203   -0.0114    0.0332   -0.0374    0.0078    0.0260
          47   -0.0876   -0.0732   -0.0884   -0.0551    0.1547   -0.0336   -0.0459    0.1191
          48   -0.0371   -0.0374   -0.0132   -0.0195    0.0442    0.0465   -0.0551    0.0262
          49    0.0346    0.0205   -0.1647    0.0399    0.0212   -0.0391    0.0074   -0.0835
          50    0.0217   -0.0164    0.0102   -0.0968   -0.0376   -0.0142   -0.0583   -0.0452
          51    0.0011   -0.0101    0.0048   -0.0555   -0.0143   -0.0269   -0.0340   -0.0441
          52    0.0504   -0.0008   -0.0580   -0.0546   -0.0867   -0.0463    0.1115    0.0500
          53    0.0176    0.0020    0.0111   -0.0158   -0.0049   -0.0034   -0.0338    0.0234
          54   -0.0177   -0.0128   -0.0123    0.0186    0.0042    0.0022    0.0528   -0.0323
          55    0.0245    0.1573    0.0047   -0.0532   -0.0600   -0.0385    0.0456    0.0409
          56   -0.0036   -0.0299   -0.0154   -0.0344   -0.0081   -0.0008   -0.0520    0.0254
          57    0.0014   -0.0053    0.0095    0.0064    0.0049    0.0010   -0.0068   -0.0004
          58    0.0357   -0.0803    0.1218   -0.0364   -0.0101   -0.0715    0.0026    0.0183
          59    0.0493   -0.1134    0.1716   -0.0877   -0.0249   -0.1089   -0.0231    0.0208
          60   -0.0034    0.0060   -0.0051   -0.0035    0.0036    0.0084   -0.0149   -0.0081
          61    0.0070   -0.0148    0.0338    0.0256    0.0345   -0.0273    0.0090   -0.0302
          62   -0.0515    0.0622   -0.1085   -0.1113   -0.1362    0.0305   -0.0198    0.1193
          63   -0.0344    0.0300   -0.0611   -0.0842   -0.0963    0.0424   -0.0190    0.0854


   Root No.      41        42        43        44        45        46        47        48

                41 A      42 A      43 A      44 A      45 A      46 A      47 A      48 A   

                1336.2    1377.4    1392.8    1401.0    1410.9    1423.3    1883.3    2826.9
  
           1    0.0028   -0.0038    0.0011    0.0015    0.0039   -0.0001    0.0009    0.0001
           2   -0.0001    0.0059   -0.0001   -0.0010   -0.0026    0.0014   -0.0004    0.0000
           3   -0.0024    0.0045   -0.0003   -0.0010   -0.0028    0.0015   -0.0000   -0.0002
           4   -0.0065   -0.0002   -0.0000    0.0002   -0.0003    0.0000   -0.0026   -0.0004
           5   -0.0032   -0.0049   -0.0014    0.0006    0.0003   -0.0030    0.0029   -0.0004
           6    0.0024   -0.0013   -0.0010    0.0003    0.0002   -0.0012    0.0031    0.0005
           7   -0.0015    0.0009   -0.0002   -0.0004   -0.0009    0.0002   -0.0000    0.0000
           8    0.0016    0.0018   -0.0003   -0.0000   -0.0005    0.0005    0.0001    0.0000
           9   -0.0001    0.0004   -0.0001   -0.0000   -0.0002    0.0001   -0.0001   -0.0000
          10    0.0022   -0.0001   -0.0001    0.0001    0.0002   -0.0001    0.0009    0.0001
          11    0.0017   -0.0012   -0.0008    0.0002    0.0000   -0.0015   -0.0005    0.0002
          12    0.0011   -0.0008   -0.0003    0.0002    0.0003   -0.0007   -0.0003   -0.0000
          13   -0.0358    0.0021    0.0026   -0.0045   -0.0069    0.0029   -0.0023   -0.0014
          14   -0.0203   -0.0369    0.0045    0.0030    0.0137   -0.0106   -0.0019   -0.0023
          15    0.0024   -0.0128    0.0005    0.0029    0.0077   -0.0051   -0.0013    0.0092
          16    0.0160    0.0135   -0.0058    0.0202    0.0226    0.0025    0.0002   -0.0005
          17    0.0316    0.0469   -0.0206   -0.0013   -0.0289    0.0111    0.0001    0.0001
          18    0.0097    0.0059   -0.0007   -0.0136   -0.0327    0.0041   -0.0002   -0.0009
          19    0.0497   -0.0084   -0.0087    0.0020    0.0011   -0.0159   -0.0092    0.0017
          20   -0.0161    0.0256    0.0128   -0.0044   -0.0028    0.0269    0.0252    0.0305
          21   -0.0277    0.0144    0.0109   -0.0038   -0.0015    0.0210    0.0202   -0.0551
          22   -0.0217    0.0208   -0.0210   -0.0345   -0.0018   -0.0171   -0.0001    0.0000
          23    0.0061   -0.0206    0.0282    0.0053    0.0285   -0.0085    0.0029   -0.0001
          24    0.0049   -0.0009    0.0160   -0.0163    0.0279   -0.0086   -0.0002    0.0000
          25    0.0320   -0.0079    0.0455    0.0176    0.0049    0.0521   -0.0260   -0.0002
          26    0.0009   -0.0045   -0.0180   -0.0175    0.0067    0.0382   -0.0279   -0.0002
          27   -0.0061    0.0072    0.0032    0.0082   -0.0089   -0.0214    0.0067   -0.0011
          28   -0.0255    0.0087    0.0115   -0.0017    0.0007    0.0195   -0.0219   -0.0004
          29    0.0062   -0.0037   -0.0104    0.0026   -0.0028   -0.0265   -0.2314   -0.0011
          30    0.0187   -0.0078   -0.0117    0.0034   -0.0016   -0.0258   -0.0931   -0.0002
          31    0.0024   -0.0037   -0.0217   -0.0001   -0.0038   -0.0395    0.0821    0.0003
          32    0.0148   -0.0100   -0.0097    0.0033   -0.0008   -0.0212    0.2332    0.0005
          33    0.0024   -0.0013    0.0066   -0.0011    0.0029    0.0168    0.0491   -0.0001
          34    0.0877    0.0016   -0.0102    0.0058    0.0056   -0.0108   -0.0026    0.0056
          35    0.0388    0.0597   -0.0008   -0.0146   -0.0226    0.0159    0.0016    0.0337
          36    0.0214    0.0132   -0.0005   -0.0023   -0.0015    0.0017    0.0001   -0.1175
          37    0.0122   -0.0325    0.0032    0.0569    0.0006   -0.0197    0.0103   -0.0001
          38   -0.0379    0.0191   -0.0126   -0.0542   -0.0002    0.0076   -0.0086   -0.0002
          39   -0.0725   -0.0788   -0.0888    0.1599   -0.1391    0.0558    0.0035    0.0000
          40    0.0034   -0.0894   -0.0181    0.1550   -0.0703    0.0746   -0.0046   -0.0001
          41   -0.0531   -0.0138   -0.0980    0.0997   -0.1184    0.0414    0.0013    0.0001
          42   -0.0169   -0.0045   -0.0314    0.0297   -0.0322    0.0138   -0.0001   -0.0010
          43    0.0035   -0.1139    0.0867   -0.1427   -0.1817   -0.0143    0.0001   -0.0011
          44   -0.0687   -0.0778    0.0189    0.0265    0.0836   -0.0140    0.0001   -0.0034
          45   -0.0218   -0.0187    0.0016    0.0146    0.0288   -0.0026   -0.0002    0.0099
          46    0.0062   -0.0435    0.0260   -0.0238   -0.0206   -0.0080    0.0000    0.0007
          47   -0.0596   -0.1144    0.0362   -0.0511    0.0084   -0.0364   -0.0000   -0.0005
          48   -0.0551    0.0744   -0.0742    0.1139    0.1907   -0.0066    0.0005    0.0001
          49   -0.0826    0.0120    0.0067    0.0029    0.0048    0.0159   -0.0036    0.0010
          50    0.0414   -0.0345   -0.0225    0.0071    0.0088   -0.0312   -0.0222   -0.3609
          51    0.0015   -0.0184   -0.0076    0.0022    0.0039   -0.0110   -0.0115    0.6689
          52   -0.0621   -0.0053   -0.0531   -0.0319    0.0220   -0.0590   -0.0406   -0.0002
          53   -0.0276    0.0435    0.0515    0.0296   -0.0305   -0.0509   -0.0295    0.0021
          54    0.0409   -0.0867   -0.1361   -0.0878    0.0666    0.1412    0.0145    0.0003
          55   -0.0529    0.0080   -0.0789   -0.0227   -0.0041   -0.0419    0.0108    0.0008
          56   -0.0350    0.0847    0.1675    0.0936   -0.0612   -0.1526    0.0227   -0.0032
          57   -0.0017    0.0114    0.0258    0.0175   -0.0122   -0.0265    0.0046    0.0142
          58   -0.0500    0.0163    0.0004   -0.0108   -0.0007    0.0217   -0.1064   -0.0009
          59   -0.0701    0.0206    0.0104   -0.0196    0.0048    0.0653    0.0133    0.0003
          60    0.0133   -0.0045    0.0135    0.0042    0.0024    0.0169    0.0861   -0.0007
          61   -0.0195    0.0003   -0.0036    0.0010   -0.0025   -0.0117   -0.1213    0.0046
          62   -0.0011    0.0263    0.0473   -0.0063    0.0078    0.0855   -0.0127    0.0075
          63    0.0238    0.0108    0.0282   -0.0017    0.0051    0.0490    0.0850   -0.0032


   Root No.      49        50        51        52        53        54        55        56

                49 A      50 A      51 A      52 A      53 A      54 A      55 A      56 A   

                2856.4    2941.1    2946.9    2955.4    3023.9    3025.7    3028.6    3034.4
  
           1   -0.0005   -0.0000   -0.0001   -0.0001   -0.0001   -0.0001    0.0000   -0.0000
           2    0.0000   -0.0000   -0.0001   -0.0000   -0.0001   -0.0002    0.0000   -0.0001
           3    0.0006   -0.0000   -0.0001    0.0000   -0.0000   -0.0000    0.0000   -0.0000
           4   -0.0001    0.0000    0.0000    0.0000    0.0000   -0.0000   -0.0002   -0.0000
           5   -0.0000   -0.0000   -0.0000   -0.0000   -0.0000    0.0000    0.0002    0.0000
           6   -0.0000   -0.0000    0.0000    0.0000   -0.0000    0.0000    0.0003    0.0000
           7    0.0001    0.0000    0.0000    0.0000   -0.0000   -0.0000    0.0000   -0.0000
           8   -0.0002   -0.0000    0.0000   -0.0000   -0.0000   -0.0000    0.0000    0.0000
           9   -0.0002    0.0000   -0.0000   -0.0000   -0.0000   -0.0000    0.0000   -0.0000
          10    0.0001   -0.0000    0.0000    0.0000    0.0000    0.0000    0.0000    0.0000
          11    0.0001   -0.0000   -0.0000    0.0000   -0.0000   -0.0000    0.0000   -0.0000
          12   -0.0000   -0.0000   -0.0000    0.0000    0.0000    0.0000    0.0000    0.0000
          13    0.0016    0.0000   -0.0001   -0.0001   -0.0002   -0.0003    0.0001   -0.0001
          14    0.0162    0.0001    0.0006   -0.0003   -0.0003   -0.0005   -0.0000   -0.0001
          15   -0.0597   -0.0002   -0.0018   -0.0005    0.0001    0.0003   -0.0001    0.0003
          16    0.0020   -0.0026   -0.0265   -0.0089   -0.0089   -0.0169    0.0019   -0.0064
          17   -0.0005    0.0017    0.0142    0.0041   -0.0004   -0.0011    0.0001   -0.0000
          18    0.0023   -0.0034   -0.0302   -0.0076    0.0076    0.0147   -0.0016    0.0030
          19   -0.0008   -0.0000    0.0002    0.0000    0.0001    0.0000   -0.0002    0.0000
          20    0.0049   -0.0003    0.0002    0.0000    0.0002    0.0001    0.0001    0.0001
          21   -0.0091    0.0007    0.0001    0.0001   -0.0004    0.0001    0.0004   -0.0000
          22    0.0000   -0.0025   -0.0047    0.0204    0.0029    0.0012    0.0010   -0.0168
          23    0.0003   -0.0041   -0.0070    0.0283    0.0004    0.0009    0.0003   -0.0092
          24   -0.0005    0.0052    0.0077   -0.0261    0.0067    0.0031    0.0019   -0.0218
          25   -0.0000   -0.0015    0.0003    0.0001    0.0020   -0.0011    0.0007    0.0000
          26   -0.0000   -0.0193    0.0028   -0.0036   -0.0199    0.0122   -0.0068   -0.0056
          27   -0.0003   -0.0439    0.0049   -0.0044    0.0065   -0.0041    0.0011   -0.0000
          28   -0.0004    0.0002   -0.0000   -0.0000    0.0022   -0.0029   -0.0276   -0.0020
          29    0.0000   -0.0001   -0.0000    0.0000    0.0013   -0.0018   -0.0174   -0.0014
          30   -0.0001   -0.0003    0.0000   -0.0000   -0.0010    0.0013    0.0126    0.0009
          31    0.0000   -0.0010    0.0002   -0.0005   -0.0032    0.0029    0.0137   -0.0003
          32    0.0001    0.0015   -0.0001    0.0001    0.0024   -0.0020   -0.0088    0.0006
          33   -0.0000    0.0014   -0.0001    0.0001    0.0036   -0.0031   -0.0144    0.0005
          34   -0.0064   -0.0003   -0.0022   -0.0008    0.0001    0.0002    0.0000   -0.0001
          35   -0.2028   -0.0006   -0.0073   -0.0022    0.0008    0.0015   -0.0003    0.0005
          36    0.7154    0.0020    0.0204    0.0029   -0.0006   -0.0024    0.0008   -0.0030
          37    0.0007    0.0291    0.0538   -0.2457   -0.0340   -0.0220   -0.0134    0.2208
          38    0.0009    0.0267    0.0549   -0.2436   -0.0368   -0.0190   -0.0149    0.2270
          39   -0.0001   -0.0009   -0.0023    0.0141    0.0089    0.0051    0.0026   -0.0362
          40    0.0004    0.0025   -0.0018    0.0034    0.0029    0.0020    0.0011   -0.0166
          41   -0.0003    0.0204    0.0322   -0.0929    0.0310    0.0144    0.0094   -0.1147
          42    0.0063   -0.0660   -0.0908    0.2991   -0.0865   -0.0407   -0.0257    0.3036
          43   -0.0043    0.0012    0.0121    0.0010   -0.0141   -0.0280    0.0032   -0.0088
          44    0.0044   -0.0121   -0.1010   -0.0200    0.0392    0.0773   -0.0086    0.0202
          45   -0.0276    0.0392    0.3186    0.0746   -0.1206   -0.2342    0.0256   -0.0592
          46   -0.0172    0.0250    0.3050    0.1057    0.1223    0.2361   -0.0272    0.0885
          47    0.0056   -0.0055   -0.0698   -0.0231   -0.0305   -0.0597    0.0070   -0.0240
          48   -0.0039    0.0035    0.0453    0.0173    0.0291    0.0553   -0.0061    0.0174
          49    0.0048    0.0002    0.0012    0.0004   -0.0003   -0.0005    0.0002   -0.0001
          50   -0.0567    0.0052    0.0007    0.0007   -0.0024   -0.0001    0.0009   -0.0005
          51    0.1045   -0.0077   -0.0006   -0.0010    0.0038    0.0001   -0.0043    0.0006
          52   -0.0000   -0.0166    0.0023   -0.0010   -0.0115    0.0078   -0.0025   -0.0057
          53    0.0009    0.2801   -0.0416    0.0481    0.2278   -0.1405    0.0819    0.0696
          54    0.0003    0.1123   -0.0173    0.0211    0.1161   -0.0714    0.0398    0.0328
          55    0.0002    0.0352   -0.0035    0.0053   -0.0156    0.0089   -0.0044   -0.0018
          56   -0.0006   -0.0568    0.0057   -0.0060    0.0110   -0.0064    0.0017   -0.0001
          57    0.0030    0.4163   -0.0423    0.0304   -0.1956    0.1222   -0.0539   -0.0344
          58   -0.0002    0.0128   -0.0012    0.0005    0.0374   -0.0331   -0.1609    0.0047
          59    0.0000   -0.0132    0.0014   -0.0011   -0.0281    0.0245    0.1147   -0.0040
          60   -0.0000   -0.0174    0.0017   -0.0010   -0.0406    0.0359    0.1753   -0.0054
          61    0.0000   -0.0005    0.0002    0.0001   -0.0250    0.0341    0.3295    0.0244
          62    0.0009    0.0004    0.0001    0.0001   -0.0143    0.0196    0.1912    0.0144
          63   -0.0002   -0.0001   -0.0000   -0.0000    0.0124   -0.0166   -0.1582   -0.0116


   Root No.      57

                57 A   

                3050.1
  
           1   -0.0000
           2    0.0000
           3   -0.0000
           4    0.0001
           5   -0.0002
           6   -0.0002
           7   -0.0000
           8    0.0000
           9   -0.0000
          10    0.0000
          11   -0.0000
          12    0.0000
          13   -0.0001
          14    0.0001
          15    0.0001
          16   -0.0003
          17    0.0001
          18    0.0000
          19    0.0001
          20    0.0004
          21   -0.0002
          22   -0.0010
          23   -0.0007
          24   -0.0006
          25    0.0002
          26   -0.0052
          27   -0.0007
          28    0.0224
          29    0.0180
          30   -0.0083
          31    0.0231
          32   -0.0229
          33   -0.0281
          34   -0.0000
          35    0.0001
          36   -0.0003
          37    0.0107
          38    0.0106
          39   -0.0014
          40   -0.0007
          41   -0.0036
          42    0.0089
          43   -0.0003
          44    0.0003
          45   -0.0010
          46    0.0033
          47   -0.0009
          48    0.0006
          49   -0.0002
          50   -0.0006
          51    0.0038
          52   -0.0005
          53    0.0613
          54    0.0276
          55   -0.0024
          56   -0.0017
          57   -0.0210
          58   -0.2876
          59    0.2130
          60    0.3165
          61   -0.2542
          62   -0.1515
          63    0.1203


           MASS-WEIGHTED COORDINATE ANALYSIS (NORMAL COORDINATES)


   Root No.       1         2         3         4         5         6         7         8

                 1 A       2 A       3 A       4 A       5 A       6 A       7 A       8 A   

                 104.0     108.0     175.2     267.9     292.2     313.6     340.2     386.5
  
           1    0.0303   -0.0195    0.0930    0.1678    0.0622    0.0151    0.1523    0.2291
           2   -0.1623   -0.0228   -0.1363   -0.2351   -0.1310   -0.0450    0.0206    0.0033
           3    0.4146    0.0798    0.4331   -0.0175   -0.0432    0.0437    0.3260    0.1654
           4   -0.0317   -0.0531    0.0768    0.0503    0.0886    0.2103   -0.0464   -0.1218
           5    0.1541    0.0893   -0.2145    0.2117    0.0579   -0.0180   -0.0892    0.4167
           6   -0.3342   -0.3423    0.2902   -0.0681    0.0643    0.2840    0.1084    0.0149
           7   -0.1848   -0.0587    0.0277   -0.1965   -0.2057   -0.2284   -0.1225    0.3184
           8   -0.0011    0.0125   -0.1041   -0.0643   -0.1481    0.2183   -0.1035   -0.2108
           9    0.0178    0.4128   -0.2961    0.0756   -0.1285    0.1705   -0.2021   -0.3215
          10    0.1411    0.1151    0.0725   -0.0665   -0.3064   -0.1671   -0.2347   -0.1019
[...]
 RED. MASS   0.8696         C  5 -- H 12         +10.5% ( 46.5%)      0.9%
 EFF. MASS   7.0938

 VIBRATION   37   37A         ATOM PAIR      ENERGY CONTRIBUTION    RADIAL
 FREQ.      1227.85         C  5 -- H 12         +20.6% ( 56.6%)      0.0%
 T-DIPOLE    0.0371         C 10 -- H 21         +13.5% ( 45.9%)      0.1%
 TRAVEL      0.1258         C  6 -- H 16         +12.5% ( 44.1%)      0.5%
 RED. MASS   0.4667         C  5 -- C  7          +9.8% ( 39.1%)      0.9%
 EFF. MASS   3.4712

 VIBRATION   38   38A         ATOM PAIR      ENERGY CONTRIBUTION    RADIAL
 FREQ.      1260.20         O  1 -- C  5         +14.6% ( 55.0%)     71.1%
 T-DIPOLE    0.1635         C  5 -- C  6         +13.1% ( 52.0%)     43.2%
 TRAVEL      0.0792         C  5 -- H 12         +12.9% ( 51.7%)      1.4%
 RED. MASS   1.2050         C  5 -- C  7         +10.7% ( 47.2%)     34.4%
 EFF. MASS   8.5241

 VIBRATION   39   39A         ATOM PAIR      ENERGY CONTRIBUTION    RADIAL
 FREQ.      1308.13         C  8 -- H 13         +13.0% ( 51.3%)      0.3%
 T-DIPOLE    0.0792         C  8 -- H 14         +11.3% ( 48.0%)      0.1%
 TRAVEL      0.0862         C  5 -- C  7          +9.8% ( 44.6%)      3.0%
 RED. MASS   0.9131         C  8 -- C  9          +7.3% ( 38.4%)     21.4%
 EFF. MASS   6.9318

 VIBRATION   40   40A         ATOM PAIR      ENERGY CONTRIBUTION    RADIAL
 FREQ.      1319.44         C  5 -- C  7         +16.3% ( 57.1%)     59.7%
 T-DIPOLE    0.2293         O  2 -- C  7         +16.2% ( 56.9%)     93.1%
 TRAVEL      0.0821         C  7 -- H 17         +14.2% ( 53.2%)      1.5%
 RED. MASS   1.4518         C  7 -- C 10         +11.0% ( 46.8%)      1.6%
 EFF. MASS   7.5732

 VIBRATION   41   41A         ATOM PAIR      ENERGY CONTRIBUTION    RADIAL
 FREQ.      1336.19         C  7 -- C 10         +13.6% ( 54.8%)     84.4%
 T-DIPOLE    0.0313         C  5 -- C  7         +12.3% ( 52.1%)     57.5%
 TRAVEL      0.0797         C  7 -- H 17         +10.3% ( 47.7%)      2.0%
 RED. MASS   1.1321         O  2 -- C  7          +8.1% ( 42.1%)      3.1%
 EFF. MASS   7.9434

 VIBRATION   42   42A         ATOM PAIR      ENERGY CONTRIBUTION    RADIAL
 FREQ.      1377.43         C  6 -- H 16         +13.4% ( 48.6%)      0.2%
 T-DIPOLE    0.0765         C  5 -- C  6         +13.2% ( 48.2%)     69.4%
 TRAVEL      0.0905         C  6 -- H 15         +13.0% ( 47.9%)      0.8%
 RED. MASS   0.7522         C  6 -- C  8         +10.3% ( 42.5%)     68.7%
 EFF. MASS   5.9711

 VIBRATION   43   43A         ATOM PAIR      ENERGY CONTRIBUTION    RADIAL
 FREQ.      1392.84         C  9 -- H 19         +17.6% ( 52.2%)      1.1%
 T-DIPOLE    0.1088         C  8 -- C  9         +13.9% ( 46.4%)     83.3%
 TRAVEL      0.0959         C  9 -- H 18         +13.4% ( 45.6%)      3.9%
 RED. MASS   0.6282         C  9 -- C 11         +10.7% ( 40.8%)     51.4%
 EFF. MASS   5.2649

 VIBRATION   44   44A         ATOM PAIR      ENERGY CONTRIBUTION    RADIAL
 FREQ.      1401.04         C  8 -- H 14         +20.4% ( 48.1%)      3.4%
 T-DIPOLE    0.1196         C  8 -- H 13         +18.5% ( 45.8%)      4.7%
 TRAVEL      0.1240         C  8 -- C  9         +11.6% ( 36.2%)     96.9%
 RED. MASS   0.3314         C  6 -- H 15         +11.4% ( 35.9%)      3.0%
 EFF. MASS   3.1292

 VIBRATION   45   45A         ATOM PAIR      ENERGY CONTRIBUTION    RADIAL
 FREQ.      1410.86         C  6 -- H 15         +20.5% ( 51.9%)      3.7%
 T-DIPOLE    0.1247         C  6 -- H 16         +18.7% ( 49.5%)      4.6%
 TRAVEL      0.1088         C  6 -- C  8         +16.8% ( 47.0%)     98.4%
 RED. MASS   0.5560         C  8 -- H 14         +11.2% ( 38.3%)      4.3%
 EFF. MASS   4.0373         C  8 -- H 13         +10.7% ( 37.5%)      4.3%

 VIBRATION   46   46A         ATOM PAIR      ENERGY CONTRIBUTION    RADIAL
 FREQ.      1423.25         C  9 -- C 11         +19.3% ( 61.7%)     99.9%
 T-DIPOLE    0.0835         C  9 -- H 19         +13.4% ( 51.5%)      3.3%
 TRAVEL      0.0794         C  9 -- H 18         +13.4% ( 51.4%)      3.7%
 RED. MASS   1.2672         C  8 -- C  9          +9.8% ( 44.0%)     21.2%
 EFF. MASS   7.5241

 VIBRATION   47   47A         ATOM PAIR      ENERGY CONTRIBUTION    RADIAL
 FREQ.      1883.32         C 10 -- C 11         +44.3% ( 98.1%)    100.0%
 T-DIPOLE    0.3630         C  9 -- C 11         +14.3% ( 55.8%)     54.8%
 TRAVEL      0.0549         C  7 -- C 10         +14.0% ( 55.1%)     48.9%
 RED. MASS   5.4366         C 11 -- H 20         +13.2% ( 53.5%)      3.8%
 EFF. MASS  11.8597         C 10 -- H 21         +13.2% ( 53.5%)      4.4%

 VIBRATION   48   48A         ATOM PAIR      ENERGY CONTRIBUTION    RADIAL
 FREQ.      2826.88         C  7 -- H 17         +94.2% ( 98.7%)     99.9%
 T-DIPOLE    0.0606         C  5 -- H 12          +2.5% ( 16.0%)     99.8%
 TRAVEL      0.1282         C  5 -- C  7          +1.1% ( 10.7%)     10.5%
 RED. MASS   0.8832         O  2 -- C  7          +1.0% ( 10.3%)     10.4%
 EFF. MASS   1.4512

 VIBRATION   49   49A         ATOM PAIR      ENERGY CONTRIBUTION    RADIAL
 FREQ.      2856.40         C  5 -- H 12         +94.2% ( 98.6%)     99.9%
 T-DIPOLE    0.0897         C  7 -- H 17          +2.4% ( 15.7%)     99.5%
 TRAVEL      0.1276         C  5 -- C  6          +1.0% ( 10.4%)     11.7%
 RED. MASS   0.8805         O  1 -- C  5          +1.0% ( 10.4%)     10.5%
 EFF. MASS   1.4502

 VIBRATION   50   50A         ATOM PAIR      ENERGY CONTRIBUTION    RADIAL
 FREQ.      2941.10         C  9 -- H 19         +61.1% ( 81.1%)     97.8%
 T-DIPOLE    0.0492         C  9 -- H 18         +33.3% ( 59.9%)     94.3%
 TRAVEL      0.1219         C  8 -- H 14          +1.6% ( 13.3%)     98.1%
 RED. MASS   0.5236         C  8 -- C  9          +1.2% ( 11.2%)      0.6%
 EFF. MASS   1.5427

 VIBRATION   51   51A         ATOM PAIR      ENERGY CONTRIBUTION    RADIAL
 FREQ.      2946.86         C  6 -- H 15         +47.0% ( 71.2%)     96.8%
 T-DIPOLE    0.1039         C  6 -- H 16         +42.4% ( 67.6%)     96.2%
 TRAVEL      0.1218         C  8 -- H 14          +3.9% ( 20.5%)     97.2%
 RED. MASS   0.4379         C  8 -- H 13          +2.6% ( 16.6%)     95.0%
 EFF. MASS   1.5429

 VIBRATION   52   52A         ATOM PAIR      ENERGY CONTRIBUTION    RADIAL
 FREQ.      2955.43         C  8 -- H 13         +48.6% ( 72.4%)     97.0%
 T-DIPOLE    0.0675         C  8 -- H 14         +40.3% ( 65.9%)     95.9%
 TRAVEL      0.1214         C  6 -- H 16          +4.8% ( 22.7%)     98.0%
 RED. MASS   0.4363         C  6 -- H 15          +2.5% ( 16.3%)     94.4%
 EFF. MASS   1.5469

 VIBRATION   53   53A         ATOM PAIR      ENERGY CONTRIBUTION    RADIAL
 FREQ.      3023.86         C  9 -- H 18         +42.7% ( 64.5%)     98.9%
 T-DIPOLE    0.0892         C  9 -- H 19         +24.3% ( 48.7%)     95.3%
 TRAVEL      0.1315         C  6 -- H 16         +10.8% ( 32.4%)     97.8%
 RED. MASS   0.2641         C  6 -- H 15         +10.4% ( 31.9%)     97.4%
 EFF. MASS   1.2889

 VIBRATION   54   54A         ATOM PAIR      ENERGY CONTRIBUTION    RADIAL
 FREQ.      3025.70         C  6 -- H 16         +35.9% ( 59.0%)     97.8%
 T-DIPOLE    0.1109         C  6 -- H 15         +35.3% ( 58.6%)     97.6%
 TRAVEL      0.1321         C  9 -- H 18         +14.5% ( 37.6%)     98.9%
 RED. MASS   0.2807         C  9 -- H 19          +8.5% ( 28.7%)     95.7%
 EFF. MASS   1.2765

 VIBRATION   55   55A         ATOM PAIR      ENERGY CONTRIBUTION    RADIAL
 FREQ.      3028.61         C 10 -- H 21         +65.7% ( 82.1%)    100.0%
 T-DIPOLE    0.3597         C 11 -- H 20         +26.9% ( 52.6%)    100.0%
 TRAVEL      0.1239         C  9 -- H 18          +3.0% ( 17.6%)     99.4%
 RED. MASS   0.4914         C 10 -- C 11          +1.1% ( 10.4%)      2.9%
 EFF. MASS   1.4511

 VIBRATION   56   56A         ATOM PAIR      ENERGY CONTRIBUTION    RADIAL
 FREQ.      3034.36         C  8 -- H 14         +45.8% ( 66.6%)     97.8%
 T-DIPOLE    0.1170         C  8 -- H 13         +43.9% ( 65.2%)     97.6%
 TRAVEL      0.1321         C  6 -- H 16          +3.8% ( 19.2%)     99.0%
 RED. MASS   0.4020         C  9 -- H 18          +2.6% ( 16.0%)     99.7%
 EFF. MASS   1.2740

 VIBRATION   57   57A         ATOM PAIR      ENERGY CONTRIBUTION    RADIAL
 FREQ.      3050.06         C 11 -- H 20         +65.7% ( 82.2%)     99.9%
 T-DIPOLE    0.3808         C 10 -- H 21         +29.4% ( 55.0%)     99.9%
 TRAVEL      0.1187         C 10 -- C 11          +1.9% ( 13.9%)     93.1%
 RED. MASS   0.5168         C  9 -- H 18          +1.2% ( 11.2%)     99.7%
 EFF. MASS   1.5696

      SYMMETRY NUMBER FOR POINT-GROUP C1  =  1


          SYSTEM IS A GROUND STATE



 InChI=1S/C7H10O4/c1-2-4-6-7(5-3-1)9-11-10-8-6/h2,4,6-7H,1,3,5H2


          MOLECULE IS NOT LINEAR

          THERE ARE 57 GENUINE VIBRATIONS IN THIS SYSTEM
          THIS THERMODYNAMICS CALCULATION IS LIMITED TO
          MOLECULES WHICH HAVE NO INTERNAL ROTATIONS




                    CALCULATED THERMODYNAMIC PROPERTIES
                                          *
   TEMP. (K)   PARTITION FUNCTION   H.O.F.    ENTHALPY  HEAT CAPACITY ENTROPY
                                   KCAL/MOL   CAL/MOLE    CAL/K/MOL  CAL/K/MOL


 298.00  VIB.     0.9019D+02                  4094.3868    31.9582    22.6857
         ROT.     0.7671D+06                   888.2813     2.9808    29.9082
         INT.     0.6918D+08                  4982.6681    34.9390    52.5939
         TRA.     0.1923D+28                  1480.4688     4.9680    41.0822
         TOT.                       16.729    6463.1370    39.9070    93.6761

 200.00  VIB.     0.1071D+02                  1591.7176    19.2351    12.6705
         ROT.     0.4218D+06                   596.1620     2.9808    28.7195
         INT.     0.4517D+07                  2187.8795    22.2159    41.3900
         TRA.     0.1057D+28                   993.6033     4.9680    39.1010
         TOT.                       13.448    3181.4828    27.1840    80.4910

 210.00  VIB.     0.1311D+02                  1790.3324    20.4901    13.6393
         ROT.     0.4538D+06                   625.9700     2.9808    28.8649
         INT.     0.5949D+07                  2416.3024    23.4709    42.5042
         TRA.     0.1137D+28                  1043.2834     4.9680    39.3434
         TOT.                       13.726    3459.5858    28.4390    81.8476

 220.00  VIB.     0.1611D+02                  2001.5658    21.7588    14.6217
         ROT.     0.4866D+06                   655.7781     2.9808    29.0036
         INT.     0.7840D+07                  2657.3440    24.7396    43.6253
         TRA.     0.1220D+28                  1092.9636     4.9680    39.5745
         TOT.                       14.016    3750.3076    29.7076    83.1998

 230.00  VIB.     0.1988D+02                  2225.5518    23.0405    15.6171
         ROT.     0.5201D+06                   685.5862     2.9808    29.1361
         INT.     0.1034D+08                  2911.1380    26.0213    44.7532
         TRA.     0.1304D+28                  1142.6437     4.9680    39.7954
         TOT.                       14.320    4053.7817    30.9893    84.5486

 240.00  VIB.     0.2461D+02                  2462.4141    24.3338    16.6250
         ROT.     0.5544D+06                   715.3943     2.9808    29.2630
         INT.     0.1364D+08                  3177.8084    27.3146    45.8880
         TRA.     0.1390D+28                  1192.3239     4.9680    40.0068
         TOT.                       14.636    4370.1323    32.2827    85.8948

 250.00  VIB.     0.3056D+02                  2712.2615    25.6372    17.6448
         ROT.     0.5894D+06                   745.2024     2.9808    29.3846
         INT.     0.1801D+08                  3457.4640    28.6180    47.0294
         TRA.     0.1478D+28                  1242.0041     4.9680    40.2096
         TOT.                       14.966    4699.4680    33.5860    87.2390

 260.00  VIB.     0.3808D+02                  2975.1835    26.9483    18.6758
         ROT.     0.6251D+06                   775.0105     2.9808    29.5016
         INT.     0.2381D+08                  3750.1941    29.9292    48.1774
         TRA.     0.1567D+28                  1291.6842     4.9680    40.4045
         TOT.                       15.308    5041.8783    34.8972    88.5818

 270.00  VIB.     0.4759D+02                  3251.2467    28.2650    19.7175
         ROT.     0.6616D+06                   804.8186     2.9808    29.6140
         INT.     0.3148D+08                  4056.0653    31.2458    49.3316
         TRA.     0.1658D+28                  1341.3644     4.9680    40.5920
         TOT.                       15.664    5397.4297    36.2138    89.9235

 280.00  VIB.     0.5965D+02                  3540.4924    29.5844    20.7693
         ROT.     0.6986D+06                   834.6267     2.9808    29.7225
         INT.     0.4167D+08                  4375.1192    32.5653    50.4918
         TRA.     0.1751D+28                  1391.0445     4.9680    40.7726
         TOT.                       16.032    5766.1637    37.5333    91.2644

 290.00  VIB.     0.7497D+02                  3842.9361    30.9041    21.8305
         ROT.     0.7364D+06                   864.4348     2.9808    29.8271
         INT.     0.5521D+08                  4707.3710    33.8849    51.6575
         TRA.     0.1846D+28                  1440.7247     4.9680    40.9470
         TOT.                       16.414    6148.0957    38.8529    92.6045

 300.00  VIB.     0.9448D+02                  4158.5663    32.2213    22.9004
         ROT.     0.7748D+06                   894.2429     2.9808    29.9281
         INT.     0.7320D+08                  5052.8093    35.2021    52.8285
         TRA.     0.1942D+28                  1490.4049     4.9680    41.1154
         TOT.                       16.809    6543.2141    40.1701    93.9439

 310.00  VIB.     0.1194D+03                  4487.3453    33.5334    23.9783
         ROT.     0.8139D+06                   924.0510     2.9808    30.0258
         INT.     0.9714D+08                  5411.3963    36.5142    54.0042
         TRA.     0.2040D+28                  1540.0850     4.9680    41.2783
         TOT.                       17.218    6951.4814    41.4823    95.2825

 320.00  VIB.     0.1511D+03                  4829.2100    34.8380    25.0636
         ROT.     0.8536D+06                   953.8591     2.9808    30.1205
         INT.     0.1290D+09                  5783.0691    37.8189    55.1841
         TRA.     0.2140D+28                  1589.7652     4.9680    41.4360
         TOT.                       17.639    7372.8343    42.7869    96.6201

 330.00  VIB.     0.1918D+03                  5184.0734    36.1328    26.1555
         ROT.     0.8939D+06                   983.6672     2.9808    30.2122
         INT.     0.1715D+09                  6167.7406    39.1136    56.3677
         TRA.     0.2241D+28                  1639.4454     4.9680    41.5889
         TOT.                       18.073    7807.1860    44.0816    97.9566

 340.00  VIB.     0.2440D+03                  5551.8263    37.4156    27.2532
         ROT.     0.9348D+06                  1013.4753     2.9808    30.3012
         INT.     0.2281D+09                  6565.3016    40.3964    57.5544
         TRA.     0.2343D+28                  1689.1255     4.9680    41.7372
         TOT.                       18.521    8254.4272    45.3644    99.2916

 350.00  VIB.     0.3111D+03                  5932.3395    38.6846    28.3561
         ROT.     0.9764D+06                  1043.2834     2.9808    30.3876
         INT.     0.3037D+09                  6975.6229    41.6654    58.7437
         TRA.     0.2447D+28                  1738.8057     4.9680    41.8812
         TOT.                       18.981    8714.4286    46.6334   100.6250

 360.00  VIB.     0.3973D+03                  6325.4655    39.9379    29.4635
         ROT.     0.1019D+07                  1073.0915     2.9808    30.4716
         INT.     0.4047D+09                  7398.5570    42.9187    59.9351
         TRA.     0.2553D+28                  1788.4859     4.9680    42.0212
         TOT.                       19.453    9187.0429    47.8867   101.9563

 370.00  VIB.     0.5084D+03                  6731.0411    41.1742    30.5747
         ROT.     0.1061D+07                  1102.8996     2.9808    30.5532
         INT.     0.5395D+09                  7833.9407    44.1550    61.1279
         TRA.     0.2660D+28                  1838.1660     4.9680    42.1573
         TOT.                       19.938    9672.1067    49.1231   103.2852

 380.00  VIB.     0.6516D+03                  7148.8892    42.3922    31.6889
         ROT.     0.1105D+07                  1132.7077     2.9808    30.6327
         INT.     0.7198D+09                  8281.5969    45.3731    62.3217
         TRA.     0.2769D+28                  1887.8462     4.9680    42.2898
         TOT.                       20.436   10169.4431    50.3411   104.6115

 390.00  VIB.     0.8367D+03                  7578.8213    43.5909    32.8057
         ROT.     0.1148D+07                  1162.5158     2.9808    30.7102
         INT.     0.9609D+09                  8741.3371    46.5717    63.5158
         TRA.     0.2879D+28                  1937.5263     4.9680    42.4188
         TOT.                       20.945   10678.8634    51.5397   105.9347

 400.00  VIB.     0.1076D+04                  8020.6391    44.7693    33.9242
         ROT.     0.1193D+07                  1192.3239     2.9808    30.7856
         INT.     0.1284D+10                  9212.9630    47.7501    64.7098
         TRA.     0.2990D+28                  1987.2065     4.9680    42.5446
         TOT.                       21.466   11200.1695    52.7181   107.2544

   *: NOTE: HEATS OF FORMATION ARE RELATIVE TO THE
            ELEMENTS IN THEIR STANDARD STATE AT 298K
              (=  Standard Enthalpy of Formation).

            Hvib:  Zero-point energy is not included.
                   frequencies of less than zero cm-1 are not included.
            Hrot = (3/2)RT
            Htra = (3/2)RT + pV = (5/2)RT

            Heat capacity is Cp, not Cv

          For more information, see: HTTP://OpenMOPAC.net/Manual/thermochemistry.html


           FORCE CONSTANT IN CARTESIAN COORDINATES (Millidynes/A)

    ATOM   CHEMICAL       X               Y               Z
   NUMBER   SYMBOL  FORCE CONSTANT  FORCE CONSTANT  FORCE CONSTANT

      1       O        4.052531        4.228029        2.189817
      2       O        4.051616        4.784168        1.607096
      3       O        2.778898        3.604579        2.858868
      4       O        2.772187        1.703097        4.756308
      5       C        7.551812        8.234319        8.457964
      6       C        8.209265        8.013263        8.229406
      7       C        7.740056        8.958450        8.215878
      8       C        8.228420        8.216631        8.222098
      9       C        8.371892        8.748637        8.105020
     10       C        7.342183       13.813351        5.796799
     11       C        7.562513       13.641161        5.922898
     12       H        0.714407        0.991084        4.221200
     13       H        2.818003        2.852343        0.704589
     14       H        0.719273        1.176721        4.521615
     15       H        0.741878        1.148869        4.528584
     16       H        4.584592        1.010471        0.824114
     17       H        0.698133        1.530548        3.567865
     18       H        0.739345        4.192837        1.436109
     19       H        0.717507        0.748498        4.813585
     20       H        2.207605        1.566036        2.421449
     21       H        3.367567        1.683742        1.174240

 **********************
 *                    *
 * JOB ENDED NORMALLY *
 *                    *
 **********************



 TOTAL JOB TIME:             2.06 SECONDS

 == MOPAC DONE ==
