 *******************************************************************************
 ** Site#: 14399        For non-commercial use only    Version 18.184L 64BITS **
 *******************************************************************************
 ** Cite this program as: MOPAC2016, Version: 18.184L, James J. P. Stewart,   **
 ** Stewart Computational Chemistry, web: HTTP://OpenMOPAC.net. Days left:  18**
 *******************************************************************************
 **                                                                           **
 **                                MOPAC2016                                  **
 **                                                                           **
 *******************************************************************************

                              PM3 CALCULATION RESULTS

 *******************************************************************************
 *  CALCULATION DONE:                                Sat Jun 15 10:31:43 2019  *
 *  PM3        - The PM3 Hamiltonian to be used
 *  PRECISE    - CRITERIA TO BE INCREASED BY 100 TIMES
 *  NOSYM      - POINT-GROUP SYMMETRY SET TO C1
 *  THREADS=1  - MULTI-THREADING NOT USED
 *  T=         - A TIME OF 172800.0 SECONDS REQUESTED
 *  DUMP=N     - RESTART FILE WRITTEN EVERY  7200.000 SECONDS
 *******************************************************************************
pm3  precise nosym THREADS=1
 InChI=1S/C7H12O3/c8-6-2-1-3-7(10-9)5-4-6/h4-9H,1-3H2

   ATOM   CHEMICAL          X               Y               Z
  NUMBER   SYMBOL      (ANGSTROMS)     (ANGSTROMS)     (ANGSTROMS)
 
     1       O         -2.77170000  *   0.24960000  *   0.15480000  *
     2       O          2.89790000  *   0.86400000  *   0.81130000  *
     3       O         -3.15320000  *   1.51220000  *   0.06950000  *
     4       C          0.43940000  *  -1.25220000  *  -1.05130000  *
     5       C         -0.94430000  *  -1.19350000  *  -0.38740000  *
     6       C          1.59450000  *  -0.92290000  *  -0.09490000  *
     7       C         -1.37040000  *   0.23440000  *  -0.00270000  *
     8       C          1.61110000  *   0.55120000  *   0.34420000  *
     9       C         -0.71660000  *   0.65820000  *   1.29390000  *
    10       C          0.60910000  *   0.80030000  *   1.44750000  *
    11       H          1.56390000  *  -1.59520000  *   0.79140000  *
    12       H          2.54240000  *  -1.14020000  *  -0.63490000  *
    13       H         -1.07150000  *   0.93210000  *  -0.82140000  *
    14       H          0.59330000  *  -2.28630000  *  -1.42960000  *
    15       H          0.46970000  *  -0.57820000  *  -1.93540000  *
    16       H         -0.97410000  *  -1.86410000  *   0.50010000  *
    17       H         -1.67860000  *  -1.59370000  *  -1.12090000  *
    18       H          1.37510000  *   1.20270000  *  -0.52960000  *
    19       H          0.97810000  *   1.11780000  *   2.41920000  *
    20       H         -1.35310000  *   0.86740000  *   2.14960000  *
    21       H          2.96520000  *   1.85490000  *   0.83050000  *
    22       H         -3.60600000  *   1.58160000  *  -0.80990000  *
 


          CARTESIAN COORDINATES 

    NO.       ATOM           X           Y           Z

     1         O         -2.7717      0.2496      0.1548
     2         O          2.8979      0.8640      0.8113
     3         O         -3.1532      1.5122      0.0695
     4         C          0.4394     -1.2522     -1.0513
     5         C         -0.9443     -1.1935     -0.3874
     6         C          1.5945     -0.9229     -0.0949
     7         C         -1.3704      0.2344     -0.0027
     8         C          1.6111      0.5512      0.3442
     9         C         -0.7166      0.6582      1.2939
    10         C          0.6091      0.8003      1.4475
    11         H          1.5639     -1.5952      0.7914
    12         H          2.5424     -1.1402     -0.6349
    13         H         -1.0715      0.9321     -0.8214
    14         H          0.5933     -2.2863     -1.4296
    15         H          0.4697     -0.5782     -1.9354
    16         H         -0.9741     -1.8641      0.5001
    17         H         -1.6786     -1.5937     -1.1209
    18         H          1.3751      1.2027     -0.5296
    19         H          0.9781      1.1178      2.4192
    20         H         -1.3531      0.8674      2.1496
    21         H          2.9652      1.8549      0.8305
    22         H         -3.6060      1.5816     -0.8099

  H: (PM3): J. J. P. STEWART, J. COMP. CHEM. 10, 209 (1989).
  C: (PM3): J. J. P. STEWART, J. COMP. CHEM. 10, 209 (1989).
  O: (PM3): J. J. P. STEWART, J. COMP. CHEM. 10, 209 (1989).

           Empirical Formula: C7 H12 O3  =    22 atoms



      MOLECULAR POINT GROUP   :   C1  


      RHF CALCULATION, NO. OF DOUBLY OCCUPIED LEVELS = 29


          Geometry optimization using EF

          DIAGONAL MATRIX USED AS START HESSIAN

 CYCLE:     1 TIME:   0.008 TIME LEFT:  2.00D  GRAD.:   188.040 HEAT: -55.61960
 CYCLE:     2 TIME:   0.004 TIME LEFT:  2.00D  GRAD.:   217.032 HEAT: -58.47604
 CYCLE:     3 TIME:   0.008 TIME LEFT:  2.00D  GRAD.:    71.104 HEAT: -65.12870
 CYCLE:     4 TIME:   0.012 TIME LEFT:  2.00D  GRAD.:    70.235 HEAT: -65.98443
 CYCLE:     5 TIME:   0.004 TIME LEFT:  2.00D  GRAD.:    66.967 HEAT: -65.99055
 CYCLE:     6 TIME:   0.008 TIME LEFT:  2.00D  GRAD.:    27.919 HEAT: -67.11573
 CYCLE:     7 TIME:   0.012 TIME LEFT:  2.00D  GRAD.:    23.158 HEAT: -67.27738
 CYCLE:     8 TIME:   0.004 TIME LEFT:  2.00D  GRAD.:    23.321 HEAT: -67.37861
 CYCLE:     9 TIME:   0.004 TIME LEFT:  2.00D  GRAD.:    23.404 HEAT: -67.48370
 CYCLE:    10 TIME:   0.008 TIME LEFT:  2.00D  GRAD.:    12.531 HEAT: -67.60544
 CYCLE:    11 TIME:   0.008 TIME LEFT:  2.00D  GRAD.:    10.668 HEAT: -67.64735
 CYCLE:    12 TIME:   0.008 TIME LEFT:  2.00D  GRAD.:     6.922 HEAT: -67.69340
 CYCLE:    13 TIME:   0.004 TIME LEFT:  2.00D  GRAD.:     6.444 HEAT: -67.74548
 CYCLE:    14 TIME:   0.004 TIME LEFT:  2.00D  GRAD.:     6.760 HEAT: -67.80488
 CYCLE:    15 TIME:   0.008 TIME LEFT:  2.00D  GRAD.:     9.157 HEAT: -67.86188
 CYCLE:    16 TIME:   0.004 TIME LEFT:  2.00D  GRAD.:    12.468 HEAT: -67.89848
 CYCLE:    17 TIME:   0.004 TIME LEFT:  2.00D  GRAD.:    16.658 HEAT: -67.91154
 CYCLE:    18 TIME:   0.008 TIME LEFT:  2.00D  GRAD.:     9.359 HEAT: -67.97247
 CYCLE:    19 TIME:   0.008 TIME LEFT:  2.00D  GRAD.:     5.365 HEAT: -68.00539
 CYCLE:    20 TIME:   0.008 TIME LEFT:  2.00D  GRAD.:     5.646 HEAT: -68.03105
 CYCLE:    21 TIME:   0.004 TIME LEFT:  2.00D  GRAD.:     9.032 HEAT: -68.06791
 CYCLE:    22 TIME:   0.004 TIME LEFT:  2.00D  GRAD.:     6.750 HEAT: -68.13045
 CYCLE:    23 TIME:   0.008 TIME LEFT:  2.00D  GRAD.:     9.922 HEAT: -68.18271
 CYCLE:    24 TIME:   0.004 TIME LEFT:  2.00D  GRAD.:     9.801 HEAT: -68.25859
 CYCLE:    25 TIME:   0.004 TIME LEFT:  2.00D  GRAD.:    10.666 HEAT: -68.32555
 CYCLE:    26 TIME:   0.004 TIME LEFT:  2.00D  GRAD.:    11.666 HEAT: -68.40774
 CYCLE:    27 TIME:   0.004 TIME LEFT:  2.00D  GRAD.:    17.070 HEAT: -68.42286
 CYCLE:    28 TIME:   0.004 TIME LEFT:  2.00D  GRAD.:    11.935 HEAT: -68.47409
 CYCLE:    29 TIME:   0.008 TIME LEFT:  2.00D  GRAD.:    10.348 HEAT: -68.50503
 CYCLE:    30 TIME:   0.004 TIME LEFT:  2.00D  GRAD.:    10.583 HEAT: -68.54748
 CYCLE:    31 TIME:   0.004 TIME LEFT:  2.00D  GRAD.:     7.598 HEAT: -68.58940
 CYCLE:    32 TIME:   0.008 TIME LEFT:  2.00D  GRAD.:     6.226 HEAT: -68.64027
 CYCLE:    33 TIME:   0.004 TIME LEFT:  2.00D  GRAD.:     9.607 HEAT: -68.69826
 CYCLE:    34 TIME:   0.004 TIME LEFT:  2.00D  GRAD.:     7.689 HEAT: -68.72686
 CYCLE:    35 TIME:   0.004 TIME LEFT:  2.00D  GRAD.:    11.464 HEAT: -68.76106
 CYCLE:    36 TIME:   0.008 TIME LEFT:  2.00D  GRAD.:    11.403 HEAT: -68.79160
 CYCLE:    37 TIME:   0.008 TIME LEFT:  2.00D  GRAD.:     7.006 HEAT: -68.85046
 CYCLE:    38 TIME:   0.004 TIME LEFT:  2.00D  GRAD.:     7.083 HEAT: -68.89520
 CYCLE:    39 TIME:   0.004 TIME LEFT:  2.00D  GRAD.:    12.954 HEAT: -68.93797
 CYCLE:    40 TIME:   0.004 TIME LEFT:  2.00D  GRAD.:     7.666 HEAT: -68.99303
 CYCLE:    41 TIME:   0.008 TIME LEFT:  2.00D  GRAD.:    11.247 HEAT: -69.03295
 CYCLE:    42 TIME:   0.004 TIME LEFT:  2.00D  GRAD.:     4.297 HEAT: -69.06188
 CYCLE:    43 TIME:   0.004 TIME LEFT:  2.00D  GRAD.:     3.718 HEAT: -69.08487
 CYCLE:    44 TIME:   0.004 TIME LEFT:  2.00D  GRAD.:     8.259 HEAT: -69.11667
 CYCLE:    45 TIME:   0.004 TIME LEFT:  2.00D  GRAD.:     3.828 HEAT: -69.13469
 CYCLE:    46 TIME:   0.008 TIME LEFT:  2.00D  GRAD.:     3.292 HEAT: -69.15596
 CYCLE:    47 TIME:   0.004 TIME LEFT:  2.00D  GRAD.:     3.251 HEAT: -69.18414
 CYCLE:    48 TIME:   0.004 TIME LEFT:  2.00D  GRAD.:     4.793 HEAT: -69.20532
 CYCLE:    49 TIME:   0.004 TIME LEFT:  2.00D  GRAD.:     2.937 HEAT: -69.21875
 CYCLE:    50 TIME:   0.008 TIME LEFT:  2.00D  GRAD.:     4.779 HEAT: -69.23042
 CYCLE:    51 TIME:   0.004 TIME LEFT:  2.00D  GRAD.:     3.040 HEAT: -69.24244
 CYCLE:    52 TIME:   0.004 TIME LEFT:  2.00D  GRAD.:     2.869 HEAT: -69.26057
 CYCLE:    53 TIME:   0.004 TIME LEFT:  2.00D  GRAD.:     2.383 HEAT: -69.27145
 CYCLE:    54 TIME:   0.004 TIME LEFT:  2.00D  GRAD.:     7.874 HEAT: -69.28060
 CYCLE:    55 TIME:   0.008 TIME LEFT:  2.00D  GRAD.:     3.335 HEAT: -69.29008
 CYCLE:    56 TIME:   0.004 TIME LEFT:  2.00D  GRAD.:     1.732 HEAT: -69.29886
 CYCLE:    57 TIME:   0.004 TIME LEFT:  2.00D  GRAD.:     2.734 HEAT: -69.30696
 CYCLE:    58 TIME:   0.004 TIME LEFT:  2.00D  GRAD.:     6.641 HEAT: -69.32107
 CYCLE:    59 TIME:   0.008 TIME LEFT:  2.00D  GRAD.:     1.316 HEAT: -69.33215
 CYCLE:    60 TIME:   0.004 TIME LEFT:  2.00D  GRAD.:     1.168 HEAT: -69.33580
 CYCLE:    61 TIME:   0.004 TIME LEFT:  2.00D  GRAD.:     1.676 HEAT: -69.33840
 CYCLE:    62 TIME:   0.004 TIME LEFT:  2.00D  GRAD.:     1.161 HEAT: -69.34027
 CYCLE:    63 TIME:   0.008 TIME LEFT:  2.00D  GRAD.:     0.940 HEAT: -69.34200
 CYCLE:    64 TIME:   0.004 TIME LEFT:  2.00D  GRAD.:     0.948 HEAT: -69.34380
 CYCLE:    65 TIME:   0.004 TIME LEFT:  2.00D  GRAD.:     0.897 HEAT: -69.34551
 CYCLE:    66 TIME:   0.004 TIME LEFT:  2.00D  GRAD.:     0.940 HEAT: -69.34699
 CYCLE:    67 TIME:   0.008 TIME LEFT:  2.00D  GRAD.:     0.855 HEAT: -69.34843
 CYCLE:    68 TIME:   0.004 TIME LEFT:  2.00D  GRAD.:     0.878 HEAT: -69.34975
 CYCLE:    69 TIME:   0.004 TIME LEFT:  2.00D  GRAD.:     0.592 HEAT: -69.35094
 CYCLE:    70 TIME:   0.004 TIME LEFT:  2.00D  GRAD.:     0.716 HEAT: -69.35141
 CYCLE:    71 TIME:   0.004 TIME LEFT:  2.00D  GRAD.:     0.468 HEAT: -69.35206
 CYCLE:    72 TIME:   0.008 TIME LEFT:  2.00D  GRAD.:     0.526 HEAT: -69.35246
 CYCLE:    73 TIME:   0.004 TIME LEFT:  2.00D  GRAD.:     0.731 HEAT: -69.35306
 CYCLE:    74 TIME:   0.004 TIME LEFT:  2.00D  GRAD.:     0.566 HEAT: -69.35340
 CYCLE:    75 TIME:   0.004 TIME LEFT:  2.00D  GRAD.:     0.471 HEAT: -69.35390
 CYCLE:    76 TIME:   0.008 TIME LEFT:  2.00D  GRAD.:     0.455 HEAT: -69.35435
 CYCLE:    77 TIME:   0.004 TIME LEFT:  2.00D  GRAD.:     0.458 HEAT: -69.35526
 CYCLE:    78 TIME:   0.004 TIME LEFT:  2.00D  GRAD.:     0.371 HEAT: -69.35553
 CYCLE:    79 TIME:   0.004 TIME LEFT:  2.00D  GRAD.:     0.385 HEAT: -69.35633
 CYCLE:    80 TIME:   0.004 TIME LEFT:  2.00D  GRAD.:     0.365 HEAT: -69.35661
 CYCLE:    81 TIME:   0.008 TIME LEFT:  2.00D  GRAD.:     0.537 HEAT: -69.35725
 CYCLE:    82 TIME:   0.004 TIME LEFT:  2.00D  GRAD.:     0.437 HEAT: -69.35764
 CYCLE:    83 TIME:   0.004 TIME LEFT:  2.00D  GRAD.:     0.242 HEAT: -69.35815
 CYCLE:    84 TIME:   0.004 TIME LEFT:  2.00D  GRAD.:     0.330 HEAT: -69.35855
 CYCLE:    85 TIME:   0.008 TIME LEFT:  2.00D  GRAD.:     0.274 HEAT: -69.35884
 CYCLE:    86 TIME:   0.004 TIME LEFT:  2.00D  GRAD.:     0.246 HEAT: -69.35898
 CYCLE:    87 TIME:   0.004 TIME LEFT:  2.00D  GRAD.:     0.231 HEAT: -69.35922
 CYCLE:    88 TIME:   0.004 TIME LEFT:  2.00D  GRAD.:     0.308 HEAT: -69.35935
 CYCLE:    89 TIME:   0.008 TIME LEFT:  2.00D  GRAD.:     0.398 HEAT: -69.35952
 CYCLE:    90 TIME:   0.004 TIME LEFT:  2.00D  GRAD.:     0.361 HEAT: -69.35966
 CYCLE:    91 TIME:   0.004 TIME LEFT:  2.00D  GRAD.:     0.262 HEAT: -69.35984
 CYCLE:    92 TIME:   0.004 TIME LEFT:  2.00D  GRAD.:     0.167 HEAT: -69.35992
 CYCLE:    93 TIME:   0.004 TIME LEFT:  2.00D  GRAD.:     0.094 HEAT: -69.36000
 CYCLE:    94 TIME:   0.008 TIME LEFT:  2.00D  GRAD.:     0.083 HEAT: -69.36003
 CYCLE:    95 TIME:   0.004 TIME LEFT:  2.00D  GRAD.:     0.120 HEAT: -69.36005
 CYCLE:    96 TIME:   0.004 TIME LEFT:  2.00D  GRAD.:     0.071 HEAT: -69.36009
 CYCLE:    97 TIME:   0.004 TIME LEFT:  2.00D  GRAD.:     0.057 HEAT: -69.36010
 CYCLE:    98 TIME:   0.004 TIME LEFT:  2.00D  GRAD.:     0.049 HEAT: -69.36011

     GRADIENT =  0.04942  IS LESS THAN CUTOFF =  0.05000



 -------------------------------------------------------------------------------
 pm3  precise nosym THREADS=1
 InChI=1S/C7H12O3/c8-6-2-1-3-7(10-9)5-4-6/h4-9H,1-3H2



     GEOMETRY OPTIMISED USING EIGENVECTOR FOLLOWING (EF).     
     SCF FIELD WAS ACHIEVED                                   


                              PM3 CALCULATION
                                                       MOPAC2016 (Version: 18.184L)
                                                       Sat Jun 15 10:31:43 2019
                                                       No. of days remaining =  18




          FINAL HEAT OF FORMATION =        -69.36011 KCAL/MOL =    -290.20270 KJ/MOL


          TOTAL ENERGY            =      -1893.25759 EV
          ELECTRONIC ENERGY       =      -9361.77954 EV  POINT GROUP:     C1  
          CORE-CORE REPULSION     =       7468.52195 EV
          COSMO AREA              =        174.92 SQUARE ANGSTROMS
          COSMO VOLUME            =        178.05 CUBIC ANGSTROMS

          GRADIENT NORM           =          0.04942 = 0.01054 PER ATOM
          IONIZATION POTENTIAL    =         10.086971 EV
          HOMO LUMO ENERGIES (EV) =        -10.087  0.789
          NO. OF FILLED LEVELS    =         29
          MOLECULAR WEIGHT        =        144.1700

          MOLECULAR DIMENSIONS (Angstroms)

            Atom       Atom       Distance
            H    22    H    12     7.21921
            H    21    H    17     5.34846
            H    20    H    15     3.12491


          SCF CALCULATIONS        =        108
 
          WALL-CLOCK TIME         =          0.520 SECONDS
          COMPUTATION TIME        =          0.481 SECONDS




   ATOM   CHEMICAL          X               Y               Z
  NUMBER   SYMBOL      (ANGSTROMS)     (ANGSTROMS)     (ANGSTROMS)
 
     1       O         -2.74686505  *   0.21171857  *   0.12326721  *
     2       O          2.94903533  *   0.81529614  *   0.77454052  *
     3       O         -3.25005401  *   1.61222773  *  -0.16088262  *
     4       C          0.45448127  *  -1.23020611  *  -1.03975571  *
     5       C         -0.91734869  *  -1.18840758  *  -0.38537928  *
     6       C          1.59981008  *  -0.92911972  *  -0.08643479  *
     7       C         -1.33291206  *   0.24634187  *  -0.00413632  *
     8       C          1.62351857  *   0.54530797  *   0.35015493  *
     9       C         -0.69237201  *   0.67432838  *   1.28586260  *
    10       C          0.62477883  *   0.80702646  *   1.44318446  *
    11       H          1.54282126  *  -1.58646128  *   0.80366774  *
    12       H          2.55740839  *  -1.18411759  *  -0.58512499  *
    13       H         -1.04151846  *   0.96001949  *  -0.81767663  *
    14       H          0.60819604  *  -2.24128169  *  -1.46763147  *
    15       H          0.48501675  *  -0.53582840  *  -1.90463503  *
    16       H         -0.93286127  *  -1.83861273  *   0.51175579  *
    17       H         -1.66010781  *  -1.62229955  *  -1.08569854  *
    18       H          1.39280646  *   1.20645798  *  -0.52494264  *
    19       H          1.02735030  *   1.11170758  *   2.41796234  *
    20       H         -1.37021004  *   0.88467469  *   2.12284815  *
    21       H          2.96078964  *   1.71338283  *   1.07694366  *
    22       H         -4.15555940  *   1.40578663  *   0.00261219  *

                             CARTESIAN COORDINATES

   1    O       -2.746865046     0.211718567     0.123267210
   2    O        2.949035327     0.815296138     0.774540522
   3    O       -3.250054009     1.612227733    -0.160882616
   4    C        0.454481273    -1.230206110    -1.039755711
   5    C       -0.917348686    -1.188407582    -0.385379280
   6    C        1.599810078    -0.929119721    -0.086434786
   7    C       -1.332912063     0.246341870    -0.004136317
   8    C        1.623518574     0.545307975     0.350154929
   9    C       -0.692372014     0.674328385     1.285862597
  10    C        0.624778835     0.807026463     1.443184462
  11    H        1.542821261    -1.586461279     0.803667740
  12    H        2.557408392    -1.184117589    -0.585124991
  13    H       -1.041518461     0.960019486    -0.817676626
  14    H        0.608196037    -2.241281691    -1.467631474
  15    H        0.485016746    -0.535828396    -1.904635027
  16    H       -0.932861271    -1.838612735     0.511755792
  17    H       -1.660107815    -1.622299553    -1.085698544
  18    H        1.392806461     1.206457984    -0.524942635
  19    H        1.027350299     1.111707578     2.417962345
  20    H       -1.370210041     0.884674686     2.122848151
  21    H        2.960789640     1.713382832     1.076943660
  22    H       -4.155559401     1.405786626     0.002612189


           Empirical Formula: C7 H12 O3  =    22 atoms



      MOLECULAR POINT GROUP   :   C1  


                  EIGENVALUES  
 -41.51457 -37.34080 -35.09523 -33.31891 -31.71904 -28.88762 -23.53881 -23.19746
 -20.74888 -18.85075 -18.20132 -17.61217 -17.27199 -16.73528 -15.97540 -15.36968
 -14.95856 -14.55102 -14.39474 -14.00198 -13.48749 -12.91994 -12.74259 -12.36513
 -12.11196 -11.97885 -11.36231 -10.98908 -10.08697   0.78916   1.02087   3.00225
   3.03552   3.29234   3.46997   3.50080   3.56330   3.64627   3.76840   4.03335
   4.04831   4.19896   4.22404   4.40271   4.43308   4.70312   4.80501   4.88839
   4.98836   5.30612   5.62243   5.82539


              NET ATOMIC CHARGES AND DIPOLE CONTRIBUTIONS

  ATOM NO.   TYPE          CHARGE      No. of ELECS.   s-Pop       p-Pop       
    1          O          -0.151378        6.1514     1.90671     4.24467
    2          O          -0.310397        6.3104     1.81098     4.49942
    3          O          -0.208299        6.2083     1.86510     4.34320
    4          C          -0.092373        4.0924     1.16060     2.93178
    5          C          -0.108709        4.1087     1.16526     2.94345
    6          C          -0.109837        4.1098     1.16428     2.94556
    7          C           0.098431        3.9016     1.16549     2.73608
    8          C           0.117847        3.8822     1.15901     2.72314
    9          C          -0.152629        4.1526     1.20474     2.94789
   10          C          -0.187707        4.1877     1.20832     2.97939
   11          H           0.064439        0.9356     0.93556
   12          H           0.068012        0.9320     0.93199
   13          H           0.081878        0.9181     0.91812
   14          H           0.051988        0.9480     0.94801
   15          H           0.054061        0.9459     0.94594
   16          H           0.064798        0.9352     0.93520
   17          H           0.063902        0.9361     0.93610
   18          H           0.047573        0.9524     0.95243
   19          H           0.108421        0.8916     0.89158
   20          H           0.113340        0.8867     0.88666
   21          H           0.187842        0.8122     0.81216
   22          H           0.198797        0.8012     0.80120
 DIPOLE           X         Y         Z       TOTAL
 POINT-CHG.    -0.289    -0.168    -0.453     0.563
 HYBRID        -0.669     0.517     0.352     0.916
 SUM           -0.958     0.349    -0.101     1.025


          ATOMIC ORBITAL ELECTRON POPULATIONS

     Atom    s        px        py        pz   
    1  O   1.90671   1.22311   1.09026   1.93129
    2  O   1.81098   1.27600   1.36119   1.86222
    3  O   1.86510   1.30475   1.10089   1.93755
    4  C   1.16060   0.93926   1.01860   0.97392
    5  C   1.16526   0.97419   0.95112   1.01814
    6  C   1.16428   0.98764   0.95628   1.00164
    7  C   1.16549   0.81788   0.96463   0.95357
    8  C   1.15901   0.83389   0.95504   0.93421
    9  C   1.20474   0.96366   0.99641   0.98782
   10  C   1.20832   0.96092   1.02146   0.99702
   11  H   0.93556
   12  H   0.93199
   13  H   0.91812
   14  H   0.94801
   15  H   0.94594
   16  H   0.93520
   17  H   0.93610
   18  H   0.95243
   19  H   0.89158
   20  H   0.88666
   21  H   0.81216
   22  H   0.80120
 *******************************************************************************
 ** Site#: 14399        For non-commercial use only    Version 18.184L 64BITS **
 *******************************************************************************
 ** Cite this program as: MOPAC2016, Version: 18.184L, James J. P. Stewart,   **
 ** Stewart Computational Chemistry, web: HTTP://OpenMOPAC.net. Days left:  18**
 *******************************************************************************
 **                                                                           **
 **                                MOPAC2016                                  **
 **                                                                           **
 *******************************************************************************

                              PM3 CALCULATION RESULTS

 *******************************************************************************
 *  CALCULATION DONE:                                Sat Jun 15 10:31:43 2019  *
 *  PM3        - The PM3 Hamiltonian to be used
 *  OLDGEO     - PREVIOUS GEOMETRY TO BE USED
 *  PRECISE    - CRITERIA TO BE INCREASED BY 100 TIMES
 *  NOSYM      - POINT-GROUP SYMMETRY SET TO C1
 *  THREADS=1  - MULTI-THREADING NOT USED
 *  T=         - A TIME OF 172800.0 SECONDS REQUESTED
 *  DUMP=N     - RESTART FILE WRITTEN EVERY  7200.000 SECONDS
 *  THERMO     - THERMODYNAMIC QUANTITIES TO BE CALCULATED
 *******************************************************************************
oldgeo thermo nosym precise THREADS=1  pm3
 InChI=1S/C7H12O3/c8-6-2-1-3-7(10-9)5-4-6/h4-9H,1-3H2

   ATOM   CHEMICAL          X               Y               Z
  NUMBER   SYMBOL      (ANGSTROMS)     (ANGSTROMS)     (ANGSTROMS)
 
     1       O         -2.74686505  *   0.21171857  *   0.12326721  *
     2       O          2.94903533  *   0.81529614  *   0.77454052  *
     3       O         -3.25005401  *   1.61222773  *  -0.16088262  *
     4       C          0.45448127  *  -1.23020611  *  -1.03975571  *
     5       C         -0.91734869  *  -1.18840758  *  -0.38537928  *
     6       C          1.59981008  *  -0.92911972  *  -0.08643479  *
     7       C         -1.33291206  *   0.24634187  *  -0.00413632  *
     8       C          1.62351857  *   0.54530797  *   0.35015493  *
     9       C         -0.69237201  *   0.67432838  *   1.28586260  *
    10       C          0.62477883  *   0.80702646  *   1.44318446  *
    11       H          1.54282126  *  -1.58646128  *   0.80366774  *
    12       H          2.55740839  *  -1.18411759  *  -0.58512499  *
    13       H         -1.04151846  *   0.96001949  *  -0.81767663  *
    14       H          0.60819604  *  -2.24128169  *  -1.46763147  *
    15       H          0.48501675  *  -0.53582840  *  -1.90463503  *
    16       H         -0.93286127  *  -1.83861273  *   0.51175579  *
    17       H         -1.66010781  *  -1.62229955  *  -1.08569854  *
    18       H          1.39280646  *   1.20645798  *  -0.52494264  *
    19       H          1.02735030  *   1.11170758  *   2.41796234  *
    20       H         -1.37021004  *   0.88467469  *   2.12284815  *
    21       H          2.96078964  *   1.71338283  *   1.07694366  *
    22       H         -4.15555940  *   1.40578663  *   0.00261219  *
 


          CARTESIAN COORDINATES 

    NO.       ATOM           X           Y           Z

     1         O         -2.7469      0.2117      0.1233
     2         O          2.9490      0.8153      0.7745
     3         O         -3.2501      1.6122     -0.1609
     4         C          0.4545     -1.2302     -1.0398
     5         C         -0.9173     -1.1884     -0.3854
     6         C          1.5998     -0.9291     -0.0864
     7         C         -1.3329      0.2463     -0.0041
     8         C          1.6235      0.5453      0.3502
     9         C         -0.6924      0.6743      1.2859
    10         C          0.6248      0.8070      1.4432
    11         H          1.5428     -1.5865      0.8037
    12         H          2.5574     -1.1841     -0.5851
    13         H         -1.0415      0.9600     -0.8177
    14         H          0.6082     -2.2413     -1.4676
    15         H          0.4850     -0.5358     -1.9046
    16         H         -0.9329     -1.8386      0.5118
    17         H         -1.6601     -1.6223     -1.0857
    18         H          1.3928      1.2065     -0.5249
    19         H          1.0274      1.1117      2.4180
    20         H         -1.3702      0.8847      2.1228
    21         H          2.9608      1.7134      1.0769
    22         H         -4.1556      1.4058      0.0026

  H: (PM3): J. J. P. STEWART, J. COMP. CHEM. 10, 209 (1989).
  C: (PM3): J. J. P. STEWART, J. COMP. CHEM. 10, 209 (1989).
  O: (PM3): J. J. P. STEWART, J. COMP. CHEM. 10, 209 (1989).

           Empirical Formula: C7 H12 O3  =    22 atoms



      MOLECULAR POINT GROUP   :   C1  


      RHF CALCULATION, NO. OF DOUBLY OCCUPIED LEVELS = 29



          HEAT OF FORMATION =     -69.360109 KCALS/MOLE


          CARTESIAN COORDINATE DERIVATIVES

   NUMBER  ATOM         X            Y            Z

     1       O     -0.004349    -0.003351    -0.002133
     2       O     -0.003417    -0.004699     0.002811
     3       O      0.010387     0.005781    -0.007612
     4       C     -0.004075     0.002825    -0.000715
     5       C     -0.001081    -0.003246    -0.001706
     6       C      0.002887     0.003749     0.000199
     7       C     -0.002474    -0.002536    -0.003350
     8       C     -0.000710    -0.001687     0.006185
     9       C     -0.006352     0.003569     0.000264
    10       C     -0.008189    -0.004288     0.000201
    11       H      0.004109     0.004884    -0.003258
    12       H      0.007796     0.002793    -0.002125
    13       H      0.006233    -0.011040    -0.004441
    14       H     -0.008688     0.005405    -0.000714
    15       H     -0.020984     0.005875     0.002715
    16       H      0.011182    -0.001349     0.002436
    17       H     -0.002994    -0.013257     0.001954
    18       H      0.009247     0.006174     0.002150
    19       H     -0.000071     0.000712    -0.000353
    20       H      0.003617     0.012194    -0.000352
    21       H      0.014741    -0.005393     0.005250
    22       H     -0.006814    -0.003116     0.002594
 


          GRADIENT NORM =   0.04882


          TIME FOR SCF CALCULATION =    0.00

          TIME FOR DERIVATIVES     =    0.00

          MOLECULAR WEIGHT =  144.17



          ROTATIONAL CONSTANTS IN CM(-1)

          A =    0.08027098   B =    0.02709907   C =    0.02221008



           PRINCIPAL MOMENTS OF INERTIA IN UNITS OF 10**(-40)*GRAM-CM**2

          A =      348.7285   B =     1032.9793   C =     1260.3636


          ORIENTATION OF MOLECULE IN FORCE CALCULATION

    NO.       ATOM         X         Y         Z

     1          O      -2.5099    0.2514    0.2370
     2          O       3.2548    0.2514    0.2370
     3          O      -2.8926    1.7173    0.2370
     4          C       0.3709   -1.2477   -1.5334
     5          C      -0.9063   -1.1971   -0.7099
     6          C       1.6417   -1.2062   -0.7001
     7          C      -1.1236    0.1857   -0.0638
     8          C       1.8689    0.1689   -0.0501
     9          C      -0.3002    0.3396    1.1835
    10          C       1.0329    0.3317    1.1890
    11          H       1.6172   -1.9936    0.0790
    12          H       2.5049   -1.4566   -1.3505
    13          H      -0.8529    0.9958   -0.7894
    14          H       0.3685   -2.1841   -2.1268
    15          H       0.3760   -0.4258   -2.2788
    16          H      -0.8883   -1.9822    0.0719
    17          H      -1.7647   -1.4450   -1.3671
    18          H       1.6113    0.9821   -0.7771
    19          H       1.5727    0.4366    2.1391
    20          H      -0.8533    0.4666    2.1227
    21          H       3.3946    1.0832    0.6690
    22          H      -3.7904    1.5648    0.4818


    FIRST DERIVATIVES WILL BE USED IN THE CALCULATION OF SECOND DERIVATIVES

          ESTIMATED TIME TO COMPLETE CALCULATION =        1.03 SECONDS

    FOR POINT-GROUP C1   THERE ARE   1 UNIQUE SYMMETRY FUNCTIONS.

 STEP:   1 TIME =     0.02 SECS, INTEGRAL =      0.02 TIME LEFT: 172799.98
 STEP:   2 TIME =     0.02 SECS, INTEGRAL =      0.04 TIME LEFT: 172799.95
 STEP:   3 TIME =     0.02 SECS, INTEGRAL =      0.06 TIME LEFT: 172799.93
 STEP:   4 TIME =     0.02 SECS, INTEGRAL =      0.09 TIME LEFT: 172799.91
 STEP:   5 TIME =     0.02 SECS, INTEGRAL =      0.11 TIME LEFT: 172799.89
 STEP:   6 TIME =     0.02 SECS, INTEGRAL =      0.13 TIME LEFT: 172799.87
 STEP:   7 TIME =     0.02 SECS, INTEGRAL =      0.15 TIME LEFT: 172799.85
 STEP:   8 TIME =     0.02 SECS, INTEGRAL =      0.17 TIME LEFT: 172799.83
 STEP:   9 TIME =     0.02 SECS, INTEGRAL =      0.19 TIME LEFT: 172799.81
 STEP:  10 TIME =     0.02 SECS, INTEGRAL =      0.21 TIME LEFT: 172799.79
 STEP:  11 TIME =     0.02 SECS, INTEGRAL =      0.23 TIME LEFT: 172799.77
 STEP:  12 TIME =     0.02 SECS, INTEGRAL =      0.25 TIME LEFT: 172799.75
 STEP:  13 TIME =     0.02 SECS, INTEGRAL =      0.27 TIME LEFT: 172799.72
 STEP:  14 TIME =     0.02 SECS, INTEGRAL =      0.29 TIME LEFT: 172799.70
 STEP:  15 TIME =     0.02 SECS, INTEGRAL =      0.31 TIME LEFT: 172799.68
 STEP:  16 TIME =     0.02 SECS, INTEGRAL =      0.33 TIME LEFT: 172799.66
 STEP:  17 TIME =     0.02 SECS, INTEGRAL =      0.36 TIME LEFT: 172799.64
 STEP:  18 TIME =     0.02 SECS, INTEGRAL =      0.38 TIME LEFT: 172799.62
 STEP:  19 TIME =     0.02 SECS, INTEGRAL =      0.40 TIME LEFT: 172799.60
 STEP:  20 TIME =     0.02 SECS, INTEGRAL =      0.42 TIME LEFT: 172799.58
 STEP:  21 TIME =     0.02 SECS, INTEGRAL =      0.44 TIME LEFT: 172799.55
 STEP:  22 TIME =     0.02 SECS, INTEGRAL =      0.46 TIME LEFT: 172799.54
 STEP:  23 TIME =     0.02 SECS, INTEGRAL =      0.48 TIME LEFT: 172799.52
 STEP:  24 TIME =     0.02 SECS, INTEGRAL =      0.50 TIME LEFT: 172799.49
 STEP:  25 TIME =     0.02 SECS, INTEGRAL =      0.52 TIME LEFT: 172799.47
 STEP:  26 TIME =     0.02 SECS, INTEGRAL =      0.55 TIME LEFT: 172799.45
 STEP:  27 TIME =     0.02 SECS, INTEGRAL =      0.57 TIME LEFT: 172799.43
 STEP:  28 TIME =     0.02 SECS, INTEGRAL =      0.59 TIME LEFT: 172799.41
 STEP:  29 TIME =     0.02 SECS, INTEGRAL =      0.61 TIME LEFT: 172799.39
 STEP:  30 TIME =     0.02 SECS, INTEGRAL =      0.63 TIME LEFT: 172799.37
 STEP:  31 TIME =     0.02 SECS, INTEGRAL =      0.65 TIME LEFT: 172799.34
 STEP:  32 TIME =     0.02 SECS, INTEGRAL =      0.67 TIME LEFT: 172799.32
 STEP:  33 TIME =     0.02 SECS, INTEGRAL =      0.70 TIME LEFT: 172799.30
 STEP:  34 TIME =     0.02 SECS, INTEGRAL =      0.71 TIME LEFT: 172799.28
 STEP:  35 TIME =     0.02 SECS, INTEGRAL =      0.73 TIME LEFT: 172799.26
 STEP:  36 TIME =     0.02 SECS, INTEGRAL =      0.75 TIME LEFT: 172799.24
 STEP:  37 TIME =     0.02 SECS, INTEGRAL =      0.77 TIME LEFT: 172799.22
 STEP:  38 TIME =     0.02 SECS, INTEGRAL =      0.80 TIME LEFT: 172799.20
 STEP:  39 TIME =     0.02 SECS, INTEGRAL =      0.82 TIME LEFT: 172799.18
 STEP:  40 TIME =     0.02 SECS, INTEGRAL =      0.84 TIME LEFT: 172799.16
 STEP:  41 TIME =     0.02 SECS, INTEGRAL =      0.86 TIME LEFT: 172799.14
 STEP:  42 TIME =     0.02 SECS, INTEGRAL =      0.88 TIME LEFT: 172799.12
 STEP:  43 TIME =     0.02 SECS, INTEGRAL =      0.90 TIME LEFT: 172799.10
 STEP:  44 TIME =     0.02 SECS, INTEGRAL =      0.92 TIME LEFT: 172799.08
 STEP:  45 TIME =     0.02 SECS, INTEGRAL =      0.94 TIME LEFT: 172799.06
 STEP:  46 TIME =     0.02 SECS, INTEGRAL =      0.96 TIME LEFT: 172799.04
 STEP:  47 TIME =     0.02 SECS, INTEGRAL =      0.98 TIME LEFT: 172799.02
 STEP:  48 TIME =     0.02 SECS, INTEGRAL =      1.00 TIME LEFT: 172799.00
 STEP:  49 TIME =     0.02 SECS, INTEGRAL =      1.02 TIME LEFT: 172798.97
 STEP:  50 TIME =     0.02 SECS, INTEGRAL =      1.04 TIME LEFT: 172798.95
 STEP:  51 TIME =     0.02 SECS, INTEGRAL =      1.07 TIME LEFT: 172798.93
 STEP:  52 TIME =     0.02 SECS, INTEGRAL =      1.09 TIME LEFT: 172798.91
 STEP:  53 TIME =     0.02 SECS, INTEGRAL =      1.11 TIME LEFT: 172798.89
 STEP:  54 TIME =     0.02 SECS, INTEGRAL =      1.13 TIME LEFT: 172798.87
 STEP:  55 TIME =     0.02 SECS, INTEGRAL =      1.15 TIME LEFT: 172798.85
 STEP:  56 TIME =     0.02 SECS, INTEGRAL =      1.17 TIME LEFT: 172798.82
 STEP:  57 TIME =     0.02 SECS, INTEGRAL =      1.19 TIME LEFT: 172798.80
 STEP:  58 TIME =     0.02 SECS, INTEGRAL =      1.21 TIME LEFT: 172798.79
 STEP:  59 TIME =     0.02 SECS, INTEGRAL =      1.23 TIME LEFT: 172798.76
 STEP:  60 TIME =     0.02 SECS, INTEGRAL =      1.25 TIME LEFT: 172798.74
 STEP:  61 TIME =     0.02 SECS, INTEGRAL =      1.28 TIME LEFT: 172798.72
 STEP:  62 TIME =     0.02 SECS, INTEGRAL =      1.30 TIME LEFT: 172798.70
 STEP:  63 TIME =     0.02 SECS, INTEGRAL =      1.32 TIME LEFT: 172798.68
 STEP:  64 TIME =     0.02 SECS, INTEGRAL =      1.34 TIME LEFT: 172798.66
 STEP:  65 TIME =     0.02 SECS, INTEGRAL =      1.36 TIME LEFT: 172798.63
 STEP:  66 TIME =     0.02 SECS, INTEGRAL =      1.38 TIME LEFT: 172798.61

(To convert to Hartree/Bohr^2, multiply by (10^(-21) x N x a0^2)/(4.184 x 627.51) =  0.0642)


           FORCE MATRIX IN MILLIDYNES/ANGSTROM


                  O  1       O  2       O  3       C  4       C  5       C  6
 ------------------------------------------------------------------------------
     O    1   7.890665
     O    2   0.008329  11.945751
     O    3   2.581424   0.004306  10.106617
     C    4   0.056401   0.062934   0.018590  14.270751
     C    5   0.847577   0.004076   0.110440   4.157570  14.068351
     C    6   0.003923   0.853111   0.002088   4.169928   0.604946  14.186590
     C    7   4.772648   0.017117   0.981337   0.608890   3.494369   0.034995
     C    8   0.012621   5.039621   0.005542   0.603528   0.033287   3.637964
     C    9   0.933435   0.079922   0.052776   0.028874   0.615907   0.042159
     C   10   0.071065   0.922189   0.004435   0.028031   0.044001   0.620711
     H   11   0.000863   0.027405   0.000747   0.447023   0.022617   4.474976
     H   12   0.000986   0.098612   0.000460   0.429597   0.049678   4.449320
     H   13   0.436282   0.003491   0.084887   0.043224   0.427023   0.006338
     H   14   0.009316   0.010551   0.003789   4.456435   0.425927   0.426773
     H   15   0.003101   0.003783   0.001234   4.408141   0.444204   0.443303
     H   16   0.034035   0.001588   0.003492   0.446632   4.473211   0.022959
     H   17   0.105275   0.001195   0.004624   0.429420   4.448705   0.049587
     H   18   0.001544   0.414100   0.000702   0.043084   0.005950   0.430577
     H   19   0.009074   0.069394   0.001364   0.001572   0.014980   0.021827
     H   20   0.072887   0.010489   0.007405   0.001559   0.023812   0.014483
     H   21   0.003003   8.332093   0.001631   0.016199   0.002370   0.107256
     H   22   1.074364   0.002223   8.651115   0.003444   0.019880   0.000873


                  C  7       C  8       C  9       C 10       H 11       H 12
 ------------------------------------------------------------------------------
     C    7  14.456679
     C    8   0.121970  14.606595
     C    9   4.408023   0.747633  18.108009
     C   10   0.749807   4.373162  10.718043  18.087663
     H   11   0.005305   0.456702   0.005546   0.032598   5.096477
     H   12   0.004990   0.469985   0.002314   0.043072   0.566317   5.063881
     H   13   4.069043   0.030006   0.408377   0.029376   0.000994   0.000590
     H   14   0.050396   0.049595   0.002941   0.002484   0.025721   0.039753
     H   15   0.031945   0.034160   0.001936   0.002205   0.045191   0.025779
     H   16   0.453850   0.005584   0.033441   0.004868   0.023778   0.002579
     H   17   0.465557   0.004934   0.042933   0.002203   0.002569   0.008000
     H   18   0.026876   4.024140   0.028694   0.412242   0.041349   0.012275
     H   19   0.122821   0.455750   0.440793   4.778238   0.002944   0.003840
     H   20   0.462936   0.123027   4.799316   0.438919   0.000920   0.002248
     H   21   0.005406   0.792301   0.009765   0.085178   0.001671   0.004576
     H   22   0.143605   0.002391   0.005972   0.003027   0.000254   0.000192


                  H 13       H 14       H 15       H 16       H 17       H 18
 ------------------------------------------------------------------------------
     H   13   4.474080
     H   14   0.002423   5.051962
     H   15   0.030010   0.571805   5.035356
     H   16   0.039047   0.025955   0.045286   5.090621
     H   17   0.012262   0.039870   0.025870   0.560023   5.061868
     H   18   0.021476   0.001990   0.029941   0.000849   0.000570   4.442298
     H   19   0.011214   0.000387   0.000441   0.000893   0.002289   0.025818
     H   20   0.024120   0.000360   0.000397   0.003026   0.003835   0.011557
     H   21   0.001560   0.002661   0.000832   0.000425   0.000598   0.043429
     H   22   0.008270   0.000699   0.000347   0.001197   0.001465   0.000514


                  H 19       H 20       H 21       H 22
 ------------------------------------------------------
     H   19   5.157263
     H   20   0.077705   5.171746
     H   21   0.039429   0.002257   8.577260
     H   22   0.000594   0.003222   0.001094   8.990948


          HEAT OF FORMATION =     -69.360109 KCALS/MOLE

          ZERO POINT ENERGY     115.417 KCAL/MOL


           NORMAL COORDINATE ANALYSIS (Total motion = 1 Angstrom)


   Root No.       1         2         3         4         5         6         7         8

                 1 A       2 A       3 A       4 A       5 A       6 A       7 A       8 A   

                  48.2      81.8     157.0     178.1     216.0     252.1     274.5     313.9
  
           1   -0.0085    0.0040    0.0080   -0.0030   -0.0051   -0.0042   -0.0100   -0.0061
           2   -0.0026    0.0180    0.0009   -0.0012   -0.0155   -0.0069    0.0112   -0.0068
           3   -0.0701   -0.0202    0.0154    0.0091    0.0301   -0.0113    0.0395    0.0360
           4   -0.0074   -0.0249    0.0009   -0.0031   -0.0008    0.0155    0.0123   -0.0146
           5    0.0080    0.0589    0.0228   -0.0012   -0.0134    0.0005    0.0156    0.0269
           6    0.0100   -0.0266   -0.0297    0.0182    0.0157   -0.0551    0.0269    0.0046
           7    0.0293    0.0560   -0.0167    0.0073    0.0534    0.0094   -0.0073    0.0242
           8    0.0076    0.0329   -0.0067    0.0021    0.0010   -0.0039    0.0154    0.0026
           9    0.1139   -0.0101   -0.0003   -0.0433   -0.0047   -0.0044    0.0050   -0.0013
          10    0.0155   -0.0033    0.0190    0.0009   -0.0035   -0.0015    0.0046    0.0141
          11   -0.0323   -0.0227   -0.0065    0.0001    0.0168    0.0136   -0.0350    0.0205
          12    0.0079    0.0057    0.0029   -0.0027   -0.0104    0.0030    0.0150   -0.0139
          13    0.0040   -0.0027   -0.0107   -0.0020   -0.0169   -0.0004   -0.0179    0.0195
          14   -0.0137   -0.0204    0.0301   -0.0091   -0.0200   -0.0097    0.0014   -0.0024
          15   -0.0109    0.0078   -0.0456   -0.0053   -0.0272    0.0045   -0.0165    0.0020
          16    0.0041    0.0024   -0.0096    0.0013   -0.0213   -0.0119    0.0242    0.0122
          17   -0.0148    0.0068   -0.0293    0.0063    0.0127    0.0075    0.0075   -0.0341
          18    0.0244   -0.0033    0.0479   -0.0030    0.0172    0.0164   -0.0130   -0.0042
          19   -0.0024    0.0074    0.0063   -0.0068   -0.0122   -0.0027   -0.0185   -0.0142
          20   -0.0007   -0.0195    0.0127   -0.0105   -0.0379   -0.0093    0.0001   -0.0015
          21   -0.0409    0.0099   -0.0014   -0.0062    0.0045    0.0001   -0.0137   -0.0092
          22   -0.0039   -0.0274   -0.0024    0.0000    0.0008    0.0011    0.0178   -0.0080
          23    0.0002    0.0092   -0.0091    0.0053    0.0208    0.0087    0.0074   -0.0350
          24   -0.0043    0.0035    0.0029   -0.0003   -0.0048    0.0116   -0.0113    0.0020
          25   -0.0182   -0.0100    0.0070   -0.0054   -0.0035   -0.0047   -0.0004   -0.0113
          26    0.0237   -0.0511   -0.0112   -0.0048   -0.0163    0.0040   -0.0147    0.0385
          27   -0.0338    0.0255    0.0026   -0.0074   -0.0050    0.0007   -0.0264   -0.0186
          28   -0.0183   -0.0097    0.0071   -0.0059   -0.0039   -0.0035   -0.0020   -0.0134
          29    0.0262   -0.0379   -0.0058    0.0060    0.0480    0.0137   -0.0109   -0.0230
          30   -0.0175    0.0222    0.0079   -0.0049   -0.0129    0.0089   -0.0247   -0.0052
          31   -0.0074    0.0279   -0.0678    0.0053   -0.0564   -0.0295    0.0667   -0.0085
          32    0.0032    0.0022    0.0001    0.0050    0.0305    0.0135    0.0049   -0.0449
          33    0.0423   -0.0072    0.0759   -0.0042    0.0345    0.0224   -0.0146   -0.0165
          34    0.0128    0.0034    0.0075    0.0017   -0.0122   -0.0080    0.0120    0.0187
          35   -0.0307    0.0318   -0.0835    0.0108   -0.0219   -0.0095    0.0329   -0.0334
          36    0.0421   -0.0115    0.0920   -0.0044    0.0427    0.0277   -0.0394    0.0055
          37    0.0015    0.0393    0.0032   -0.0095   -0.0179    0.0005   -0.0324   -0.0439
          38   -0.0127   -0.0216    0.0304   -0.0134   -0.0338   -0.0119   -0.0009   -0.0076
          39   -0.0522    0.0189    0.0175   -0.0109    0.0043   -0.0025   -0.0191   -0.0282
          40    0.0229    0.0043    0.0159    0.0074    0.0194    0.0083    0.0075   -0.0006
          41   -0.0454   -0.0334   -0.0112    0.0008    0.0323    0.0254   -0.0683    0.0531
          42    0.0285    0.0225    0.0103   -0.0039   -0.0345   -0.0151    0.0661   -0.0643
          43    0.0261   -0.0153    0.0657   -0.0035   -0.0007   -0.0029    0.0038    0.0238
          44   -0.0487   -0.0359   -0.0124    0.0009    0.0355    0.0280   -0.0744    0.0589
          45   -0.0100   -0.0090   -0.0033   -0.0018    0.0101    0.0187   -0.0282    0.0278
          46   -0.0079   -0.0038   -0.0780    0.0002   -0.0282    0.0104   -0.0592    0.0533
          47    0.0020   -0.0212    0.0013   -0.0103   -0.0455   -0.0095   -0.0024    0.0062
          48    0.0052    0.0070   -0.0731   -0.0067   -0.0533    0.0044   -0.0199    0.0100
          49    0.0133   -0.0046    0.0067   -0.0004   -0.0097   -0.0006   -0.0028    0.0166
          50   -0.0262   -0.0168    0.0913   -0.0103    0.0054   -0.0185    0.0254   -0.0327
          51   -0.0185    0.0092   -0.0920   -0.0067   -0.0458    0.0083   -0.0452    0.0183
          52    0.0037   -0.0694   -0.0245    0.0069    0.0249    0.0109    0.0317   -0.0255
          53   -0.0164    0.0073   -0.0288    0.0062    0.0161    0.0166    0.0075   -0.0453
          54   -0.0255    0.0160   -0.0115   -0.0016   -0.0180    0.0173   -0.0151   -0.0052
          55   -0.0297   -0.0009    0.0094   -0.0090   -0.0059   -0.0191   -0.0149   -0.0204
          56    0.0469   -0.0671   -0.0116    0.0132    0.1072    0.0284   -0.0288   -0.0315
          57   -0.0134    0.0199    0.0068   -0.0038   -0.0181    0.0164   -0.0146   -0.0001
          58   -0.0301   -0.0169    0.0049   -0.0039    0.0003   -0.0093    0.0077   -0.0103
          59    0.0421   -0.0906   -0.0247   -0.0094   -0.0237    0.0108   -0.0348    0.1064
          60   -0.0434    0.0262    0.0034   -0.0060   -0.0013   -0.0027   -0.0181   -0.0265
          61   -0.0133   -0.0498   -0.0096    0.0017    0.0231   -0.0267   -0.0191   -0.0609
          62    0.0181    0.0546    0.0247    0.0215    0.0113   -0.2566   -0.0249    0.0206
          63   -0.0077   -0.0101   -0.0298   -0.0272   -0.0399    0.4556    0.1156    0.0326
          64    0.0253    0.0460   -0.0064    0.1949    0.0284    0.0183   -0.0153    0.0153
          65   -0.0020    0.0622   -0.0172    0.0703    0.0420    0.0074    0.0199    0.0302
          66    0.0935   -0.0289    0.0313    0.6878   -0.0725    0.0352   -0.0218   -0.0177


   Root No.       9        10        11        12        13        14        15        16

                 9 A      10 A      11 A      12 A      13 A      14 A      15 A      16 A   

                 322.7     409.0     421.8     440.1     471.1     545.8     571.7     682.8
  
           1   -0.0301   -0.0310   -0.0164   -0.0236   -0.0162    0.0289   -0.0131   -0.0461
           2    0.0111    0.0030   -0.0160   -0.0119   -0.0209    0.0076   -0.0030   -0.0172
           3   -0.0142    0.0103   -0.0038   -0.0311   -0.0034    0.0063    0.0063   -0.0106
           4    0.0312   -0.0079    0.0291    0.0091   -0.0112   -0.0202    0.0268   -0.0509
           5    0.0099   -0.0372   -0.0040    0.0192   -0.0153   -0.0074    0.0149   -0.0076
           6   -0.0073   -0.0370   -0.0257    0.0114    0.0044   -0.0082   -0.0047    0.0091
           7   -0.0195   -0.0068    0.0225    0.0107    0.0382    0.0051    0.0115    0.0017
           8    0.0221    0.0234   -0.0157   -0.0079   -0.0326   -0.0165   -0.0120    0.0094
           9    0.0025    0.0017   -0.0041   -0.0044   -0.0072   -0.0000   -0.0017   -0.0019
          10    0.0045    0.0480   -0.0107   -0.0097    0.0043   -0.0025   -0.0131    0.0065
          11    0.0358   -0.0076    0.0054    0.0038    0.0066    0.0207   -0.0091    0.0029
          12    0.0207    0.0028    0.0258    0.0131    0.0181    0.0442   -0.0236    0.0060
          13   -0.0017    0.0349   -0.0284   -0.0190    0.0139   -0.0182    0.0096    0.0040
          14   -0.0175    0.0096    0.0009    0.0179    0.0451    0.0032    0.0274    0.0116
          15    0.0203   -0.0088   -0.0072   -0.0037    0.0213    0.0084    0.0054   -0.0014
          16    0.0077    0.0426    0.0025    0.0161    0.0002    0.0229   -0.0121    0.0004
          17   -0.0107    0.0014    0.0242   -0.0241    0.0063   -0.0145   -0.0121   -0.0029
          18    0.0224   -0.0042    0.0040   -0.0190    0.0126    0.0006   -0.0085    0.0052
          19   -0.0267   -0.0232   -0.0154   -0.0073   -0.0113    0.0137   -0.0103   -0.0213
          20   -0.0113   -0.0087   -0.0007   -0.0071    0.0358    0.0161    0.0222    0.0018
          21   -0.0006    0.0185   -0.0124    0.0417    0.0049   -0.0273   -0.0154   -0.0068
          22    0.0302   -0.0157    0.0139    0.0131   -0.0040   -0.0140    0.0141   -0.0253
          23   -0.0012    0.0008    0.0034   -0.0263    0.0242   -0.0103   -0.0249    0.0010
          24   -0.0074    0.0067    0.0339   -0.0100   -0.0343    0.0030    0.0313    0.0029
          25    0.0015   -0.0252   -0.0031    0.0054   -0.0103   -0.0075   -0.0091    0.0799
          26   -0.0347   -0.0046    0.0282    0.0078   -0.0021   -0.0221   -0.0281   -0.0097
          27   -0.0150    0.0201   -0.0194    0.0313    0.0037   -0.0157   -0.0078   -0.0461
          28    0.0045   -0.0225   -0.0003    0.0079   -0.0112   -0.0107   -0.0065    0.0788
          29   -0.0155    0.0174   -0.0265    0.0145   -0.0195    0.0209    0.0270    0.0142
          30   -0.0218    0.0051    0.0282   -0.0149   -0.0321   -0.0034    0.0151    0.0419
          31   -0.0246    0.0803    0.0425    0.0462   -0.0188    0.0984   -0.0214    0.0305
          32    0.0047   -0.0136    0.0030   -0.0439    0.0408   -0.0479   -0.0369   -0.0192
          33    0.0372   -0.0190   -0.0167   -0.0402    0.0488   -0.0341   -0.0345   -0.0115
          34    0.0029    0.0492   -0.0144   -0.0033    0.0022   -0.0028   -0.0116    0.0031
          35   -0.0535    0.0467    0.0582    0.0029   -0.0389    0.0523    0.0033    0.0374
          36    0.0339   -0.0161   -0.0331   -0.0550    0.0334   -0.0617   -0.0132   -0.0085
          37   -0.0238   -0.0248   -0.0323    0.0131   -0.0254    0.0166   -0.0201   -0.0818
          38   -0.0151    0.0033   -0.0066    0.0081    0.0533    0.0150    0.0403    0.0126
          39   -0.0031    0.0310   -0.0267    0.0635    0.0184   -0.0274    0.0019   -0.0163
          40    0.0081    0.0446    0.0038   -0.0345   -0.0181   -0.0123   -0.0371    0.0006
          41    0.0766   -0.0202   -0.0022    0.0111   -0.0149    0.0626   -0.0389    0.0001
          42   -0.0423    0.0219    0.0371    0.0012    0.0519   -0.0197    0.0219    0.0105
          43    0.0031    0.0582   -0.0168   -0.0009    0.0171    0.0013   -0.0055    0.0186
          44    0.0844   -0.0221   -0.0026    0.0129   -0.0184    0.0712   -0.0450    0.0001
          45    0.0731   -0.0130    0.0162    0.0219   -0.0085    0.0957   -0.0604    0.0028
          46    0.0298    0.0280   -0.0673   -0.0727    0.0177   -0.0572    0.0694    0.0193
          47   -0.0073   -0.0010   -0.0081   -0.0196    0.0634    0.0095    0.0675    0.0268
          48    0.0300   -0.0195   -0.0165   -0.0418    0.0418    0.0145    0.0480    0.0147
          49    0.0048    0.0520   -0.0120   -0.0071    0.0143   -0.0017   -0.0132    0.0117
          50   -0.0571    0.0113    0.0251    0.0815    0.0226    0.0150   -0.0375   -0.0213
          51    0.0283   -0.0310   -0.0393   -0.0463    0.0284   -0.0186    0.0611    0.0016
          52    0.0347   -0.0244   -0.0077    0.0161    0.0177   -0.0180    0.0075   -0.0736
          53   -0.0087    0.0038    0.0240   -0.0400    0.0229   -0.0218   -0.0337   -0.0056
          54   -0.0169    0.0124    0.0642   -0.0278   -0.0409   -0.0106    0.0228    0.0101
          55   -0.0025   -0.0166   -0.0181    0.0224    0.0018   -0.0194   -0.0296    0.0813
          56   -0.0299    0.0610   -0.0606    0.0752   -0.1167    0.0598    0.1074    0.0109
          57   -0.0160   -0.0035    0.0408   -0.0285   -0.0282   -0.0033    0.0188    0.0423
          58    0.0143   -0.0219   -0.0152    0.0292    0.0065   -0.0245   -0.0243    0.0858
          59   -0.0746   -0.0007    0.0806    0.0529   -0.0722   -0.0838   -0.0922   -0.0534
          60   -0.0021    0.0215   -0.0328    0.0382    0.0224   -0.0169   -0.0074   -0.0382
          61    0.0267    0.0464    0.0593   -0.0339    0.0053   -0.0129    0.0050   -0.0434
          62    0.0300   -0.0337    0.0206    0.0144   -0.0210   -0.0107    0.0228   -0.0189
          63   -0.0447   -0.0628   -0.0840    0.0357    0.0097   -0.0042   -0.0127    0.0298
          64   -0.0191   -0.0092    0.0160    0.0093    0.0283    0.0060    0.0059   -0.0040
          65    0.0222    0.0376    0.0177    0.0158    0.0228   -0.0283    0.0165    0.0476
          66    0.0036   -0.0004   -0.0077    0.0048   -0.0090   -0.0015   -0.0040   -0.0033


   Root No.      17        18        19        20        21        22        23        24

                17 A      18 A      19 A      20 A      21 A      22 A      23 A      24 A   

                 769.6     793.7     870.1     872.5     912.2     964.2     993.4    1015.4
  
           1    0.0037   -0.0583   -0.0028    0.0044    0.0103   -0.0005   -0.0022   -0.0105
           2    0.0111    0.1507   -0.0024    0.0150   -0.0078    0.0042   -0.0033    0.0036
           3   -0.0001    0.0057    0.0006   -0.0018   -0.0019    0.0007    0.0019    0.0051
           4   -0.0103   -0.0032   -0.0038   -0.0055   -0.0077   -0.0003   -0.0008    0.0081
           5   -0.0023   -0.0021    0.0002   -0.0003   -0.0033    0.0009   -0.0007    0.0015
           6    0.0005    0.0012   -0.0009   -0.0033   -0.0013    0.0003   -0.0023    0.0036
           7    0.0006    0.0203   -0.0006   -0.0012    0.0002   -0.0022    0.0008   -0.0002
           8   -0.0084   -0.1224    0.0020   -0.0072    0.0036   -0.0002    0.0007   -0.0017
           9    0.0002    0.0038    0.0001    0.0008   -0.0005    0.0005   -0.0003    0.0005
          10    0.0021    0.0198    0.0020    0.0034   -0.0007   -0.0108    0.0073   -0.0000
          11    0.0181   -0.0217    0.0032    0.0458    0.0275    0.0042   -0.0025    0.0082
          12    0.0134   -0.0289    0.0011    0.0109    0.0050   -0.0004    0.0022    0.0253
          13    0.0005   -0.0150    0.0166    0.0103   -0.0536    0.0087   -0.0002    0.0234
          14    0.0149   -0.0330   -0.0021   -0.0004   -0.0039    0.0218   -0.0096   -0.0083
          15    0.0041   -0.0049    0.0377    0.0049   -0.0249    0.0080    0.0022   -0.0158
          16    0.0007    0.0224    0.0156   -0.0133    0.0539    0.0065   -0.0010   -0.0237
          17    0.0183   -0.0048    0.0031    0.0111   -0.0072   -0.0257    0.0136   -0.0062
          18    0.0033   -0.0087   -0.0370    0.0105   -0.0236   -0.0049   -0.0058   -0.0146
          19    0.0005   -0.0091    0.0039    0.0010   -0.0075    0.0063   -0.0020   -0.0007
          20   -0.0054    0.0028   -0.0004   -0.0231   -0.0020   -0.0278    0.0148    0.0049
          21   -0.0035    0.0065   -0.0031    0.0078   -0.0058    0.0010   -0.0067   -0.0304
          22   -0.0018   -0.0018    0.0030   -0.0005    0.0046    0.0024   -0.0006    0.0057
          23   -0.0034    0.0113   -0.0036   -0.0278   -0.0008    0.0260   -0.0161    0.0034
          24   -0.0059   -0.0017    0.0034    0.0070   -0.0067   -0.0023    0.0040   -0.0323
          25    0.0041    0.0092   -0.0022    0.0016   -0.0022   -0.0034    0.0004   -0.0066
          26   -0.0400    0.0090    0.0018    0.0083    0.0103   -0.0298   -0.0263    0.0014
          27   -0.0108    0.0078   -0.0146   -0.0097    0.0197   -0.0149    0.0049    0.0363
          28    0.0011    0.0135   -0.0025   -0.0011    0.0024   -0.0028    0.0015    0.0063
          29   -0.0413    0.0079    0.0005    0.0088    0.0111    0.0286    0.0269   -0.0025
          30   -0.0097    0.0156    0.0136   -0.0149    0.0205    0.0150   -0.0019    0.0385
          31   -0.0248   -0.0148   -0.1251   -0.0188   -0.0482    0.0318   -0.0622    0.0128
          32    0.0388    0.0184    0.0497   -0.0387    0.0498   -0.0132   -0.0125    0.0240
          33    0.0260    0.0140    0.0099   -0.0393    0.0347    0.0067   -0.0331    0.0168
          34    0.0020    0.0558    0.0479   -0.0233    0.0777   -0.0176    0.0298   -0.1030
          35   -0.0196   -0.0275   -0.1158    0.0406   -0.1309   -0.0428    0.0204   -0.0668
          36    0.0203    0.0448    0.0568   -0.0166    0.0574   -0.0284    0.0313   -0.0953
          37    0.0235    0.0838   -0.0162    0.0147    0.0024    0.0331    0.0146   -0.0357
          38    0.0140   -0.0500   -0.0278   -0.0582   -0.0040   -0.0362    0.0654   -0.0164
          39    0.0250   -0.0183   -0.0419   -0.0274   -0.0030   -0.0002    0.0566   -0.0652
          40    0.0048    0.0485   -0.0270    0.0206   -0.0060   -0.1344    0.0968    0.0027
          41   -0.0205    0.0213   -0.0034   -0.0512   -0.0256   -0.0029    0.0018   -0.0049
          42    0.0734   -0.0945    0.0114    0.1582    0.0891    0.0107   -0.0046    0.0421
          43    0.0009    0.0140   -0.0598   -0.0006    0.0020    0.0607   -0.0879    0.0049
          44   -0.0260    0.0241   -0.0044   -0.0699   -0.0373   -0.0060    0.0048   -0.0003
          45   -0.0331    0.0208   -0.0075   -0.1123   -0.0608   -0.0109    0.0093    0.0136
          46    0.0214   -0.0035   -0.1220    0.0257    0.0540    0.0331   -0.0624    0.0016
          47    0.0293   -0.0395   -0.0541   -0.0458    0.0539   -0.0079    0.0323    0.0125
          48    0.0205   -0.0150   -0.0154   -0.0407    0.0350   -0.0209    0.0452    0.0052
          49    0.0022   -0.0246    0.0520    0.0230   -0.0798   -0.0135    0.0344    0.0920
          50   -0.0170   -0.0258    0.1183    0.0156   -0.1319    0.0516   -0.0314   -0.0614
          51    0.0147    0.0098   -0.0593   -0.0185    0.0594    0.0235   -0.0335   -0.0840
          52   -0.0200   -0.0082   -0.0151    0.0050   -0.0184    0.0205    0.0214    0.0554
          53    0.0214    0.0161    0.0205   -0.0584   -0.0047    0.0204   -0.0517   -0.0125
          54    0.0264    0.0068    0.0371   -0.0315   -0.0019   -0.0125   -0.0446   -0.0651
          55   -0.0035    0.0247   -0.0246   -0.0059    0.0177   -0.0345    0.0074    0.0648
          56    0.2266   -0.0294    0.0446   -0.0627   -0.0252   -0.1347   -0.1150    0.0286
          57   -0.0370    0.0141    0.0206   -0.0044    0.0167    0.0500    0.0108    0.0035
          58    0.0130    0.0167   -0.0256    0.0127   -0.0177   -0.0442    0.0039   -0.0764
          59    0.2219    0.0001   -0.0590   -0.0540   -0.0234    0.1369    0.1171    0.0101
          60   -0.0415    0.0130   -0.0196    0.0048    0.0159   -0.0606   -0.0125   -0.0041
          61   -0.0103    0.0127   -0.0036   -0.0355    0.0041    0.0320   -0.0253   -0.0279
          62   -0.0027   -0.0060    0.0009    0.0050   -0.0069   -0.0041    0.0038    0.0076
          63    0.0016    0.0032   -0.0021   -0.0028    0.0015   -0.0015   -0.0023    0.0048
          64   -0.0000   -0.0151   -0.0006   -0.0013    0.0030   -0.0014    0.0000   -0.0034
          65   -0.0080    0.0211    0.0020   -0.0135   -0.0095   -0.0072    0.0085    0.0155
          66    0.0015    0.0019   -0.0003    0.0010   -0.0003    0.0012   -0.0002   -0.0007


   Root No.      25        26        27        28        29        30        31        32

                25 A      26 A      27 A      28 A      29 A      30 A      31 A      32 A   

                1051.3    1071.3    1095.9    1097.4    1111.5    1122.7    1146.7    1148.7
  
           1    0.0059   -0.0156   -0.0076   -0.0020   -0.0234   -0.0208    0.0074    0.0036
           2    0.0062   -0.0063   -0.0056   -0.0006   -0.0077   -0.0129   -0.0006   -0.0026
           3   -0.0007    0.0053    0.0036    0.0020    0.0098    0.0067   -0.0036    0.0004
           4   -0.0109   -0.0097   -0.0192    0.0057    0.0232   -0.0084    0.0084    0.0093
           5    0.0020   -0.0018    0.0047    0.0015   -0.0024    0.0022   -0.0011   -0.0020
           6   -0.0031   -0.0053   -0.0073    0.0055    0.0084   -0.0012    0.0033    0.0006
           7    0.0003   -0.0016   -0.0013    0.0005   -0.0036   -0.0005    0.0010    0.0014
           8   -0.0021    0.0026    0.0022   -0.0003    0.0038    0.0029   -0.0000   -0.0003
           9    0.0001    0.0004    0.0003   -0.0000    0.0011    0.0002   -0.0005   -0.0003
          10   -0.0005   -0.0039    0.0151   -0.0055    0.0045   -0.0004    0.0266    0.0032
          11   -0.0080   -0.0018    0.0000    0.0159    0.0015    0.0124    0.0026    0.0055
          12    0.0241   -0.0032   -0.0001   -0.0014    0.0062   -0.0044   -0.0040   -0.0061
          13    0.0130   -0.0009   -0.0119    0.0058   -0.0013   -0.0021   -0.0203   -0.0054
          14   -0.0020    0.0011    0.0035   -0.0210    0.0137   -0.0245   -0.0027   -0.0317
          15   -0.0196   -0.0000    0.0058   -0.0022   -0.0009    0.0067    0.0174    0.0131
          16   -0.0119    0.0072   -0.0092    0.0028   -0.0067    0.0018   -0.0185   -0.0028
          17    0.0012    0.0135   -0.0078   -0.0346    0.0086   -0.0134   -0.0058    0.0180
          18   -0.0201    0.0060   -0.0058    0.0072   -0.0030    0.0033   -0.0121   -0.0043
          19   -0.0055    0.0197    0.0050    0.0004    0.0260    0.0181   -0.0028   -0.0109
          20   -0.0082   -0.0023   -0.0077    0.0103   -0.0234    0.0377    0.0051    0.0234
          21    0.0150    0.0036   -0.0064    0.0034   -0.0178   -0.0223    0.0188   -0.0044
          22    0.0090    0.0102    0.0077   -0.0040   -0.0160    0.0051    0.0024   -0.0093
          23   -0.0106   -0.0104    0.0119    0.0411   -0.0103   -0.0027    0.0045   -0.0115
          24    0.0137   -0.0093    0.0110   -0.0081   -0.0117    0.0097   -0.0197   -0.0037
          25    0.0024   -0.0016    0.0025   -0.0008   -0.0015    0.0001   -0.0007   -0.0008
          26    0.0091    0.0092    0.0066    0.0106    0.0093   -0.0115   -0.0036   -0.0012
          27   -0.0184   -0.0172    0.0046   -0.0130    0.0018    0.0153   -0.0097   -0.0037
          28   -0.0028   -0.0015    0.0014   -0.0007    0.0023    0.0014   -0.0004    0.0003
          29    0.0088   -0.0083   -0.0092   -0.0135    0.0036    0.0098    0.0030    0.0010
          30   -0.0122    0.0185   -0.0030    0.0081   -0.0092   -0.0158    0.0101    0.0067
          31   -0.0163    0.0478   -0.0780   -0.0264   -0.0182    0.0368   -0.0194    0.0033
          32    0.0497    0.0553   -0.0886   -0.1181    0.0126   -0.0019   -0.0209    0.0463
          33    0.0310    0.0498   -0.0906   -0.0794    0.0005    0.0172   -0.0283    0.0228
          34   -0.0661   -0.0109    0.0253    0.0050    0.0110   -0.0372   -0.0570    0.0343
          35   -0.0846   -0.0094    0.0371    0.0008    0.0248   -0.0424   -0.0258    0.0453
          36   -0.0558   -0.0105    0.0208   -0.0032    0.0149   -0.0373   -0.0580    0.0340
          37    0.0486    0.1149    0.0979    0.0555    0.2002    0.0713   -0.0472    0.0204
          38    0.0712    0.0327   -0.0470    0.0969   -0.0428    0.0090    0.0073    0.0853
          39    0.1238    0.0753   -0.0177    0.1205    0.0189   -0.0390    0.0075    0.0773
          40   -0.0060    0.0454   -0.0135    0.0019   -0.0136    0.0505    0.1621   -0.1659
          41   -0.0041    0.0049   -0.0031   -0.0161    0.0108   -0.0107   -0.0030   -0.0025
          42    0.0164   -0.0123    0.0047    0.0450   -0.0061    0.0301    0.0037    0.0067
          43    0.0132   -0.0412    0.0990   -0.0847    0.0376    0.0128    0.1445    0.1966
          44    0.0123    0.0052   -0.0024   -0.0258    0.0111   -0.0182   -0.0056   -0.0086
          45    0.0468    0.0039   -0.0013   -0.0456    0.0144   -0.0360   -0.0118   -0.0198
          46    0.0420    0.0334   -0.0671   -0.0124   -0.0445    0.0282   -0.0365   -0.0308
          47    0.0202   -0.0261    0.0660   -0.0319    0.0821   -0.1037    0.0011   -0.0710
          48    0.0040   -0.0282    0.0710   -0.0126    0.0702   -0.0751    0.0222   -0.0247
          49    0.0482   -0.0544    0.0143    0.0361    0.0081   -0.0497   -0.0519    0.0307
          50   -0.0661    0.0472   -0.0363   -0.0328   -0.0132    0.0480    0.0243   -0.0348
          51   -0.0382    0.0523   -0.0125   -0.0372   -0.0022    0.0402    0.0505   -0.0335
          52    0.0070    0.1125    0.2078   -0.0643   -0.1921    0.0026   -0.0589    0.0002
          53    0.0799   -0.0549    0.0683   -0.0043   -0.0079    0.0870    0.0148   -0.0437
          54    0.1172   -0.0932    0.0112   -0.0399    0.0449    0.1139    0.0102   -0.0449
          55   -0.0548   -0.0451    0.0103   -0.0274    0.0547    0.0443   -0.0649    0.0147
          56   -0.0267    0.0291    0.0214    0.0441   -0.0165   -0.0224    0.0035    0.0014
          57    0.0203    0.0379   -0.0105    0.0159   -0.0371   -0.0356    0.0449   -0.0011
          58    0.0404   -0.0740    0.0149   -0.0186   -0.0538    0.0246   -0.0538    0.0120
          59   -0.0313   -0.0384   -0.0144   -0.0207   -0.0298    0.0396    0.0014    0.0059
          60    0.0087   -0.0521    0.0141   -0.0190   -0.0243    0.0216   -0.0399    0.0028
          61   -0.0254   -0.0453    0.0120    0.0934   -0.0077    0.0083   -0.0233   -0.0362
          62    0.0071    0.0067    0.0012   -0.0164    0.0010   -0.0010    0.0058    0.0067
          63   -0.0062   -0.0083   -0.0096    0.0075    0.0110    0.0002    0.0010   -0.0008
          64    0.0010   -0.0045   -0.0023   -0.0007   -0.0078   -0.0063    0.0031    0.0011
          65   -0.0084    0.0241    0.0100    0.0094    0.0319    0.0460   -0.0117    0.0048
          66    0.0008    0.0002   -0.0001   -0.0000    0.0000   -0.0018    0.0005   -0.0004


   Root No.      33        34        35        36        37        38        39        40

                33 A      34 A      35 A      36 A      37 A      38 A      39 A      40 A   

                1157.8    1185.0    1221.7    1230.8    1255.6    1287.2    1313.2    1354.2
  
           1    0.0040   -0.0041   -0.0006    0.0169   -0.0047   -0.0131    0.0042   -0.0092
           2   -0.0011   -0.0068    0.0039   -0.0016    0.0045    0.0013    0.0040   -0.0003
           3   -0.0001    0.0020   -0.0004   -0.0017    0.0009    0.0013    0.0014    0.0007
           4   -0.0077   -0.0049   -0.0135    0.0187    0.0148    0.0071   -0.0224    0.0124
           5   -0.0003   -0.0003    0.0060    0.0032   -0.0038    0.0068   -0.0024   -0.0066
           6   -0.0015    0.0002    0.0002    0.0038    0.0006    0.0028   -0.0033   -0.0017
           7    0.0002   -0.0003   -0.0003    0.0017   -0.0011   -0.0020    0.0003   -0.0020
           8    0.0003    0.0014   -0.0004    0.0007   -0.0001   -0.0003    0.0007   -0.0004
           9   -0.0000    0.0002    0.0000   -0.0003    0.0004    0.0004    0.0000    0.0003
          10   -0.0007    0.0023    0.0087   -0.0018    0.0127   -0.0252   -0.0392   -0.0201
          11    0.0180   -0.0084   -0.0023   -0.0013    0.0081    0.0091   -0.0068   -0.0047
          12   -0.0413    0.0108   -0.0012    0.0006    0.0042    0.0070   -0.0066   -0.0024
          13   -0.0044   -0.0002    0.0027   -0.0056    0.0131    0.0032   -0.0045   -0.0118
          14   -0.0066    0.0020   -0.0035    0.0166   -0.0080   -0.0017    0.0205    0.0097
          15    0.0161   -0.0052    0.0017    0.0153   -0.0069   -0.0031    0.0274    0.0090
          16    0.0068   -0.0009    0.0039   -0.0062   -0.0023   -0.0136    0.0050    0.0229
          17   -0.0116    0.0096    0.0106   -0.0138   -0.0035   -0.0194    0.0038    0.0179
          18    0.0183   -0.0110   -0.0048   -0.0139    0.0011   -0.0271    0.0053    0.0168
          19   -0.0089   -0.0020    0.0060   -0.0399    0.0087    0.0375   -0.0176    0.0384
          20   -0.0017    0.0161   -0.0162   -0.0015   -0.0265   -0.0068   -0.0316   -0.0039
          21    0.0019   -0.0010   -0.0090   -0.0007   -0.0347   -0.0001   -0.0479    0.0103
          22    0.0087    0.0076    0.0028   -0.0337   -0.0126   -0.0268    0.0495   -0.0164
          23    0.0011    0.0124    0.0050    0.0007    0.0013    0.0002    0.0027    0.0070
          24    0.0061    0.0130    0.0344   -0.0018   -0.0185    0.0132   -0.0053    0.0022
          25    0.0008    0.0009   -0.0036   -0.0102   -0.0070    0.0074   -0.0038   -0.0048
          26    0.0004   -0.0038    0.0038   -0.0012    0.0051    0.0002    0.0084   -0.0020
          27   -0.0005    0.0004   -0.0022   -0.0230    0.0035    0.0008    0.0254   -0.0164
          28   -0.0013   -0.0039   -0.0033   -0.0078   -0.0084   -0.0025    0.0085   -0.0146
          29   -0.0001   -0.0036   -0.0042    0.0019    0.0009   -0.0024   -0.0005   -0.0001
          30   -0.0006   -0.0004   -0.0098    0.0235    0.0177   -0.0111    0.0011    0.0051
          31    0.1502   -0.0494   -0.0318    0.0379   -0.0061    0.0647    0.0150   -0.0010
          32    0.0680    0.0045    0.0159    0.0279   -0.0148    0.0638   -0.0250   -0.0675
          33    0.1019   -0.0190   -0.0020    0.0313   -0.0104    0.0611   -0.0223   -0.0653
          34   -0.0625   -0.0396   -0.0798    0.0172   -0.0031    0.0779    0.0441   -0.0363
          35   -0.0380   -0.0454   -0.0776   -0.0121    0.0060    0.0280    0.0177   -0.1055
          36   -0.0633   -0.0391   -0.0782    0.0151   -0.0040    0.0737    0.0469   -0.0197
          37    0.0372    0.0954   -0.0562    0.1137   -0.0548   -0.0766    0.0035   -0.0583
          38   -0.0204   -0.0739    0.0581   -0.0296    0.0766    0.0253    0.0678    0.0145
          39   -0.0018   -0.0717    0.0544    0.0194    0.0599   -0.0039    0.0716   -0.0037
          40    0.0061    0.0046   -0.0017    0.1044   -0.0304    0.0910    0.1094    0.0280
          41    0.0016    0.0090    0.0008    0.0009   -0.0090   -0.0116    0.0065    0.0262
          42   -0.0177   -0.0184   -0.0064   -0.0035    0.0358    0.0433   -0.0297   -0.0597
          43   -0.0256    0.0326    0.0421   -0.0043   -0.0272    0.0712    0.0945    0.0377
          44   -0.0253    0.0050    0.0014    0.0004    0.0095    0.0125   -0.0067   -0.0347
          45   -0.0922    0.0232    0.0028    0.0021    0.0079    0.0131   -0.0062   -0.0400
          46   -0.1476    0.0373   -0.0370    0.0512   -0.0543    0.0065    0.0600    0.0251
          47    0.0794   -0.0140    0.0191   -0.0338    0.0341    0.0170   -0.0361   -0.0118
          48    0.1040   -0.0229    0.0269   -0.0386    0.0389    0.0156   -0.0332   -0.0132
          49    0.0623    0.0038   -0.0509    0.0203   -0.1011    0.0281    0.0575    0.0619
          50   -0.0313   -0.0109    0.0465    0.0190    0.0965   -0.0145    0.0340   -0.0597
          51   -0.0618   -0.0042    0.0514   -0.0175    0.0983   -0.0280   -0.0560   -0.0588
          52   -0.0020   -0.0644   -0.0096    0.0616    0.0222    0.0438   -0.0644    0.0176
          53   -0.0044   -0.1096   -0.0876    0.0144    0.0339   -0.0195   -0.0129    0.0112
          54    0.0051   -0.1043   -0.0647   -0.0151    0.0062   -0.0298    0.0139   -0.0061
          55   -0.0434   -0.1120    0.1443    0.1436   -0.0357   -0.0575   -0.0155    0.0405
          56    0.0009    0.0139   -0.0093   -0.0030    0.0050    0.0009   -0.0009   -0.0003
          57    0.0229    0.0580   -0.0905   -0.0586    0.0333    0.0178    0.0162   -0.0261
          58    0.0584    0.1482   -0.0170    0.0883    0.1778    0.0216    0.0098    0.0548
          59    0.0018    0.0205   -0.0093   -0.0002    0.0035    0.0002   -0.0052    0.0014
          60    0.0325    0.0817   -0.0093    0.0322    0.1094    0.0081    0.0360    0.0161
          61    0.0073    0.0470    0.1224    0.0216   -0.0788    0.1017   -0.0089   -0.1067
          62   -0.0026   -0.0103   -0.0240    0.0011    0.0163   -0.0125   -0.0049    0.0180
          63   -0.0018    0.0003    0.0094    0.0051   -0.0048    0.0031   -0.0008   -0.0053
          64    0.0014   -0.0015   -0.0001    0.0075   -0.0021   -0.0070    0.0040   -0.0072
          65   -0.0074    0.0114   -0.0035   -0.0388    0.0018    0.0338   -0.0289    0.0374
          66   -0.0000   -0.0009    0.0003    0.0003   -0.0007   -0.0004    0.0003   -0.0004


   Root No.      41        42        43        44        45        46        47        48

                41 A      42 A      43 A      44 A      45 A      46 A      47 A      48 A   

                1365.9    1392.7    1399.6    1407.7    1414.7    1419.3    1483.8    1883.4
  
           1   -0.0031   -0.0032    0.0014   -0.0023   -0.0007   -0.0024    0.0564    0.0038
           2    0.0003   -0.0003    0.0005   -0.0014   -0.0005   -0.0010   -0.0069    0.0000
           3    0.0008    0.0003    0.0001    0.0000    0.0002    0.0000   -0.0122    0.0030
           4    0.0056   -0.0104    0.0010   -0.0018    0.0023   -0.0164    0.0002   -0.0028
           5    0.0038   -0.0037   -0.0021   -0.0075    0.0041    0.0130   -0.0002   -0.0001
           6    0.0021   -0.0029   -0.0008   -0.0040    0.0026    0.0046    0.0000    0.0030
           7   -0.0008   -0.0009    0.0006   -0.0011   -0.0003   -0.0013   -0.0289   -0.0002
           8    0.0006   -0.0003    0.0004   -0.0005   -0.0001   -0.0007   -0.0309    0.0001
           9    0.0001    0.0002   -0.0001    0.0002    0.0001    0.0003    0.0100    0.0002
          10    0.0436   -0.0067    0.0033    0.0380   -0.0099    0.0215   -0.0033   -0.0000
          11   -0.0048    0.0007   -0.0023    0.0005   -0.0071   -0.0019   -0.0013    0.0002
          12   -0.0017   -0.0029   -0.0083   -0.0106   -0.0452    0.0039    0.0003   -0.0004
          13   -0.0296    0.0102    0.0142   -0.0335   -0.0101   -0.0143    0.0072   -0.0031
          14    0.0363    0.0139    0.0154   -0.0064    0.0028   -0.0003    0.0070    0.0016
          15    0.0289   -0.0038   -0.0017    0.0130    0.0109    0.0035    0.0014    0.0006
          16   -0.0056   -0.0006   -0.0197   -0.0260    0.0262   -0.0217    0.0011    0.0031
          17   -0.0063   -0.0207    0.0157   -0.0131    0.0109    0.0222    0.0001    0.0015
          18   -0.0021   -0.0052   -0.0067   -0.0173    0.0227    0.0041    0.0003    0.0006
          19    0.0103    0.0198   -0.0083    0.0150    0.0036    0.0203   -0.0335    0.0259
          20   -0.0189    0.0021   -0.0013   -0.0011   -0.0008    0.0017   -0.0152    0.0008
          21   -0.0251    0.0155   -0.0033    0.0007   -0.0017    0.0109   -0.0039    0.0178
          22   -0.0210    0.0377    0.0007    0.0216   -0.0153    0.0259   -0.0017   -0.0265
          23   -0.0053    0.0096    0.0065    0.0239   -0.0155   -0.0361    0.0008    0.0018
          24    0.0024   -0.0033    0.0103    0.0211   -0.0160   -0.0423    0.0015    0.0173
          25    0.0100   -0.0176    0.0035   -0.0045    0.0014   -0.0179    0.0027   -0.2528
          26    0.0042   -0.0026    0.0011   -0.0000   -0.0005   -0.0034    0.0021   -0.0029
          27    0.0148   -0.0194    0.0050   -0.0033   -0.0006   -0.0178    0.0049   -0.0355
          28    0.0065   -0.0160    0.0042   -0.0054   -0.0006   -0.0147    0.0046    0.2535
          29   -0.0018    0.0017   -0.0015   -0.0026    0.0017    0.0077   -0.0007   -0.0063
          30   -0.0108    0.0171   -0.0066   -0.0028    0.0039    0.0275   -0.0021   -0.0330
          31   -0.0388   -0.0593    0.1501    0.0639   -0.0692    0.0846   -0.0009   -0.0004
          32    0.0404    0.0508   -0.0670    0.0084   -0.0095   -0.0428   -0.0004    0.0024
          33    0.0384    0.0538   -0.0673    0.0111   -0.0065   -0.0466   -0.0004    0.0024
          34   -0.0394    0.0191    0.0302    0.0217   -0.0522    0.0234   -0.0004   -0.0056
          35    0.0388    0.1201   -0.1385   -0.0046    0.0057   -0.0361   -0.0019   -0.0115
          36   -0.0560   -0.0221    0.0967    0.0376   -0.0726    0.0713   -0.0008   -0.0048
          37   -0.0261   -0.0185    0.0161   -0.0203    0.0008   -0.0250    0.0063   -0.0261
          38    0.0427   -0.0105   -0.0072    0.0127   -0.0003    0.0020   -0.0148    0.0054
          39    0.0305   -0.0135   -0.0021    0.0031   -0.0032   -0.0052    0.0142   -0.0045
          40   -0.0392    0.0193   -0.0020   -0.0425    0.0051   -0.0469    0.0117    0.0002
          41    0.0210   -0.0186   -0.0392   -0.0388   -0.1289    0.0166    0.0020   -0.0003
          42   -0.0477    0.0323    0.0621    0.0613    0.1815   -0.0283   -0.0054    0.0005
          43   -0.0783    0.0069   -0.0054   -0.0566    0.0150   -0.0278    0.0023    0.0001
          44   -0.0248    0.0234    0.0566    0.0473    0.1671   -0.0173   -0.0013    0.0002
          45   -0.0283    0.0259    0.0646    0.0483    0.1746   -0.0166   -0.0000   -0.0004
          46   -0.0105   -0.0958   -0.1157    0.1231    0.0280    0.0352   -0.0189    0.0002
          47   -0.1045   -0.0469   -0.0588    0.0314   -0.0040    0.0081   -0.0011    0.0027
          48   -0.1034   -0.0496   -0.0599    0.0342    0.0003    0.0076   -0.0042    0.0026
          49    0.0265   -0.0058   -0.0276    0.0334    0.0366    0.0140   -0.0139    0.0055
          50   -0.1296   -0.1194   -0.1014    0.0659   -0.0000   -0.0028    0.0136   -0.0116
          51    0.0068    0.0533    0.0793   -0.0858   -0.0459   -0.0279    0.0227   -0.0046
          52    0.0287   -0.0419   -0.0100   -0.0340    0.0170   -0.0145    0.0017    0.0257
          53    0.0059   -0.0108   -0.0178   -0.0341    0.0203    0.0246   -0.0004    0.0050
          54   -0.0001    0.0001   -0.0153   -0.0279    0.0135    0.0434   -0.0008   -0.0049
          55   -0.0623    0.0828   -0.0050    0.0419   -0.0214    0.0306   -0.0071    0.0116
          56    0.0000   -0.0019    0.0016    0.0024   -0.0017   -0.0088   -0.0003    0.0201
          57    0.0265   -0.0367   -0.0016   -0.0289    0.0152    0.0038    0.0048    0.1494
          58   -0.0054    0.0521   -0.0186    0.0093    0.0095    0.0636   -0.0197   -0.0159
          59   -0.0043    0.0035   -0.0007    0.0020   -0.0007    0.0011   -0.0033    0.0189
          60    0.0066    0.0199   -0.0075    0.0041    0.0040    0.0289   -0.0065    0.1503
          61    0.0482   -0.0452   -0.0353   -0.1173    0.0687    0.2000   -0.0019   -0.0099
          62   -0.0047    0.0032    0.0058    0.0172   -0.0102   -0.0338    0.0005    0.0020
          63    0.0011   -0.0007   -0.0020   -0.0058    0.0036    0.0130   -0.0005    0.0033
          64   -0.0011   -0.0035    0.0027   -0.0045   -0.0013   -0.0054   -0.1260   -0.0005
          65    0.0029    0.0187   -0.0154    0.0255    0.0069    0.0300    0.6981    0.0054
          66    0.0001   -0.0003    0.0004   -0.0006   -0.0002   -0.0009   -0.0173    0.0001


   Root No.      49        50        51        52        53        54        55        56

                49 A      50 A      51 A      52 A      53 A      54 A      55 A      56 A   

                2799.9    2812.0    2944.0    2956.5    2957.4    3025.8    3032.0    3033.9
  
           1    0.0002    0.0008    0.0000    0.0001    0.0000   -0.0000    0.0002   -0.0001
           2    0.0002    0.0008   -0.0000   -0.0001   -0.0001    0.0001    0.0000    0.0003
           3   -0.0001   -0.0004   -0.0000   -0.0001   -0.0001    0.0000    0.0002    0.0001
           4   -0.0004    0.0001   -0.0000    0.0001   -0.0000    0.0000    0.0003   -0.0000
           5    0.0006   -0.0002   -0.0000    0.0001   -0.0001    0.0000   -0.0000   -0.0000
           6   -0.0000    0.0000   -0.0000    0.0001   -0.0001    0.0000   -0.0003   -0.0000
           7   -0.0002   -0.0006    0.0000    0.0000    0.0000   -0.0000   -0.0000    0.0000
           8   -0.0000    0.0000   -0.0000    0.0000    0.0000   -0.0000   -0.0000   -0.0000
           9    0.0000    0.0002    0.0000   -0.0000   -0.0000    0.0000    0.0000   -0.0000
          10   -0.0001    0.0002   -0.0002   -0.0001    0.0000    0.0001    0.0000    0.0004
          11   -0.0006   -0.0003   -0.0439   -0.0003    0.0098   -0.0036    0.0000    0.0032
          12    0.0002    0.0001    0.0056   -0.0000    0.0008   -0.0284    0.0000    0.0087
          13   -0.0001   -0.0003   -0.0036   -0.0152   -0.0141    0.0043    0.0002    0.0188
          14   -0.0000    0.0000    0.0032    0.0077    0.0069    0.0073    0.0003    0.0251
          15   -0.0003   -0.0014   -0.0068   -0.0235   -0.0212   -0.0033   -0.0002   -0.0048
          16    0.0004   -0.0001    0.0037   -0.0164    0.0136   -0.0029    0.0002    0.0004
          17    0.0000   -0.0000    0.0031   -0.0080    0.0065    0.0055   -0.0004   -0.0015
          18   -0.0013    0.0004   -0.0068    0.0246   -0.0199   -0.0030    0.0004    0.0011
          19   -0.0038   -0.0135   -0.0002    0.0001    0.0001   -0.0001    0.0002    0.0001
          20   -0.0114   -0.0419    0.0004    0.0004    0.0003    0.0002   -0.0002    0.0010
          21    0.0099    0.0370   -0.0001   -0.0005   -0.0005    0.0002    0.0005    0.0000
          22    0.0124   -0.0032    0.0002    0.0001   -0.0001    0.0001   -0.0000   -0.0001
          23   -0.0415    0.0114    0.0004   -0.0004    0.0003    0.0001    0.0002   -0.0000
          24    0.0366   -0.0102   -0.0001    0.0005   -0.0004    0.0002   -0.0006   -0.0001
          25    0.0007    0.0010    0.0000    0.0001    0.0001    0.0000   -0.0153   -0.0000
          26   -0.0001   -0.0000    0.0001    0.0002    0.0002    0.0000    0.0038    0.0000
          27    0.0003   -0.0002    0.0000    0.0001    0.0001   -0.0000    0.0276   -0.0000
          28   -0.0012   -0.0001   -0.0000    0.0001   -0.0001   -0.0000   -0.0214    0.0003
          29   -0.0001   -0.0001    0.0001   -0.0002    0.0002    0.0000   -0.0041    0.0001
[...]
 FREQ.      1313.16         C  5 -- C  7         +11.5% ( 50.5%)     68.2%
 T-DIPOLE    0.3170         C  7 -- C  9         +10.9% ( 49.3%)     73.5%
 TRAVEL      0.0783         C  7 -- H 13         +10.2% ( 47.5%)      0.1%
 RED. MASS   1.2480         O  2 -- C  8          +8.7% ( 44.1%)     95.0%
 EFF. MASS   8.3661

 VIBRATION   40   40A         ATOM PAIR      ENERGY CONTRIBUTION    RADIAL
 FREQ.      1354.18         C  6 -- H 12          +9.9% ( 41.3%)      0.1%
 T-DIPOLE    0.1496         C  7 -- C  9          +8.9% ( 39.1%)     80.7%
 TRAVEL      0.0934         C  7 -- H 13          +8.5% ( 38.3%)      0.0%
 RED. MASS   0.5541         C  6 -- H 11          +8.0% ( 37.2%)      0.1%
 EFF. MASS   5.7116

 VIBRATION   41   41A         ATOM PAIR      ENERGY CONTRIBUTION    RADIAL
 FREQ.      1365.86         C  4 -- C  5         +15.3% ( 53.7%)     79.1%
 T-DIPOLE    0.0690         C  5 -- H 16         +14.2% ( 51.8%)      0.4%
 TRAVEL      0.0868         C  5 -- H 17         +13.0% ( 49.4%)      0.2%
 RED. MASS   1.0167         C  5 -- C  7         +12.4% ( 48.2%)     80.0%
 EFF. MASS   6.5586

 VIBRATION   42   42A         ATOM PAIR      ENERGY CONTRIBUTION    RADIAL
 FREQ.      1392.71         C  8 -- C 10         +10.7% ( 40.8%)     62.4%
 T-DIPOLE    0.3064         C  7 -- C  9          +8.2% ( 35.7%)     94.5%
 TRAVEL      0.0962         C  6 -- C  8          +8.2% ( 35.6%)     47.1%
 RED. MASS   0.4635         O  2 -- C  8          +8.1% ( 35.5%)     91.7%
 EFF. MASS   5.2300

 VIBRATION   43   43A         ATOM PAIR      ENERGY CONTRIBUTION    RADIAL
 FREQ.      1399.63         C  6 -- H 11         +21.8% ( 45.3%)      3.9%
 T-DIPOLE    0.1190         C  6 -- H 12         +20.2% ( 43.6%)      4.0%
 TRAVEL      0.1472         C  5 -- H 16         +14.2% ( 36.6%)      3.5%
 RED. MASS   0.2193         C  5 -- H 17         +12.0% ( 33.6%)      5.1%
 EFF. MASS   2.2232

 VIBRATION   44   44A         ATOM PAIR      ENERGY CONTRIBUTION    RADIAL
 FREQ.      1407.66         C  4 -- C  5         +11.6% ( 44.9%)     92.2%
 T-DIPOLE    0.2602         C  4 -- C  6          +9.5% ( 40.8%)     76.6%
 TRAVEL      0.0887         C  5 -- H 16          +9.4% ( 40.6%)      2.8%
 RED. MASS   0.6885         C  6 -- C  8          +9.3% ( 40.2%)     62.1%
 EFF. MASS   6.0900

 VIBRATION   45   45A         ATOM PAIR      ENERGY CONTRIBUTION    RADIAL
 FREQ.      1414.68         C  4 -- H 15         +24.6% ( 56.4%)      4.3%
 T-DIPOLE    0.0249         C  4 -- H 14         +20.6% ( 51.6%)      6.8%
 TRAVEL      0.1104         C  4 -- C  6         +13.4% ( 41.6%)     73.9%
 RED. MASS   0.5262         C  4 -- C  5          +7.8% ( 31.7%)     29.3%
 EFF. MASS   3.9138

 VIBRATION   46   46A         ATOM PAIR      ENERGY CONTRIBUTION    RADIAL
 FREQ.      1419.34         C  8 -- C 10         +14.9% ( 51.7%)     85.3%
 T-DIPOLE    0.7991         O  2 -- H 21         +13.0% ( 48.2%)      1.9%
 TRAVEL      0.0830         C  6 -- C  8         +12.6% ( 47.6%)     53.6%
 RED. MASS   1.0453         O  2 -- C  8         +10.5% ( 43.5%)     14.2%
 EFF. MASS   6.9006

 VIBRATION   47   47A         ATOM PAIR      ENERGY CONTRIBUTION    RADIAL
 FREQ.      1483.85         O  3 -- H 22         +82.8% ( 91.0%)      2.8%
 T-DIPOLE    0.4201         O  1 -- C  7          +6.5% ( 25.5%)     97.4%
 TRAVEL      0.1293         O  1 -- O  3          +4.9% ( 22.2%)      0.0%
 RED. MASS   0.8629         C  5 -- C  7          +1.8% ( 13.3%)     12.3%
 EFF. MASS   2.7200

 VIBRATION   48   48A         ATOM PAIR      ENERGY CONTRIBUTION    RADIAL
 FREQ.      1883.38         C  9 -- C 10         +44.7% ( 98.7%)    100.0%
 T-DIPOLE    0.1780         C  8 -- C 10         +14.0% ( 55.3%)     48.4%
 TRAVEL      0.0549         C  7 -- C  9         +14.0% ( 55.2%)     48.3%
 RED. MASS   5.4827         C 10 -- H 19         +13.3% ( 53.8%)      4.5%
 EFF. MASS  11.8696         C  9 -- H 20         +13.2% ( 53.7%)      4.7%

 VIBRATION   49   49A         ATOM PAIR      ENERGY CONTRIBUTION    RADIAL
 FREQ.      2799.90         C  8 -- H 18         +89.9% ( 96.5%)     99.9%
 T-DIPOLE    0.0661         C  7 -- H 13          +6.7% ( 26.4%)     99.9%
 TRAVEL      0.1288         O  2 -- C  8          +1.0% ( 10.2%)      9.4%
 RED. MASS   0.8085         C  6 -- C  8          +1.0% ( 10.2%)     11.3%
 EFF. MASS   1.4520

 VIBRATION   50   50A         ATOM PAIR      ENERGY CONTRIBUTION    RADIAL
 FREQ.      2811.97         C  7 -- H 13         +89.9% ( 96.4%)    100.0%
 T-DIPOLE    0.1142         C  8 -- H 18          +6.6% ( 26.2%)    100.0%
 TRAVEL      0.1280         O  1 -- C  7          +1.1% ( 10.5%)     11.7%
 RED. MASS   0.8085         C  5 -- C  7          +1.1% ( 10.4%)     11.3%
 EFF. MASS   1.4632

 VIBRATION   51   51A         ATOM PAIR      ENERGY CONTRIBUTION    RADIAL
 FREQ.      2944.04         C  4 -- H 15         +51.1% ( 74.3%)     97.1%
 T-DIPOLE    0.0386         C  4 -- H 14         +39.9% ( 65.7%)     95.7%
 TRAVEL      0.1216         C  5 -- H 16          +2.2% ( 15.4%)     97.6%
 RED. MASS   0.4585         C  6 -- H 11          +2.2% ( 15.3%)     97.5%
 EFF. MASS   1.5479

 VIBRATION   52   52A         ATOM PAIR      ENERGY CONTRIBUTION    RADIAL
 FREQ.      2956.47         C  6 -- H 12         +29.4% ( 56.3%)     97.3%
 T-DIPOLE    0.0932         C  5 -- H 17         +26.2% ( 53.2%)     97.2%
 TRAVEL      0.1219         C  6 -- H 11         +22.0% ( 48.7%)     95.6%
 RED. MASS   0.2640         C  5 -- H 16         +20.0% ( 46.4%)     95.7%
 EFF. MASS   1.5358

 VIBRATION   53   53A         ATOM PAIR      ENERGY CONTRIBUTION    RADIAL
 FREQ.      2957.38         C  5 -- H 17         +27.4% ( 54.3%)     97.3%
 T-DIPOLE    0.1165         C  6 -- H 12         +24.6% ( 51.5%)     97.3%
 TRAVEL      0.1213         C  5 -- H 16         +20.7% ( 47.2%)     95.6%
 RED. MASS   0.2327         C  6 -- H 11         +18.2% ( 44.3%)     95.5%
 EFF. MASS   1.5498

 VIBRATION   54   54A         ATOM PAIR      ENERGY CONTRIBUTION    RADIAL
 FREQ.      3025.79         C  4 -- H 14         +45.3% ( 66.3%)     98.1%
 T-DIPOLE    0.0485         C  4 -- H 15         +41.0% ( 63.1%)     97.3%
 TRAVEL      0.1322         C  5 -- H 16          +6.0% ( 24.1%)     99.1%
 RED. MASS   0.3756         C  6 -- H 11          +3.5% ( 18.3%)     99.3%
 EFF. MASS   1.2746

 VIBRATION   55   55A         ATOM PAIR      ENERGY CONTRIBUTION    RADIAL
 FREQ.      3032.02         C 10 -- H 19         +61.7% ( 79.7%)    100.0%
 T-DIPOLE    0.3193         C  9 -- H 20         +35.9% ( 60.8%)    100.0%
 TRAVEL      0.1235         C  9 -- C 10          +1.1% ( 10.5%)      1.0%
 RED. MASS   0.4974         C  8 -- C 10          +0.8% (  9.1%)     18.7%
 EFF. MASS   1.4570

 VIBRATION   56   56A         ATOM PAIR      ENERGY CONTRIBUTION    RADIAL
 FREQ.      3033.93         C  5 -- H 16         +50.1% ( 69.7%)     98.1%
 T-DIPOLE    0.1175         C  5 -- H 17         +40.7% ( 62.8%)     97.0%
 TRAVEL      0.1323         C  4 -- H 14          +5.3% ( 22.7%)     99.0%
 RED. MASS   0.4150         C  4 -- H 15          +2.5% ( 15.5%)     94.9%
 EFF. MASS   1.2702

 VIBRATION   57   57A         ATOM PAIR      ENERGY CONTRIBUTION    RADIAL
 FREQ.      3036.52         C  6 -- H 11         +52.9% ( 71.6%)     98.3%
 T-DIPOLE    0.1252         C  6 -- H 12         +41.4% ( 63.3%)     96.9%
 TRAVEL      0.1322         C  4 -- H 14          +3.2% ( 17.7%)     99.2%
 RED. MASS   0.4474         C  4 -- H 15          +1.2% ( 10.7%)     93.6%
 EFF. MASS   1.2712

 VIBRATION   58   58A         ATOM PAIR      ENERGY CONTRIBUTION    RADIAL
 FREQ.      3052.61         C  9 -- H 20         +61.2% ( 79.3%)     99.9%
 T-DIPOLE    0.3869         C 10 -- H 19         +35.3% ( 60.3%)     99.9%
 TRAVEL      0.1184         C  9 -- C 10          +2.0% ( 14.2%)     97.0%
 RED. MASS   0.4985         C  7 -- C  9          +1.0% (  9.9%)     11.5%
 EFF. MASS   1.5764

 VIBRATION   59   59A         ATOM PAIR      ENERGY CONTRIBUTION    RADIAL
 FREQ.      3901.61         O  2 -- H 21         +99.6% (100.0%)    100.0%
 T-DIPOLE    0.2110         O  2 -- C  8          +0.4% (  6.3%)      7.5%
 TRAVEL      0.1115
 RED. MASS   0.9481
 EFF. MASS   1.3892

 VIBRATION   60   60A         ATOM PAIR      ENERGY CONTRIBUTION    RADIAL
 FREQ.      3987.54         O  3 -- H 22         +99.6% (100.0%)     99.9%
 T-DIPOLE    0.3956         O  1 -- O  3          +0.4% (  6.0%)      0.0%
 TRAVEL      0.1107
 RED. MASS   0.9479
 EFF. MASS   1.3795

      SYMMETRY NUMBER FOR POINT-GROUP C1  =  1


          SYSTEM IS A GROUND STATE



 InChI=1S/C7H12O3/c8-6-2-1-3-7(10-9)5-4-6/h4-9H,1-3H2


          MOLECULE IS NOT LINEAR

          THERE ARE 60 GENUINE VIBRATIONS IN THIS SYSTEM
          THIS THERMODYNAMICS CALCULATION IS LIMITED TO
          MOLECULES WHICH HAVE NO INTERNAL ROTATIONS




                    CALCULATED THERMODYNAMIC PROPERTIES
                                          *
   TEMP. (K)   PARTITION FUNCTION   H.O.F.    ENTHALPY  HEAT CAPACITY ENTROPY
                                   KCAL/MOL   CAL/MOLE    CAL/K/MOL  CAL/K/MOL


 298.00  VIB.     0.5650D+03                  4710.8047    33.3872    28.4008
         ROT.     0.7601D+06                   888.2813     2.9808    29.8900
         INT.     0.4295D+09                  5599.0860    36.3680    58.2908
         TRA.     0.1674D+28                  1480.4688     4.9680    40.8062
         TOT.                      -69.360    7079.5549    41.3361    99.0970

 200.00  VIB.     0.4363D+02                  2023.9989    21.6225    17.6233
         ROT.     0.4179D+06                   596.1620     2.9808    28.7013
         INT.     0.1824D+08                  2620.1609    24.6033    46.3247
         TRA.     0.9201D+27                   993.6033     4.9680    38.8251
         TOT.                      -72.826    3613.7641    29.5713    85.1498

 210.00  VIB.     0.5633D+02                  2245.9460    22.7690    18.7060
         ROT.     0.4497D+06                   625.9700     2.9808    28.8468
         INT.     0.2533D+08                  2871.9161    25.7498    47.5528
         TRA.     0.9900D+27                  1043.2834     4.9680    39.0675
         TOT.                      -72.524    3915.1995    30.7178    86.6203

 220.00  VIB.     0.7285D+02                  2479.4214    23.9284    19.7919
         ROT.     0.4822D+06                   655.7781     2.9808    28.9854
         INT.     0.3512D+08                  3135.1996    26.9092    48.7774
         TRA.     0.1062D+28                  1092.9636     4.9680    39.2986
         TOT.                      -72.212    4228.1631    31.8772    88.0760

 230.00  VIB.     0.9433D+02                  2724.5610    25.1019    20.8814
         ROT.     0.5154D+06                   685.5862     2.9808    29.1179
         INT.     0.4862D+08                  3410.1472    28.0827    49.9994
         TRA.     0.1135D+28                  1142.6437     4.9680    39.5194
         TOT.                      -71.887    4552.7909    33.0507    89.5188

 240.00  VIB.     0.1223D+03                  2981.5058    26.2894    21.9748
         ROT.     0.5494D+06                   715.3943     2.9808    29.2448
         INT.     0.6720D+08                  3696.9002    29.2702    51.2196
         TRA.     0.1210D+28                  1192.3239     4.9680    39.7309
         TOT.                      -71.550    4889.2241    34.2382    90.9505

 250.00  VIB.     0.1588D+03                  3250.3941    27.4904    23.0723
         ROT.     0.5841D+06                   745.2024     2.9808    29.3665
         INT.     0.9276D+08                  3995.5965    30.4712    52.4388
         TRA.     0.1286D+28                  1242.0041     4.9680    39.9337
         TOT.                      -71.202    5237.6006    35.4392    92.3724

 260.00  VIB.     0.2065D+03                  3531.3535    28.7034    24.1741
         ROT.     0.6195D+06                   775.0105     2.9808    29.4834
         INT.     0.1279D+09                  4306.3640    31.6842    53.6575
         TRA.     0.1364D+28                  1291.6842     4.9680    40.1285
         TOT.                      -70.842    5598.0482    36.6522    93.7860

 270.00  VIB.     0.2687D+03                  3824.4961    29.9267    25.2802
         ROT.     0.6555D+06                   804.8186     2.9808    29.5959
         INT.     0.1761D+09                  4629.3147    32.9075    54.8761
         TRA.     0.1443D+28                  1341.3644     4.9680    40.3160
         TOT.                      -70.469    5970.6791    37.8755    95.1922

 280.00  VIB.     0.3500D+03                  4129.9139    31.1581    26.3908
         ROT.     0.6923D+06                   834.6267     2.9808    29.7043
         INT.     0.2423D+09                  4964.5406    34.1389    56.0951
         TRA.     0.1524D+28                  1391.0445     4.9680    40.4967
         TOT.                      -70.084    6355.5852    39.1069    96.5918

 290.00  VIB.     0.4565D+03                  4447.6761    32.3951    27.5058
         ROT.     0.7297D+06                   864.4348     2.9808    29.8089
         INT.     0.3331D+09                  5312.1110    35.3760    57.3147
         TRA.     0.1607D+28                  1440.7247     4.9680    40.6710
         TOT.                      -69.687    6752.8357    40.3440    97.9857

 300.00  VIB.     0.5960D+03                  4777.8274    33.6354    28.6249
         ROT.     0.7678D+06                   894.2429     2.9808    29.9100
         INT.     0.4576D+09                  5672.0703    36.6162    58.5349
         TRA.     0.1690D+28                  1490.4049     4.9680    40.8395
         TOT.                      -69.277    7162.4752    41.5843    99.3743

 310.00  VIB.     0.7789D+03                  5120.3868    34.8764    29.7481
         ROT.     0.8065D+06                   924.0510     2.9808    30.0077
         INT.     0.6282D+09                  6044.4379    37.8572    59.7558
         TRA.     0.1776D+28                  1540.0850     4.9680    41.0024
         TOT.                      -68.855    7584.5229    42.8252   100.7581

 320.00  VIB.     0.1019D+04                  5475.3484    36.1154    30.8749
         ROT.     0.8458D+06                   953.8591     2.9808    30.1023
         INT.     0.8619D+09                  6429.2076    39.0963    60.9772
         TRA.     0.1862D+28                  1589.7652     4.9680    41.1601
         TOT.                      -68.421    8018.9728    44.0643   102.1373

 330.00  VIB.     0.1334D+04                  5842.6815    37.3503    32.0052
         ROT.     0.8858D+06                   983.6672     2.9808    30.1941
         INT.     0.1182D+10                  6826.3487    40.3311    62.1992
         TRA.     0.1950D+28                  1639.4454     4.9680    41.3130
         TOT.                      -67.974    8465.7941    45.2991   103.5122

 340.00  VIB.     0.1748D+04                  6222.3320    38.5786    33.1384
         ROT.     0.9263D+06                  1013.4753     2.9808    30.2830
         INT.     0.1620D+10                  7235.8074    41.5594    63.4215
         TRA.     0.2040D+28                  1689.1255     4.9680    41.4613
         TOT.                      -67.515    8924.9329    46.5274   104.8828

 350.00  VIB.     0.2293D+04                  6614.2240    39.7982    34.2744
         ROT.     0.9675D+06                  1043.2834     2.9808    30.3694
         INT.     0.2219D+10                  7657.5075    42.7790    64.6438
         TRA.     0.2130D+28                  1738.8057     4.9680    41.6053
         TOT.                      -67.043    9396.3131    47.7471   106.2491

 360.00  VIB.     0.3011D+04                  7018.2615    41.0074    35.4125
         ROT.     0.1009D+07                  1073.0915     2.9808    30.4534
         INT.     0.3039D+10                  8091.3530    43.9882    65.8659
         TRA.     0.2222D+28                  1788.4859     4.9680    41.7452
         TOT.                      -66.560    9879.8389    48.9562   107.6111

 370.00  VIB.     0.3955D+04                  7434.3303    42.2042    36.5524
         ROT.     0.1052D+07                  1102.8996     2.9808    30.5351
         INT.     0.4159D+10                  8537.2300    45.1850    67.0875
         TRA.     0.2315D+28                  1838.1660     4.9680    41.8814
         TOT.                      -66.064   10375.3960    50.1531   108.9688

 380.00  VIB.     0.5200D+04                  7862.3002    43.3873    37.6936
         ROT.     0.1095D+07                  1132.7077     2.9808    30.6146
         INT.     0.5692D+10                  8995.0079    46.3681    68.3082
         TRA.     0.2410D+28                  1887.8462     4.9680    42.0138
         TOT.                      -65.557   10882.8541    51.3362   110.3221

 390.00  VIB.     0.6841D+04                  8302.0267    44.5553    38.8358
         ROT.     0.1138D+07                  1162.5158     2.9808    30.6920
         INT.     0.7786D+10                  9464.5425    47.5362    69.5278
         TRA.     0.2506D+28                  1937.5263     4.9680    42.1429
         TOT.                      -65.038   11402.0688    52.5042   111.6707

 400.00  VIB.     0.9007D+04                  8753.3532    45.7072    39.9784
         ROT.     0.1182D+07                  1192.3239     2.9808    30.7675
         INT.     0.1065D+11                  9945.6771    48.6880    70.7459
         TRA.     0.2603D+28                  1987.2065     4.9680    42.2687
         TOT.                      -64.507   11932.8836    53.6560   113.0145

   *: NOTE: HEATS OF FORMATION ARE RELATIVE TO THE
            ELEMENTS IN THEIR STANDARD STATE AT 298K
              (=  Standard Enthalpy of Formation).

            Hvib:  Zero-point energy is not included.
                   frequencies of less than zero cm-1 are not included.
            Hrot = (3/2)RT
            Htra = (3/2)RT + pV = (5/2)RT

            Heat capacity is Cp, not Cv

          For more information, see: HTTP://OpenMOPAC.net/Manual/thermochemistry.html


           FORCE CONSTANT IN CARTESIAN COORDINATES (Millidynes/A)

    ATOM   CHEMICAL       X               Y               Z
   NUMBER   SYMBOL  FORCE CONSTANT  FORCE CONSTANT  FORCE CONSTANT

      1       O        6.479385        4.139129        0.915865
      2       O        6.591836        7.699272        2.669128
      3       O        8.763500        3.290136        0.672276
      4       C        8.084442        8.399846        8.228968
      5       C        8.439469        7.724811        8.176722
      6       C        8.485717        7.846423        8.222170
      7       C        8.796606        8.055841        8.152238
      8       C        9.096811        7.865415        8.285131
      9       C       15.474584        2.655568        8.914221
     10       C       15.463527        2.612733        8.914241
     11       H        0.721029        2.830010        2.886552
     12       H        3.246501        0.915390        2.265242
     13       H        0.909732        2.667247        2.205290
     14       H        0.746916        3.820982        1.813166
     15       H        0.745398        3.121397        2.527551
     16       H        0.719309        2.820013        2.896958
     17       H        3.220103        0.913997        2.293353
     18       H        0.853319        2.675859        2.197215
     19       H        1.813186        0.380979        4.055041
     20       H        1.856581        0.406600        3.988637
     21       H        1.148310        6.547698        1.802527
     22       H        8.226333        1.262605        0.611035

 **********************
 *                    *
 * JOB ENDED NORMALLY *
 *                    *
 **********************



 TOTAL JOB TIME:             2.45 SECONDS

 == MOPAC DONE ==
