 *******************************************************************************
 ** Site#: 14399        For non-commercial use only    Version 18.184L 64BITS **
 *******************************************************************************
 ** Cite this program as: MOPAC2016, Version: 18.184L, James J. P. Stewart,   **
 ** Stewart Computational Chemistry, web: HTTP://OpenMOPAC.net. Days left:  18**
 *******************************************************************************
 **                                                                           **
 **                                MOPAC2016                                  **
 **                                                                           **
 *******************************************************************************

                              PM3 CALCULATION RESULTS

 *******************************************************************************
 *  CALCULATION DONE:                                Sat Jun 15 11:03:27 2019  *
 *  PM3        - The PM3 Hamiltonian to be used
 *  PRECISE    - CRITERIA TO BE INCREASED BY 100 TIMES
 *  NOSYM      - POINT-GROUP SYMMETRY SET TO C1
 *  THREADS=1  - MULTI-THREADING NOT USED
 *  T=         - A TIME OF 172800.0 SECONDS REQUESTED
 *  DUMP=N     - RESTART FILE WRITTEN EVERY  7200.000 SECONDS
 *******************************************************************************
pm3  precise nosym THREADS=1
 InChI=1S/C7H12O2/c8-5-6-2-1-3-7(9)4-6/h5-7,9H,1-4H2

   ATOM   CHEMICAL          X               Y               Z
  NUMBER   SYMBOL      (ANGSTROMS)     (ANGSTROMS)     (ANGSTROMS)
 
     1       O         -1.94850000  *   1.93690000  *   0.57590000  *
     2       O          3.52900000  *   0.36660000  *  -0.47020000  *
     3       C          1.19130000  *   0.03530000  *  -0.27270000  *
     4       C         -1.14720000  *   1.00750000  *  -0.10460000  *
     5       C          0.30440000  *   1.09860000  *   0.40020000  *
     6       C          0.61830000  *  -1.37400000  *  -0.04160000  *
     7       C         -1.71010000  *  -0.40300000  *   0.12600000  *
     8       C         -0.82870000  *  -1.46610000  *  -0.54140000  *
     9       C          2.59140000  *   0.11560000  *   0.27010000  *
    10       H          1.21630000  *   0.23430000  *  -1.36870000  *
    11       H         -1.17180000  *   1.22350000  *  -1.19920000  *
    12       H         -2.73610000  *  -0.46410000  *  -0.29730000  *
    13       H         -1.77720000  *  -0.60900000  *   1.21740000  *
    14       H         -0.85270000  *  -1.33290000  *  -1.64540000  *
    15       H         -1.23300000  *  -2.47510000  *  -0.31010000  *
    16       H          1.23550000  *  -2.12160000  *  -0.58630000  *
    17       H          0.64840000  *  -1.62730000  *   1.04200000  *
    18       H          0.32050000  *   0.96410000  *   1.50550000  *
    19       H          0.70590000  *   2.11040000  *   0.17160000  *
    20       H          2.77540000  *  -0.05000000  *   1.32720000  *
    21       H         -1.73100000  *   2.83050000  *   0.20170000  *
 


          CARTESIAN COORDINATES 

    NO.       ATOM           X           Y           Z

     1         O         -1.9485      1.9369      0.5759
     2         O          3.5290      0.3666     -0.4702
     3         C          1.1913      0.0353     -0.2727
     4         C         -1.1472      1.0075     -0.1046
     5         C          0.3044      1.0986      0.4002
     6         C          0.6183     -1.3740     -0.0416
     7         C         -1.7101     -0.4030      0.1260
     8         C         -0.8287     -1.4661     -0.5414
     9         C          2.5914      0.1156      0.2701
    10         H          1.2163      0.2343     -1.3687
    11         H         -1.1718      1.2235     -1.1992
    12         H         -2.7361     -0.4641     -0.2973
    13         H         -1.7772     -0.6090      1.2174
    14         H         -0.8527     -1.3329     -1.6454
    15         H         -1.2330     -2.4751     -0.3101
    16         H          1.2355     -2.1216     -0.5863
    17         H          0.6484     -1.6273      1.0420
    18         H          0.3205      0.9641      1.5055
    19         H          0.7059      2.1104      0.1716
    20         H          2.7754     -0.0500      1.3272
    21         H         -1.7310      2.8305      0.2017

  H: (PM3): J. J. P. STEWART, J. COMP. CHEM. 10, 209 (1989).
  C: (PM3): J. J. P. STEWART, J. COMP. CHEM. 10, 209 (1989).
  O: (PM3): J. J. P. STEWART, J. COMP. CHEM. 10, 209 (1989).

           Empirical Formula: C7 H12 O2  =    21 atoms



      MOLECULAR POINT GROUP   :   C1  


      RHF CALCULATION, NO. OF DOUBLY OCCUPIED LEVELS = 26


          Geometry optimization using EF

          DIAGONAL MATRIX USED AS START HESSIAN

 CYCLE:     1 TIME:   0.008 TIME LEFT:  2.00D  GRAD.:    88.986 HEAT: -99.20461
 CYCLE:     2 TIME:   0.012 TIME LEFT:  2.00D  GRAD.:    73.539 HEAT: -100.4809
 CYCLE:     3 TIME:   0.008 TIME LEFT:  2.00D  GRAD.:    42.141 HEAT: -100.9784
 CYCLE:     4 TIME:   0.004 TIME LEFT:  2.00D  GRAD.:    23.970 HEAT: -101.3029
 CYCLE:     5 TIME:   0.004 TIME LEFT:  2.00D  GRAD.:    28.901 HEAT: -101.4033
 CYCLE:     6 TIME:   0.008 TIME LEFT:  2.00D  GRAD.:    14.745 HEAT: -101.5893
 CYCLE:     7 TIME:   0.008 TIME LEFT:  2.00D  GRAD.:    12.437 HEAT: -101.6422
 CYCLE:     8 TIME:   0.004 TIME LEFT:  2.00D  GRAD.:    15.788 HEAT: -101.6913
 CYCLE:     9 TIME:   0.004 TIME LEFT:  2.00D  GRAD.:    16.440 HEAT: -101.7276
 CYCLE:    10 TIME:   0.004 TIME LEFT:  2.00D  GRAD.:    23.416 HEAT: -101.7456
 CYCLE:    11 TIME:   0.008 TIME LEFT:  2.00D  GRAD.:     9.412 HEAT: -101.8322
 CYCLE:    12 TIME:   0.008 TIME LEFT:  2.00D  GRAD.:     9.125 HEAT: -101.8535
 CYCLE:    13 TIME:   0.004 TIME LEFT:  2.00D  GRAD.:     4.610 HEAT: -101.8753
 CYCLE:    14 TIME:   0.004 TIME LEFT:  2.00D  GRAD.:    10.050 HEAT: -101.8786
 CYCLE:    15 TIME:   0.004 TIME LEFT:  2.00D  GRAD.:     8.171 HEAT: -101.8926
 CYCLE:    16 TIME:   0.008 TIME LEFT:  2.00D  GRAD.:    10.070 HEAT: -101.8958
 CYCLE:    17 TIME:   0.004 TIME LEFT:  2.00D  GRAD.:     3.850 HEAT: -101.9163
 CYCLE:    18 TIME:   0.012 TIME LEFT:  2.00D  GRAD.:     4.201 HEAT: -101.9200
 CYCLE:    19 TIME:   0.004 TIME LEFT:  2.00D  GRAD.:     2.339 HEAT: -101.9262
 CYCLE:    20 TIME:   0.008 TIME LEFT:  2.00D  GRAD.:     5.857 HEAT: -101.9279
 CYCLE:    21 TIME:   0.004 TIME LEFT:  2.00D  GRAD.:     4.587 HEAT: -101.9378
 CYCLE:    22 TIME:   0.004 TIME LEFT:  2.00D  GRAD.:     4.847 HEAT: -101.9418
 CYCLE:    23 TIME:   0.004 TIME LEFT:  2.00D  GRAD.:     2.693 HEAT: -101.9496
 CYCLE:    24 TIME:   0.004 TIME LEFT:  2.00D  GRAD.:     3.259 HEAT: -101.9539
 CYCLE:    25 TIME:   0.004 TIME LEFT:  2.00D  GRAD.:     2.822 HEAT: -101.9591
 CYCLE:    26 TIME:   0.004 TIME LEFT:  2.00D  GRAD.:     3.161 HEAT: -101.9666
 CYCLE:    27 TIME:   0.008 TIME LEFT:  2.00D  GRAD.:     2.875 HEAT: -101.9724
 CYCLE:    28 TIME:   0.004 TIME LEFT:  2.00D  GRAD.:     2.592 HEAT: -101.9802
 CYCLE:    29 TIME:   0.004 TIME LEFT:  2.00D  GRAD.:     3.712 HEAT: -101.9851
 CYCLE:    30 TIME:   0.004 TIME LEFT:  2.00D  GRAD.:     2.072 HEAT: -101.9932
 CYCLE:    31 TIME:   0.004 TIME LEFT:  2.00D  GRAD.:     1.515 HEAT: -101.9985
 CYCLE:    32 TIME:   0.004 TIME LEFT:  2.00D  GRAD.:     1.967 HEAT: -102.0012
 CYCLE:    33 TIME:   0.004 TIME LEFT:  2.00D  GRAD.:     1.157 HEAT: -102.0039
 CYCLE:    34 TIME:   0.004 TIME LEFT:  2.00D  GRAD.:     0.974 HEAT: -102.0060
 CYCLE:    35 TIME:   0.004 TIME LEFT:  2.00D  GRAD.:     0.729 HEAT: -102.0070
 CYCLE:    36 TIME:   0.004 TIME LEFT:  2.00D  GRAD.:     0.545 HEAT: -102.0076
 CYCLE:    37 TIME:   0.004 TIME LEFT:  2.00D  GRAD.:     0.474 HEAT: -102.0081
 CYCLE:    38 TIME:   0.004 TIME LEFT:  2.00D  GRAD.:     0.395 HEAT: -102.0083
 CYCLE:    39 TIME:   0.004 TIME LEFT:  2.00D  GRAD.:     0.280 HEAT: -102.0085
 CYCLE:    40 TIME:   0.008 TIME LEFT:  2.00D  GRAD.:     0.333 HEAT: -102.0086
 CYCLE:    41 TIME:   0.004 TIME LEFT:  2.00D  GRAD.:     0.242 HEAT: -102.0087
 CYCLE:    42 TIME:   0.004 TIME LEFT:  2.00D  GRAD.:     0.168 HEAT: -102.0087
 CYCLE:    43 TIME:   0.004 TIME LEFT:  2.00D  GRAD.:     0.135 HEAT: -102.0087
 CYCLE:    44 TIME:   0.004 TIME LEFT:  2.00D  GRAD.:     0.121 HEAT: -102.0088
 CYCLE:    45 TIME:   0.004 TIME LEFT:  2.00D  GRAD.:     0.117 HEAT: -102.0088
 CYCLE:    46 TIME:   0.004 TIME LEFT:  2.00D  GRAD.:     0.157 HEAT: -102.0088
 CYCLE:    47 TIME:   0.004 TIME LEFT:  2.00D  GRAD.:     0.112 HEAT: -102.0089
 CYCLE:    48 TIME:   0.004 TIME LEFT:  2.00D  GRAD.:     0.129 HEAT: -102.0089
 CYCLE:    49 TIME:   0.004 TIME LEFT:  2.00D  GRAD.:     0.077 HEAT: -102.0089
 CYCLE:    50 TIME:   0.004 TIME LEFT:  2.00D  GRAD.:     0.072 HEAT: -102.0089
 CYCLE:    51 TIME:   0.004 TIME LEFT:  2.00D  GRAD.:     0.113 HEAT: -102.0089
 CYCLE:    52 TIME:   0.004 TIME LEFT:  2.00D  GRAD.:     0.119 HEAT: -102.0089
 CYCLE:    53 TIME:   0.008 TIME LEFT:  2.00D  GRAD.:     0.083 HEAT: -102.0090
 CYCLE:    54 TIME:   0.004 TIME LEFT:  2.00D  GRAD.:     0.151 HEAT: -102.0090
 CYCLE:    55 TIME:   0.004 TIME LEFT:  2.00D  GRAD.:     0.110 HEAT: -102.0090
 CYCLE:    56 TIME:   0.004 TIME LEFT:  2.00D  GRAD.:     0.088 HEAT: -102.0090
 CYCLE:    57 TIME:   0.004 TIME LEFT:  2.00D  GRAD.:     0.146 HEAT: -102.0091
 CYCLE:    58 TIME:   0.004 TIME LEFT:  2.00D  GRAD.:     0.128 HEAT: -102.0092
 CYCLE:    59 TIME:   0.004 TIME LEFT:  2.00D  GRAD.:     0.100 HEAT: -102.0092
 CYCLE:    60 TIME:   0.004 TIME LEFT:  2.00D  GRAD.:     0.078 HEAT: -102.0092
 CYCLE:    61 TIME:   0.004 TIME LEFT:  2.00D  GRAD.:     0.070 HEAT: -102.0093
 CYCLE:    62 TIME:   0.004 TIME LEFT:  2.00D  GRAD.:     0.059 HEAT: -102.0093
 CYCLE:    63 TIME:   0.004 TIME LEFT:  2.00D  GRAD.:     0.081 HEAT: -102.0093
 CYCLE:    64 TIME:   0.008 TIME LEFT:  2.00D  GRAD.:     0.057 HEAT: -102.0093
 CYCLE:    65 TIME:   0.004 TIME LEFT:  2.00D  GRAD.:     0.591 HEAT: -102.0082
 CYCLE:    66 TIME:   0.004 TIME LEFT:  2.00D  GRAD.:     0.073 HEAT: -102.0093
 CYCLE:    67 TIME:   0.004 TIME LEFT:  2.00D  GRAD.:     0.072 HEAT: -102.0093
 CYCLE:    68 TIME:   0.004 TIME LEFT:  2.00D  GRAD.:     0.044 HEAT: -102.0093

     GRADIENT =  0.04367  IS LESS THAN CUTOFF =  0.05000



 -------------------------------------------------------------------------------
 pm3  precise nosym THREADS=1
 InChI=1S/C7H12O2/c8-5-6-2-1-3-7(9)4-6/h5-7,9H,1-4H2



     GEOMETRY OPTIMISED USING EIGENVECTOR FOLLOWING (EF).     
     SCF FIELD WAS ACHIEVED                                   


                              PM3 CALCULATION
                                                       MOPAC2016 (Version: 18.184L)
                                                       Sat Jun 15 11:03:28 2019
                                                       No. of days remaining =  18




          FINAL HEAT OF FORMATION =       -102.00931 KCAL/MOL =    -426.80697 KJ/MOL


          TOTAL ENERGY            =      -1602.74847 EV
          ELECTRONIC ENERGY       =      -7792.82427 EV  POINT GROUP:     C1  
          CORE-CORE REPULSION     =       6190.07581 EV
          COSMO AREA              =        165.90 SQUARE ANGSTROMS
          COSMO VOLUME            =        167.91 CUBIC ANGSTROMS

          GRADIENT NORM           =          0.04367 = 0.00953 PER ATOM
          IONIZATION POTENTIAL    =         10.612186 EV
          HOMO LUMO ENERGIES (EV) =        -10.612  0.716
          NO. OF FILLED LEVELS    =         26
          MOLECULAR WEIGHT        =        128.1706

          MOLECULAR DIMENSIONS (Angstroms)

            Atom       Atom       Distance
            H    12    O     2     6.34917
            H    21    H    16     5.30909
            H    20    H    11     2.93039


          SCF CALCULATIONS        =         80
 
          WALL-CLOCK TIME         =          0.336 SECONDS
          COMPUTATION TIME        =          0.310 SECONDS




   ATOM   CHEMICAL          X               Y               Z
  NUMBER   SYMBOL      (ANGSTROMS)     (ANGSTROMS)     (ANGSTROMS)
 
     1       O         -1.98071455  *   1.91605127  *   0.54922936  *
     2       O          3.54906429  *   0.37475284  *  -0.42544271  *
     3       C          1.17626903  *   0.03612597  *  -0.30402134  *
     4       C         -1.13769309  *   1.00182170  *  -0.12620262  *
     5       C          0.31471945  *   1.09916869  *   0.37130883  *
     6       C          0.60959035  *  -1.35942116  *  -0.04849288  *
     7       C         -1.70115849  *  -0.40034400  *   0.13970446  *
     8       C         -0.83022449  *  -1.45200860  *  -0.52765537  *
     9       C          2.58681806  *   0.11264279  *   0.25655961  *
    10       H          1.18306107  *   0.22466908  *  -1.40664161  *
    11       H         -1.17124799  *   1.21765443  *  -1.22346632  *
    12       H         -2.74065072  *  -0.47094255  *  -0.23516647  *
    13       H         -1.76095875  *  -0.58790951  *   1.23076680  *
    14       H         -0.87028239  *  -1.33507872  *  -1.62936221  *
    15       H         -1.23189676  *  -2.46183893  *  -0.31698430  *
    16       H          1.23106888  *  -2.11779431  *  -0.56245465  *
    17       H          0.66537248  *  -1.59933132  *   1.03283743  *
    18       H          0.34847985  *   0.97857768  *   1.47338289  *
    19       H          0.72653593  *   2.10630020  *   0.16237713  *
    20       H          2.70182279  *  -0.08443744  *   1.33561120  *
    21       H         -1.62896970  *   2.78036987  *   0.38365210  *

                             CARTESIAN COORDINATES

   1    O       -1.980714545     1.916051270     0.549229362
   2    O        3.549064287     0.374752838    -0.425442709
   3    C        1.176269035     0.036125971    -0.304021339
   4    C       -1.137693090     1.001821702    -0.126202624
   5    C        0.314719454     1.099168695     0.371308833
   6    C        0.609590352    -1.359421162    -0.048492877
   7    C       -1.701158488    -0.400343999     0.139704465
   8    C       -0.830224493    -1.452008595    -0.527655369
   9    C        2.586818056     0.112642789     0.256559613
  10    H        1.183061070     0.224669084    -1.406641611
  11    H       -1.171247995     1.217654427    -1.223466318
  12    H       -2.740650724    -0.470942551    -0.235166475
  13    H       -1.760958754    -0.587909515     1.230766799
  14    H       -0.870282388    -1.335078724    -1.629362208
  15    H       -1.231896758    -2.461838928    -0.316984296
  16    H        1.231068882    -2.117794310    -0.562454650
  17    H        0.665372478    -1.599331321     1.032837426
  18    H        0.348479851     0.978577677     1.473382886
  19    H        0.726535925     2.106300201     0.162377134
  20    H        2.701822792    -0.084437444     1.335611204
  21    H       -1.628969698     2.780369874     0.383652102


           Empirical Formula: C7 H12 O2  =    21 atoms



      MOLECULAR POINT GROUP   :   C1  


                  EIGENVALUES  
 -42.35760 -38.09941 -36.12998 -31.40803 -29.22043 -23.77362 -22.16763 -20.73700
 -20.25864 -17.86287 -17.18723 -16.82744 -15.86718 -15.79403 -15.40562 -14.71807
 -14.29408 -14.09596 -13.70452 -12.90732 -12.66692 -12.24415 -12.05443 -11.77894
 -11.26177 -10.61219   0.71571   2.37252   2.89754   3.12559   3.25471   3.33875
   3.42867   3.48454   3.61857   3.77003   3.80477   3.89119   4.08590   4.27237
   4.41757   4.49996   4.52409   4.68606   4.82255   4.88110   5.53755   6.71307


              NET ATOMIC CHARGES AND DIPOLE CONTRIBUTIONS

  ATOM NO.   TYPE          CHARGE      No. of ELECS.   s-Pop       p-Pop       
    1          O          -0.306698        6.3067     1.81025     4.49645
    2          O          -0.307163        6.3072     1.86040     4.44676
    3          C          -0.158029        4.1580     1.19321     2.96482
    4          C           0.083426        3.9166     1.17220     2.74438
    5          C          -0.129991        4.1300     1.17242     2.95757
    6          C          -0.089344        4.0893     1.16092     2.92842
    7          C          -0.110993        4.1110     1.16364     2.94736
    8          C          -0.093507        4.0935     1.15914     2.93437
    9          C           0.278035        3.7220     1.20699     2.51498
   10          H           0.091163        0.9088     0.90884
   11          H           0.044175        0.9558     0.95583
   12          H           0.063686        0.9363     0.93631
   13          H           0.064289        0.9357     0.93571
   14          H           0.052927        0.9471     0.94707
   15          H           0.054038        0.9460     0.94596
   16          H           0.055554        0.9444     0.94445
   17          H           0.053941        0.9461     0.94606
   18          H           0.065763        0.9342     0.93424
   19          H           0.053776        0.9462     0.94622
   20          H           0.048407        0.9516     0.95159
   21          H           0.186545        0.8135     0.81345
 DIPOLE           X         Y         Z       TOTAL
 POINT-CHG.    -1.077    -0.690     0.508     1.377
 HYBRID         0.184     0.357    -0.056     0.406
 SUM           -0.893    -0.333     0.452     1.055


          ATOMIC ORBITAL ELECTRON POPULATIONS

     Atom    s        px        py        pz   
    1  O   1.81025   1.53795   1.19619   1.76231
    2  O   1.86040   1.45798   1.30498   1.68380
    3  C   1.19321   0.96942   0.96961   1.02578
    4  C   1.17220   0.88741   0.90884   0.94812
    5  C   1.17242   0.96598   0.98017   1.01142
    6  C   1.16092   0.96696   0.94811   1.01335
    7  C   1.16364   0.98990   0.93940   1.01805
    8  C   1.15914   0.94689   0.98726   1.00022
    9  C   1.20699   0.87797   0.72383   0.91317
   10  H   0.90884
   11  H   0.95583
   12  H   0.93631
   13  H   0.93571
   14  H   0.94707
   15  H   0.94596
   16  H   0.94445
   17  H   0.94606
   18  H   0.93424
   19  H   0.94622
   20  H   0.95159
   21  H   0.81345
 *******************************************************************************
 ** Site#: 14399        For non-commercial use only    Version 18.184L 64BITS **
 *******************************************************************************
 ** Cite this program as: MOPAC2016, Version: 18.184L, James J. P. Stewart,   **
 ** Stewart Computational Chemistry, web: HTTP://OpenMOPAC.net. Days left:  18**
 *******************************************************************************
 **                                                                           **
 **                                MOPAC2016                                  **
 **                                                                           **
 *******************************************************************************

                              PM3 CALCULATION RESULTS

 *******************************************************************************
 *  CALCULATION DONE:                                Sat Jun 15 11:03:28 2019  *
 *  PM3        - The PM3 Hamiltonian to be used
 *  OLDGEO     - PREVIOUS GEOMETRY TO BE USED
 *  PRECISE    - CRITERIA TO BE INCREASED BY 100 TIMES
 *  NOSYM      - POINT-GROUP SYMMETRY SET TO C1
 *  THREADS=1  - MULTI-THREADING NOT USED
 *  T=         - A TIME OF 172800.0 SECONDS REQUESTED
 *  DUMP=N     - RESTART FILE WRITTEN EVERY  7200.000 SECONDS
 *  THERMO     - THERMODYNAMIC QUANTITIES TO BE CALCULATED
 *******************************************************************************
oldgeo thermo nosym precise THREADS=1  pm3
 InChI=1S/C7H12O2/c8-5-6-2-1-3-7(9)4-6/h5-7,9H,1-4H2

   ATOM   CHEMICAL          X               Y               Z
  NUMBER   SYMBOL      (ANGSTROMS)     (ANGSTROMS)     (ANGSTROMS)
 
     1       O         -1.98071455  *   1.91605127  *   0.54922936  *
     2       O          3.54906429  *   0.37475284  *  -0.42544271  *
     3       C          1.17626903  *   0.03612597  *  -0.30402134  *
     4       C         -1.13769309  *   1.00182170  *  -0.12620262  *
     5       C          0.31471945  *   1.09916869  *   0.37130883  *
     6       C          0.60959035  *  -1.35942116  *  -0.04849288  *
     7       C         -1.70115849  *  -0.40034400  *   0.13970446  *
     8       C         -0.83022449  *  -1.45200860  *  -0.52765537  *
     9       C          2.58681806  *   0.11264279  *   0.25655961  *
    10       H          1.18306107  *   0.22466908  *  -1.40664161  *
    11       H         -1.17124799  *   1.21765443  *  -1.22346632  *
    12       H         -2.74065072  *  -0.47094255  *  -0.23516647  *
    13       H         -1.76095875  *  -0.58790951  *   1.23076680  *
    14       H         -0.87028239  *  -1.33507872  *  -1.62936221  *
    15       H         -1.23189676  *  -2.46183893  *  -0.31698430  *
    16       H          1.23106888  *  -2.11779431  *  -0.56245465  *
    17       H          0.66537248  *  -1.59933132  *   1.03283743  *
    18       H          0.34847985  *   0.97857768  *   1.47338289  *
    19       H          0.72653593  *   2.10630020  *   0.16237713  *
    20       H          2.70182279  *  -0.08443744  *   1.33561120  *
    21       H         -1.62896970  *   2.78036987  *   0.38365210  *
 


          CARTESIAN COORDINATES 

    NO.       ATOM           X           Y           Z

     1         O         -1.9807      1.9161      0.5492
     2         O          3.5491      0.3748     -0.4254
     3         C          1.1763      0.0361     -0.3040
     4         C         -1.1377      1.0018     -0.1262
     5         C          0.3147      1.0992      0.3713
     6         C          0.6096     -1.3594     -0.0485
     7         C         -1.7012     -0.4003      0.1397
     8         C         -0.8302     -1.4520     -0.5277
     9         C          2.5868      0.1126      0.2566
    10         H          1.1831      0.2247     -1.4066
    11         H         -1.1712      1.2177     -1.2235
    12         H         -2.7407     -0.4709     -0.2352
    13         H         -1.7610     -0.5879      1.2308
    14         H         -0.8703     -1.3351     -1.6294
    15         H         -1.2319     -2.4618     -0.3170
    16         H          1.2311     -2.1178     -0.5625
    17         H          0.6654     -1.5993      1.0328
    18         H          0.3485      0.9786      1.4734
    19         H          0.7265      2.1063      0.1624
    20         H          2.7018     -0.0844      1.3356
    21         H         -1.6290      2.7804      0.3837

  H: (PM3): J. J. P. STEWART, J. COMP. CHEM. 10, 209 (1989).
  C: (PM3): J. J. P. STEWART, J. COMP. CHEM. 10, 209 (1989).
  O: (PM3): J. J. P. STEWART, J. COMP. CHEM. 10, 209 (1989).

           Empirical Formula: C7 H12 O2  =    21 atoms



      MOLECULAR POINT GROUP   :   C1  


      RHF CALCULATION, NO. OF DOUBLY OCCUPIED LEVELS = 26



          HEAT OF FORMATION =    -102.009313 KCALS/MOLE


          CARTESIAN COORDINATE DERIVATIVES

   NUMBER  ATOM         X            Y            Z

     1       O     -0.008018     0.010637    -0.010375
     2       O      0.009116     0.005490     0.000955
     3       C     -0.006763    -0.003893     0.003525
     4       C      0.000640    -0.003717     0.002357
     5       C     -0.007049     0.004273     0.001931
     6       C      0.006958    -0.001943    -0.000915
     7       C     -0.003620     0.000413     0.001322
     8       C     -0.001774     0.003642    -0.001762
     9       C     -0.003760     0.003829     0.002320
    10       H      0.004165     0.001967    -0.000150
    11       H     -0.006494    -0.003000    -0.001209
    12       H     -0.000381     0.004739     0.000932
    13       H     -0.016983     0.006067     0.002577
    14       H      0.009716     0.001171     0.000872
    15       H      0.000849     0.006303     0.002131
    16       H      0.007241     0.000294    -0.006912
    17       H      0.001675    -0.005296    -0.001114
    18       H      0.004778    -0.007363     0.001690
    19       H      0.001040    -0.007018     0.001545
    20       H      0.006818     0.000158    -0.001436
    21       H      0.001845    -0.016753     0.001716
 


          GRADIENT NORM =   0.04309


          TIME FOR SCF CALCULATION =    0.00

          TIME FOR DERIVATIVES     =    0.00

          MOLECULAR WEIGHT =  128.17



          ROTATIONAL CONSTANTS IN CM(-1)

          A =    0.09185242   B =    0.03558652   C =    0.02740733



           PRINCIPAL MOMENTS OF INERTIA IN UNITS OF 10**(-40)*GRAM-CM**2

          A =      304.7582   B =      786.6118   C =     1021.3608


          ORIENTATION OF MOLECULE IN FORCE CALCULATION

    NO.       ATOM         X         Y         Z

     1          O      -2.6895   -1.0555    0.1624
     2          O       3.1332   -1.0555    0.1624
     3          C       0.9491   -0.0609    0.1624
     4          C      -1.5339   -0.3000    0.4730
     5          C      -0.2636   -0.9479   -0.1042
     6          C       0.7375    1.3328   -0.4264
     7          C      -1.7423    1.0963   -0.1280
     8          C      -0.5251    1.9680    0.1334
     9          C       2.1746   -0.6925   -0.4771
    10          H       1.0902    0.0340    1.2681
    11          H      -1.4392   -0.2195    1.5848
    12          H      -2.6481    1.5654    0.3028
    13          H      -1.9321    1.0192   -1.2176
    14          H      -0.4097    2.1427    1.2221
    15          H      -0.6745    2.9677   -0.3181
    16          H       1.6145    1.9715   -0.2061
    17          H       0.6730    1.2717   -1.5319
    18          H      -0.3841   -1.1175   -1.1937
    19          H      -0.1041   -1.9486    0.3440
    20          H       2.1553   -0.8102   -1.5735
    21          H      -2.5566   -1.9171    0.5341


    FIRST DERIVATIVES WILL BE USED IN THE CALCULATION OF SECOND DERIVATIVES

          ESTIMATED TIME TO COMPLETE CALCULATION =        0.98 SECONDS

    FOR POINT-GROUP C1   THERE ARE   1 UNIQUE SYMMETRY FUNCTIONS.

 STEP:   1 TIME =     0.02 SECS, INTEGRAL =      0.02 TIME LEFT: 172799.98
 STEP:   2 TIME =     0.02 SECS, INTEGRAL =      0.03 TIME LEFT: 172799.96
 STEP:   3 TIME =     0.02 SECS, INTEGRAL =      0.05 TIME LEFT: 172799.95
 STEP:   4 TIME =     0.02 SECS, INTEGRAL =      0.07 TIME LEFT: 172799.93
 STEP:   5 TIME =     0.02 SECS, INTEGRAL =      0.09 TIME LEFT: 172799.91
 STEP:   6 TIME =     0.02 SECS, INTEGRAL =      0.11 TIME LEFT: 172799.89
 STEP:   7 TIME =     0.02 SECS, INTEGRAL =      0.12 TIME LEFT: 172799.88
 STEP:   8 TIME =     0.02 SECS, INTEGRAL =      0.14 TIME LEFT: 172799.86
 STEP:   9 TIME =     0.02 SECS, INTEGRAL =      0.16 TIME LEFT: 172799.84
 STEP:  10 TIME =     0.02 SECS, INTEGRAL =      0.18 TIME LEFT: 172799.82
 STEP:  11 TIME =     0.02 SECS, INTEGRAL =      0.20 TIME LEFT: 172799.80
 STEP:  12 TIME =     0.02 SECS, INTEGRAL =      0.21 TIME LEFT: 172799.78
 STEP:  13 TIME =     0.02 SECS, INTEGRAL =      0.23 TIME LEFT: 172799.77
 STEP:  14 TIME =     0.02 SECS, INTEGRAL =      0.25 TIME LEFT: 172799.75
 STEP:  15 TIME =     0.02 SECS, INTEGRAL =      0.27 TIME LEFT: 172799.73
 STEP:  16 TIME =     0.02 SECS, INTEGRAL =      0.28 TIME LEFT: 172799.71
 STEP:  17 TIME =     0.02 SECS, INTEGRAL =      0.30 TIME LEFT: 172799.70
 STEP:  18 TIME =     0.02 SECS, INTEGRAL =      0.32 TIME LEFT: 172799.68
 STEP:  19 TIME =     0.02 SECS, INTEGRAL =      0.34 TIME LEFT: 172799.66
 STEP:  20 TIME =     0.02 SECS, INTEGRAL =      0.36 TIME LEFT: 172799.64
 STEP:  21 TIME =     0.02 SECS, INTEGRAL =      0.38 TIME LEFT: 172799.62
 STEP:  22 TIME =     0.02 SECS, INTEGRAL =      0.39 TIME LEFT: 172799.61
 STEP:  23 TIME =     0.02 SECS, INTEGRAL =      0.41 TIME LEFT: 172799.59
 STEP:  24 TIME =     0.02 SECS, INTEGRAL =      0.43 TIME LEFT: 172799.57
 STEP:  25 TIME =     0.02 SECS, INTEGRAL =      0.45 TIME LEFT: 172799.55
 STEP:  26 TIME =     0.02 SECS, INTEGRAL =      0.46 TIME LEFT: 172799.53
 STEP:  27 TIME =     0.02 SECS, INTEGRAL =      0.48 TIME LEFT: 172799.51
 STEP:  28 TIME =     0.02 SECS, INTEGRAL =      0.50 TIME LEFT: 172799.49
 STEP:  29 TIME =     0.02 SECS, INTEGRAL =      0.52 TIME LEFT: 172799.48
 STEP:  30 TIME =     0.02 SECS, INTEGRAL =      0.54 TIME LEFT: 172799.46
 STEP:  31 TIME =     0.02 SECS, INTEGRAL =      0.56 TIME LEFT: 172799.44
 STEP:  32 TIME =     0.02 SECS, INTEGRAL =      0.57 TIME LEFT: 172799.42
 STEP:  33 TIME =     0.02 SECS, INTEGRAL =      0.59 TIME LEFT: 172799.41
 STEP:  34 TIME =     0.02 SECS, INTEGRAL =      0.61 TIME LEFT: 172799.39
 STEP:  35 TIME =     0.02 SECS, INTEGRAL =      0.63 TIME LEFT: 172799.37
 STEP:  36 TIME =     0.02 SECS, INTEGRAL =      0.64 TIME LEFT: 172799.35
 STEP:  37 TIME =     0.02 SECS, INTEGRAL =      0.66 TIME LEFT: 172799.33
 STEP:  38 TIME =     0.02 SECS, INTEGRAL =      0.68 TIME LEFT: 172799.31
 STEP:  39 TIME =     0.02 SECS, INTEGRAL =      0.70 TIME LEFT: 172799.29
 STEP:  40 TIME =     0.02 SECS, INTEGRAL =      0.72 TIME LEFT: 172799.28
 STEP:  41 TIME =     0.02 SECS, INTEGRAL =      0.74 TIME LEFT: 172799.26
 STEP:  42 TIME =     0.02 SECS, INTEGRAL =      0.76 TIME LEFT: 172799.24
 STEP:  43 TIME =     0.02 SECS, INTEGRAL =      0.77 TIME LEFT: 172799.22
 STEP:  44 TIME =     0.02 SECS, INTEGRAL =      0.79 TIME LEFT: 172799.20
 STEP:  45 TIME =     0.02 SECS, INTEGRAL =      0.81 TIME LEFT: 172799.18
 STEP:  46 TIME =     0.02 SECS, INTEGRAL =      0.83 TIME LEFT: 172799.17
 STEP:  47 TIME =     0.02 SECS, INTEGRAL =      0.85 TIME LEFT: 172799.15
 STEP:  48 TIME =     0.02 SECS, INTEGRAL =      0.87 TIME LEFT: 172799.13
 STEP:  49 TIME =     0.02 SECS, INTEGRAL =      0.89 TIME LEFT: 172799.11
 STEP:  50 TIME =     0.02 SECS, INTEGRAL =      0.90 TIME LEFT: 172799.09
 STEP:  51 TIME =     0.02 SECS, INTEGRAL =      0.92 TIME LEFT: 172799.07
 STEP:  52 TIME =     0.02 SECS, INTEGRAL =      0.94 TIME LEFT: 172799.05
 STEP:  53 TIME =     0.02 SECS, INTEGRAL =      0.96 TIME LEFT: 172799.04
 STEP:  54 TIME =     0.02 SECS, INTEGRAL =      0.98 TIME LEFT: 172799.02
 STEP:  55 TIME =     0.02 SECS, INTEGRAL =      1.00 TIME LEFT: 172799.00
 STEP:  56 TIME =     0.02 SECS, INTEGRAL =      1.01 TIME LEFT: 172798.98
 STEP:  57 TIME =     0.02 SECS, INTEGRAL =      1.03 TIME LEFT: 172798.96
 STEP:  58 TIME =     0.02 SECS, INTEGRAL =      1.05 TIME LEFT: 172798.95
 STEP:  59 TIME =     0.02 SECS, INTEGRAL =      1.07 TIME LEFT: 172798.93
 STEP:  60 TIME =     0.02 SECS, INTEGRAL =      1.09 TIME LEFT: 172798.91
 STEP:  61 TIME =     0.02 SECS, INTEGRAL =      1.11 TIME LEFT: 172798.89
 STEP:  62 TIME =     0.02 SECS, INTEGRAL =      1.12 TIME LEFT: 172798.87
 STEP:  63 TIME =     0.02 SECS, INTEGRAL =      1.14 TIME LEFT: 172798.85

(To convert to Hartree/Bohr^2, multiply by (10^(-21) x N x a0^2)/(4.184 x 627.51) =  0.0642)


           FORCE MATRIX IN MILLIDYNES/ANGSTROM


                  O  1       O  2       C  3       C  4       C  5       C  6
 ------------------------------------------------------------------------------
     O    1  11.964227
     O    2   0.022611  16.356874
     C    3   0.079302   1.185805  14.248389
     C    4   5.125553   0.019116   0.626171  14.453230
     C    5   0.852251   0.085573   3.968843   3.589310  14.227419
     C    6   0.004255   0.083617   3.906385   0.062217   0.655649  14.345513
     C    7   0.854772   0.004529   0.055984   3.764836   0.611242   0.665576
     C    8   0.068208   0.019754   0.674385   0.653202   0.056736   4.177872
     C    9   0.030069  15.076990   3.792015   0.058143   0.665165   0.667968
     H   10   0.005566   0.071633   4.217236   0.032939   0.422139   0.422113
     H   11   0.416025   0.002975   0.021394   4.102847   0.428025   0.004339
     H   12   0.058435   0.000466   0.002841   0.453606   0.048657   0.051048
     H   13   0.061476   0.002488   0.004379   0.466986   0.017754   0.019568
     H   14   0.003591   0.002379   0.019793   0.026331   0.004105   0.445161
     H   15   0.011582   0.005125   0.052831   0.051152   0.003184   0.431838
     H   16   0.000895   0.003911   0.435663   0.004716   0.049882   4.500101
     H   17   0.001490   0.006503   0.450154   0.006684   0.018475   4.426572
     H   18   0.037706   0.007059   0.449083   0.462041   4.437101   0.019065
     H   19   0.036920   0.004144   0.438192   0.444778   4.469660   0.050662
     H   20   0.003546   0.652910   0.461342   0.005097   0.020202   0.020805
     H   21   8.327684   0.005791   0.008815   0.803254   0.078015   0.002694


                  C  7       C  8       C  9       H 10       H 11       H 12
 ------------------------------------------------------------------------------
     C    7  14.344778
     C    8   4.196402  14.400708
     C    9   0.007728   0.053653  20.186632
     H   10   0.004790   0.025076   0.477753   4.706198
     H   11   0.422644   0.021859   0.003991   0.018033   4.525176
     H   12   4.503803   0.435717   0.000851   0.000449   0.027039   5.128050
     H   13   4.456007   0.444874   0.003374   0.000739   0.043037   0.564997
     H   14   0.442970   4.442286   0.003586   0.016322   0.014780   0.030586
     H   15   0.433766   4.499743   0.010169   0.001918   0.001312   0.031394
     H   16   0.050901   0.434059   0.029206   0.031031   0.000408   0.008275
     H   17   0.018866   0.444781   0.047128   0.042585   0.000762   0.002001
     H   18   0.017949   0.004921   0.047059   0.042248   0.043837   0.002192
     H   19   0.047868   0.002669   0.029653   0.030702   0.026635   0.007993
     H   20   0.000656   0.004052   4.386998   0.037492   0.000587   0.000194
     H   21   0.110224   0.017798   0.007981   0.001543   0.040179   0.002951


                  H 13       H 14       H 15       H 16       H 17       H 18
 ------------------------------------------------------------------------------
     H   13   5.084461
     H   14   0.045674   5.059701
     H   15   0.030803   0.565628   5.110468
     H   16   0.002144   0.031025   0.031467   5.106034
     H   17   0.012537   0.045972   0.031183   0.556410   5.043626
     H   18   0.012424   0.000677   0.000304   0.002126   0.012476   5.060185
     H   19   0.002191   0.000238   0.000340   0.008436   0.002010   0.556114
     H   20   0.000184   0.000689   0.000860   0.001936   0.018710   0.016153
     H   21   0.003742   0.000612   0.002918   0.000717   0.000555   0.006838


                  H 19       H 20       H 21
 ------------------------------------------
     H   19   5.088334
     H   20   0.001924   4.799531
     H   21   0.031051   0.000709   8.575597


          HEAT OF FORMATION =    -102.009313 KCALS/MOLE

          ZERO POINT ENERGY     113.226 KCAL/MOL


           NORMAL COORDINATE ANALYSIS (Total motion = 1 Angstrom)


   Root No.       1         2         3         4         5         6         7         8

                 1 A       2 A       3 A       4 A       5 A       6 A       7 A       8 A   

                  53.0     118.5     146.0     249.0     253.9     288.4     354.4     402.3
  
           1   -0.0297   -0.0011   -0.0070    0.0383   -0.0108   -0.0227    0.0007   -0.0244
           2    0.0239    0.0024   -0.0013   -0.0329    0.0127    0.0239   -0.0041    0.0453
           3   -0.0114    0.0097    0.0559   -0.0387    0.0077   -0.0070    0.0085   -0.0058
           4    0.0539   -0.0060   -0.0004   -0.0052   -0.0035    0.0184    0.0551    0.0186
           5    0.1039    0.0097    0.0033    0.0002    0.0048   -0.0043   -0.0276   -0.0111
           6   -0.0150    0.0465    0.0072   -0.0005    0.0108   -0.0100   -0.0173    0.0083
           7   -0.0120   -0.0065   -0.0065   -0.0021   -0.0014   -0.0024    0.0215    0.0218
           8   -0.0405   -0.0031   -0.0130    0.0032   -0.0042   -0.0245   -0.0015    0.0167
           9    0.0063   -0.0309   -0.0053    0.0008   -0.0164    0.0150    0.0256   -0.0264
          10   -0.0174    0.0095    0.0073    0.0015   -0.0016   -0.0040   -0.0138    0.0129
          11    0.0017   -0.0100    0.0021    0.0062    0.0022   -0.0078    0.0261   -0.0189
          12   -0.0029   -0.0005   -0.0134    0.0015   -0.0077    0.0033   -0.0173    0.0074
          13   -0.0260   -0.0059   -0.0097   -0.0041   -0.0005   -0.0055   -0.0001    0.0215
          14   -0.0187    0.0026    0.0046    0.0128   -0.0160   -0.0201    0.0333   -0.0037
          15    0.0004   -0.0503   -0.0530   -0.0104    0.0063    0.0010   -0.0110    0.0011
          16    0.0137   -0.0092    0.0162    0.0035   -0.0140    0.0006   -0.0288   -0.0091
          17   -0.0343   -0.0079    0.0089    0.0059   -0.0065   -0.0248   -0.0193    0.0288
          18    0.0103   -0.0400    0.0365    0.0055   -0.0182    0.0118   -0.0075    0.0052
          19    0.0093   -0.0045    0.0021   -0.0073    0.0127   -0.0070   -0.0426   -0.0114
          20    0.0079    0.0084   -0.0084    0.0098   -0.0029   -0.0027    0.0229   -0.0278
          21    0.0021    0.0455   -0.0352    0.0147   -0.0251    0.0176   -0.0135    0.0079
          22    0.0236    0.0123   -0.0084   -0.0005    0.0074   -0.0016   -0.0230   -0.0350
          23   -0.0145   -0.0011   -0.0012    0.0085   -0.0153   -0.0003   -0.0111   -0.0049
          24    0.0095    0.0024   -0.0052   -0.0030    0.0373   -0.0305    0.0115    0.0005
          25   -0.0151    0.0129    0.0031   -0.0143    0.0148    0.0300    0.0285    0.0188
          26   -0.0445   -0.0032    0.0007   -0.0198    0.0213    0.0461   -0.0147   -0.0291
          27    0.0042    0.0101    0.0003    0.0017   -0.0079    0.0012    0.0282   -0.0052
          28   -0.0128   -0.0303   -0.0267   -0.0025    0.0016   -0.0107    0.0159    0.0323
          29   -0.0465    0.0035   -0.0496   -0.0008    0.0041   -0.0384    0.0051    0.0231
          30    0.0069   -0.0277    0.0006    0.0010   -0.0167    0.0165    0.0235   -0.0277
          31   -0.0210    0.0391    0.0502    0.0077    0.0009    0.0017   -0.0064    0.0216
          32   -0.0045   -0.0420    0.0234    0.0071    0.0200   -0.0203    0.0392   -0.0367
          33   -0.0021   -0.0006   -0.0182    0.0009   -0.0088    0.0036   -0.0184    0.0077
          34    0.0161    0.0203   -0.0129    0.0023   -0.0086    0.0114   -0.0381   -0.0225
          35    0.0220    0.0045   -0.0107    0.0083   -0.0034    0.0017    0.0202   -0.0459
          36    0.0010    0.1022   -0.0647    0.0365   -0.0705    0.0532   -0.0014    0.0065
          37    0.0116   -0.0598    0.0325   -0.0295    0.0672   -0.0501   -0.0497   -0.0123
          38    0.0156    0.0363   -0.0222    0.0181   -0.0051    0.0002    0.0394   -0.0383
          39    0.0011    0.0531   -0.0392    0.0181   -0.0344    0.0247   -0.0126    0.0080
          40    0.0236    0.0518   -0.0431    0.0018    0.0144   -0.0047   -0.0205   -0.0436
          41   -0.0212   -0.0021    0.0035    0.0241   -0.0921    0.0627   -0.0513    0.0043
          42    0.0106   -0.0016   -0.0022   -0.0058    0.0491   -0.0406    0.0180   -0.0000
          43    0.0425    0.0021   -0.0004   -0.0012    0.0142    0.0028    0.0021   -0.0623
          44   -0.0100    0.0000   -0.0036    0.0024    0.0168   -0.0257    0.0077   -0.0113
          45    0.0133    0.0083   -0.0133   -0.0166    0.1078   -0.0898    0.0460   -0.0053
          46    0.0242    0.0014    0.0067    0.0021   -0.0034   -0.0004   -0.0344   -0.0321
          47   -0.0501   -0.0111    0.0004    0.0045   -0.0084   -0.0267    0.0085    0.0476
          48    0.0146   -0.0741    0.1000    0.0154   -0.0566    0.0238   -0.0714    0.0429
          49    0.0153   -0.0456    0.0688    0.0129   -0.0614    0.0230   -0.0760    0.0159
          50   -0.0305   -0.0178    0.0470    0.0098   -0.0089   -0.0331   -0.0655    0.0595
          51    0.0101   -0.0371    0.0314    0.0050   -0.0154    0.0102   -0.0029    0.0032
          52   -0.0258   -0.0225   -0.0150   -0.0098   -0.0001   -0.0002    0.0166    0.0142
          53   -0.0151    0.0450    0.0600    0.0334   -0.0488   -0.0125    0.0760   -0.0238
          54   -0.0003   -0.0547   -0.0607   -0.0133    0.0120    0.0000   -0.0201    0.0057
          55   -0.0445   -0.0013   -0.0184   -0.0134   -0.0005   -0.0184   -0.0299    0.0405
          56   -0.0222   -0.0146   -0.0189    0.0026   -0.0020   -0.0235    0.0138    0.0068
          57   -0.0010   -0.0909   -0.1031   -0.0314    0.0369   -0.0035   -0.0453    0.0171
          58   -0.0803    0.0477    0.0145   -0.0352    0.0501    0.0740   -0.0023    0.0041
          59   -0.1820   -0.0152    0.0094   -0.0634    0.0640    0.1705   -0.0169   -0.1053
          60    0.0201    0.0112   -0.0007    0.0068   -0.0127   -0.0133    0.0279    0.0038
          61   -0.0479    0.0074    0.0114   -0.1823   -0.0541   -0.0808    0.0320   -0.0963
          62    0.0205   -0.0091    0.0055    0.1560    0.0424    0.0412    0.0001    0.0424
          63   -0.0126   -0.0199    0.0655    0.4762    0.0917    0.0531    0.0075    0.0111


   Root No.       9        10        11        12        13        14        15        16

                 9 A      10 A      11 A      12 A      13 A      14 A      15 A      16 A   

                 426.9     431.8     501.2     544.1     618.8     832.7     883.1     918.6
  
           1    0.0380   -0.0215    0.0340   -0.0126    0.0274   -0.0070   -0.0061    0.0024
           2    0.0360    0.0075    0.0181   -0.0275    0.0117   -0.0058   -0.0034    0.0036
           3   -0.0000   -0.0022   -0.0235   -0.0022   -0.0055   -0.0004    0.0013    0.0026
           4   -0.0119    0.0021   -0.0056    0.0346    0.0251    0.0001   -0.0040    0.0040
           5    0.0031   -0.0044    0.0055   -0.0160   -0.0122    0.0010    0.0007    0.0052
           6   -0.0082   -0.0193    0.0095   -0.0042   -0.0161    0.0031   -0.0009   -0.0008
           7   -0.0164   -0.0043    0.0029   -0.0169   -0.0389    0.0020    0.0049   -0.0055
           8   -0.0130    0.0265   -0.0204   -0.0051    0.0026   -0.0096   -0.0008   -0.0053
           9    0.0262    0.0369   -0.0096   -0.0251   -0.0177    0.0109    0.0057   -0.0027
          10    0.0526   -0.0002    0.0040   -0.0168    0.0095    0.0038   -0.0033    0.0041
          11    0.0019   -0.0271    0.0177   -0.0074    0.0096   -0.0128   -0.0005    0.0056
          12   -0.0184    0.0133    0.0657    0.0115    0.0176    0.0108   -0.0027   -0.0253
          13    0.0222    0.0052   -0.0204   -0.0224   -0.0225    0.0074    0.0251   -0.0049
          14   -0.0410    0.0167    0.0245   -0.0141   -0.0214   -0.0254   -0.0042    0.0181
          15   -0.0171   -0.0145    0.0025   -0.0035   -0.0056    0.0245   -0.0031    0.0213
          16   -0.0456    0.0079   -0.0129   -0.0225    0.0100   -0.0124   -0.0153   -0.0202
          17   -0.0199    0.0056   -0.0190    0.0176    0.0191    0.0091   -0.0252   -0.0067
          18    0.0118   -0.0207    0.0034    0.0016   -0.0209   -0.0086   -0.0245   -0.0162
          19    0.0086    0.0287   -0.0005    0.0343   -0.0088    0.0081   -0.0196    0.0266
          20    0.0037   -0.0296   -0.0163    0.0063   -0.0021    0.0118    0.0269   -0.0170
          21   -0.0050   -0.0008   -0.0046    0.0074   -0.0006   -0.0178    0.0289   -0.0006
          22   -0.0215    0.0143   -0.0134   -0.0005   -0.0022   -0.0049   -0.0029   -0.0028
          23    0.0299   -0.0076   -0.0114    0.0644   -0.0175    0.0343    0.0023   -0.0128
          24    0.0079   -0.0019   -0.0009    0.0131   -0.0073   -0.0211   -0.0016    0.0154
          25   -0.0268   -0.0222    0.0096    0.0205   -0.0095    0.0049   -0.0019   -0.0106
          26   -0.0034    0.0132   -0.0029   -0.0101    0.0088   -0.0070    0.0044   -0.0234
          27    0.0128    0.0298   -0.0191    0.0154    0.0462   -0.0101    0.0007    0.0043
          28   -0.0281   -0.0250    0.0194   -0.0344   -0.0970    0.0337    0.0079    0.0232
          29   -0.0161    0.0432   -0.0364   -0.0025    0.0265   -0.0005    0.0373    0.0506
          30    0.0272    0.0360   -0.0100   -0.0235   -0.0116    0.0052    0.0027   -0.0108
          31    0.0827   -0.0008   -0.0172   -0.0318    0.0166   -0.0247    0.0096   -0.0160
          32    0.0054   -0.0475    0.0130   -0.0145    0.0157    0.0005   -0.0439    0.0432
          33   -0.0199    0.0137    0.0652    0.0118    0.0172    0.0110   -0.0020   -0.0245
          34   -0.0127    0.0158   -0.0327   -0.0058    0.0013    0.0351   -0.0848    0.0329
          35   -0.0393   -0.0216   -0.0000   -0.0010    0.0036    0.0027    0.0315   -0.0535
          36   -0.0026   -0.0383   -0.0931   -0.0737    0.0161    0.0516   -0.1221    0.0555
          37    0.0169    0.0612    0.0667    0.1196   -0.0323   -0.0649    0.1383    0.0078
          38    0.0118   -0.0537   -0.0911   -0.0227   -0.0105    0.0303   -0.0228    0.0569
          39   -0.0075   -0.0061   -0.0134   -0.0072    0.0048   -0.0036    0.0018   -0.0023
          40   -0.0311    0.0261   -0.0224   -0.0028    0.0143    0.0046    0.0691    0.0191
          41    0.0597   -0.0132   -0.0010    0.1366   -0.0902   -0.1025   -0.0002    0.0598
          42    0.0031   -0.0024   -0.0022   -0.0009    0.0050    0.0034   -0.0087    0.0006
          43   -0.0118   -0.0106   -0.0100   -0.0184   -0.0142    0.0108    0.0165   -0.0557
          44    0.0181   -0.0080   -0.0168    0.0351    0.0114    0.0947    0.0081   -0.0454
          45   -0.0220    0.0061   -0.0139   -0.0498    0.0642    0.1118    0.0051   -0.0430
          46   -0.0295    0.0123   -0.0150    0.0028    0.0013   -0.0149   -0.0402   -0.0339
          47   -0.0240    0.0163   -0.0154   -0.0093    0.0006   -0.0034   -0.0366   -0.0164
          48   -0.0463   -0.0733   -0.0011   -0.0257    0.0753    0.0410    0.1242    0.0718
          49   -0.0918   -0.0238   -0.0182   -0.0616    0.0831    0.0365    0.1253    0.0306
          50   -0.0602   -0.0399   -0.0198    0.0245    0.0849    0.0276    0.0442    0.0756
          51    0.0154   -0.0172    0.0030    0.0030   -0.0260   -0.0104   -0.0335   -0.0220
          52    0.0416    0.0104   -0.0761   -0.0452   -0.0500   -0.0077    0.0667    0.0181
          53   -0.0429    0.0970    0.1120   -0.0299   -0.0634    0.1121    0.0097    0.0767
          54   -0.0189   -0.0289   -0.0073    0.0018    0.0050    0.0021   -0.0098    0.0080
          55    0.0088    0.0186   -0.0296   -0.0117   -0.0112   -0.0007    0.0242   -0.0395
          56   -0.0418   -0.0134   -0.0139   -0.0083   -0.0054   -0.0824   -0.0085   -0.0025
          57   -0.0131   -0.0904   -0.0834    0.0060    0.0290   -0.1059   -0.0132   -0.0155
          58   -0.0564   -0.0663    0.0409    0.0268   -0.0224    0.0169   -0.0173    0.0470
          59   -0.0194    0.0109    0.0207   -0.0105    0.0383    0.0019   -0.0095    0.0995
          60    0.0144    0.0293   -0.0211    0.0150    0.0412   -0.0106    0.0020   -0.0098
          61    0.0189   -0.0605    0.0092    0.0057    0.0197   -0.0204   -0.0008    0.0234
          62    0.0263    0.0073    0.0052   -0.0232    0.0060   -0.0097   -0.0005    0.0091
          63   -0.0158    0.0103   -0.0451    0.0016   -0.0158   -0.0050    0.0062    0.0088


   Root No.      17        18        19        20        21        22        23        24

                17 A      18 A      19 A      20 A      21 A      22 A      23 A      24 A   

                 926.7     941.6     968.6    1013.1    1058.8    1071.2    1087.1    1114.8
  
           1    0.0006   -0.0027   -0.0039   -0.0001    0.0005   -0.0032   -0.0299    0.0027
           2    0.0005   -0.0022   -0.0012   -0.0026    0.0029   -0.0067   -0.0185    0.0003
           3   -0.0001    0.0002    0.0007    0.0000    0.0019   -0.0034   -0.0174   -0.0034
           4    0.0030    0.0003    0.0032    0.0014    0.0001    0.0009   -0.0030    0.0048
           5    0.0112   -0.0026    0.0052    0.0045    0.0007    0.0005    0.0023   -0.0013
           6    0.0007    0.0010   -0.0037    0.0003   -0.0007    0.0003   -0.0001    0.0006
           7    0.0023   -0.0034   -0.0079    0.0101   -0.0028    0.0091    0.0204   -0.0371
           8   -0.0139    0.0001    0.0077    0.0047    0.0016    0.0101   -0.0072    0.0314
           9    0.0170    0.0048   -0.0209    0.0057   -0.0036   -0.0002   -0.0004    0.0275
          10    0.0047    0.0040    0.0028   -0.0141   -0.0015    0.0172    0.0025   -0.0086
          11   -0.0021   -0.0012   -0.0154    0.0087   -0.0035   -0.0148    0.0242   -0.0010
          12   -0.0041    0.0007    0.0167    0.0111    0.0013    0.0031    0.0291    0.0103
          13   -0.0048   -0.0085    0.0245    0.0085    0.0109   -0.0273    0.0201   -0.0102
          14    0.0102    0.0449    0.0154   -0.0232    0.0027    0.0004   -0.0068   -0.0093
          15   -0.0084   -0.0184   -0.0021   -0.0172   -0.0008    0.0043   -0.0198   -0.0071
          16    0.0248   -0.0335   -0.0069   -0.0254    0.0042   -0.0032   -0.0046   -0.0009
          17    0.0184   -0.0240   -0.0176    0.0194   -0.0055   -0.0028   -0.0047   -0.0049
          18   -0.0067    0.0075    0.0109    0.0105    0.0020    0.0011   -0.0044    0.0079
          19   -0.0153    0.0358   -0.0101    0.0258    0.0007   -0.0033   -0.0009   -0.0015
          20   -0.0039   -0.0141    0.0108    0.0219    0.0036    0.0100   -0.0102   -0.0041
          21    0.0142    0.0018   -0.0179    0.0045   -0.0027   -0.0058   -0.0053   -0.0054
          22   -0.0101   -0.0035    0.0077    0.0010   -0.0062    0.0046    0.0036    0.0018
          23    0.0219    0.0145    0.0033   -0.0320    0.0009   -0.0026    0.0078   -0.0013
          24   -0.0098   -0.0225    0.0039   -0.0126    0.0009    0.0013    0.0085    0.0095
          25   -0.0162    0.0069   -0.0168   -0.0098   -0.0017   -0.0027   -0.0103    0.0235
          26   -0.0451    0.0068   -0.0223   -0.0209   -0.0038   -0.0003    0.0005   -0.0181
          27   -0.0027   -0.0040    0.0128    0.0018    0.0005    0.0035    0.0117   -0.0380
          28    0.0145   -0.0052   -0.0268    0.0178   -0.0573    0.0716    0.0429   -0.1190
          29   -0.0382   -0.0451    0.0521   -0.0168   -0.0708    0.0498   -0.0275    0.1724
          30    0.0167    0.0103   -0.0203    0.0053    0.0099   -0.0117   -0.0003    0.0247
          31    0.0405    0.0140   -0.0102   -0.0347   -0.0890    0.1393    0.1566    0.0748
          32   -0.0388   -0.0471   -0.0418   -0.0172    0.0465   -0.0100    0.2531    0.0724
          33   -0.0038    0.0041    0.0177    0.0126    0.0035   -0.0045    0.0064    0.0015
          34   -0.0545    0.0621    0.0136    0.0986   -0.0292   -0.0339    0.0160    0.0210
          35   -0.0342   -0.0084    0.0390    0.1802   -0.0668   -0.0580    0.0036    0.0299
          36   -0.0372    0.0497   -0.0000   -0.0167    0.0133    0.0006    0.0186    0.0054
          37    0.0312   -0.0140   -0.0512    0.0150    0.0357    0.0328   -0.0504   -0.0192
          38   -0.0470   -0.0355   -0.0032   -0.0210    0.1033    0.0763   -0.0444   -0.0031
          39    0.0079    0.0129   -0.0083    0.0090   -0.0154   -0.0157    0.0068   -0.0017
          40    0.0200    0.0149   -0.0727   -0.0024    0.0640   -0.0170    0.0718    0.0303
          41   -0.0449   -0.0907    0.0094   -0.0232    0.0060    0.0065    0.0277    0.0159
          42   -0.0019   -0.0041    0.0111   -0.0119   -0.0075    0.0022   -0.0010    0.0051
          43   -0.0549    0.0060    0.1254   -0.0084   -0.0595    0.1121   -0.0563   -0.0211
          44    0.0463    0.0575    0.0103   -0.0401   -0.0037    0.0042    0.0019   -0.0081
          45    0.0632    0.0740   -0.0202   -0.0338    0.0088   -0.0208    0.0152    0.0041
          46    0.0287   -0.0510    0.0334   -0.1330   -0.0306   -0.0725    0.0054    0.0119
          47    0.0297   -0.0246   -0.0752    0.1688    0.0436    0.0919   -0.0273   -0.0208
          48   -0.0625    0.0780    0.0191    0.0029   -0.0052    0.0093    0.0229    0.0078
          49    0.0083    0.0395   -0.0456   -0.0179    0.0577    0.0454   -0.0027    0.0639
          50   -0.0397   -0.0326    0.0337   -0.0183   -0.0935   -0.0485    0.0368   -0.0920
          51   -0.0026    0.0052    0.0097    0.0116    0.0035    0.0003   -0.0056    0.0097
          52    0.0386    0.0082   -0.0047    0.0151   -0.1087   -0.0915   -0.0052    0.0698
          53   -0.0462   -0.0775    0.0006   -0.0409   -0.0081   -0.0099   -0.0393   -0.0089
          54   -0.0031    0.0012    0.0036   -0.0146    0.0139    0.0131   -0.0107   -0.0152
          55   -0.0337   -0.0011    0.1275    0.0211    0.1545   -0.0352    0.0412    0.0319
          56    0.0291    0.0991    0.0344   -0.0209    0.0189    0.0015    0.0074   -0.0023
          57    0.0496    0.1051    0.0028   -0.0161   -0.0172    0.0104    0.0026   -0.0083
          58    0.0841   -0.0103    0.0357    0.0285    0.0072    0.0027   -0.0471    0.1359
          59    0.1717   -0.0387    0.1019    0.0690    0.0109    0.0155    0.0366   -0.0506
          60   -0.0274    0.0013   -0.0019   -0.0084   -0.0014    0.0019    0.0077   -0.0348
          61   -0.0055    0.0008   -0.0355    0.0264    0.0033   -0.0503   -0.0175   -0.0063
          62   -0.0011   -0.0001   -0.0080    0.0049    0.0050   -0.0211   -0.0147   -0.0028
          63   -0.0021    0.0040   -0.0052    0.0096    0.0058   -0.0228   -0.0170   -0.0081


   Root No.      25        26        27        28        29        30        31        32

                25 A      26 A      27 A      28 A      29 A      30 A      31 A      32 A   

                1119.2    1127.0    1136.6    1143.7    1163.0    1167.0    1191.1    1210.1
  
           1    0.0079   -0.0059   -0.0002    0.0135    0.0024   -0.0010    0.0056    0.0151
           2    0.0003   -0.0006    0.0015    0.0095   -0.0015    0.0004    0.0056    0.0025
           3    0.0028   -0.0029    0.0003    0.0052    0.0007   -0.0010   -0.0005    0.0087
           4    0.0016    0.0036    0.0007    0.0010    0.0000    0.0026    0.0004    0.0001
           5   -0.0016   -0.0017   -0.0003    0.0010    0.0000    0.0002   -0.0010    0.0002
           6    0.0011   -0.0030   -0.0010    0.0012   -0.0019    0.0104   -0.0067   -0.0005
           7   -0.0107   -0.0212   -0.0092    0.0134   -0.0022    0.0084   -0.0142    0.0033
           8   -0.0068    0.0087   -0.0002    0.0126    0.0021    0.0026    0.0096    0.0073
           9    0.0086   -0.0238   -0.0003    0.0026   -0.0097    0.0419    0.0257    0.0012
          10    0.0040    0.0089    0.0004   -0.0099   -0.0082    0.0031   -0.0144    0.0198
          11   -0.0234    0.0050    0.0006   -0.0041   -0.0052    0.0009   -0.0002   -0.0409
          12    0.0087   -0.0317    0.0035   -0.0017    0.0248   -0.0069   -0.0010   -0.0190
          13   -0.0033   -0.0013    0.0097   -0.0131    0.0036   -0.0088   -0.0136   -0.0036
          14    0.0143    0.0046    0.0035   -0.0134   -0.0017   -0.0031   -0.0072    0.0093
          15    0.0099    0.0299    0.0023   -0.0214   -0.0130   -0.0082   -0.0101   -0.0021
          16   -0.0095   -0.0091   -0.0133   -0.0116   -0.0004   -0.0085   -0.0057   -0.0015
          17    0.0125    0.0046    0.0143   -0.0042    0.0011    0.0094    0.0108    0.0013
          18   -0.0038    0.0351   -0.0015    0.0202    0.0202   -0.0057   -0.0185   -0.0032
          19   -0.0137   -0.0017   -0.0115   -0.0177    0.0077    0.0007    0.0012   -0.0066
          20    0.0110   -0.0025   -0.0150   -0.0157    0.0071    0.0010   -0.0056   -0.0012
          21   -0.0268    0.0246    0.0009   -0.0137    0.0051    0.0112    0.0058    0.0177
          22    0.0091    0.0078    0.0207    0.0179   -0.0062    0.0053    0.0010   -0.0075
          23   -0.0058   -0.0116    0.0011    0.0110   -0.0131   -0.0110   -0.0033    0.0027
          24    0.0068   -0.0289   -0.0002    0.0012   -0.0288   -0.0173    0.0022   -0.0011
          25    0.0040   -0.0039    0.0012   -0.0041   -0.0042    0.0199   -0.0081   -0.0012
          26    0.0010    0.0011   -0.0038   -0.0026    0.0012   -0.0136    0.0048   -0.0006
          27   -0.0039    0.0080   -0.0036    0.0042    0.0057   -0.0283    0.0059    0.0008
          28   -0.0113    0.0149   -0.0880    0.1446    0.0380   -0.0766    0.1871    0.0100
          29   -0.1094   -0.0099   -0.1008    0.1251    0.0446    0.0268   -0.1073   -0.0197
          30    0.0182   -0.0253    0.0175   -0.0235   -0.0184    0.0511    0.0121    0.0027
          31    0.0917    0.0965   -0.0588   -0.1258   -0.0265    0.0009    0.0019   -0.1072
          32   -0.0792    0.0322    0.0695   -0.0236    0.0499    0.0164    0.0260    0.1911
          33    0.0057   -0.0387    0.0041    0.0049    0.0243   -0.0076   -0.0037   -0.0264
          34    0.0243   -0.0149   -0.0444   -0.0179   -0.0232   -0.0232   -0.0025    0.0394
          35    0.0743    0.0223   -0.0852   -0.0276   -0.0593   -0.0288   -0.0113    0.1432
          36   -0.0189   -0.0354    0.0067   -0.0023    0.0131   -0.0079    0.0052   -0.0442
          37   -0.0248    0.0478   -0.0164   -0.0593    0.0998    0.0429    0.0131    0.0267
          38    0.0594   -0.0767   -0.0307   -0.0539    0.1880    0.0218    0.0080   -0.0110
          39   -0.0286    0.0191    0.0034   -0.0047   -0.0224    0.0020    0.0033    0.0131
          40    0.1413    0.0945    0.0624    0.2089    0.0111   -0.0095   -0.0640   -0.0338
          41    0.0471   -0.0729    0.0116    0.0254   -0.0613   -0.0307   -0.0011   -0.0046
          42   -0.0169   -0.0277   -0.0063   -0.0211   -0.0238   -0.0133    0.0076    0.0037
          43   -0.0774    0.0021    0.1679    0.0044   -0.0249    0.0422    0.0515    0.0153
          44   -0.0280    0.0044    0.0128    0.0133   -0.0004   -0.0019   -0.0058    0.0113
          45   -0.0180    0.0127   -0.0230    0.0119    0.0053   -0.0107   -0.0195    0.0090
          46    0.0096    0.0190   -0.0607   -0.0016    0.0364    0.0198    0.0338    0.0258
          47   -0.0172   -0.0176    0.0784   -0.0148   -0.0382   -0.0352   -0.0503   -0.0383
          48    0.0054   -0.0163    0.0051    0.0236   -0.0154    0.0120    0.0040    0.0020
          49   -0.0305   -0.0809   -0.0142   -0.0165   -0.0798   -0.1086    0.0125    0.0222
          50    0.0581   -0.0235    0.0242    0.0045    0.0290    0.1729    0.0490   -0.0215
          51   -0.0045    0.0400   -0.0025    0.0213    0.0227   -0.0079   -0.0221   -0.0036
          52    0.0232   -0.0427    0.0950   -0.0482    0.1221   -0.1384   -0.0006   -0.0624
          53    0.0083    0.0766    0.0149   -0.0486   -0.0136   -0.0404   -0.0329    0.0034
          54    0.0089    0.0216   -0.0087   -0.0128   -0.0237    0.0127   -0.0075    0.0046
          55    0.0057    0.0623   -0.0474   -0.0143   -0.0521    0.0519    0.1090   -0.0775
          56    0.0189   -0.0127   -0.0037   -0.0043    0.0020    0.0114    0.0103    0.0116
          57    0.0210   -0.0348    0.0076   -0.0026    0.0146    0.0033   -0.0142    0.0276
          58    0.0101    0.0462    0.0314   -0.0126    0.0154   -0.0851    0.1660    0.0133
          59   -0.0214   -0.0160   -0.0147    0.0279   -0.0040    0.0371   -0.0759    0.0003
          60   -0.0009    0.0099   -0.0026    0.0012    0.0061   -0.0329    0.0164    0.0009
          61   -0.0737    0.0365   -0.0105    0.0070   -0.0355    0.0184    0.0378   -0.1452
          62   -0.0232    0.0116   -0.0014    0.0069   -0.0129    0.0060    0.0146   -0.0450
          63   -0.0257    0.0115   -0.0037    0.0027   -0.0137    0.0060    0.0114   -0.0515


   Root No.      33        34        35        36        37        38        39        40

                33 A      34 A      35 A      36 A      37 A      38 A      39 A      40 A   

                1226.1    1249.5    1284.8    1313.2    1349.3    1366.2    1388.9    1396.2
  
           1   -0.0163   -0.0078   -0.0139    0.0180   -0.0047    0.0177    0.0079    0.0047
           2   -0.0111   -0.0033   -0.0137    0.0071    0.0027    0.0030   -0.0022    0.0048
           3   -0.0022   -0.0029   -0.0002    0.0048   -0.0025    0.0071    0.0049    0.0000
           4   -0.0093    0.0052    0.0071   -0.0002    0.0029   -0.0039    0.0034    0.0019
           5    0.0032    0.0007   -0.0029    0.0019   -0.0017    0.0009   -0.0014   -0.0003
           6   -0.0150    0.0048    0.0064   -0.0011    0.0021   -0.0022    0.0021    0.0009
           7    0.0216    0.0048   -0.0367    0.0264   -0.0307    0.0162   -0.0303   -0.0110
           8    0.0021    0.0454    0.0071    0.0447   -0.0136   -0.0361    0.0082    0.0162
           9    0.0071   -0.0041    0.0052   -0.0094    0.0039    0.0019    0.0013   -0.0010
          10    0.0280    0.0042    0.0441   -0.0322   -0.0037   -0.0384   -0.0180   -0.0201
          11    0.0146    0.0133    0.0086   -0.0117    0.0024    0.0001    0.0174   -0.0135
          12    0.0055    0.0057    0.0053   -0.0054    0.0036   -0.0063   -0.0040    0.0029
          13    0.0199    0.0097   -0.0053   -0.0144    0.0393    0.0156    0.0319    0.0185
          14    0.0001   -0.0116    0.0022   -0.0106    0.0057    0.0041    0.0080   -0.0192
          15   -0.0051   -0.0002   -0.0034    0.0052   -0.0060   -0.0017    0.0017   -0.0126
          16    0.0003   -0.0186   -0.0047   -0.0006   -0.0137   -0.0277    0.0107   -0.0023
          17   -0.0062    0.0154    0.0049   -0.0272    0.0150    0.0401   -0.0166   -0.0235
          18    0.0023    0.0002    0.0008    0.0005   -0.0017    0.0001    0.0033    0.0136
          19    0.0025    0.0032    0.0094   -0.0007   -0.0197    0.0079   -0.0101    0.0088
          20    0.0138   -0.0028    0.0425    0.0081   -0.0311    0.0155    0.0002    0.0108
          21   -0.0052   -0.0024   -0.0040    0.0018    0.0066   -0.0013   -0.0067   -0.0014
          22    0.0005   -0.0108    0.0186    0.0381    0.0522    0.0128   -0.0045   -0.0051
          23   -0.0051   -0.0105   -0.0146    0.0086    0.0064   -0.0012   -0.0041    0.0073
          24   -0.0020    0.0037    0.0019   -0.0060   -0.0066    0.0024   -0.0029    0.0032
          25   -0.0175    0.0019    0.0106   -0.0052    0.0044   -0.0037    0.0042    0.0012
          26    0.0055   -0.0139   -0.0042   -0.0066   -0.0007    0.0041   -0.0021   -0.0029
          27    0.0125   -0.0050   -0.0101    0.0032   -0.0041    0.0044   -0.0044   -0.0019
          28   -0.0844   -0.0015    0.0907   -0.0503    0.0546   -0.0295    0.0475    0.0159
          29    0.0277   -0.1091   -0.0133   -0.0824    0.0246    0.0619   -0.0139   -0.0283
          30    0.0204    0.0093   -0.0096    0.0114   -0.0101   -0.0009   -0.0062   -0.0001
          31   -0.0442    0.0043   -0.0882    0.0421    0.0116    0.0449    0.0156    0.0250
          32   -0.0479   -0.0432    0.0059    0.0155   -0.0113    0.0024   -0.0205    0.0135
          33    0.0134    0.0096    0.0130   -0.0124    0.0040   -0.0135   -0.0058   -0.0016
          34   -0.0181    0.0142   -0.0652   -0.0458   -0.0271   -0.0152    0.0533   -0.0153
          35   -0.0282    0.0037   -0.0937   -0.0602    0.0411   -0.0762   -0.0204   -0.0249
          36   -0.0020    0.0122   -0.0090   -0.0136   -0.0763    0.0452    0.1261   -0.0091
          37   -0.0158    0.0154   -0.0516   -0.0314   -0.0291    0.0141    0.1150   -0.0291
          38   -0.0142    0.0280   -0.0915   -0.0332    0.1023   -0.0639   -0.0600   -0.0162
          39   -0.0009   -0.0064    0.0145    0.0087   -0.0053    0.0054   -0.0149    0.0058
          40    0.0201    0.0296   -0.0422   -0.0868   -0.0961   -0.0122   -0.0047    0.0111
          41   -0.0041   -0.0144   -0.0332   -0.0085    0.0122   -0.0867    0.0581   -0.0535
          42   -0.0045   -0.0014    0.0090    0.0103    0.0094    0.0130   -0.0087    0.0073
          43   -0.0438    0.0513   -0.0849   -0.1167   -0.0607   -0.0011    0.0045   -0.0147
          44   -0.0119   -0.0204   -0.0520   -0.0012    0.0068   -0.0510    0.0287   -0.0196
          45   -0.0019   -0.0333   -0.0392    0.0238    0.0280   -0.0885    0.0565   -0.0432
          46   -0.0008    0.0862   -0.0062   -0.0461   -0.0285    0.0454   -0.0179    0.0041
          47   -0.0090   -0.1337    0.0026    0.0011    0.0134   -0.0574    0.0397    0.0349
          48    0.0135    0.0159    0.0080    0.0822    0.0468   -0.0066   -0.0364   -0.1328
          49   -0.0407    0.0615   -0.0036   -0.0641   -0.0098    0.0544    0.0026    0.0900
          50    0.0443   -0.0929   -0.0177    0.0036   -0.0561   -0.0660    0.0441    0.1035
          51    0.0035    0.0006    0.0019    0.0057    0.0045    0.0010   -0.0021   -0.0088
          52   -0.1180   -0.0427    0.0399    0.0218   -0.0854   -0.0362   -0.0520   -0.0546
          53   -0.0216   -0.0213    0.0019   -0.0205    0.0166   -0.0061   -0.0637    0.1462
          54    0.0141    0.0064   -0.0093    0.0018    0.0074    0.0057    0.0171   -0.0189
          55   -0.1089   -0.1041    0.0164   -0.0136   -0.0730    0.0135   -0.0481   -0.0463
          56   -0.0123   -0.0394    0.0105   -0.0316    0.0080    0.0044   -0.0365    0.0531
          57    0.0146   -0.0186    0.0064   -0.0391    0.0362   -0.0008   -0.0594    0.1452
          58    0.2163   -0.0433   -0.0535    0.0142   -0.0139    0.0081   -0.0096   -0.0022
          59   -0.0850    0.0562    0.0175    0.0227   -0.0024   -0.0117    0.0025    0.0057
          60    0.0235   -0.0132   -0.0127   -0.0002   -0.0037    0.0061   -0.0048   -0.0028
          61   -0.0144    0.0377   -0.0722   -0.0407    0.0509   -0.0965   -0.0923    0.0301
          62   -0.0094    0.0097   -0.0283   -0.0116    0.0184   -0.0305   -0.0310    0.0110
          63   -0.0013    0.0127   -0.0198   -0.0184    0.0174   -0.0354   -0.0328    0.0088


   Root No.      41        42        43        44        45        46        47        48

                41 A      42 A      43 A      44 A      45 A      46 A      47 A      48 A   

                1402.6    1411.6    1418.5    1420.3    1987.9    2826.7    2879.3    2930.3
  
           1    0.0006   -0.0031   -0.0098    0.0056    0.0006    0.0007    0.0000    0.0000
           2   -0.0002   -0.0057    0.0010   -0.0120    0.0000   -0.0002    0.0000    0.0000
           3   -0.0000    0.0005   -0.0049    0.0067   -0.0000    0.0007   -0.0000    0.0000
           4   -0.0004   -0.0017   -0.0005    0.0006   -0.2098   -0.0000   -0.0001    0.0055
           5    0.0002    0.0010    0.0003   -0.0000    0.0795    0.0000   -0.0000   -0.0021
           6   -0.0000   -0.0012   -0.0004    0.0004   -0.1390   -0.0000   -0.0006    0.0032
           7    0.0046    0.0224    0.0060   -0.0015   -0.0202    0.0001   -0.0073   -0.0008
           8   -0.0007   -0.0001    0.0031    0.0093    0.0095   -0.0001   -0.0051   -0.0006
           9    0.0023   -0.0028   -0.0009    0.0015    0.0006   -0.0012   -0.0582   -0.0067
          10   -0.0012    0.0181    0.0227    0.0027    0.0001   -0.0051   -0.0002   -0.0000
          11    0.0006    0.0208   -0.0087    0.0578    0.0001   -0.0039   -0.0000    0.0000
          12    0.0017   -0.0024    0.0054   -0.0098   -0.0000   -0.0668    0.0011    0.0000
          13   -0.0028   -0.0232   -0.0133   -0.0040   -0.0054    0.0010    0.0001    0.0001
          14   -0.0223   -0.0094    0.0006   -0.0191   -0.0021   -0.0016   -0.0021   -0.0002
          15   -0.0115    0.0004    0.0011   -0.0035    0.0005    0.0024    0.0035   -0.0004
          16    0.0090   -0.0337   -0.0009    0.0118   -0.0027    0.0001    0.0020    0.0001
          17    0.0142    0.0060   -0.0072   -0.0093    0.0058    0.0001    0.0021   -0.0001
          18   -0.0130    0.0167   -0.0007   -0.0050   -0.0003    0.0001    0.0031   -0.0005
          19   -0.0088   -0.0163   -0.0411    0.0028    0.0002   -0.0011    0.0000   -0.0000
          20    0.0092   -0.0124   -0.0102   -0.0371   -0.0000    0.0014   -0.0000    0.0000
          21   -0.0072    0.0008   -0.0139    0.0109   -0.0001    0.0022   -0.0001   -0.0000
          22   -0.0023    0.0309    0.0224   -0.0071    0.0007    0.0000   -0.0001   -0.0000
          23   -0.0125   -0.0133    0.0318    0.0197   -0.0010    0.0001    0.0001   -0.0000
          24   -0.0035   -0.0127    0.0122    0.0072   -0.0000   -0.0003   -0.0005   -0.0000
          25   -0.0005   -0.0033   -0.0005    0.0005    0.3060    0.0000    0.0011   -0.0074
          26   -0.0001   -0.0003    0.0001   -0.0014   -0.1203    0.0000    0.0001   -0.0049
          27   -0.0001    0.0031    0.0007   -0.0013    0.1659    0.0001    0.0056   -0.0722
          28    0.0022   -0.0357   -0.0108    0.0050    0.0606    0.0036    0.0885    0.0050
          29   -0.0025    0.0012   -0.0017   -0.0127   -0.0286    0.0012    0.0616    0.0084
          30    0.0024    0.0039    0.0018    0.0028   -0.0080    0.0133    0.7087    0.0747
          31   -0.0036   -0.0246   -0.0267   -0.0079    0.0010    0.0483   -0.0020   -0.0003
          32   -0.0055   -0.0281    0.0102   -0.0705   -0.0008    0.0451   -0.0011   -0.0000
          33    0.0019    0.0031    0.0093   -0.0034   -0.0001    0.8038   -0.0139   -0.0002
          34    0.0305    0.0125    0.0761    0.0081   -0.0000    0.0142   -0.0006    0.0000
          35   -0.0161    0.0129    0.0468    0.0414   -0.0004   -0.0047    0.0002   -0.0000
          36    0.0856    0.0258    0.1388   -0.0513   -0.0003   -0.0093    0.0003   -0.0000
          37    0.0792    0.0505    0.1594   -0.0305   -0.0009   -0.0041    0.0000    0.0001
          38   -0.0501    0.0099   -0.0241    0.0692    0.0003   -0.0066    0.0001   -0.0000
          39   -0.0120   -0.0095   -0.0347    0.0043    0.0002   -0.0231    0.0005    0.0002
          40   -0.0045   -0.0577   -0.0155    0.0180    0.0005    0.0009    0.0002   -0.0001
          41    0.0816    0.0915   -0.1573   -0.0884    0.0009    0.0020    0.0018    0.0003
          42   -0.0127   -0.0124    0.0339    0.0151   -0.0006    0.0032    0.0056    0.0005
          43    0.0119   -0.0306   -0.0515    0.0203    0.0029   -0.0000   -0.0001    0.0000
          44    0.0271    0.0354   -0.0618   -0.0206   -0.0011    0.0011    0.0004    0.0000
          45    0.0648    0.0978   -0.1421   -0.0742   -0.0009   -0.0005   -0.0002   -0.0001
          46   -0.0069    0.0347   -0.0198   -0.0185   -0.0006   -0.0003   -0.0220   -0.0003
          47   -0.0262   -0.0231    0.0165    0.0150    0.0008   -0.0002   -0.0128    0.0001
          48    0.1219   -0.1229    0.0086    0.0346   -0.0001   -0.0001   -0.0071   -0.0008
          49   -0.0946    0.1302    0.0000   -0.0369   -0.0037   -0.0001   -0.0012    0.0020
          50   -0.0848    0.0469    0.0110    0.0006    0.0051   -0.0002   -0.0059   -0.0020
          51    0.0072   -0.0053   -0.0020   -0.0003    0.0018   -0.0008   -0.0347    0.0052
          52   -0.0122    0.0402    0.0236    0.0062   -0.0062   -0.0073    0.0001    0.0031
          53    0.1522    0.0323   -0.0012    0.0653   -0.0006   -0.0027   -0.0031    0.0009
          54   -0.0266   -0.0107   -0.0032   -0.0131    0.0024   -0.0260   -0.0325    0.0035
          55    0.0172    0.0597    0.0071    0.0575   -0.0008   -0.0003   -0.0067   -0.0005
          56    0.0617    0.0137    0.0027    0.0150   -0.0006    0.0168    0.0228    0.0007
          57    0.1410    0.0161    0.0003    0.0357   -0.0002   -0.0104   -0.0121   -0.0010
          58    0.0013    0.0055    0.0020    0.0005   -0.0508   -0.0001   -0.0038   -0.0005
          59    0.0001    0.0026    0.0005    0.0027    0.0493   -0.0001   -0.0058    0.0944
          60   -0.0001    0.0026    0.0007   -0.0018    0.2281   -0.0009   -0.0646    0.8179
          61   -0.0017   -0.0464    0.0733   -0.1807   -0.0021   -0.0072    0.0002    0.0000
          62   -0.0007   -0.0167    0.0251   -0.0631   -0.0000    0.0004    0.0001   -0.0000
          63   -0.0004   -0.0144    0.0262   -0.0611    0.0001   -0.0028    0.0002   -0.0001


   Root No.      49        50        51        52        53        54        55        56

                49 A      50 A      51 A      52 A      53 A      54 A      55 A      56 A   

                2953.2    2957.8    2960.7    2967.7    3031.6    3032.4    3039.1    3045.4
  
           1   -0.0000    0.0001   -0.0000    0.0001    0.0002   -0.0000   -0.0000    0.0000
           2    0.0000    0.0000   -0.0000    0.0000   -0.0000    0.0000    0.0001    0.0002
           3   -0.0000   -0.0001    0.0000   -0.0001   -0.0001   -0.0000   -0.0000   -0.0001
           4    0.0000    0.0000   -0.0000    0.0000    0.0000    0.0000   -0.0000    0.0000
           5   -0.0000   -0.0000    0.0000    0.0000   -0.0000   -0.0000    0.0000   -0.0000
           6   -0.0000   -0.0000   -0.0000   -0.0000    0.0000    0.0000   -0.0000    0.0000
           7   -0.0003   -0.0005   -0.0001   -0.0000   -0.0005    0.0000   -0.0001    0.0001
           8    0.0001   -0.0001   -0.0002   -0.0001   -0.0003    0.0005   -0.0001   -0.0000
           9   -0.0013   -0.0028   -0.0013   -0.0005   -0.0002   -0.0001    0.0002   -0.0001
          10    0.0001   -0.0000   -0.0001   -0.0001    0.0006   -0.0001    0.0000   -0.0002
          11    0.0001    0.0001   -0.0001   -0.0002   -0.0004    0.0002    0.0003    0.0004
          12   -0.0002   -0.0020    0.0006   -0.0011   -0.0004    0.0001   -0.0001   -0.0003
          13    0.0006   -0.0077   -0.0001   -0.0003    0.0014   -0.0002    0.0000    0.0001
          14   -0.0017    0.0213    0.0006    0.0007   -0.0301    0.0045    0.0003   -0.0002
          15    0.0034   -0.0437   -0.0013   -0.0016   -0.0129    0.0023    0.0001    0.0003
          16   -0.0111   -0.0007   -0.0113   -0.0047    0.0043    0.0158   -0.0087    0.0031
          17   -0.0083   -0.0006   -0.0085   -0.0033    0.0031    0.0110   -0.0066    0.0023
          18   -0.0198   -0.0016   -0.0187   -0.0072   -0.0027   -0.0119    0.0055   -0.0013
          19    0.0027    0.0001   -0.0061    0.0110   -0.0013   -0.0029   -0.0100   -0.0226
          20   -0.0023   -0.0002    0.0052   -0.0088    0.0006    0.0008    0.0034    0.0088
          21   -0.0078   -0.0007    0.0162   -0.0264   -0.0002   -0.0016   -0.0054   -0.0091
          22    0.0035    0.0009   -0.0025   -0.0029    0.0002    0.0007    0.0006   -0.0011
          23   -0.0092   -0.0024    0.0069    0.0087   -0.0032   -0.0114   -0.0180    0.0132
          24    0.0219    0.0054   -0.0153   -0.0174   -0.0015   -0.0054   -0.0064    0.0035
          25   -0.0000   -0.0000   -0.0000   -0.0000   -0.0003   -0.0000    0.0001   -0.0000
          26    0.0000    0.0001    0.0000    0.0000   -0.0000    0.0002   -0.0001    0.0000
          27    0.0002    0.0003    0.0002    0.0001    0.0002    0.0000   -0.0000    0.0000
          28    0.0014    0.0067    0.0021    0.0011    0.0006    0.0003   -0.0002    0.0001
          29   -0.0003    0.0053   -0.0006   -0.0004   -0.0005   -0.0001   -0.0004    0.0002
          30    0.0151    0.0323    0.0153    0.0056   -0.0002   -0.0014   -0.0007    0.0004
          31    0.0007   -0.0016   -0.0010    0.0011   -0.0005   -0.0001   -0.0003   -0.0003
          32   -0.0002    0.0032    0.0006   -0.0016   -0.0004   -0.0002   -0.0003    0.0000
          33    0.0024    0.0217   -0.0071    0.0122    0.0011   -0.0007   -0.0004    0.0010
          34   -0.0426    0.0006    0.1016   -0.1748    0.0122    0.0264    0.1049    0.2500
          35    0.0222   -0.0005   -0.0525    0.0908   -0.0067   -0.0157   -0.0581   -0.1324
          36    0.0189   -0.0004   -0.0450    0.0775   -0.0070   -0.0158   -0.0601   -0.1380
          37    0.0124    0.0014   -0.0260    0.0451    0.0012    0.0044    0.0142    0.0267
          38    0.0037   -0.0004   -0.0086    0.0157    0.0006    0.0032    0.0115    0.0244
          39    0.0758    0.0082   -0.1520    0.2398    0.0095    0.0355    0.1263    0.2520
          40   -0.0228   -0.0054    0.0116    0.0172    0.0041    0.0149    0.0207   -0.0141
          41   -0.0334   -0.0083    0.0235    0.0277    0.0035    0.0126    0.0164   -0.0097
          42   -0.2049   -0.0502    0.1393    0.1513    0.0364    0.1307    0.1857   -0.1228
          43   -0.0205   -0.0054    0.0153    0.0194   -0.0052   -0.0181   -0.0340    0.0222
          44    0.1407    0.0370   -0.1058   -0.1319    0.0348    0.1232    0.2015   -0.1537
          45   -0.0593   -0.0156    0.0445    0.0556   -0.0187   -0.0666   -0.1054    0.0784
          46    0.1195    0.0043    0.1259    0.0497   -0.0558   -0.2135    0.1242   -0.0415
          47    0.0871    0.0030    0.0916    0.0365   -0.0408   -0.1571    0.0884   -0.0290
          48    0.0255    0.0006    0.0269    0.0106   -0.0181   -0.0698    0.0384   -0.0123
          49    0.0134    0.0013    0.0097    0.0022    0.0060    0.0252   -0.0135    0.0036
          50    0.0098   -0.0000    0.0102    0.0043    0.0046    0.0204   -0.0110    0.0033
          51    0.2139    0.0187    0.1972    0.0749    0.0507    0.2147   -0.1085    0.0290
          52   -0.0031    0.0423    0.0017    0.0015    0.0389   -0.0064   -0.0005   -0.0006
          53   -0.0046    0.0661    0.0021    0.0030    0.0297   -0.0049   -0.0002   -0.0003
          54   -0.0299    0.3921    0.0117    0.0157    0.3353   -0.0563   -0.0029   -0.0038
          55   -0.0045    0.0513    0.0015    0.0013   -0.0582    0.0089    0.0007    0.0001
          56    0.0280   -0.3196   -0.0089   -0.0083    0.3375   -0.0524   -0.0034    0.0001
          57   -0.0120    0.1348    0.0037    0.0034   -0.1753    0.0273    0.0017   -0.0000
          58   -0.0003   -0.0009   -0.0004   -0.0002   -0.0006   -0.0001    0.0001   -0.0000
          59    0.0000   -0.0005    0.0000    0.0000   -0.0003    0.0002   -0.0001    0.0000
          60   -0.0026   -0.0046   -0.0027   -0.0012   -0.0025   -0.0012    0.0007   -0.0002
          61    0.0001   -0.0014   -0.0000   -0.0001    0.0015   -0.0002    0.0001    0.0002
          62    0.0001   -0.0005   -0.0001    0.0000    0.0003    0.0000    0.0003    0.0006
          63   -0.0000   -0.0000    0.0000   -0.0001   -0.0005    0.0001   -0.0000   -0.0001


   Root No.      57

                57 A   

                3901.2
  
           1    0.0079
           2   -0.0525
           3    0.0226
           4    0.0000
           5   -0.0000
           6    0.0000
           7    0.0000
           8   -0.0000
           9   -0.0000
          10   -0.0009
          11   -0.0019
          12    0.0004
          13   -0.0002
          14    0.0001
          15    0.0000
          16   -0.0000
          17   -0.0000
          18   -0.0000
          19    0.0001
          20    0.0003
          21   -0.0001
          22    0.0000
          23    0.0000
          24   -0.0000
          25   -0.0000
          26    0.0000
          27   -0.0000
          28   -0.0000
          29    0.0000
          30   -0.0000
          31   -0.0008
          32   -0.0010
          33   -0.0031
          34   -0.0002
          35    0.0006
          36    0.0002
          37    0.0001
          38    0.0004
          39   -0.0007
          40   -0.0000
          41   -0.0000
          42   -0.0000
          43   -0.0000
          44   -0.0000
          45   -0.0000
          46   -0.0000
          47    0.0000
          48    0.0000
          49   -0.0000
          50    0.0000
          51    0.0000
          52   -0.0001
          53   -0.0001
          54    0.0002
          55   -0.0010
          56   -0.0009
          57    0.0006
          58    0.0000
          59   -0.0000
          60    0.0000
          61   -0.1111
          62    0.8532
          63   -0.3602


           MASS-WEIGHTED COORDINATE ANALYSIS (NORMAL COORDINATES)


   Root No.       1         2         3         4         5         6         7         8

                 1 A       2 A       3 A       4 A       5 A       6 A       7 A       8 A   

                  53.0     118.5     146.0     249.0     253.9     288.4     354.4     402.3
  
           1   -0.1875   -0.0101   -0.0641    0.2479   -0.1214   -0.2161    0.0058   -0.2280
           2    0.1509    0.0220   -0.0123   -0.2128    0.1425    0.2278   -0.0340    0.4232
           3   -0.0719    0.0889    0.5156   -0.2502    0.0863   -0.0664    0.0709   -0.0545
[...]
 TRAVEL      0.0850         C  3 -- C  5          +9.9% ( 44.4%)     77.9%
 RED. MASS   1.0061         C  8 -- H 15          +9.4% ( 43.2%)      0.2%
 EFF. MASS   7.1129

 VIBRATION   37   37A         ATOM PAIR      ENERGY CONTRIBUTION    RADIAL
 FREQ.      1349.28         C  7 -- C  8         +13.1% ( 52.0%)     87.5%
 T-DIPOLE    0.1701         C  8 -- H 14         +10.5% ( 46.6%)      0.0%
 TRAVEL      0.0838         C  6 -- C  8          +9.2% ( 43.5%)     81.4%
 RED. MASS   1.0585         C  3 -- C  5          +8.9% ( 42.9%)     79.0%
 EFF. MASS   7.1145

 VIBRATION   38   38A         ATOM PAIR      ENERGY CONTRIBUTION    RADIAL
 FREQ.      1366.18         C  3 -- C  6         +14.2% ( 51.7%)     75.2%
 T-DIPOLE    0.5917         C  6 -- H 17          +9.8% ( 42.9%)      0.0%
 TRAVEL      0.0850         C  6 -- H 16          +9.0% ( 41.2%)      0.0%
 RED. MASS   0.9197         C  6 -- C  8          +7.7% ( 38.2%)     74.8%
 EFF. MASS   6.8290

 VIBRATION   39   39A         ATOM PAIR      ENERGY CONTRIBUTION    RADIAL
 FREQ.      1388.93         C  3 -- C  5         +11.4% ( 40.2%)     63.0%
 T-DIPOLE    0.1535         C  4 -- C  5          +8.6% ( 34.8%)     71.0%
 TRAVEL      0.1043         C  7 -- H 12          +8.5% ( 34.7%)      1.7%
 RED. MASS   0.4022         C  5 -- H 18          +8.5% ( 34.7%)      1.2%
 EFF. MASS   4.4667

 VIBRATION   40   40A         ATOM PAIR      ENERGY CONTRIBUTION    RADIAL
 FREQ.      1396.23         C  5 -- H 19         +15.3% ( 43.5%)      3.6%
 T-DIPOLE    0.0946         C  5 -- H 18         +14.8% ( 42.7%)      3.2%
 TRAVEL      0.1161         C  6 -- H 17         +11.7% ( 37.9%)      3.4%
 RED. MASS   0.2886         C  6 -- H 16         +11.5% ( 37.7%)      3.6%
 EFF. MASS   3.5800

 VIBRATION   41   41A         ATOM PAIR      ENERGY CONTRIBUTION    RADIAL
 FREQ.      1402.59         C  5 -- H 18         +17.8% ( 41.3%)      4.3%
 T-DIPOLE    0.0922         C  5 -- H 19         +17.7% ( 41.2%)      4.4%
 TRAVEL      0.1450         C  6 -- H 17         +12.2% ( 34.2%)      3.8%
 RED. MASS   0.1895         C  6 -- H 16         +11.8% ( 33.6%)      4.6%
 EFF. MASS   2.2876

 VIBRATION   42   42A         ATOM PAIR      ENERGY CONTRIBUTION    RADIAL
 FREQ.      1411.61         C  6 -- C  8         +12.3% ( 45.1%)     97.3%
 T-DIPOLE    0.1727         C  6 -- H 17         +11.3% ( 43.2%)      3.4%
 TRAVEL      0.0920         C  6 -- H 16         +10.1% ( 40.8%)      6.0%
 RED. MASS   0.5261         C  8 -- H 14          +8.2% ( 36.9%)      2.7%
 EFF. MASS   5.6460

 VIBRATION   43   43A         ATOM PAIR      ENERGY CONTRIBUTION    RADIAL
 FREQ.      1418.50         C  7 -- C  8         +15.3% ( 45.7%)     97.4%
 T-DIPOLE    0.3189         C  7 -- H 13         +15.0% ( 45.2%)      4.7%
 TRAVEL      0.1046         C  7 -- H 12         +14.7% ( 44.8%)      5.6%
 RED. MASS   0.5096         C  8 -- H 14         +13.4% ( 42.7%)      4.5%
 EFF. MASS   4.3472         C  8 -- H 15         +13.3% ( 42.6%)      4.9%

 VIBRATION   44   44A         ATOM PAIR      ENERGY CONTRIBUTION    RADIAL
 FREQ.      1420.32         C  4 -- C  7         +17.2% ( 53.5%)     94.7%
 T-DIPOLE    0.2084         O  1 -- H 21         +13.5% ( 47.5%)      4.9%
 TRAVEL      0.0899         C  4 -- H 11         +11.7% ( 44.1%)      0.1%
 RED. MASS   1.0525         C  4 -- C  5         +11.0% ( 42.8%)     10.0%
 EFF. MASS   5.8760         O  1 -- C  4         +10.2% ( 41.3%)     17.9%

 VIBRATION   45   45A         ATOM PAIR      ENERGY CONTRIBUTION    RADIAL
 FREQ.      1987.85         O  2 -- C  9         +56.7% ( 99.6%)     99.7%
 T-DIPOLE    3.6936         C  3 -- C  9         +21.8% ( 61.7%)     40.7%
 TRAVEL      0.0503         C  9 -- H 20         +21.3% ( 61.1%)      6.2%
 RED. MASS   6.5417
 EFF. MASS  13.3871

 VIBRATION   46   46A         ATOM PAIR      ENERGY CONTRIBUTION    RADIAL
 FREQ.      2826.67         C  4 -- H 11         +96.4% ( 99.8%)     99.9%
 T-DIPOLE    0.1006         C  4 -- C  5          +1.1% ( 10.6%)      9.9%
 TRAVEL      0.1281         C  4 -- C  7          +1.1% ( 10.6%)     10.7%
 RED. MASS   0.9232         O  1 -- C  4          +1.1% ( 10.6%)     10.1%
 EFF. MASS   1.4548

 VIBRATION   47   47A         ATOM PAIR      ENERGY CONTRIBUTION    RADIAL
 FREQ.      2879.25         C  3 -- H 10         +95.2% ( 99.2%)    100.0%
 T-DIPOLE    0.1995         C  3 -- C  9          +1.1% ( 10.6%)     11.9%
 TRAVEL      0.1272         C  3 -- C  6          +1.0% ( 10.4%)      8.6%
 RED. MASS   0.9006         C  3 -- C  5          +1.0% ( 10.4%)      8.7%
 EFF. MASS   1.4473

 VIBRATION   48   48A         ATOM PAIR      ENERGY CONTRIBUTION    RADIAL
 FREQ.      2930.33         C  9 -- H 20         +95.8% ( 99.5%)    100.0%
 T-DIPOLE    0.1442         O  2 -- C  9          +1.8% ( 13.8%)     42.6%
 TRAVEL      0.1218         C  3 -- C  9          +1.6% ( 12.8%)     13.2%
 RED. MASS   0.9134         C  3 -- H 10          +0.8% (  8.9%)     99.7%
 EFF. MASS   1.5515

 VIBRATION   49   49A         ATOM PAIR      ENERGY CONTRIBUTION    RADIAL
 FREQ.      2953.20         C  6 -- H 17         +30.0% ( 56.9%)     97.9%
 T-DIPOLE    0.0286         C  8 -- H 14         +28.6% ( 55.6%)     97.7%
 TRAVEL      0.1215         C  8 -- H 15         +16.3% ( 42.0%)     94.5%
 RED. MASS   0.2427         C  6 -- H 16         +15.6% ( 41.0%)     94.1%
 EFF. MASS   1.5476

 VIBRATION   50   50A         ATOM PAIR      ENERGY CONTRIBUTION    RADIAL
 FREQ.      2957.76         C  5 -- H 18         +53.5% ( 75.9%)     97.2%
 T-DIPOLE    0.0790         C  5 -- H 19         +42.1% ( 67.3%)     95.8%
 TRAVEL      0.1217         C  4 -- C  5          +1.1% ( 11.0%)      0.0%
 RED. MASS   0.5027         C  3 -- C  5          +1.1% ( 11.0%)      0.0%
 EFF. MASS   1.5401

 VIBRATION   51   51A         ATOM PAIR      ENERGY CONTRIBUTION    RADIAL
 FREQ.      2960.75         C  6 -- H 17         +27.4% ( 54.3%)     97.6%
 T-DIPOLE    0.0324         C  6 -- H 16         +18.2% ( 44.2%)     95.2%
 TRAVEL      0.1218         C  7 -- H 13         +16.8% ( 42.5%)     97.5%
 RED. MASS   0.1929         C  8 -- H 14         +14.1% ( 39.0%)     97.5%
 EFF. MASS   1.5350         C  7 -- H 12         +11.0% ( 34.4%)     95.1%

 VIBRATION   52   52A         ATOM PAIR      ENERGY CONTRIBUTION    RADIAL
 FREQ.      2967.73         C  7 -- H 13         +36.3% ( 62.4%)     97.3%
 T-DIPOLE    0.0849         C  7 -- H 12         +27.9% ( 54.7%)     95.8%
 TRAVEL      0.1216         C  8 -- H 14         +14.5% ( 39.5%)     97.1%
 RED. MASS   0.2693         C  8 -- H 15         +12.9% ( 37.2%)     96.3%
 EFF. MASS   1.5369

 VIBRATION   53   53A         ATOM PAIR      ENERGY CONTRIBUTION    RADIAL
 FREQ.      3031.56         C  5 -- H 19         +53.7% ( 72.3%)     98.3%
 T-DIPOLE    0.0759         C  5 -- H 18         +41.0% ( 63.2%)     96.6%
 TRAVEL      0.1321         C  6 -- H 16          +1.9% ( 13.5%)     99.0%
 RED. MASS   0.4529         C  6 -- H 17          +0.9% (  9.5%)     93.6%
 EFF. MASS   1.2741

 VIBRATION   54   54A         ATOM PAIR      ENERGY CONTRIBUTION    RADIAL
 FREQ.      3032.37         C  6 -- H 16         +44.4% ( 65.8%)     98.7%
 T-DIPOLE    0.0376         C  6 -- H 17         +27.1% ( 51.3%)     95.6%
 TRAVEL      0.1320         C  8 -- H 15         +11.8% ( 33.8%)     98.1%
 RED. MASS   0.2908         C  8 -- H 14         +10.1% ( 31.4%)     96.9%
 EFF. MASS   1.2770

 VIBRATION   55   55A         ATOM PAIR      ENERGY CONTRIBUTION    RADIAL
 FREQ.      3039.07         C  8 -- H 15         +33.1% ( 56.7%)     98.6%
 T-DIPOLE    0.0704         C  8 -- H 14         +21.5% ( 45.7%)     96.0%
 TRAVEL      0.1319         C  6 -- H 16         +15.5% ( 38.8%)     99.0%
 RED. MASS   0.2052         C  7 -- H 12         +11.2% ( 33.1%)     98.0%
 EFF. MASS   1.2753         C  7 -- H 13         +10.1% ( 31.3%)     97.2%

 VIBRATION   56   56A         ATOM PAIR      ENERGY CONTRIBUTION    RADIAL
 FREQ.      3045.41         C  7 -- H 12         +46.3% ( 67.1%)     98.6%
 T-DIPOLE    0.1080         C  7 -- H 13         +29.6% ( 53.6%)     96.0%
 TRAVEL      0.1316         C  8 -- H 15         +14.2% ( 37.1%)     99.0%
 RED. MASS   0.3226         C  8 -- H 14          +6.9% ( 26.0%)     94.8%
 EFF. MASS   1.2776

 VIBRATION   57   57A         ATOM PAIR      ENERGY CONTRIBUTION    RADIAL
 FREQ.      3901.18         O  1 -- H 21         +99.6% (100.0%)    100.0%
 T-DIPOLE    0.1893         O  1 -- C  4          +0.4% (  6.3%)      7.3%
 TRAVEL      0.1116
 RED. MASS   0.9481
 EFF. MASS   1.3889

      SYMMETRY NUMBER FOR POINT-GROUP C1  =  1


          SYSTEM IS A GROUND STATE



 InChI=1S/C7H12O2/c8-5-6-2-1-3-7(9)4-6/h5-7,9H,1-4H2


          MOLECULE IS NOT LINEAR

          THERE ARE 57 GENUINE VIBRATIONS IN THIS SYSTEM
          THIS THERMODYNAMICS CALCULATION IS LIMITED TO
          MOLECULES WHICH HAVE NO INTERNAL ROTATIONS




                    CALCULATED THERMODYNAMIC PROPERTIES
                                          *
   TEMP. (K)   PARTITION FUNCTION   H.O.F.    ENTHALPY  HEAT CAPACITY ENTROPY
                                   KCAL/MOL   CAL/MOLE    CAL/K/MOL  CAL/K/MOL


 298.00  VIB.     0.1464D+03                  3826.8996    28.1415    22.7514
         ROT.     0.5582D+06                   888.2813     2.9808    29.2765
         INT.     0.8175D+08                  4715.1809    31.1223    52.0279
         TRA.     0.1403D+28                  1480.4688     4.9680    40.4556
         TOT.                     -102.009    6195.6497    36.0904    92.4835

 200.00  VIB.     0.1875D+02                  1605.6738    17.4945    13.8537
         ROT.     0.3069D+06                   596.1620     2.9808    28.0878
         INT.     0.5756D+07                  2201.8358    20.4753    41.9414
         TRA.     0.7713D+27                   993.6033     4.9680    38.4745
         TOT.                     -105.010    3195.4390    25.4433    80.4159

 210.00  VIB.     0.2297D+02                  1785.5847    18.4911    14.7312
         ROT.     0.3302D+06                   625.9700     2.9808    28.2332
         INT.     0.7586D+07                  2411.5547    21.4719    42.9645
         TRA.     0.8299D+27                  1043.2834     4.9680    38.7168
         TOT.                     -104.750    3454.8381    26.4399    81.6813

 220.00  VIB.     0.2819D+02                  1975.5662    19.5089    15.6149
         ROT.     0.3541D+06                   655.7781     2.9808    28.3719
         INT.     0.9980D+07                  2631.3443    22.4897    43.9867
         TRA.     0.8899D+27                  1092.9636     4.9680    38.9480
         TOT.                     -104.481    3724.3079    27.4577    82.9347

 230.00  VIB.     0.3464D+02                  2175.8367    20.5490    16.5049
         ROT.     0.3785D+06                   685.5862     2.9808    28.5044
         INT.     0.1311D+08                  2861.4230    23.5298    45.0093
         TRA.     0.9512D+27                  1142.6437     4.9680    39.1688
         TOT.                     -104.201    4004.0667    28.4978    84.1781

 240.00  VIB.     0.4264D+02                  2386.6211    21.6116    17.4019
         ROT.     0.4034D+06                   715.3943     2.9808    28.6312
         INT.     0.1720D+08                  3102.0155    24.5924    46.0331
         TRA.     0.1014D+28                  1192.3239     4.9680    39.3802
         TOT.                     -103.911    4294.3394    29.5604    85.4133

 250.00  VIB.     0.5257D+02                  2608.1409    22.6959    18.3060
         ROT.     0.4289D+06                   745.2024     2.9808    28.7529
         INT.     0.2255D+08                  3353.3434    25.6767    47.0589
         TRA.     0.1078D+28                  1242.0041     4.9680    39.5830
         TOT.                     -103.610    4595.3474    30.6447    86.6420

 260.00  VIB.     0.6490D+02                  2840.6064    23.8004    19.2176
         ROT.     0.4549D+06                   775.0105     2.9808    28.8698
         INT.     0.2952D+08                  3615.6169    26.7812    48.0874
         TRA.     0.1143D+28                  1291.6842     4.9680    39.7779
         TOT.                     -103.298    4907.3012    31.7493    87.8653

 270.00  VIB.     0.8024D+02                  3084.2101    24.9231    20.1368
         ROT.     0.4814D+06                   804.8186     2.9808    28.9823
         INT.     0.3863D+08                  3889.0287    27.9040    49.1192
         TRA.     0.1210D+28                  1341.3644     4.9680    39.9654
         TOT.                     -102.975    5230.3931    32.8720    89.0846

 280.00  VIB.     0.9934D+02                  3339.1218    26.0616    21.0638
         ROT.     0.5084D+06                   834.6267     2.9808    29.0907
         INT.     0.5051D+08                  4173.7485    29.0424    50.1545
         TRA.     0.1278D+28                  1391.0445     4.9680    40.1461
         TOT.                     -102.640    5564.7931    34.0104    90.3006

 290.00  VIB.     0.1232D+03                  3605.4852    27.2130    21.9983
         ROT.     0.5359D+06                   864.4348     2.9808    29.1953
         INT.     0.6601D+08                  4469.9200    30.1938    51.1937
         TRA.     0.1347D+28                  1440.7247     4.9680    40.3204
         TOT.                     -102.294    5910.6447    35.1618    91.5141

 300.00  VIB.     0.1529D+03                  3883.4155    28.3745    22.9405
         ROT.     0.5638D+06                   894.2429     2.9808    29.2964
         INT.     0.8623D+08                  4777.6585    31.3553    52.2369
         TRA.     0.1417D+28                  1490.4049     4.9680    40.4888
         TOT.                     -101.937    6268.0633    36.3233    92.7257

 310.00  VIB.     0.1902D+03                  4172.9989    29.5431    23.8899
         ROT.     0.5923D+06                   924.0510     2.9808    29.3941
         INT.     0.1126D+09                  5097.0499    32.5239    53.2840
         TRA.     0.1488D+28                  1540.0850     4.9680    40.6517
         TOT.                     -101.568    6637.1349    37.4919    93.9358

 320.00  VIB.     0.2368D+03                  4474.2918    30.7159    24.8464
         ROT.     0.6211D+06                   953.8591     2.9808    29.4888
         INT.     0.1471D+09                  5428.1509    33.6967    54.3351
         TRA.     0.1561D+28                  1589.7652     4.9680    40.8094
         TOT.                     -101.187    7017.9161    38.6648    95.1446

 330.00  VIB.     0.2952D+03                  4787.3222    31.8902    25.8095
         ROT.     0.6505D+06                   983.6672     2.9808    29.5805
         INT.     0.1920D+09                  5770.9894    34.8710    55.3900
         TRA.     0.1635D+28                  1639.4454     4.9680    40.9623
         TOT.                     -100.795    7410.4348    39.8390    96.3523

 340.00  VIB.     0.3685D+03                  5112.0906    33.0631    26.7790
         ROT.     0.6803D+06                  1013.4753     2.9808    29.6695
         INT.     0.2507D+09                  6125.5659    36.0439    56.4484
         TRA.     0.1710D+28                  1689.1255     4.9680    41.1106
         TOT.                     -100.390    7814.6914    41.0119    97.5591

 350.00  VIB.     0.4607D+03                  5448.5715    34.2323    27.7543
         ROT.     0.7105D+06                  1043.2834     2.9808    29.7559
         INT.     0.3273D+09                  6491.8549    37.2131    57.5101
         TRA.     0.1786D+28                  1738.8057     4.9680    41.2546
         TOT.                      -99.974    8230.6606    42.1811    98.7648

 360.00  VIB.     0.5766D+03                  5796.7157    35.3954    28.7349
         ROT.     0.7412D+06                  1073.0915     2.9808    29.8399
         INT.     0.4274D+09                  6869.8072    38.3762    58.5748
         TRA.     0.1863D+28                  1788.4859     4.9680    41.3946
         TOT.                      -99.547    8658.2930    43.3442    99.9694

 370.00  VIB.     0.7226D+03                  6156.4523    36.5504    29.7205
         ROT.     0.7723D+06                  1102.8996     2.9808    29.9215
         INT.     0.5580D+09                  7259.3519    39.5312    59.6420
         TRA.     0.1941D+28                  1838.1660     4.9680    41.5307
         TOT.                      -99.107    9097.5179    44.4992   101.1727

 380.00  VIB.     0.9066D+03                  6527.6909    37.6955    30.7105
         ROT.     0.8038D+06                  1132.7077     2.9808    30.0010
         INT.     0.7287D+09                  7660.3986    40.6763    60.7115
         TRA.     0.2020D+28                  1887.8462     4.9680    41.6632
         TOT.                      -98.657    9548.2447    45.6443   102.3747

 390.00  VIB.     0.1139D+04                  6910.3237    38.8290    31.7043
         ROT.     0.8357D+06                  1162.5158     2.9808    30.0785
         INT.     0.9518D+09                  8072.8395    41.8098    61.7828
         TRA.     0.2100D+28                  1937.5263     4.9680    41.7923
         TOT.                      -98.195   10010.3659    46.7779   103.5750

 400.00  VIB.     0.1432D+04                  7304.2282    39.9496    32.7015
         ROT.     0.8681D+06                  1192.3239     2.9808    30.1539
         INT.     0.1243D+10                  8496.5521    42.9304    62.8554
         TRA.     0.2182D+28                  1987.2065     4.9680    41.9180
         TOT.                      -97.721   10483.7586    47.8984   104.7735

   *: NOTE: HEATS OF FORMATION ARE RELATIVE TO THE
            ELEMENTS IN THEIR STANDARD STATE AT 298K
              (=  Standard Enthalpy of Formation).

            Hvib:  Zero-point energy is not included.
                   frequencies of less than zero cm-1 are not included.
            Hrot = (3/2)RT
            Htra = (3/2)RT + pV = (5/2)RT

            Heat capacity is Cp, not Cv

          For more information, see: HTTP://OpenMOPAC.net/Manual/thermochemistry.html


           FORCE CONSTANT IN CARTESIAN COORDINATES (Millidynes/A)

    ATOM   CHEMICAL       X               Y               Z
   NUMBER   SYMBOL  FORCE CONSTANT  FORCE CONSTANT  FORCE CONSTANT

      1       O        5.335088        9.310539        2.361341
      2       O       10.672588        1.831251        5.135155
      3       C        8.381001        7.786962        8.480181
      4       C        8.458081        8.294374        8.215332
      5       C        7.946576        8.530881        8.148854
      6       C        8.543046        8.108917        8.175605
      7       C        8.706130        7.954107        8.161438
      8       C        7.982229        8.715455        8.226803
      9       C       13.300760        4.683134       11.250442
     10       H        0.816247        0.759542        4.500134
     11       H        0.719280        0.728442        4.386662
     12       H        3.526302        1.527051        1.421539
     13       H        0.802278        0.771692        4.859513
     14       H        0.786248        0.784797        4.827872
     15       H        0.811712        4.139926        1.490166
     16       H        3.386980        2.140598        0.906763
     17       H        0.736387        0.754197        4.896544
     18       H        0.803462        0.774394        4.828752
     19       H        0.850811        4.121539        1.464660
     20       H        0.697720        0.446504        4.669929
     21       H        0.882340        7.219930        1.389776

 **********************
 *                    *
 * JOB ENDED NORMALLY *
 *                    *
 **********************



 TOTAL JOB TIME:             1.86 SECONDS

 == MOPAC DONE ==
