 *******************************************************************************
 ** Site#: 14399        For non-commercial use only    Version 18.184L 64BITS **
 *******************************************************************************
 ** Cite this program as: MOPAC2016, Version: 18.184L, James J. P. Stewart,   **
 ** Stewart Computational Chemistry, web: HTTP://OpenMOPAC.net. Days left:  18**
 *******************************************************************************
 **                                                                           **
 **                                MOPAC2016                                  **
 **                                                                           **
 *******************************************************************************

                              PM3 CALCULATION RESULTS

 *******************************************************************************
 *  CALCULATION DONE:                                Sat Jun 15 10:14:57 2019  *
 *  PM3        - The PM3 Hamiltonian to be used
 *  PRECISE    - CRITERIA TO BE INCREASED BY 100 TIMES
 *  NOSYM      - POINT-GROUP SYMMETRY SET TO C1
 *  THREADS=1  - MULTI-THREADING NOT USED
 *  T=         - A TIME OF 172800.0 SECONDS REQUESTED
 *  DUMP=N     - RESTART FILE WRITTEN EVERY  7200.000 SECONDS
 *******************************************************************************
pm3  precise nosym THREADS=1
 InChI=1S/C9H8/c1-2-5-9-7-3-6-8(9)4-1/h1-6H,7H2

   ATOM   CHEMICAL          X               Y               Z
  NUMBER   SYMBOL      (ANGSTROMS)     (ANGSTROMS)     (ANGSTROMS)
 
     1       C          1.70740000  *   0.89250000  *   0.27660000  *
     2       C          0.25910000  *   0.58080000  *   0.12300000  *
     3       C          0.08860000  *  -0.75750000  *  -0.13190000  *
     4       C          2.31340000  *  -0.47040000  *   0.06920000  *
     5       C          1.38660000  *  -1.39760000  *  -0.16150000  *
     6       C         -0.83360000  *   1.44460000  *   0.20700000  *
     7       C         -1.17660000  *  -1.31330000  *  -0.31770000  *
     8       C         -2.29240000  *  -0.46300000  *  -0.23760000  *
     9       C         -2.12150000  *   0.91190000  *   0.02400000  *
    10       H          2.04860000  *   1.60120000  *  -0.50710000  *
    11       H          1.92790000  *   1.27320000  *   1.29610000  *
    12       H          3.37450000  *  -0.67900000  *   0.10230000  *
    13       H         -1.29700000  *  -2.37010000  *  -0.51800000  *
    14       H          1.58170000  *  -2.44690000  *  -0.33930000  *
    15       H         -3.28720000  *  -0.86550000  *  -0.37740000  *
    16       H         -2.98580000  *   1.56040000  *   0.08410000  *
    17       H         -0.69360000  *   2.49870000  *   0.40820000  *
 


          CARTESIAN COORDINATES 

    NO.       ATOM           X           Y           Z

     1         C          1.7074      0.8925      0.2766
     2         C          0.2591      0.5808      0.1230
     3         C          0.0886     -0.7575     -0.1319
     4         C          2.3134     -0.4704      0.0692
     5         C          1.3866     -1.3976     -0.1615
     6         C         -0.8336      1.4446      0.2070
     7         C         -1.1766     -1.3133     -0.3177
     8         C         -2.2924     -0.4630     -0.2376
     9         C         -2.1215      0.9119      0.0240
    10         H          2.0486      1.6012     -0.5071
    11         H          1.9279      1.2732      1.2961
    12         H          3.3745     -0.6790      0.1023
    13         H         -1.2970     -2.3701     -0.5180
    14         H          1.5817     -2.4469     -0.3393
    15         H         -3.2872     -0.8655     -0.3774
    16         H         -2.9858      1.5604      0.0841
    17         H         -0.6936      2.4987      0.4082

  H: (PM3): J. J. P. STEWART, J. COMP. CHEM. 10, 209 (1989).
  C: (PM3): J. J. P. STEWART, J. COMP. CHEM. 10, 209 (1989).

           Empirical Formula: C9 H8  =    17 atoms



      MOLECULAR POINT GROUP   :   C1  


      RHF CALCULATION, NO. OF DOUBLY OCCUPIED LEVELS = 22


          Geometry optimization using EF

          DIAGONAL MATRIX USED AS START HESSIAN

 CYCLE:     1 TIME:   0.004 TIME LEFT:  2.00D  GRAD.:   114.769 HEAT:  43.86616
 CYCLE:     2 TIME:   0.012 TIME LEFT:  2.00D  GRAD.:    49.426 HEAT:  41.81178
 CYCLE:     3 TIME:   0.004 TIME LEFT:  2.00D  GRAD.:    32.650 HEAT:  41.37351
 CYCLE:     4 TIME:   0.004 TIME LEFT:  2.00D  GRAD.:    32.435 HEAT:  41.09729
 CYCLE:     5 TIME:   0.004 TIME LEFT:  2.00D  GRAD.:    19.782 HEAT:  40.82963
 CYCLE:     6 TIME:   0.008 TIME LEFT:  2.00D  GRAD.:    25.262 HEAT:  40.79648
 CYCLE:     7 TIME:   0.000 TIME LEFT:  2.00D  GRAD.:    25.973 HEAT:  40.77373
 CYCLE:     8 TIME:   0.004 TIME LEFT:  2.00D  GRAD.:    21.809 HEAT:  40.71019
 CYCLE:     9 TIME:   0.004 TIME LEFT:  2.00D  GRAD.:    17.572 HEAT:  40.66860
 CYCLE:    10 TIME:   0.008 TIME LEFT:  2.00D  GRAD.:     8.141 HEAT:  40.60265
 CYCLE:    11 TIME:   0.004 TIME LEFT:  2.00D  GRAD.:     7.188 HEAT:  40.58949
 CYCLE:    12 TIME:   0.004 TIME LEFT:  2.00D  GRAD.:     5.175 HEAT:  40.57652
 CYCLE:    13 TIME:   0.004 TIME LEFT:  2.00D  GRAD.:     5.857 HEAT:  40.57078
 CYCLE:    14 TIME:   0.004 TIME LEFT:  2.00D  GRAD.:     5.241 HEAT:  40.56591
 CYCLE:    15 TIME:   0.004 TIME LEFT:  2.00D  GRAD.:     2.522 HEAT:  40.55967
 CYCLE:    16 TIME:   0.004 TIME LEFT:  2.00D  GRAD.:     4.601 HEAT:  40.56197
 CYCLE:    17 TIME:   0.004 TIME LEFT:  2.00D  GRAD.:     1.474 HEAT:  40.55702
 CYCLE:    18 TIME:   0.004 TIME LEFT:  2.00D  GRAD.:     1.707 HEAT:  40.55679
 CYCLE:    19 TIME:   0.004 TIME LEFT:  2.00D  GRAD.:     0.976 HEAT:  40.55577
 CYCLE:    20 TIME:   0.000 TIME LEFT:  2.00D  GRAD.:     1.180 HEAT:  40.55568
 CYCLE:    21 TIME:   0.004 TIME LEFT:  2.00D  GRAD.:     0.558 HEAT:  40.55502
 CYCLE:    22 TIME:   0.004 TIME LEFT:  2.00D  GRAD.:     0.737 HEAT:  40.55483
 CYCLE:    23 TIME:   0.004 TIME LEFT:  2.00D  GRAD.:     0.423 HEAT:  40.55454
 CYCLE:    24 TIME:   0.004 TIME LEFT:  2.00D  GRAD.:     0.481 HEAT:  40.55445
 CYCLE:    25 TIME:   0.004 TIME LEFT:  2.00D  GRAD.:     0.261 HEAT:  40.55432
 CYCLE:    26 TIME:   0.004 TIME LEFT:  2.00D  GRAD.:     0.246 HEAT:  40.55425
 CYCLE:    27 TIME:   0.000 TIME LEFT:  2.00D  GRAD.:     0.237 HEAT:  40.55419
 CYCLE:    28 TIME:   0.004 TIME LEFT:  2.00D  GRAD.:     0.190 HEAT:  40.55415
 CYCLE:    29 TIME:   0.004 TIME LEFT:  2.00D  GRAD.:     0.122 HEAT:  40.55412
 CYCLE:    30 TIME:   0.004 TIME LEFT:  2.00D  GRAD.:     0.099 HEAT:  40.55411
 CYCLE:    31 TIME:   0.004 TIME LEFT:  2.00D  GRAD.:     0.062 HEAT:  40.55410
 CYCLE:    32 TIME:   0.004 TIME LEFT:  2.00D  GRAD.:     0.053 HEAT:  40.55410
 CYCLE:    33 TIME:   0.000 TIME LEFT:  2.00D  GRAD.:     0.043 HEAT:  40.55409

     GRADIENT =  0.04288  IS LESS THAN CUTOFF =  0.05000



 -------------------------------------------------------------------------------
 pm3  precise nosym THREADS=1
 InChI=1S/C9H8/c1-2-5-9-7-3-6-8(9)4-1/h1-6H,7H2



     GEOMETRY OPTIMISED USING EIGENVECTOR FOLLOWING (EF).     
     SCF FIELD WAS ACHIEVED                                   


                              PM3 CALCULATION
                                                       MOPAC2016 (Version: 18.184L)
                                                       Sat Jun 15 10:14:57 2019
                                                       No. of days remaining =  18




          FINAL HEAT OF FORMATION =         40.55409 KCAL/MOL =     169.67832 KJ/MOL


          TOTAL ENERGY            =      -1188.66658 EV
          ELECTRONIC ENERGY       =      -5810.83007 EV  POINT GROUP:     C1  
          CORE-CORE REPULSION     =       4622.16349 EV
          COSMO AREA              =        155.28 SQUARE ANGSTROMS
          COSMO VOLUME            =        151.01 CUBIC ANGSTROMS

          GRADIENT NORM           =          0.04288 = 0.01040 PER ATOM
          IONIZATION POTENTIAL    =          8.970585 EV
          HOMO LUMO ENERGIES (EV) =         -8.971 -0.077
          NO. OF FILLED LEVELS    =         22
          MOLECULAR WEIGHT        =        116.1622

          MOLECULAR DIMENSIONS (Angstroms)

            Atom       Atom       Distance
            H    16    H    12     6.76582
            H    13    H    17     4.92185
            H    10    H    11     1.77773


          SCF CALCULATIONS        =         41
 
          WALL-CLOCK TIME         =          0.137 SECONDS
          COMPUTATION TIME        =          0.125 SECONDS




   ATOM   CHEMICAL          X               Y               Z
  NUMBER   SYMBOL      (ANGSTROMS)     (ANGSTROMS)     (ANGSTROMS)
 
     1       C          1.71261072  *   0.88416468  *   0.27565870  *
     2       C          0.24728724  *   0.60017978  *   0.12563418  *
     3       C          0.07467776  *  -0.77881067  *  -0.13676963  *
     4       C          2.33731928  *  -0.47135859  *   0.07054232  *
     5       C          1.39518507  *  -1.41002807  *  -0.16336637  *
     6       C         -0.84266799  *   1.44688190  *   0.20667965  *
     7       C         -1.18998162  *  -1.31443026  *  -0.31862549  *
     8       C         -2.28571329  *  -0.45462992  *  -0.23554276  *
     9       C         -2.11529214  *   0.90249397  *   0.02256246  *
    10       H          2.07116302  *   1.61441726  *  -0.47253886  *
    11       H          1.95380089  *   1.29615415  *   1.27253338  *
    12       H          3.41474367  *  -0.61802258  *   0.11586217  *
    13       H         -1.32354723  *  -2.38120843  *  -0.52142046  *
    14       H          1.54515691  *  -2.47254267  *  -0.34681447  *
    15       H         -3.29531082  *  -0.85470131  *  -0.37572516  *
    16       H         -2.99250281  *   1.55508034  *   0.08249679  *
    17       H         -0.71277501  *   2.51407550  *   0.40944350  *

                             CARTESIAN COORDINATES

   1    C        1.712610720     0.884164677     0.275658703
   2    C        0.247287235     0.600179775     0.125634183
   3    C        0.074677755    -0.778810668    -0.136769633
   4    C        2.337319278    -0.471358591     0.070542323
   5    C        1.395185074    -1.410028073    -0.163366371
   6    C       -0.842667985     1.446881898     0.206679654
   7    C       -1.189981621    -1.314430263    -0.318625489
   8    C       -2.285713291    -0.454629917    -0.235542755
   9    C       -2.115292141     0.902493975     0.022562459
  10    H        2.071163017     1.614417256    -0.472538861
  11    H        1.953800894     1.296154147     1.272533384
  12    H        3.414743673    -0.618022585     0.115862168
  13    H       -1.323547226    -2.381208426    -0.521420461
  14    H        1.545156906    -2.472542668    -0.346814469
  15    H       -3.295310818    -0.854701308    -0.375725156
  16    H       -2.992502812     1.555080336     0.082496793
  17    H       -0.712775010     2.514075503     0.409443501


           Empirical Formula: C9 H8  =    17 atoms



      MOLECULAR POINT GROUP   :   C1  


                  EIGENVALUES  
 -41.19059 -35.19214 -30.46655 -26.92239 -25.94998 -21.55454 -20.28126 -19.61270
 -17.70291 -16.29785 -15.31136 -15.18847 -14.88687 -14.77675 -13.69697 -12.97378
 -12.80144 -12.67031 -12.18388 -10.88865  -9.52379  -8.97059  -0.07711   0.42661
   1.45936   2.99179   3.11811   3.16252   3.45998   3.53996   3.61315   3.83246
   3.92389   4.02148   4.17869   4.38642   4.66220   5.03876   5.16632   5.33043
   5.52264   5.90003   6.22654   6.45567


              NET ATOMIC CHARGES AND DIPOLE CONTRIBUTIONS

  ATOM NO.   TYPE          CHARGE      No. of ELECS.   s-Pop       p-Pop       
    1          C          -0.022786        4.0228     1.13926     2.88352
    2          C          -0.095018        4.0950     1.19094     2.90407
    3          C          -0.063026        4.0630     1.17628     2.88675
    4          C          -0.151600        4.1516     1.20767     2.94393
    5          C          -0.097277        4.0973     1.18512     2.91215
    6          C          -0.083751        4.0838     1.17027     2.91348
    7          C          -0.073473        4.0735     1.17099     2.90248
    8          C          -0.107014        4.1070     1.17942     2.92760
    9          C          -0.101976        4.1020     1.17942     2.92255
   10          H           0.076166        0.9238     0.92383
   11          H           0.076164        0.9238     0.92384
   12          H           0.114152        0.8858     0.88585
   13          H           0.106221        0.8938     0.89378
   14          H           0.116182        0.8838     0.88382
   15          H           0.101066        0.8989     0.89893
   16          H           0.100704        0.8993     0.89930
   17          H           0.105267        0.8947     0.89473
 DIPOLE           X         Y         Z       TOTAL
 POINT-CHG.     0.417     0.280     0.079     0.509
 HYBRID         0.001     0.014     0.003     0.014
 SUM            0.418     0.294     0.082     0.518


          ATOMIC ORBITAL ELECTRON POPULATIONS

     Atom    s        px        py        pz   
    1  C   1.13926   0.91635   0.95863   1.00854
    2  C   1.19094   0.95108   0.95222   1.00077
    3  C   1.17628   0.94037   0.94267   1.00371
    4  C   1.20767   0.98108   0.95548   1.00738
    5  C   1.18512   0.92576   0.97622   1.01018
    6  C   1.17027   0.93008   0.97612   1.00728
    7  C   1.17099   0.92629   0.97905   0.99713
    8  C   1.17942   0.97530   0.94592   1.00637
    9  C   1.17942   0.96470   0.95572   1.00213
   10  H   0.92383
   11  H   0.92384
   12  H   0.88585
   13  H   0.89378
   14  H   0.88382
   15  H   0.89893
   16  H   0.89930
   17  H   0.89473
 *******************************************************************************
 ** Site#: 14399        For non-commercial use only    Version 18.184L 64BITS **
 *******************************************************************************
 ** Cite this program as: MOPAC2016, Version: 18.184L, James J. P. Stewart,   **
 ** Stewart Computational Chemistry, web: HTTP://OpenMOPAC.net. Days left:  18**
 *******************************************************************************
 **                                                                           **
 **                                MOPAC2016                                  **
 **                                                                           **
 *******************************************************************************

                              PM3 CALCULATION RESULTS

 *******************************************************************************
 *  CALCULATION DONE:                                Sat Jun 15 10:14:57 2019  *
 *  PM3        - The PM3 Hamiltonian to be used
 *  OLDGEO     - PREVIOUS GEOMETRY TO BE USED
 *  PRECISE    - CRITERIA TO BE INCREASED BY 100 TIMES
 *  NOSYM      - POINT-GROUP SYMMETRY SET TO C1
 *  THREADS=1  - MULTI-THREADING NOT USED
 *  T=         - A TIME OF 172800.0 SECONDS REQUESTED
 *  DUMP=N     - RESTART FILE WRITTEN EVERY  7200.000 SECONDS
 *  THERMO     - THERMODYNAMIC QUANTITIES TO BE CALCULATED
 *******************************************************************************
oldgeo thermo nosym precise THREADS=1  pm3
 InChI=1S/C9H8/c1-2-5-9-7-3-6-8(9)4-1/h1-6H,7H2

   ATOM   CHEMICAL          X               Y               Z
  NUMBER   SYMBOL      (ANGSTROMS)     (ANGSTROMS)     (ANGSTROMS)
 
     1       C          1.71261072  *   0.88416468  *   0.27565870  *
     2       C          0.24728724  *   0.60017978  *   0.12563418  *
     3       C          0.07467776  *  -0.77881067  *  -0.13676963  *
     4       C          2.33731928  *  -0.47135859  *   0.07054232  *
     5       C          1.39518507  *  -1.41002807  *  -0.16336637  *
     6       C         -0.84266799  *   1.44688190  *   0.20667965  *
     7       C         -1.18998162  *  -1.31443026  *  -0.31862549  *
     8       C         -2.28571329  *  -0.45462992  *  -0.23554276  *
     9       C         -2.11529214  *   0.90249397  *   0.02256246  *
    10       H          2.07116302  *   1.61441726  *  -0.47253886  *
    11       H          1.95380089  *   1.29615415  *   1.27253338  *
    12       H          3.41474367  *  -0.61802258  *   0.11586217  *
    13       H         -1.32354723  *  -2.38120843  *  -0.52142046  *
    14       H          1.54515691  *  -2.47254267  *  -0.34681447  *
    15       H         -3.29531082  *  -0.85470131  *  -0.37572516  *
    16       H         -2.99250281  *   1.55508034  *   0.08249679  *
    17       H         -0.71277501  *   2.51407550  *   0.40944350  *
 


          CARTESIAN COORDINATES 

    NO.       ATOM           X           Y           Z

     1         C          1.7126      0.8842      0.2757
     2         C          0.2473      0.6002      0.1256
     3         C          0.0747     -0.7788     -0.1368
     4         C          2.3373     -0.4714      0.0705
     5         C          1.3952     -1.4100     -0.1634
     6         C         -0.8427      1.4469      0.2067
     7         C         -1.1900     -1.3144     -0.3186
     8         C         -2.2857     -0.4546     -0.2355
     9         C         -2.1153      0.9025      0.0226
    10         H          2.0712      1.6144     -0.4725
    11         H          1.9538      1.2962      1.2725
    12         H          3.4147     -0.6180      0.1159
    13         H         -1.3235     -2.3812     -0.5214
    14         H          1.5452     -2.4725     -0.3468
    15         H         -3.2953     -0.8547     -0.3757
    16         H         -2.9925      1.5551      0.0825
    17         H         -0.7128      2.5141      0.4094

  H: (PM3): J. J. P. STEWART, J. COMP. CHEM. 10, 209 (1989).
  C: (PM3): J. J. P. STEWART, J. COMP. CHEM. 10, 209 (1989).

           Empirical Formula: C9 H8  =    17 atoms



      MOLECULAR POINT GROUP   :   C1  


      RHF CALCULATION, NO. OF DOUBLY OCCUPIED LEVELS = 22



          HEAT OF FORMATION =      40.554093 KCALS/MOLE


          CARTESIAN COORDINATE DERIVATIVES

   NUMBER  ATOM         X            Y            Z

     1       C     -0.003664     0.002055    -0.003962
     2       C      0.005494     0.022035    -0.003882
     3       C     -0.030005    -0.007924    -0.001618
     4       C     -0.002251     0.006263    -0.002739
     5       C      0.010501    -0.002188    -0.003152
     6       C      0.037122    -0.019093     0.000845
     7       C      0.026784    -0.007435     0.001963
     8       C      0.003679     0.019872     0.002593
     9       C     -0.037289    -0.025516    -0.001432
    10       H     -0.011217     0.002503    -0.000968
    11       H      0.003632     0.003496     0.011277
    12       H     -0.006716     0.001387    -0.001295
    13       H      0.001549     0.005406     0.003218
    14       H     -0.012477    -0.005576    -0.000623
    15       H      0.001914    -0.002775     0.000271
    16       H      0.004104     0.001507     0.000079
    17       H      0.008840     0.005982    -0.000576
 


          GRADIENT NORM =   0.08599


          TIME FOR SCF CALCULATION =    0.00

          TIME FOR DERIVATIVES     =    0.00

          MOLECULAR WEIGHT =  116.16



          ROTATIONAL CONSTANTS IN CM(-1)

          A =    0.12560204   B =    0.05322944   C =    0.03765160



           PRINCIPAL MOMENTS OF INERTIA IN UNITS OF 10**(-40)*GRAM-CM**2

          A =      222.8688   B =      525.8890   C =      743.4684


          ORIENTATION OF MOLECULE IN FORCE CALCULATION

    NO.       ATOM         X         Y         Z

     1          C      -1.9416   -0.5929   -0.0001
     2          C      -0.4415   -0.5929   -0.0001
     3          C       0.0144    0.7459   -0.0001
     4          C      -2.2747    0.8764   -0.0006
     5          C      -1.1533    1.6287   -0.0005
     6          C       0.4548   -1.6456    0.0001
     7          C       1.3693    1.0349    0.0003
     8          C       2.2686   -0.0320    0.0006
     9          C       1.8194   -1.3494    0.0004
    10          H      -2.3553   -1.1038   -0.8887
    11          H      -2.3549   -1.1030    0.8891
    12          H      -3.3039    1.2301   -0.0009
    13          H       1.7220    2.0705    0.0005
    14          H      -1.0803    2.7148   -0.0008
    15          H       3.3445    0.1714    0.0010
    16          H       2.5467   -2.1679    0.0005
    17          H       0.1056   -2.6824    0.0000


    FIRST DERIVATIVES WILL BE USED IN THE CALCULATION OF SECOND DERIVATIVES

          ESTIMATED TIME TO COMPLETE CALCULATION =        1.59 SECONDS

    FOR POINT-GROUP C1   THERE ARE   1 UNIQUE SYMMETRY FUNCTIONS.

 STEP:   1 TIME =     0.01 SECS, INTEGRAL =      0.01 TIME LEFT: 172799.98
 STEP:   2 TIME =     0.02 SECS, INTEGRAL =      0.03 TIME LEFT: 172799.96
 STEP:   3 TIME =     0.02 SECS, INTEGRAL =      0.04 TIME LEFT: 172799.95
 STEP:   4 TIME =     0.01 SECS, INTEGRAL =      0.05 TIME LEFT: 172799.94
 STEP:   5 TIME =     0.02 SECS, INTEGRAL =      0.07 TIME LEFT: 172799.92
 STEP:   6 TIME =     0.02 SECS, INTEGRAL =      0.09 TIME LEFT: 172799.91
 STEP:   7 TIME =     0.02 SECS, INTEGRAL =      0.10 TIME LEFT: 172799.89
 STEP:   8 TIME =     0.02 SECS, INTEGRAL =      0.12 TIME LEFT: 172799.88
 STEP:   9 TIME =     0.02 SECS, INTEGRAL =      0.13 TIME LEFT: 172799.86
 STEP:  10 TIME =     0.01 SECS, INTEGRAL =      0.14 TIME LEFT: 172799.85
 STEP:  11 TIME =     0.02 SECS, INTEGRAL =      0.16 TIME LEFT: 172799.83
 STEP:  12 TIME =     0.02 SECS, INTEGRAL =      0.18 TIME LEFT: 172799.82
 STEP:  13 TIME =     0.02 SECS, INTEGRAL =      0.19 TIME LEFT: 172799.80
 STEP:  14 TIME =     0.01 SECS, INTEGRAL =      0.20 TIME LEFT: 172799.79
 STEP:  15 TIME =     0.02 SECS, INTEGRAL =      0.22 TIME LEFT: 172799.77
 STEP:  16 TIME =     0.02 SECS, INTEGRAL =      0.23 TIME LEFT: 172799.76
 STEP:  17 TIME =     0.02 SECS, INTEGRAL =      0.25 TIME LEFT: 172799.74
 STEP:  18 TIME =     0.02 SECS, INTEGRAL =      0.27 TIME LEFT: 172799.73
 STEP:  19 TIME =     0.02 SECS, INTEGRAL =      0.28 TIME LEFT: 172799.71
 STEP:  20 TIME =     0.01 SECS, INTEGRAL =      0.29 TIME LEFT: 172799.70
 STEP:  21 TIME =     0.01 SECS, INTEGRAL =      0.30 TIME LEFT: 172799.69
 STEP:  22 TIME =     0.02 SECS, INTEGRAL =      0.32 TIME LEFT: 172799.67
 STEP:  23 TIME =     0.02 SECS, INTEGRAL =      0.34 TIME LEFT: 172799.66
 STEP:  24 TIME =     0.02 SECS, INTEGRAL =      0.35 TIME LEFT: 172799.64
 STEP:  25 TIME =     0.01 SECS, INTEGRAL =      0.36 TIME LEFT: 172799.63
 STEP:  26 TIME =     0.01 SECS, INTEGRAL =      0.38 TIME LEFT: 172799.62
 STEP:  27 TIME =     0.02 SECS, INTEGRAL =      0.39 TIME LEFT: 172799.60
 STEP:  28 TIME =     0.02 SECS, INTEGRAL =      0.41 TIME LEFT: 172799.59
 STEP:  29 TIME =     0.02 SECS, INTEGRAL =      0.42 TIME LEFT: 172799.57
 STEP:  30 TIME =     0.01 SECS, INTEGRAL =      0.43 TIME LEFT: 172799.56
 STEP:  31 TIME =     0.02 SECS, INTEGRAL =      0.45 TIME LEFT: 172799.54
 STEP:  32 TIME =     0.02 SECS, INTEGRAL =      0.46 TIME LEFT: 172799.53
 STEP:  33 TIME =     0.02 SECS, INTEGRAL =      0.48 TIME LEFT: 172799.51
 STEP:  34 TIME =     0.01 SECS, INTEGRAL =      0.49 TIME LEFT: 172799.50
 STEP:  35 TIME =     0.02 SECS, INTEGRAL =      0.51 TIME LEFT: 172799.48
 STEP:  36 TIME =     0.01 SECS, INTEGRAL =      0.52 TIME LEFT: 172799.47
 STEP:  37 TIME =     0.01 SECS, INTEGRAL =      0.53 TIME LEFT: 172799.46
 STEP:  38 TIME =     0.02 SECS, INTEGRAL =      0.55 TIME LEFT: 172799.45
 STEP:  39 TIME =     0.02 SECS, INTEGRAL =      0.56 TIME LEFT: 172799.43
 STEP:  40 TIME =     0.01 SECS, INTEGRAL =      0.57 TIME LEFT: 172799.42
 STEP:  41 TIME =     0.01 SECS, INTEGRAL =      0.59 TIME LEFT: 172799.41
 STEP:  42 TIME =     0.02 SECS, INTEGRAL =      0.60 TIME LEFT: 172799.39
 STEP:  43 TIME =     0.01 SECS, INTEGRAL =      0.61 TIME LEFT: 172799.38
 STEP:  44 TIME =     0.02 SECS, INTEGRAL =      0.63 TIME LEFT: 172799.36
 STEP:  45 TIME =     0.02 SECS, INTEGRAL =      0.64 TIME LEFT: 172799.35
 STEP:  46 TIME =     0.01 SECS, INTEGRAL =      0.66 TIME LEFT: 172799.34
 STEP:  47 TIME =     0.01 SECS, INTEGRAL =      0.67 TIME LEFT: 172799.32
 STEP:  48 TIME =     0.02 SECS, INTEGRAL =      0.68 TIME LEFT: 172799.31
 STEP:  49 TIME =     0.02 SECS, INTEGRAL =      0.70 TIME LEFT: 172799.29
 STEP:  50 TIME =     0.01 SECS, INTEGRAL =      0.71 TIME LEFT: 172799.28
 STEP:  51 TIME =     0.02 SECS, INTEGRAL =      0.73 TIME LEFT: 172799.27

(To convert to Hartree/Bohr^2, multiply by (10^(-21) x N x a0^2)/(4.184 x 627.51) =  0.0642)


           FORCE MATRIX IN MILLIDYNES/ANGSTROM


                  C  1       C  2       C  3       C  4       C  5       C  6
 ------------------------------------------------------------------------------
     C    1  14.857374
     C    2   4.471412  18.384692
     C    3   0.970161   6.095774  18.845834
     C    4   4.311293   1.109526   1.592126  17.907233
     C    5   1.165122   1.210192   5.167904   9.833479  18.363952
     C    6   0.529044   7.372093   2.190231   0.050516   0.092853  17.427503
     C    7   0.094653   2.181182   7.160022   0.150044   0.772632   1.711151
     C    8   0.054621   1.707106   2.443542   0.093560   0.181579   2.420194
     C    9   0.114273   2.394730   1.635346   0.062124   0.084997   6.841562
     H   10   4.515030   0.429865   0.034377   0.422307   0.039430   0.015167
     H   11   4.514472   0.429754   0.034419   0.422231   0.039399   0.015206
     H   12   0.404367   0.042772   0.107703   5.062721   0.443140   0.009966
     H   13   0.008486   0.087421   0.448630   0.004972   0.039648   0.010945
     H   14   0.112386   0.044374   0.427211   0.445795   5.054890   0.006948
     H   15   0.007353   0.008159   0.088869   0.001936   0.007038   0.086798
     H   16   0.006658   0.087629   0.007959   0.001805   0.006760   0.434266
     H   17   0.037964   0.448516   0.088970   0.002559   0.008260   4.883691


                  C  7       C  8       C  9       H 10       H 11       H 12
 ------------------------------------------------------------------------------
     C    7  17.404460
     C    8   6.891864  17.137652
     C    9   2.348280   6.960772  17.259887
     H   10   0.011468   0.004882   0.010730   5.116534
     H   11   0.011446   0.004859   0.010742   0.546755   5.115901
     H   12   0.005974   0.005379   0.001390   0.011697   0.011692   5.457163
     H   13   4.884341   0.437481   0.086968   0.000785   0.000793   0.002099
     H   14   0.010600   0.002038   0.001916   0.015196   0.015211   0.044069
     H   15   0.434509   4.856201   0.435692   0.001039   0.001023   0.000429
     H   16   0.086956   0.435864   4.858873   0.001373   0.001370   0.001022
     H   17   0.010728   0.086553   0.437375   0.005439   0.005419   0.000591


                  H 13       H 14       H 15       H 16       H 17
 ------------------------------------------------------------------
     H   13   5.254649
     H   14   0.005872   5.448118
     H   15   0.039902   0.000637   5.221389
     H   16   0.006548   0.000461   0.043235   5.220814
     H   17   0.008486   0.001276   0.006740   0.039632   5.254413


          HEAT OF FORMATION =      40.554093 KCALS/MOLE

          ZERO POINT ENERGY      88.183 KCAL/MOL


           NORMAL COORDINATE ANALYSIS (Total motion = 1 Angstrom)


   Root No.       1         2         3         4         5         6         7         8

                 1 A       2 A       3 A       4 A       5 A       6 A       7 A       8 A   

                 187.8     201.5     365.2     406.9     424.1     506.8     556.2     602.6
  
           1   -0.0000    0.0000    0.0000    0.0393    0.0001    0.0000    0.0395   -0.0553
           2   -0.0000    0.0000   -0.0000   -0.0183   -0.0000    0.0000   -0.0226   -0.0324
           3   -0.0493    0.0429   -0.0170    0.0000   -0.0092    0.0008    0.0000   -0.0000
           4    0.0000    0.0000    0.0000    0.0270    0.0000    0.0000    0.0168   -0.0472
           5   -0.0000    0.0000   -0.0000    0.0516    0.0001   -0.0000   -0.0121    0.0197
           6   -0.0337   -0.0471   -0.0042   -0.0002    0.0634   -0.0097    0.0000   -0.0001
           7    0.0000    0.0000    0.0000    0.0090    0.0000   -0.0000    0.0247    0.0456
           8   -0.0000    0.0000   -0.0000    0.0581    0.0001    0.0000   -0.0065   -0.0103
           9   -0.0299   -0.0550   -0.0277   -0.0001    0.0232    0.0429    0.0000    0.0000
          10   -0.0000   -0.0000    0.0000   -0.0131   -0.0000    0.0000    0.0599   -0.0021
          11    0.0000   -0.0000    0.0000   -0.0369   -0.0001    0.0000   -0.0211   -0.0326
          12    0.0474    0.0444    0.0391   -0.0000    0.0212    0.0202    0.0000    0.0000
          13    0.0000   -0.0000    0.0000   -0.0400   -0.0001    0.0000    0.0493    0.0187
          14    0.0000   -0.0000   -0.0000    0.0097    0.0000    0.0000   -0.0077   -0.0535
          15    0.0397   -0.0347   -0.0424    0.0001   -0.0285   -0.0344    0.0000    0.0000
          16    0.0000    0.0000   -0.0000   -0.0212   -0.0000    0.0000   -0.0500   -0.0403
          17   -0.0000    0.0000   -0.0000    0.0176    0.0001   -0.0000   -0.0527    0.0480
          18    0.0193   -0.0513    0.0437    0.0001   -0.0221   -0.0349   -0.0000   -0.0000
          19    0.0000   -0.0000   -0.0000    0.0260    0.0001   -0.0000   -0.0045    0.0602
          20   -0.0000   -0.0000    0.0000    0.0023   -0.0000    0.0000    0.0725    0.0066
          21   -0.0472   -0.0001    0.0460    0.0001   -0.0311    0.0300   -0.0000    0.0000
          22    0.0000   -0.0000   -0.0000   -0.0074    0.0000   -0.0000   -0.0669    0.0672
          23    0.0000   -0.0000    0.0000   -0.0336   -0.0001    0.0000    0.0277    0.0131
          24   -0.0041    0.0605   -0.0077   -0.0001    0.0292   -0.0492    0.0000   -0.0000
          25   -0.0000   -0.0000    0.0000   -0.0171   -0.0000   -0.0000   -0.0719   -0.0395
          26    0.0000   -0.0000    0.0000   -0.0303   -0.0001   -0.0000    0.0242    0.0498
          27    0.0511    0.0143   -0.0321    0.0000   -0.0114    0.0510   -0.0000    0.0000
          28    0.0156   -0.0651    0.0191    0.0676    0.0776   -0.0108    0.0435   -0.0565
          29    0.0699   -0.0148    0.0632   -0.0424    0.0691    0.0300   -0.0259   -0.0384
          30   -0.0976    0.0824   -0.0639    0.0002   -0.0878   -0.0119   -0.0004    0.0029
          31   -0.0156    0.0652   -0.0191    0.0679   -0.0774    0.0108    0.0434   -0.0563
          32   -0.0700    0.0149   -0.0632   -0.0421   -0.0694   -0.0300   -0.0260   -0.0384
          33   -0.0975    0.0823   -0.0638    0.0001   -0.0877   -0.0119    0.0003   -0.0029
          34   -0.0000   -0.0000   -0.0000   -0.0285   -0.0001    0.0000    0.0615    0.0142
          35    0.0001   -0.0000    0.0000   -0.0813   -0.0001    0.0000   -0.0198    0.0156
          36    0.1077    0.0998    0.1121   -0.0001    0.0523    0.0369   -0.0000   -0.0000
          37   -0.0000   -0.0000   -0.0000    0.0813    0.0002   -0.0000   -0.0148    0.0495
          38    0.0000   -0.0000    0.0000   -0.0166   -0.0000    0.0000    0.0753    0.0105
          39   -0.0769    0.0135    0.1251    0.0004   -0.1202    0.0453   -0.0001    0.0001
          40    0.0000   -0.0000    0.0000   -0.1020   -0.0002    0.0001    0.0563   -0.0013
          41    0.0000   -0.0000   -0.0000    0.0136    0.0000   -0.0000   -0.0084   -0.0525
          42    0.0904   -0.0662   -0.0885    0.0002   -0.0899   -0.1371    0.0000   -0.0001
          43    0.0000   -0.0000   -0.0000   -0.0020    0.0000    0.0000   -0.0590    0.0786
          44    0.0000   -0.0000    0.0000   -0.0600   -0.0001    0.0000   -0.0163   -0.0468
          45   -0.0032    0.1392   -0.0226   -0.0002    0.0734   -0.1727    0.0000   -0.0000
          46   -0.0000   -0.0000    0.0000   -0.0372   -0.0001    0.0000   -0.0408   -0.0891
          47    0.0000   -0.0000    0.0000   -0.0476   -0.0001    0.0000    0.0524    0.0058
          48    0.1138    0.0394   -0.0893    0.0002   -0.0463    0.1593   -0.0000    0.0000
          49    0.0000    0.0000   -0.0000   -0.0763   -0.0001    0.0000   -0.0541   -0.0277
          50   -0.0000    0.0000   -0.0000    0.0362    0.0001   -0.0000   -0.0506    0.0440
          51    0.0442   -0.0795    0.1188    0.0003   -0.1064   -0.1074   -0.0000    0.0001


   Root No.       9        10        11        12        13        14        15        16

                 9 A      10 A      11 A      12 A      13 A      14 A      15 A      16 A   

                 704.5     749.6     774.4     792.7     861.1     869.5     933.3     937.0
  
           1    0.0000    0.0000   -0.0056   -0.0000    0.0568    0.0000   -0.0000   -0.0329
           2    0.0000    0.0000   -0.0643   -0.0001    0.0180    0.0000    0.0000   -0.0136
           3   -0.0137   -0.0220    0.0000   -0.0142   -0.0000    0.0289    0.0363   -0.0000
           4    0.0000    0.0000   -0.0348   -0.0000    0.0057    0.0000    0.0000   -0.0012
           5   -0.0000   -0.0000    0.0108    0.0000   -0.0144   -0.0000   -0.0000   -0.0217
           6   -0.0568    0.0018   -0.0000    0.0080    0.0000   -0.0054   -0.0295    0.0000
           7   -0.0000    0.0000   -0.0356   -0.0000   -0.0215    0.0000   -0.0000    0.0017
           8    0.0000   -0.0000    0.0108    0.0000   -0.0151   -0.0000    0.0000    0.0233
           9    0.0680    0.0068   -0.0001    0.0312    0.0000   -0.0065    0.0312   -0.0000
          10   -0.0000   -0.0000    0.0904    0.0001   -0.0062   -0.0000   -0.0000    0.0224
          11    0.0000   -0.0000   -0.0263   -0.0000    0.0088    0.0000    0.0000   -0.0108
          12    0.0168   -0.0108    0.0000   -0.0131   -0.0000   -0.0085   -0.0088    0.0000
          13   -0.0000   -0.0000    0.0341    0.0000   -0.0209   -0.0000   -0.0000   -0.0194
          14    0.0000   -0.0000    0.0642    0.0001    0.0304    0.0000    0.0000    0.0492
          15   -0.0006   -0.0187   -0.0000   -0.0166    0.0000   -0.0133   -0.0402   -0.0000
          16   -0.0000   -0.0000   -0.0037   -0.0000   -0.0294   -0.0000    0.0000    0.0028
          17   -0.0000   -0.0000    0.0625    0.0001   -0.0326   -0.0000   -0.0000   -0.0465
          18    0.0163    0.0110    0.0000   -0.0109    0.0000   -0.0309    0.0156   -0.0000
          19   -0.0000    0.0000   -0.0474   -0.0000   -0.0120   -0.0000    0.0000    0.0227
          20   -0.0000    0.0000   -0.0465   -0.0000   -0.0583   -0.0000    0.0000    0.0141
          21   -0.0118    0.0102    0.0000   -0.0079   -0.0000    0.0282   -0.0112    0.0000
          22   -0.0000    0.0000   -0.0024   -0.0000    0.0697    0.0000    0.0000    0.0147
          23   -0.0000    0.0000   -0.0081   -0.0000    0.0156    0.0000   -0.0000   -0.0002
          24    0.0192    0.0129    0.0001   -0.0180   -0.0000    0.0198   -0.0189    0.0000
          25    0.0000   -0.0000    0.0101    0.0000   -0.0476   -0.0000    0.0000   -0.0006
          26    0.0000    0.0000    0.0015   -0.0000    0.0561    0.0000   -0.0000    0.0070
          27   -0.0145    0.0116    0.0001   -0.0240    0.0000   -0.0124    0.0150   -0.0000
          28   -0.0863   -0.0391   -0.0166   -0.0075    0.0913    0.0626   -0.0136   -0.1071
          29    0.0109   -0.0721   -0.0670   -0.0558    0.0038    0.0508    0.1265    0.0296
          30    0.0215    0.0408    0.0050    0.0233   -0.0069   -0.0323   -0.0336    0.0076
          31    0.0864    0.0391   -0.0165    0.0075    0.0914   -0.0625    0.0135   -0.1071
          32   -0.0109    0.0722   -0.0672    0.0557    0.0038   -0.0508   -0.1265    0.0298
          33    0.0215    0.0407   -0.0050    0.0233    0.0069   -0.0323   -0.0335   -0.0076
          34   -0.0000   -0.0001    0.0884    0.0000   -0.0386   -0.0000   -0.0000    0.0107
          35   -0.0000    0.0000   -0.0377    0.0000   -0.0858   -0.0000   -0.0000   -0.0407
          36   -0.0529    0.1917   -0.0003    0.1798    0.0000   -0.0060   -0.0181    0.0000
          37    0.0000    0.0000   -0.0682   -0.0001   -0.0801   -0.0000    0.0001    0.0916
          38    0.0000    0.0000   -0.0402   -0.0000   -0.0364    0.0000   -0.0000   -0.0081
          39   -0.1677   -0.0984   -0.0003    0.0403    0.0003   -0.1692    0.0441    0.0000
          40    0.0000   -0.0000    0.0151    0.0000   -0.0111   -0.0000   -0.0000   -0.1578
          41   -0.0000    0.0000    0.0660    0.0001    0.0298    0.0000    0.0001    0.0597
          42   -0.1630    0.1063    0.0001    0.0521   -0.0001    0.1097    0.2111   -0.0001
          43   -0.0000    0.0000   -0.0148   -0.0001    0.0731    0.0001   -0.0000    0.0244
          44   -0.0000   -0.0000    0.0517    0.0000    0.0006    0.0000   -0.0000   -0.0435
          45    0.0268   -0.1165   -0.0005    0.1690    0.0002   -0.1282    0.1059   -0.0001
          46    0.0000   -0.0000   -0.0268   -0.0000   -0.0762   -0.0000    0.0000    0.0382
          47    0.0000    0.0000   -0.0299   -0.0000    0.0323    0.0000    0.0000    0.0399
          48   -0.0756   -0.1185   -0.0005    0.1758    0.0000    0.0802   -0.0854    0.0000
          49   -0.0000    0.0000   -0.0206   -0.0001    0.0135   -0.0000    0.0001    0.0869
          50   -0.0000   -0.0000    0.0688    0.0001   -0.0477   -0.0000   -0.0000   -0.0767
          51    0.1170   -0.0796   -0.0003    0.1174   -0.0002    0.1792   -0.0656    0.0001


   Root No.      17        18        19        20        21        22        23        24

                17 A      18 A      19 A      20 A      21 A      22 A      23 A      24 A   

                 950.0     990.1    1008.5    1042.9    1044.0    1079.4    1095.9    1110.0
  
           1    0.0000   -0.0000   -0.0000   -0.0126   -0.0001   -0.0066    0.0145   -0.0065
           2   -0.0000   -0.0000   -0.0000   -0.0404   -0.0002   -0.0025    0.0202   -0.0034
           3    0.0155    0.0299    0.0191   -0.0000    0.0000    0.0000    0.0000   -0.0000
           4    0.0000    0.0000   -0.0000   -0.0011    0.0000    0.0152   -0.0040    0.0055
           5   -0.0000   -0.0000   -0.0000    0.0005    0.0000    0.0053    0.0021    0.0078
           6   -0.0084   -0.0280   -0.0174    0.0002   -0.0363   -0.0000   -0.0000    0.0000
           7   -0.0000    0.0000   -0.0000   -0.0067   -0.0000    0.0030   -0.0012   -0.0003
           8    0.0000    0.0000   -0.0000    0.0080    0.0000    0.0062    0.0037    0.0080
           9    0.0163   -0.0096    0.0100   -0.0001    0.0212    0.0000    0.0000   -0.0000
          10    0.0000    0.0000   -0.0000   -0.0231   -0.0001    0.0054    0.0099   -0.0027
          11    0.0000   -0.0000    0.0000    0.0339    0.0002   -0.0007   -0.0128   -0.0032
          12   -0.0206   -0.0330   -0.0275   -0.0002    0.0401    0.0000    0.0000   -0.0000
          13    0.0000   -0.0000   -0.0000   -0.0046   -0.0000    0.0006    0.0102    0.0016
          14    0.0000    0.0000    0.0000    0.0202    0.0001   -0.0087   -0.0288   -0.0025
          15    0.0109    0.0300    0.0115    0.0001   -0.0255   -0.0000    0.0000    0.0000
          16    0.0000   -0.0000   -0.0000    0.0044    0.0000   -0.0099    0.0008   -0.0135
          17    0.0000   -0.0000    0.0000   -0.0137   -0.0001   -0.0224    0.0198   -0.0170
          18   -0.0307    0.0161    0.0341   -0.0001    0.0193    0.0000   -0.0000   -0.0000
          19    0.0000   -0.0000    0.0000    0.0088    0.0000   -0.0048   -0.0140    0.0014
          20   -0.0000    0.0000   -0.0000    0.0019    0.0000   -0.0045   -0.0292   -0.0215
          21   -0.0368    0.0273   -0.0268    0.0001   -0.0127   -0.0000   -0.0000    0.0000
          22   -0.0000    0.0000   -0.0000    0.0000    0.0000    0.0204   -0.0262    0.0017
          23   -0.0000   -0.0000   -0.0000   -0.0003   -0.0000    0.0080   -0.0094    0.0068
          24    0.0153   -0.0259    0.0419   -0.0001    0.0110    0.0000   -0.0000   -0.0000
          25   -0.0000    0.0000    0.0000   -0.0050   -0.0000    0.0068   -0.0138    0.0022
          26    0.0000   -0.0000    0.0000    0.0055    0.0000   -0.0100    0.0242    0.0064
          27    0.0294    0.0064   -0.0445    0.0001   -0.0131   -0.0000    0.0000    0.0000
          28    0.0673    0.1092   -0.0145    0.0855    0.1988    0.0126    0.0312   -0.0272
          29   -0.0056    0.0025    0.0677   -0.1460   -0.1577   -0.0194    0.0331    0.0058
          30   -0.0140   -0.0249   -0.0148    0.0138   -0.0019    0.0014   -0.0129    0.0036
          31   -0.0673   -0.1093    0.0146    0.0872   -0.1980    0.0126    0.0311   -0.0272
          32    0.0055   -0.0025   -0.0678   -0.1473    0.1561   -0.0194    0.0332    0.0057
          33   -0.0140   -0.0249   -0.0147   -0.0137   -0.0021   -0.0014    0.0129   -0.0036
          34   -0.0000   -0.0000   -0.0000    0.0210    0.0001    0.0841    0.0563   -0.0191
          35    0.0000    0.0000    0.0000    0.1622    0.0008    0.2256    0.1175   -0.0499
          36    0.1004    0.1269    0.0842    0.0003   -0.0907   -0.0000   -0.0000    0.0000
          37   -0.0000    0.0000    0.0001    0.0805    0.0005   -0.1262    0.1518    0.1528
          38   -0.0000    0.0000   -0.0001   -0.0221   -0.0001    0.0370   -0.0882   -0.0734
          39    0.1640   -0.1167    0.0853   -0.0002    0.0345    0.0001    0.0000   -0.0000
          40    0.0001   -0.0001    0.0001    0.0962    0.0007   -0.1983   -0.1431    0.0969
          41   -0.0000   -0.0000   -0.0000    0.0161    0.0001    0.0041   -0.0208   -0.0088
          42   -0.0590   -0.1180   -0.0365   -0.0003    0.0677    0.0000    0.0000    0.0000
          43    0.0000   -0.0000    0.0000    0.0092    0.0001    0.0027   -0.0317   -0.0295
          44    0.0000    0.0000    0.0000   -0.0459   -0.0003    0.1067    0.0115    0.1802
          45   -0.0685    0.1051   -0.1465    0.0002   -0.0276   -0.0000    0.0000    0.0000
          46    0.0000    0.0000    0.0000    0.0273    0.0002    0.0091    0.0302    0.1382
          47   -0.0000   -0.0000    0.0001    0.0337    0.0002   -0.0083    0.0659    0.1291
          48   -0.1434   -0.0274    0.1553   -0.0001    0.0324    0.0000   -0.0000   -0.0000
          49    0.0000    0.0000    0.0000    0.0681    0.0003   -0.1528    0.1577   -0.1598
          50   -0.0000   -0.0000   -0.0000   -0.0358   -0.0002    0.0243   -0.0310    0.0319
          51    0.1430   -0.0753   -0.1178    0.0003   -0.0619   -0.0000    0.0000    0.0000


   Root No.      25        26        27        28        29        30        31        32

                25 A      26 A      27 A      28 A      29 A      30 A      31 A      32 A   

                1151.7    1175.1    1190.9    1301.0    1309.6    1361.9    1383.4    1455.6
  
           1   -0.0005    0.0125    0.0100    0.0287    0.0628   -0.0392    0.0274   -0.0318
           2   -0.0033   -0.0177    0.0011   -0.0381   -0.0471   -0.0186    0.0614    0.0118
           3   -0.0000    0.0000    0.0000   -0.0000    0.0000    0.0000   -0.0000   -0.0000
           4    0.0003    0.0337   -0.0097    0.0284   -0.0435    0.0163   -0.0155    0.0315
           5   -0.0090    0.0079   -0.0330    0.0102   -0.0304    0.0351   -0.0033   -0.0657
           6    0.0000    0.0000   -0.0000    0.0000    0.0000   -0.0000   -0.0000    0.0000
           7    0.0042   -0.0187   -0.0128    0.0149    0.0103   -0.0069   -0.0022    0.0636
           8    0.0071    0.0217   -0.0297   -0.0161   -0.0270   -0.0468   -0.0409    0.0177
           9   -0.0000   -0.0000   -0.0000    0.0000   -0.0000    0.0000    0.0000    0.0000
          10   -0.0037   -0.0014    0.0022   -0.0226   -0.0158    0.0039    0.0123   -0.0053
          11    0.0038   -0.0177    0.0126    0.0554    0.0119   -0.0147   -0.0464   -0.0132
          12    0.0000   -0.0000   -0.0000   -0.0000   -0.0000   -0.0000    0.0000    0.0000
          13   -0.0013   -0.0136   -0.0006    0.0197   -0.0298   -0.0163   -0.0389   -0.0326
          14    0.0022   -0.0091    0.0079   -0.0055    0.0224    0.0281    0.0251    0.0258
          15   -0.0000    0.0000   -0.0000    0.0000   -0.0000   -0.0000   -0.0000   -0.0000
          16   -0.0055    0.0098    0.0171    0.0204   -0.0236    0.0654    0.0163    0.0111
          17   -0.0095   -0.0075    0.0080    0.0131    0.0302   -0.0029    0.0130    0.0183
          18   -0.0000    0.0000    0.0000    0.0000   -0.0000    0.0000    0.0000    0.0000
          19    0.0011   -0.0159   -0.0090    0.0100    0.0248    0.0598    0.0315    0.0048
          20    0.0122   -0.0084    0.0172   -0.0242    0.0274   -0.0336    0.0011   -0.0120
          21    0.0000   -0.0000    0.0000    0.0000    0.0000    0.0000    0.0000   -0.0000
          22    0.0078    0.0064   -0.0020   -0.0248    0.0063   -0.0356   -0.0091   -0.0387
          23    0.0066    0.0055    0.0172   -0.0013   -0.0201    0.0353    0.0088   -0.0836
          24    0.0000   -0.0000   -0.0000   -0.0000    0.0000   -0.0000   -0.0000   -0.0000
          25    0.0019   -0.0072    0.0129   -0.0241    0.0014   -0.0517   -0.0179    0.0138
          26   -0.0095    0.0144    0.0121    0.0150   -0.0160   -0.0091   -0.0123    0.0862
          27   -0.0000   -0.0000    0.0000   -0.0000   -0.0000   -0.0000   -0.0000    0.0000
          28   -0.0008   -0.1121    0.0321   -0.1512   -0.0214    0.0895   -0.0857    0.0407
          29   -0.0091    0.0812   -0.0026   -0.0494    0.1288    0.1032   -0.1336   -0.0092
          30    0.0030    0.0014   -0.0070    0.0804   -0.0547   -0.1145    0.1451   -0.0199
          31   -0.0008   -0.1120    0.0321   -0.1512   -0.0214    0.0895   -0.0858    0.0407
          32   -0.0090    0.0811   -0.0026   -0.0495    0.1288    0.1033   -0.1337   -0.0092
          33   -0.0029   -0.0014    0.0070   -0.0803    0.0546    0.1144   -0.1450    0.0199
          34   -0.0070    0.0545   -0.0023   -0.0654    0.0178    0.0135    0.0610    0.0043
          35   -0.0048    0.1425   -0.0009   -0.0619    0.1108    0.0149    0.0891    0.0239
          36   -0.0000   -0.0000    0.0000   -0.0000   -0.0000    0.0000    0.0000    0.0000
          37    0.1177    0.0275    0.2022   -0.0384   -0.0023   -0.0372    0.0051   -0.0984
          38   -0.0248   -0.0240   -0.0544   -0.0107    0.0402   -0.0029    0.0110    0.0200
          39    0.0000   -0.0000    0.0000   -0.0000    0.0000   -0.0000   -0.0000   -0.0000
          40    0.0245    0.1539   -0.0947   -0.1263    0.0153    0.0058    0.0635    0.0591
          41    0.0009   -0.0203    0.0140    0.0046    0.0212    0.0281    0.0183    0.0237
          42    0.0000    0.0000   -0.0000   -0.0000   -0.0000   -0.0000   -0.0000    0.0000
          43   -0.0497    0.0240    0.0240   -0.0337   -0.0113   -0.0419   -0.0148   -0.0730
          44    0.3117   -0.0883   -0.1180    0.0268    0.0803    0.0452    0.0346    0.0510
          45    0.0000    0.0000    0.0000   -0.0000   -0.0000    0.0000    0.0000   -0.0000
          46   -0.2386   -0.0758   -0.0887   -0.0323    0.0818   -0.0450    0.0121   -0.0787
          47   -0.2231   -0.0454   -0.0775    0.0127    0.0542    0.0025    0.0155    0.0167
          48    0.0000    0.0000   -0.0000   -0.0000   -0.0000   -0.0000   -0.0000   -0.0000
          49    0.1028   -0.0250   -0.2015   -0.0061    0.0247   -0.0225   -0.0022   -0.0905
          50   -0.0484    0.0043    0.0820    0.0250    0.0156    0.0291    0.0212    0.0576
          51    0.0000   -0.0000   -0.0000    0.0000    0.0000    0.0000    0.0000   -0.0000


   Root No.      33        34        35        36        37        38        39        40

                33 A      34 A      35 A      36 A      37 A      38 A      39 A      40 A   

                1580.7    1599.5    1767.2    1801.5    1828.9    2981.9    3050.5    3055.0
  
           1   -0.0466    0.0044    0.0047    0.0170    0.0188    0.0000   -0.0265    0.0002
           2   -0.0034   -0.0114    0.0104   -0.0036   -0.0082    0.0000   -0.0325    0.0003
           3   -0.0000   -0.0000    0.0000   -0.0000   -0.0000   -0.0612   -0.0001   -0.0000
           4    0.1180   -0.0046    0.0128   -0.0403   -0.1058    0.0000   -0.0007   -0.0001
           5    0.0269    0.0570   -0.0175    0.1271    0.0722   -0.0000   -0.0002   -0.0002
           6    0.0000    0.0000    0.0000   -0.0000   -0.0000   -0.0002   -0.0000   -0.0000
           7    0.0129    0.0859    0.0206   -0.0880    0.1529    0.0000    0.0006   -0.0001
           8   -0.1020   -0.0517   -0.0034   -0.0727    0.0071   -0.0000    0.0005   -0.0003
           9    0.0000    0.0000    0.0000   -0.0000    0.0000   -0.0001   -0.0000    0.0000
          10    0.0169   -0.0126   -0.1599   -0.0054    0.0089    0.0000    0.0009    0.0000
          11    0.0073   -0.0128   -0.1259   -0.0141    0.0067    0.0000   -0.0012    0.0000
          12    0.0000    0.0000   -0.0000    0.0000    0.0000   -0.0002    0.0000   -0.0000
          13   -0.0327   -0.0254    0.1680    0.0313   -0.0398   -0.0000    0.0003   -0.0000
          14    0.0216    0.0323    0.1030    0.0013    0.0028    0.0000   -0.0003    0.0000
          15   -0.0000   -0.0000    0.0000    0.0000   -0.0000   -0.0002   -0.0000    0.0000
          16   -0.0414   -0.0785    0.0094    0.0173    0.1266   -0.0000    0.0002    0.0019
          17    0.0485   -0.0248    0.0111   -0.0669   -0.0569   -0.0000    0.0003    0.0085
          18   -0.0000   -0.0000   -0.0000    0.0000    0.0000   -0.0000   -0.0000    0.0000
          19   -0.0711   -0.0107   -0.0363    0.0233   -0.1401   -0.0000   -0.0000    0.0037
          20    0.0529   -0.0499    0.0097    0.0505    0.0213   -0.0000    0.0000    0.0079
          21   -0.0000   -0.0000   -0.0000    0.0000   -0.0000   -0.0000    0.0000    0.0000
          22    0.0489   -0.0479    0.0141    0.0009    0.0411   -0.0000   -0.0005   -0.0300
          23   -0.0365    0.0635    0.0010   -0.1209   -0.0275   -0.0000   -0.0000   -0.0049
          24    0.0000   -0.0000    0.0000   -0.0000    0.0000    0.0000   -0.0000   -0.0000
          25   -0.0295    0.0926   -0.0216    0.0587   -0.0655   -0.0000    0.0000    0.0208
          26   -0.0239    0.0188   -0.0160    0.0930   -0.0181    0.0000   -0.0002   -0.0224
          27   -0.0000    0.0000   -0.0000    0.0000   -0.0000   -0.0001    0.0000    0.0000
          28    0.0012   -0.0154   -0.0171   -0.0154   -0.0050    0.1790    0.1574   -0.0014
          29   -0.0037    0.0149    0.0272    0.0125    0.0076    0.2219    0.1949   -0.0017
          30   -0.0175   -0.0058   -0.0046    0.0063   -0.0007    0.3702    0.3836   -0.0033
          31    0.0013   -0.0154   -0.0171   -0.0154   -0.0050   -0.1793    0.1568   -0.0014
          32   -0.0037    0.0149    0.0271    0.0125    0.0077   -0.2221    0.1939   -0.0017
          33    0.0175    0.0058    0.0046   -0.0063    0.0007    0.3715   -0.3828    0.0033
          34    0.0106   -0.0016   -0.1200    0.0021    0.0099   -0.0000   -0.0129   -0.0002
          35   -0.0112    0.0287    0.1005    0.0026    0.0032    0.0000    0.0028    0.0001
          36    0.0000    0.0000   -0.0001    0.0000    0.0000   -0.0010   -0.0000   -0.0000
          37    0.1050   -0.0000    0.0188    0.0165    0.0399    0.0000   -0.0003   -0.0349
          38   -0.0047   -0.0658   -0.0096    0.0649   -0.0486    0.0000   -0.0007   -0.0962
          39    0.0000    0.0000    0.0000   -0.0000    0.0000    0.0001   -0.0000   -0.0000
          40   -0.0233    0.0092   -0.0386   -0.0309    0.0247   -0.0000    0.0011    0.0001
          41    0.0212    0.0338    0.1520    0.0035   -0.0029   -0.0000    0.0117   -0.0001
          42   -0.0000   -0.0000   -0.0001   -0.0000    0.0000   -0.0007   -0.0000   -0.0000
          43    0.0430   -0.0219    0.0167   -0.0345    0.0397    0.0000    0.0062    0.3475
          44    0.0335   -0.1085    0.0018    0.0462    0.0090    0.0000    0.0012    0.0640
          45    0.0000   -0.0000    0.0000   -0.0000    0.0000    0.0000    0.0000    0.0001
          46    0.0614   -0.0255    0.0123   -0.0597   -0.0143    0.0000   -0.0013   -0.2363
          47    0.0575   -0.0972    0.0149   -0.0050    0.0334   -0.0000    0.0015    0.2637
          48    0.0000   -0.0000   -0.0000    0.0000    0.0000    0.0000   -0.0000   -0.0000
          49    0.0931    0.0336    0.0045   -0.0389   -0.0558    0.0000   -0.0017   -0.0309
          50    0.0130   -0.0712    0.0163   -0.0611   -0.0016    0.0000   -0.0043   -0.0980
          51    0.0000   -0.0000    0.0000   -0.0000    0.0000    0.0002    0.0000   -0.0000


   Root No.      41        42        43        44        45

                41 A      42 A      43 A      44 A      45 A   

                3064.8    3076.3    3081.6    3128.3    3145.6
  
           1    0.0001    0.0000   -0.0000    0.0000   -0.0012
           2   -0.0000   -0.0002    0.0002    0.0003   -0.0016
           3    0.0000    0.0000    0.0000   -0.0000   -0.0000
           4   -0.0005   -0.0011    0.0013    0.0002    0.0009
           5    0.0005    0.0014   -0.0007    0.0002   -0.0012
           6   -0.0000   -0.0000    0.0000    0.0000    0.0000
           7   -0.0006    0.0016    0.0015   -0.0000    0.0018
           8   -0.0001    0.0004   -0.0003    0.0001   -0.0002
           9   -0.0000    0.0000    0.0000    0.0000    0.0000
          10   -0.0000    0.0000   -0.0001   -0.0347   -0.0427
          11    0.0000    0.0000   -0.0000    0.0122    0.0097
          12   -0.0000    0.0000   -0.0000   -0.0000   -0.0000
          13    0.0001   -0.0001   -0.0001   -0.0025    0.0068
          14    0.0001   -0.0001   -0.0000   -0.0410    0.0400
          15    0.0000    0.0000    0.0000    0.0000   -0.0000
          16   -0.0044   -0.0100    0.0079    0.0000   -0.0001
          17   -0.0163   -0.0298    0.0220    0.0000    0.0002
          18   -0.0000   -0.0000    0.0000   -0.0000   -0.0000
          19    0.0063   -0.0100   -0.0071    0.0000   -0.0003
          20    0.0155   -0.0297   -0.0226    0.0000   -0.0001
          21    0.0000   -0.0000   -0.0000    0.0000   -0.0000
          22   -0.0224   -0.0092   -0.0180    0.0000   -0.0000
          23   -0.0056   -0.0001   -0.0033   -0.0000    0.0001
          24   -0.0000   -0.0000   -0.0000    0.0000   -0.0000
          25   -0.0142    0.0074   -0.0121    0.0000   -0.0000
          26    0.0180   -0.0060    0.0136    0.0000   -0.0001
          27   -0.0000    0.0000   -0.0000   -0.0000    0.0000
          28   -0.0001    0.0005   -0.0008   -0.0006    0.0034
          29   -0.0002    0.0005   -0.0009    0.0011    0.0058
          30   -0.0004    0.0009   -0.0018    0.0005    0.0097
          31   -0.0001    0.0005   -0.0008   -0.0006    0.0033
          32   -0.0002    0.0005   -0.0009    0.0011    0.0058
          33    0.0004   -0.0009    0.0018   -0.0005   -0.0097
          34    0.0006    0.0000    0.0001    0.4123    0.4379
          35   -0.0002   -0.0000   -0.0000   -0.1445   -0.1507
          36   -0.0000   -0.0000    0.0000    0.0001    0.0001
          37   -0.0645    0.1131    0.0830   -0.0002    0.0001
          38   -0.1853    0.3341    0.2473   -0.0014    0.0013
          39   -0.0000    0.0001    0.0000   -0.0000    0.0000
          40    0.0001   -0.0002   -0.0002    0.0297   -0.0283
          41   -0.0008    0.0009    0.0009    0.4786   -0.4196
          42   -0.0000   -0.0000   -0.0000   -0.0001    0.0001
          43    0.2567    0.0987    0.1919   -0.0003   -0.0002
          44    0.0512    0.0160    0.0358   -0.0001   -0.0001
          45    0.0001    0.0000    0.0001   -0.0000    0.0000
          46    0.1709   -0.0712    0.1292   -0.0002   -0.0005
          47   -0.1964    0.0763   -0.1449    0.0002    0.0006
          48    0.0000   -0.0000    0.0000    0.0000   -0.0000
          49    0.0620    0.1137   -0.0832   -0.0000   -0.0001
          50    0.1882    0.3356   -0.2437   -0.0000   -0.0003
          51    0.0000    0.0000   -0.0000   -0.0000   -0.0000


           MASS-WEIGHTED COORDINATE ANALYSIS (NORMAL COORDINATES)


   Root No.       1         2         3         4         5         6         7         8

                 1 A       2 A       3 A       4 A       5 A       6 A       7 A       8 A   

                 187.8     201.5     365.2     406.9     424.1     506.8     556.2     602.6
  
           1   -0.0000    0.0001    0.0000    0.2769    0.0005    0.0000    0.2144   -0.3072
           2   -0.0001    0.0000   -0.0000   -0.1289   -0.0004    0.0000   -0.1229   -0.1801
           3   -0.3545    0.2884   -0.1351    0.0001   -0.0748    0.0062    0.0001   -0.0000
           4    0.0000    0.0001    0.0000    0.1902    0.0003    0.0001    0.0913   -0.2621
           5   -0.0001    0.0000   -0.0001    0.3636    0.0009   -0.0001   -0.0658    0.1096
           6   -0.2422   -0.3163   -0.0333   -0.0012    0.5148   -0.0717    0.0001   -0.0004
           7    0.0000    0.0001    0.0001    0.0632    0.0001   -0.0001    0.1342    0.2537
           8   -0.0001    0.0000   -0.0001    0.4091    0.0009    0.0000   -0.0355   -0.0572
           9   -0.2145   -0.3696   -0.2199   -0.0005    0.1886    0.3166    0.0000    0.0002
          10   -0.0000   -0.0001    0.0000   -0.0919   -0.0003    0.0001    0.3250   -0.0117
          11    0.0001   -0.0000    0.0001   -0.2603   -0.0006    0.0001   -0.1146   -0.1811
          12    0.3402    0.2986    0.3108   -0.0003    0.1722    0.1493    0.0000    0.0001
          13    0.0000   -0.0000    0.0001   -0.2819   -0.0006    0.0001    0.2679    0.1038
          14    0.0001   -0.0000   -0.0000    0.0683    0.0001    0.0000   -0.0420   -0.2976
          15    0.2854   -0.2329   -0.3370    0.0005   -0.2317   -0.2542    0.0001    0.0000
          16    0.0000    0.0000   -0.0000   -0.1491   -0.0003    0.0001   -0.2715   -0.2237
          17   -0.0000    0.0000   -0.0001    0.1239    0.0004   -0.0001   -0.2861    0.2669
          18    0.1383   -0.3450    0.3468    0.0005   -0.1796   -0.2581   -0.0001   -0.0000
          19    0.0000   -0.0000   -0.0001    0.1829    0.0006   -0.0001   -0.0242    0.3344
          20   -0.0000   -0.0000    0.0001    0.0159   -0.0001    0.0001    0.3937    0.0366
          21   -0.3392   -0.0006    0.3652    0.0006   -0.2529    0.2218   -0.0002    0.0002
          22    0.0000   -0.0001   -0.0001   -0.0521    0.0000   -0.0002   -0.3632    0.3737
          23    0.0001   -0.0000    0.0000   -0.2365   -0.0005    0.0000    0.1504    0.0729
          24   -0.0293    0.4063   -0.0612   -0.0007    0.2373   -0.3631    0.0000   -0.0001
          25   -0.0000   -0.0001    0.0000   -0.1208   -0.0003   -0.0000   -0.3903   -0.2195
          26    0.0000   -0.0000    0.0000   -0.2133   -0.0005   -0.0001    0.1316    0.2767
          27    0.3669    0.0958   -0.2551    0.0003   -0.0927    0.3769   -0.0001    0.0001
          28    0.0324   -0.1268    0.0439    0.1379    0.1826   -0.0232    0.0684   -0.0909
          29    0.1456   -0.0289    0.1454   -0.0865    0.1626    0.0642   -0.0408   -0.0618
          30   -0.2031    0.1603   -0.1469    0.0005   -0.2066   -0.0255   -0.0006    0.0047
          31   -0.0324    0.1269   -0.0439    0.1386   -0.1822    0.0232    0.0683   -0.0907
          32   -0.1457    0.0289   -0.1455   -0.0859   -0.1632   -0.0642   -0.0408   -0.0618
          33   -0.2029    0.1602   -0.1468    0.0003   -0.2064   -0.0255    0.0005   -0.0047
          34   -0.0000   -0.0001   -0.0000   -0.0582   -0.0002    0.0000    0.0967    0.0229
          35    0.0001   -0.0000    0.0001   -0.1658   -0.0003    0.0000   -0.0311    0.0251
          36    0.2241    0.1942    0.2578   -0.0003    0.1232    0.0790   -0.0000   -0.0000
          37   -0.0000   -0.0000   -0.0001    0.1659    0.0005   -0.0000   -0.0232    0.0796
          38    0.0000   -0.0000    0.0000   -0.0338   -0.0001    0.0000    0.1184    0.0170
          39   -0.1601    0.0263    0.2878    0.0008   -0.2829    0.0970   -0.0001    0.0001
          40    0.0000   -0.0000    0.0001   -0.2081   -0.0005    0.0001    0.0886   -0.0021
          41    0.0000   -0.0000   -0.0000    0.0278    0.0000   -0.0001   -0.0132   -0.0845
          42    0.1882   -0.1288   -0.2035    0.0004   -0.2116   -0.2935    0.0000   -0.0002
          43    0.0000   -0.0001   -0.0000   -0.0041    0.0000    0.0000   -0.0928    0.1265
          44    0.0000   -0.0000    0.0000   -0.1224   -0.0003    0.0001   -0.0256   -0.0754
          45   -0.0067    0.2710   -0.0521   -0.0005    0.1728   -0.3696    0.0001   -0.0000
          46   -0.0000   -0.0000    0.0000   -0.0759   -0.0002    0.0000   -0.0641   -0.1434
          47    0.0000   -0.0000    0.0000   -0.0971   -0.0002    0.0000    0.0825    0.0094
          48    0.2368    0.0768   -0.2055    0.0003   -0.1090    0.3409   -0.0001    0.0000
          49    0.0000    0.0000   -0.0000   -0.1556   -0.0003    0.0000   -0.0850   -0.0446
          50   -0.0000    0.0000   -0.0000    0.0738    0.0002   -0.0000   -0.0796    0.0709
          51    0.0920   -0.1548    0.2734    0.0006   -0.2503   -0.2297   -0.0000    0.0001


   Root No.       9        10        11        12        13        14        15        16

                 9 A      10 A      11 A      12 A      13 A      14 A      15 A      16 A   

                 704.5     749.6     774.4     792.7     861.1     869.5     933.3     937.0
  
           1    0.0002    0.0001   -0.0309   -0.0000    0.3521    0.0002   -0.0001   -0.2619
           2    0.0001    0.0002   -0.3547   -0.0006    0.1113    0.0002    0.0000   -0.1083
           3   -0.1045   -0.2137    0.0002   -0.1261   -0.0001    0.2559    0.3008   -0.0002
           4    0.0002    0.0001   -0.1924   -0.0003    0.0354    0.0001    0.0000   -0.0098
           5   -0.0001   -0.0000    0.0599    0.0001   -0.0894   -0.0000   -0.0001   -0.1725
           6   -0.4337    0.0173   -0.0002    0.0711    0.0002   -0.0475   -0.2449    0.0001
           7   -0.0002    0.0001   -0.1964   -0.0004   -0.1330    0.0000   -0.0000    0.0134
           8    0.0001   -0.0000    0.0596    0.0001   -0.0937   -0.0001    0.0001    0.1854
           9    0.5192    0.0656   -0.0004    0.2776    0.0000   -0.0574    0.2586   -0.0000
          10   -0.0001   -0.0003    0.4987    0.0007   -0.0383   -0.0002   -0.0000    0.1782
          11    0.0001   -0.0000   -0.1450   -0.0002    0.0543    0.0001    0.0000   -0.0864
          12    0.1278   -0.1048    0.0002   -0.1167   -0.0000   -0.0757   -0.0727    0.0002
          13   -0.0001   -0.0000    0.1882    0.0004   -0.1292   -0.0002   -0.0001   -0.1547
          14    0.0001   -0.0003    0.3544    0.0005    0.1880    0.0000    0.0001    0.3918
          15   -0.0047   -0.1812   -0.0000   -0.1477    0.0000   -0.1177   -0.3332   -0.0001
          16   -0.0000   -0.0001   -0.0207   -0.0000   -0.1823   -0.0001    0.0000    0.0219
          17   -0.0001   -0.0002    0.3447    0.0006   -0.2020   -0.0003   -0.0002   -0.3702
          18    0.1241    0.1069    0.0002   -0.0972    0.0001   -0.2738    0.1290   -0.0001
          19   -0.0001    0.0001   -0.2616   -0.0004   -0.0742   -0.0000    0.0001    0.1804
          20   -0.0001    0.0001   -0.2569   -0.0003   -0.3611   -0.0002    0.0002    0.1126
          21   -0.0897    0.0993    0.0002   -0.0701   -0.0002    0.2496   -0.0929    0.0000
          22   -0.0000    0.0000   -0.0134   -0.0000    0.4317    0.0003    0.0000    0.1172
          23   -0.0000    0.0000   -0.0448   -0.0001    0.0968    0.0001   -0.0000   -0.0014
          24    0.1467    0.1256    0.0003   -0.1607   -0.0002    0.1757   -0.1564    0.0002
          25    0.0000   -0.0002    0.0560    0.0002   -0.2951   -0.0002    0.0000   -0.0044
          26    0.0000    0.0001    0.0084   -0.0000    0.3474    0.0003   -0.0000    0.0557
          27   -0.1108    0.1123    0.0003   -0.2137    0.0001   -0.1099    0.1247   -0.0001
          28   -0.1907   -0.1098   -0.0265   -0.0195    0.1639    0.1606   -0.0326   -0.2471
          29    0.0241   -0.2025   -0.1071   -0.1439    0.0068    0.1304    0.3037    0.0683
          30    0.0475    0.1147    0.0080    0.0602   -0.0124   -0.0830   -0.0806    0.0176
          31    0.1910    0.1100   -0.0264    0.0194    0.1640   -0.1604    0.0324   -0.2470
          32   -0.0240    0.2028   -0.1075    0.1436    0.0069   -0.1304   -0.3038    0.0687
          33    0.0475    0.1144   -0.0080    0.0600    0.0124   -0.0828   -0.0804   -0.0175
          34   -0.0000   -0.0002    0.1413    0.0001   -0.0693   -0.0001   -0.0000    0.0247
          35   -0.0000    0.0001   -0.0602    0.0000   -0.1540   -0.0001   -0.0000   -0.0939
          36   -0.1170    0.5387   -0.0004    0.4637    0.0000   -0.0154   -0.0434    0.0000
          37    0.0000    0.0001   -0.1090   -0.0002   -0.1437   -0.0001    0.0001    0.2113
          38    0.0000    0.0001   -0.0644   -0.0001   -0.0654    0.0000   -0.0000   -0.0188
          39   -0.3707   -0.2764   -0.0005    0.1039    0.0005   -0.4340    0.1059    0.0001
          40    0.0000   -0.0001    0.0242    0.0001   -0.0199   -0.0001   -0.0001   -0.3641
          41   -0.0001    0.0000    0.1056    0.0002    0.0535    0.0001    0.0002    0.1378
          42   -0.3604    0.2986    0.0001    0.1344   -0.0001    0.2814    0.5069   -0.0002
          43   -0.0000    0.0001   -0.0236   -0.0002    0.1311    0.0002   -0.0001    0.0564
          44   -0.0000   -0.0000    0.0827    0.0001    0.0011    0.0000   -0.0001   -0.1004
          45    0.0591   -0.3272   -0.0009    0.4360    0.0003   -0.3290    0.2542   -0.0002
          46    0.0000   -0.0000   -0.0428   -0.0001   -0.1367   -0.0001    0.0001    0.0881
          47    0.0000    0.0000   -0.0479   -0.0000    0.0580    0.0001    0.0000    0.0921
          48   -0.1670   -0.3330   -0.0008    0.4534    0.0000    0.2058   -0.2051    0.0001
          49   -0.0000    0.0000   -0.0330   -0.0001    0.0243   -0.0001    0.0002    0.2005
          50   -0.0001   -0.0001    0.1100    0.0002   -0.0857   -0.0001   -0.0001   -0.1768
          51    0.2586   -0.2237   -0.0005    0.3029   -0.0004    0.4598   -0.1574    0.0002


   Root No.      17        18        19        20        21        22        23        24

                17 A      18 A      19 A      20 A      21 A      22 A      23 A      24 A   

                 950.0     990.1    1008.5    1042.9    1044.0    1079.4    1095.9    1110.0
  
           1    0.0000   -0.0000   -0.0000   -0.1080   -0.0005   -0.0551    0.1235   -0.0573
           2   -0.0001   -0.0000   -0.0001   -0.3452   -0.0018   -0.0210    0.1730   -0.0300
           3    0.1382    0.2650    0.1590   -0.0000    0.0004    0.0000    0.0000   -0.0000
           4    0.0000    0.0001   -0.0000   -0.0096    0.0001    0.1263   -0.0345    0.0487
           5   -0.0000   -0.0001   -0.0000    0.0039    0.0000    0.0441    0.0178    0.0687
           6   -0.0749   -0.2486   -0.1450    0.0015   -0.2761   -0.0000   -0.0000    0.0000
           7   -0.0001    0.0001   -0.0000   -0.0575   -0.0003    0.0250   -0.0101   -0.0024
           8    0.0000    0.0001   -0.0000    0.0681    0.0003    0.0512    0.0314    0.0708
           9    0.1457   -0.0855    0.0833   -0.0010    0.1613    0.0001    0.0000   -0.0001
          10    0.0000    0.0001   -0.0000   -0.1971   -0.0011    0.0449    0.0848   -0.0234
          11    0.0001   -0.0000    0.0000    0.2894    0.0015   -0.0060   -0.1093   -0.0279
          12   -0.1836   -0.2929   -0.2287   -0.0016    0.3057    0.0000    0.0001   -0.0000
          13    0.0000   -0.0001   -0.0000   -0.0389   -0.0002    0.0047    0.0871    0.0142
          14    0.0001    0.0001    0.0001    0.1727    0.0008   -0.0726   -0.2459   -0.0220
          15    0.0974    0.2663    0.0955    0.0009   -0.1942   -0.0001    0.0000    0.0000
          16    0.0001   -0.0001   -0.0000    0.0376    0.0001   -0.0826    0.0071   -0.1194
          17    0.0000   -0.0001    0.0000   -0.1168   -0.0006   -0.1862    0.1693   -0.1498
          18   -0.2739    0.1426    0.2843   -0.0007    0.1468    0.0000   -0.0000   -0.0001
          19    0.0000   -0.0001    0.0001    0.0754    0.0004   -0.0401   -0.1194    0.0123
          20   -0.0000    0.0000   -0.0000    0.0163    0.0001   -0.0377   -0.2498   -0.1895
          21   -0.3289    0.2419   -0.2233    0.0007   -0.0966   -0.0002   -0.0000    0.0001
          22   -0.0001    0.0001   -0.0002    0.0001    0.0000    0.1696   -0.2238    0.0154
          23   -0.0000   -0.0000   -0.0000   -0.0026   -0.0000    0.0668   -0.0806    0.0598
          24    0.1362   -0.2299    0.3490   -0.0005    0.0841    0.0001   -0.0001   -0.0001
          25   -0.0000    0.0000    0.0001   -0.0423   -0.0002    0.0564   -0.1182    0.0194
          26    0.0000   -0.0000    0.0001    0.0467    0.0003   -0.0836    0.2072    0.0566
          27    0.2626    0.0568   -0.3703    0.0006   -0.0995   -0.0000    0.0000    0.0001
          28    0.1740    0.2805   -0.0351    0.2114    0.4387    0.0304    0.0773   -0.0696
          29   -0.0144    0.0064    0.1633   -0.3610   -0.3480   -0.0468    0.0821    0.0148
          30   -0.0362   -0.0640   -0.0356    0.0343   -0.0041    0.0033   -0.0320    0.0092
          31   -0.1741   -0.2808    0.0351    0.2158   -0.4369    0.0303    0.0771   -0.0694
          32    0.0142   -0.0064   -0.1635   -0.3642    0.3445   -0.0468    0.0822    0.0146
          33   -0.0362   -0.0639   -0.0356   -0.0339   -0.0046   -0.0033    0.0319   -0.0092
          34   -0.0001   -0.0001   -0.0001    0.0520    0.0003    0.2030    0.1393   -0.0487
          35    0.0001    0.0001    0.0000    0.4013    0.0019    0.5443    0.2910   -0.1274
          36    0.2597    0.3258    0.2030    0.0008   -0.2000   -0.0001   -0.0001    0.0000
          37   -0.0000    0.0000    0.0002    0.1990    0.0010   -0.3046    0.3758    0.3902
          38   -0.0001    0.0001   -0.0001   -0.0547   -0.0003    0.0894   -0.2184   -0.1873
          39    0.4244   -0.2998    0.2059   -0.0005    0.0760    0.0002    0.0000   -0.0000
          40    0.0002   -0.0001    0.0001    0.2380    0.0015   -0.4785   -0.3543    0.2474
          41   -0.0000   -0.0000   -0.0000    0.0399    0.0002    0.0098   -0.0516   -0.0223
          42   -0.1527   -0.3030   -0.0881   -0.0007    0.1493    0.0000    0.0000    0.0000
          43    0.0000   -0.0001    0.0001    0.0226    0.0001    0.0066   -0.0786   -0.0753
          44    0.0000    0.0000    0.0000   -0.1135   -0.0006    0.2574    0.0285    0.4601
          45   -0.1773    0.2700   -0.3533    0.0004   -0.0609   -0.0001    0.0000    0.0001
          46    0.0000    0.0000    0.0001    0.0674    0.0004    0.0219    0.0748    0.3528
          47   -0.0001   -0.0000    0.0001    0.0835    0.0005   -0.0200    0.1632    0.3297
          48   -0.3708   -0.0703    0.3747   -0.0004    0.0714    0.0000   -0.0000   -0.0001
          49    0.0000    0.0001    0.0001    0.1685    0.0007   -0.3688    0.3904   -0.4080
          50   -0.0000   -0.0001   -0.0000   -0.0885   -0.0004    0.0586   -0.0769    0.0815
          51    0.3698   -0.1935   -0.2841    0.0007   -0.1367   -0.0001    0.0001    0.0000


   Root No.      25        26        27        28        29        30        31        32

                25 A      26 A      27 A      28 A      29 A      30 A      31 A      32 A   

                1151.7    1175.1    1190.9    1301.0    1309.6    1361.9    1383.4    1455.6
  
           1   -0.0037    0.1114    0.0820    0.2133    0.4315   -0.2369    0.1839   -0.1746
           2   -0.0233   -0.1582    0.0090   -0.2830   -0.3239   -0.1126    0.4115    0.0644
           3   -0.0000    0.0000    0.0000   -0.0000    0.0001    0.0001   -0.0001   -0.0000
           4    0.0022    0.3000   -0.0792    0.2108   -0.2987    0.0989   -0.1041    0.1729
           5   -0.0632    0.0704   -0.2701    0.0755   -0.2087    0.2125   -0.0221   -0.3603
           6    0.0000    0.0001   -0.0000    0.0000    0.0000   -0.0001   -0.0000    0.0001
           7    0.0298   -0.1666   -0.1050    0.1107    0.0709   -0.0420   -0.0149    0.3486
           8    0.0497    0.1930   -0.2436   -0.1193   -0.1854   -0.2831   -0.2742    0.0973
           9   -0.0000   -0.0001   -0.0000    0.0001   -0.0000    0.0001    0.0000    0.0001
          10   -0.0260   -0.0126    0.0182   -0.1676   -0.1087    0.0237    0.0825   -0.0289
          11    0.0266   -0.1582    0.1034    0.4111    0.0817   -0.0888   -0.3108   -0.0723
          12    0.0001   -0.0000   -0.0000   -0.0001   -0.0000   -0.0000    0.0001    0.0000
          13   -0.0094   -0.1214   -0.0052    0.1460   -0.2048   -0.0989   -0.2607   -0.1788
          14    0.0151   -0.0808    0.0649   -0.0405    0.1542    0.1701    0.1683    0.1413
          15   -0.0000    0.0000   -0.0000    0.0000   -0.0001   -0.0000   -0.0001   -0.0000
          16   -0.0384    0.0870    0.1404    0.1516   -0.1620    0.3954    0.1094    0.0608
          17   -0.0664   -0.0669    0.0654    0.0972    0.2077   -0.0178    0.0870    0.1006
          18   -0.0000    0.0000    0.0000    0.0000   -0.0000    0.0001    0.0000    0.0000
          19    0.0078   -0.1420   -0.0737    0.0745    0.1707    0.3617    0.2109    0.0264
          20    0.0857   -0.0745    0.1407   -0.1795    0.1881   -0.2032    0.0072   -0.0658
          21    0.0000   -0.0000    0.0000    0.0000    0.0000    0.0001    0.0001   -0.0000
          22    0.0547    0.0567   -0.0167   -0.1844    0.0435   -0.2155   -0.0609   -0.2121
          23    0.0465    0.0490    0.1412   -0.0095   -0.1385    0.2138    0.0590   -0.4583
          24    0.0000   -0.0000   -0.0000   -0.0001    0.0000   -0.0001   -0.0000   -0.0000
          25    0.0136   -0.0640    0.1058   -0.1786    0.0096   -0.3127   -0.1197    0.0758
          26   -0.0668    0.1281    0.0992    0.1116   -0.1097   -0.0552   -0.0824    0.4729
          27   -0.0001   -0.0000    0.0000   -0.0000   -0.0000   -0.0001   -0.0000    0.0000
          28   -0.0017   -0.2895    0.0762   -0.3250   -0.0427    0.1569   -0.1664    0.0646
          29   -0.0184    0.2097   -0.0061   -0.1061    0.2564    0.1809   -0.2593   -0.0146
          30    0.0060    0.0037   -0.0167    0.1728   -0.1088   -0.2008    0.2817   -0.0317
          31   -0.0017   -0.2892    0.0761   -0.3249   -0.0426    0.1569   -0.1666    0.0646
          32   -0.0184    0.2095   -0.0061   -0.1063    0.2565    0.1811   -0.2596   -0.0146
          33   -0.0060   -0.0037    0.0166   -0.1725    0.1087    0.2006   -0.2814    0.0316
          34   -0.0142    0.1408   -0.0054   -0.1405    0.0355    0.0237    0.1184    0.0069
          35   -0.0098    0.3679   -0.0021   -0.1330    0.2207    0.0262    0.1729    0.0379
          36   -0.0000   -0.0000    0.0000   -0.0001   -0.0000    0.0000    0.0000    0.0000
          37    0.2390    0.0711    0.4801   -0.0824   -0.0046   -0.0652    0.0098   -0.1563
          38   -0.0505   -0.0621   -0.1291   -0.0230    0.0801   -0.0050    0.0213    0.0318
          39    0.0000   -0.0000    0.0000   -0.0000    0.0000   -0.0000   -0.0000   -0.0000
          40    0.0498    0.3974   -0.2248   -0.2715    0.0305    0.0101    0.1233    0.0939
          41    0.0018   -0.0524    0.0332    0.0099    0.0422    0.0493    0.0355    0.0376
          42    0.0000    0.0001   -0.0000   -0.0000   -0.0000   -0.0000   -0.0000    0.0000
          43   -0.1010    0.0621    0.0570   -0.0725   -0.0225   -0.0735   -0.0287   -0.1160
          44    0.6329   -0.2280   -0.2802    0.0576    0.1599    0.0792    0.0672    0.0811
          45    0.0000    0.0000    0.0000   -0.0000   -0.0000    0.0000    0.0000   -0.0000
          46   -0.4845   -0.1957   -0.2107   -0.0694    0.1628   -0.0788    0.0235   -0.1249
          47   -0.4532   -0.1173   -0.1841    0.0273    0.1079    0.0044    0.0300    0.0266
          48    0.0000    0.0000   -0.0000   -0.0000   -0.0000   -0.0000   -0.0000   -0.0000
          49    0.2088   -0.0646   -0.4784   -0.0130    0.0491   -0.0394   -0.0042   -0.1438
          50   -0.0983    0.0111    0.1947    0.0537    0.0310    0.0511    0.0412    0.0915
          51    0.0000   -0.0000   -0.0001    0.0000    0.0000    0.0000    0.0000   -0.0000


   Root No.      33        34        35        36        37        38        39        40

                33 A      34 A      35 A      36 A      37 A      38 A      39 A      40 A   

                1580.7    1599.5    1767.2    1801.5    1828.9    2981.9    3050.5    3055.0
  
           1   -0.2105    0.0210    0.0157    0.0651    0.0630    0.0001   -0.1377    0.0014
           2   -0.0153   -0.0548    0.0350   -0.0138   -0.0273    0.0001   -0.1693    0.0020
           3   -0.0000   -0.0000    0.0000   -0.0000   -0.0000   -0.3041   -0.0003   -0.0000
           4    0.5329   -0.0220    0.0429   -0.1540   -0.3540    0.0000   -0.0034   -0.0006
           5    0.1215    0.2744   -0.0588    0.4856    0.2416   -0.0000   -0.0010   -0.0013
           6    0.0001    0.0000    0.0000   -0.0001   -0.0000   -0.0011   -0.0000   -0.0000
           7    0.0581    0.4137    0.0695   -0.3362    0.5116    0.0000    0.0031   -0.0004
           8   -0.4608   -0.2489   -0.0115   -0.2780    0.0239   -0.0000    0.0023   -0.0016
           9    0.0000    0.0001    0.0000   -0.0001    0.0001   -0.0007   -0.0000    0.0000
          10    0.0762   -0.0606   -0.5381   -0.0208    0.0299    0.0000    0.0049    0.0001
          11    0.0329   -0.0614   -0.4238   -0.0540    0.0223    0.0000   -0.0061    0.0000
          12    0.0000    0.0000   -0.0000    0.0000    0.0000   -0.0010    0.0000   -0.0000
          13   -0.1476   -0.1223    0.5657    0.1197   -0.1331   -0.0000    0.0015   -0.0001
          14    0.0976    0.1557    0.3466    0.0051    0.0093    0.0000   -0.0017    0.0002
          15   -0.0000   -0.0001    0.0000    0.0000   -0.0000   -0.0012   -0.0000    0.0000
          16   -0.1869   -0.3781    0.0316    0.0659    0.4238   -0.0000    0.0012    0.0122
          17    0.2191   -0.1195    0.0373   -0.2558   -0.1904   -0.0000    0.0015    0.0543
          18   -0.0001   -0.0001   -0.0000    0.0000    0.0001   -0.0002   -0.0000    0.0000
          19   -0.3209   -0.0516   -0.1222    0.0889   -0.4688   -0.0000   -0.0002    0.0233
          20    0.2390   -0.2404    0.0327    0.1930    0.0712   -0.0000    0.0002    0.0502
          21   -0.0001   -0.0000   -0.0000    0.0000   -0.0001   -0.0002    0.0000    0.0000
          22    0.2211   -0.2308    0.0475    0.0035    0.1374   -0.0000   -0.0028   -0.1909
          23   -0.1647    0.3056    0.0033   -0.4622   -0.0920   -0.0000   -0.0002   -0.0311
          24    0.0001   -0.0000    0.0000   -0.0000    0.0000    0.0000   -0.0000   -0.0001
          25   -0.1332    0.4457   -0.0728    0.2244   -0.2193   -0.0000    0.0002    0.1322
          26   -0.1078    0.0903   -0.0540    0.3556   -0.0606    0.0000   -0.0009   -0.1420
          27   -0.0000    0.0001   -0.0000    0.0001   -0.0000   -0.0003    0.0000    0.0000
          28    0.0016   -0.0215   -0.0167   -0.0171   -0.0049    0.2578    0.2373   -0.0025
          29   -0.0049    0.0208    0.0265    0.0139    0.0074    0.3195    0.2938   -0.0030
          30   -0.0228   -0.0081   -0.0045    0.0069   -0.0007    0.5329    0.5783   -0.0060
          31    0.0017   -0.0215   -0.0167   -0.0171   -0.0049   -0.2582    0.2363   -0.0025
          32   -0.0048    0.0208    0.0265    0.0139    0.0074   -0.3198    0.2924   -0.0030
          33    0.0228    0.0081    0.0045   -0.0069    0.0007    0.5349   -0.5771    0.0060
          34    0.0139   -0.0022   -0.1170    0.0023    0.0096   -0.0000   -0.0194   -0.0003
          35   -0.0147    0.0401    0.0980    0.0028    0.0031    0.0000    0.0042    0.0001
          36    0.0000    0.0000   -0.0001    0.0000    0.0000   -0.0015   -0.0000   -0.0000
          37    0.1374   -0.0001    0.0184    0.0183    0.0387    0.0000   -0.0004   -0.0642
[...]

 VIBRATION   24   24A         ATOM PAIR      ENERGY CONTRIBUTION    RADIAL
 FREQ.      1109.97         C  9 -- H 16         +18.8% ( 48.5%)      0.2%
 T-DIPOLE    0.0237         C  8 -- H 15         +17.4% ( 46.7%)      0.1%
 TRAVEL      0.1555         C  7 -- H 13         +16.3% ( 45.2%)     10.7%
 RED. MASS   0.2055         C  6 -- H 17         +15.3% ( 43.9%)     11.8%
 EFF. MASS   2.5108

 VIBRATION   25   25A         ATOM PAIR      ENERGY CONTRIBUTION    RADIAL
 FREQ.      1151.73         C  9 -- H 16         +40.5% ( 64.8%)      0.4%
 T-DIPOLE    0.0075         C  8 -- H 15         +37.7% ( 62.6%)      0.5%
 TRAVEL      0.1995         C  7 -- H 13          +6.1% ( 25.2%)      4.1%
 RED. MASS   0.3737         C  6 -- H 17          +5.4% ( 23.6%)      3.8%
 EFF. MASS   1.4706

 VIBRATION   26   26A         ATOM PAIR      ENERGY CONTRIBUTION    RADIAL
 FREQ.      1175.13         C  4 -- H 12         +10.7% ( 43.1%)      0.2%
 T-DIPOLE    0.0178         C  5 -- H 14         +10.6% ( 42.8%)      1.5%
 TRAVEL      0.1221         C  2 -- C  3         +10.3% ( 42.4%)      0.5%
 RED. MASS   0.2932         C  1 -- H 10          +8.9% ( 39.3%)      0.2%
 EFF. MASS   3.8494

 VIBRATION   27   27A         ATOM PAIR      ENERGY CONTRIBUTION    RADIAL
 FREQ.      1190.89         C  6 -- H 17         +17.3% ( 52.8%)      1.4%
 T-DIPOLE    0.0598         C  7 -- H 13         +16.3% ( 51.3%)      1.6%
 TRAVEL      0.1316         C  2 -- C  6          +8.2% ( 36.3%)      8.0%
 RED. MASS   0.3109         C  3 -- C  7          +7.6% ( 35.1%)      8.3%
 EFF. MASS   3.2706

 VIBRATION   28   28A         ATOM PAIR      ENERGY CONTRIBUTION    RADIAL
 FREQ.      1301.03         C  1 -- C  4         +16.3% ( 57.8%)     92.4%
 T-DIPOLE    0.1191         C  1 -- H 10          +9.1% ( 43.4%)      0.1%
 TRAVEL      0.0834         C  1 -- H 11          +9.1% ( 43.4%)      0.1%
 RED. MASS   0.8186         C  3 -- C  4          +8.9% ( 42.8%)     26.4%
 EFF. MASS   7.4473

 VIBRATION   29   29A         ATOM PAIR      ENERGY CONTRIBUTION    RADIAL
 FREQ.      1309.63         C  1 -- C  2         +16.6% ( 61.5%)     97.6%
 T-DIPOLE    0.3349         C  1 -- H 10         +11.8% ( 51.8%)      0.0%
 TRAVEL      0.0766         C  1 -- H 11         +11.8% ( 51.8%)      0.0%
 RED. MASS   1.4361         C  1 -- C  4         +10.4% ( 48.8%)     58.1%
 EFF. MASS   8.7743

 VIBRATION   30   30A         ATOM PAIR      ENERGY CONTRIBUTION    RADIAL
 FREQ.      1361.89         C  7 -- C  8         +13.5% ( 59.3%)     94.1%
 T-DIPOLE    0.1195         C  6 -- C  9         +13.4% ( 59.1%)     97.4%
 TRAVEL      0.0714         C  3 -- C  7          +8.8% ( 47.8%)    100.0%
 RED. MASS   1.0867         C  2 -- C  6          +7.3% ( 43.6%)     95.8%
 EFF. MASS   9.7026

 VIBRATION   31   31A         ATOM PAIR      ENERGY CONTRIBUTION    RADIAL
 FREQ.      1383.36         C  1 -- C  4         +14.0% ( 53.4%)     87.4%
 T-DIPOLE    0.0911         C  1 -- H 11         +13.1% ( 51.6%)      7.1%
 TRAVEL      0.0812         C  1 -- H 10         +13.1% ( 51.6%)      7.1%
 RED. MASS   0.9031         C  1 -- C  2          +8.3% ( 41.2%)     30.6%
 EFF. MASS   7.3914

 VIBRATION   32   32A         ATOM PAIR      ENERGY CONTRIBUTION    RADIAL
 FREQ.      1455.65         C  8 -- C  9         +22.3% ( 77.6%)     99.9%
 T-DIPOLE    0.4644         C  2 -- C  3         +11.0% ( 54.5%)     99.9%
 TRAVEL      0.0649         C  3 -- C  5          +7.4% ( 44.5%)     71.4%
 RED. MASS   1.9781         C  8 -- H 15          +7.4% ( 44.5%)     12.6%
 EFF. MASS  11.0018

 VIBRATION   33   33A         ATOM PAIR      ENERGY CONTRIBUTION    RADIAL
 FREQ.      1580.68         C  2 -- C  3         +17.3% ( 64.0%)     87.9%
 T-DIPOLE    0.7952         C  2 -- C  6         +13.6% ( 56.8%)     55.5%
 TRAVEL      0.0611         C  1 -- C  2         +11.5% ( 52.1%)     96.7%
 RED. MASS   2.1379         C  3 -- C  7         +11.5% ( 52.1%)      8.0%
 EFF. MASS  11.4309

 VIBRATION   34   34A         ATOM PAIR      ENERGY CONTRIBUTION    RADIAL
 FREQ.      1599.50         C  6 -- C  9         +15.4% ( 60.8%)     99.9%
 T-DIPOLE    0.3094         C  2 -- C  3         +11.0% ( 51.3%)     27.2%
 TRAVEL      0.0606         C  3 -- C  5         +10.4% ( 49.9%)    100.0%
 RED. MASS   1.8548         C  8 -- C  9         +10.1% ( 49.2%)      0.0%
 EFF. MASS  11.4815

 VIBRATION   35   35A         ATOM PAIR      ENERGY CONTRIBUTION    RADIAL
 FREQ.      1767.18         C  4 -- C  5         +39.1% ( 99.0%)    100.0%
 T-DIPOLE    0.3229         C  3 -- C  4         +12.4% ( 55.7%)     63.1%
 TRAVEL      0.0566         C  1 -- C  4         +12.2% ( 55.3%)     20.4%
 RED. MASS   4.9773         C  4 -- H 12         +11.4% ( 53.4%)     11.6%
 EFF. MASS  11.9183         C  3 -- C  5         +11.2% ( 53.0%)      8.6%
                            C  5 -- H 14         +10.6% ( 51.5%)     14.1%

 VIBRATION   36   36A         ATOM PAIR      ENERGY CONTRIBUTION    RADIAL
 FREQ.      1801.47         C  2 -- C  3         +15.7% ( 57.1%)     99.1%
 T-DIPOLE    0.0727         C  8 -- C  9         +14.1% ( 54.3%)     99.6%
 TRAVEL      0.0562         C  2 -- C  6         +13.0% ( 52.0%)     83.6%
 RED. MASS   2.2535         C  3 -- C  7          +8.5% ( 42.2%)     65.6%
 EFF. MASS  11.8715

 VIBRATION   37   37A         ATOM PAIR      ENERGY CONTRIBUTION    RADIAL
 FREQ.      1828.88         C  3 -- C  7         +18.5% ( 63.8%)     93.5%
 T-DIPOLE    0.1871         C  2 -- C  6         +14.7% ( 56.9%)     87.7%
 TRAVEL      0.0556         C  2 -- C  3         +13.8% ( 55.2%)      0.7%
 RED. MASS   2.4438         C  3 -- C  5          +8.9% ( 44.1%)     61.4%
 EFF. MASS  11.9139

 VIBRATION   38   38A         ATOM PAIR      ENERGY CONTRIBUTION    RADIAL
 FREQ.      2981.89         C  1 -- H 11         +49.0% ( 72.6%)     96.8%
 T-DIPOLE    0.1336         C  1 -- H 10         +48.8% ( 72.4%)     96.8%
 TRAVEL      0.1214         C  1 -- C  4          +1.1% ( 10.8%)      0.0%
 RED. MASS   0.5177         C  1 -- C  2          +1.1% ( 10.8%)      0.0%
 EFF. MASS   1.5350

 VIBRATION   39   39A         ATOM PAIR      ENERGY CONTRIBUTION    RADIAL
 FREQ.      3050.50         C  1 -- H 10         +49.4% ( 69.4%)     97.4%
 T-DIPOLE    0.2426         C  1 -- H 11         +49.1% ( 69.2%)     97.3%
 TRAVEL      0.1311         C  1 -- C  2          +0.7% (  8.4%)     38.9%
 RED. MASS   0.4834         C  1 -- C  4          +0.7% (  8.4%)     34.7%
 EFF. MASS   1.2866

 VIBRATION   40   40A         ATOM PAIR      ENERGY CONTRIBUTION    RADIAL
 FREQ.      3055.02         C  9 -- H 16         +45.0% ( 68.2%)    100.0%
 T-DIPOLE    0.0912         C  8 -- H 15         +44.7% ( 68.0%)    100.0%
 TRAVEL      0.1216         C  6 -- H 17          +3.8% ( 19.8%)     99.8%
 RED. MASS   0.3986         C  7 -- H 13          +3.8% ( 19.7%)     99.8%
 EFF. MASS   1.4937

 VIBRATION   41   41A         ATOM PAIR      ENERGY CONTRIBUTION    RADIAL
 FREQ.      3064.80         C  8 -- H 15         +31.0% ( 56.6%)    100.0%
 T-DIPOLE    0.3307         C  9 -- H 16         +30.7% ( 56.3%)    100.0%
 TRAVEL      0.1208         C  6 -- H 17         +17.8% ( 42.9%)    100.0%
 RED. MASS   0.2503         C  7 -- H 13         +17.5% ( 42.5%)    100.0%
 EFF. MASS   1.5086

 VIBRATION   42   42A         ATOM PAIR      ENERGY CONTRIBUTION    RADIAL
 FREQ.      3076.28         C  6 -- H 17         +44.9% ( 68.0%)    100.0%
 T-DIPOLE    0.5374         C  7 -- H 13         +44.4% ( 67.7%)    100.0%
 TRAVEL      0.1193         C  9 -- H 16          +3.9% ( 20.0%)     99.7%
 RED. MASS   0.3987         C  8 -- H 15          +3.6% ( 19.2%)     99.6%
 EFF. MASS   1.5397

 VIBRATION   43   43A         ATOM PAIR      ENERGY CONTRIBUTION    RADIAL
 FREQ.      3081.61         C  7 -- H 13         +31.3% ( 56.7%)    100.0%
 T-DIPOLE    0.3011         C  6 -- H 17         +30.5% ( 56.0%)    100.0%
 TRAVEL      0.1175         C  8 -- H 15         +17.5% ( 42.4%)    100.0%
 RED. MASS   0.2507         C  9 -- H 16         +17.3% ( 42.2%)    100.0%
 EFF. MASS   1.5839

 VIBRATION   44   44A         ATOM PAIR      ENERGY CONTRIBUTION    RADIAL
 FREQ.      3128.30         C  5 -- H 14         +52.9% ( 74.1%)    100.0%
 T-DIPOLE    0.3864         C  4 -- H 12         +43.8% ( 67.5%)    100.0%
 TRAVEL      0.1209         C  4 -- C  5          +1.2% ( 11.1%)      0.2%
 RED. MASS   0.4691         C  3 -- C  5          +0.8% (  9.4%)     30.7%
 EFF. MASS   1.4748

 VIBRATION   45   45A         ATOM PAIR      ENERGY CONTRIBUTION    RADIAL
 FREQ.      3145.55         C  4 -- H 12         +51.8% ( 73.7%)     99.9%
 T-DIPOLE    0.4293         C  5 -- H 14         +42.8% ( 67.0%)     99.9%
 TRAVEL      0.1140         C  4 -- C  5          +2.4% ( 15.9%)     99.8%
 RED. MASS   0.4709         C  3 -- C  4          +1.0% ( 10.3%)     97.4%
 EFF. MASS   1.6489

      SYMMETRY NUMBER FOR POINT-GROUP C1  =  1


          SYSTEM IS A GROUND STATE



 InChI=1S/C9H8/c1-2-5-9-7-3-6-8(9)4-1/h1-6H,7H2


          MOLECULE IS NOT LINEAR

          THERE ARE 45 GENUINE VIBRATIONS IN THIS SYSTEM
          THIS THERMODYNAMICS CALCULATION IS LIMITED TO
          MOLECULES WHICH HAVE NO INTERNAL ROTATIONS




                    CALCULATED THERMODYNAMIC PROPERTIES
                                          *
   TEMP. (K)   PARTITION FUNCTION   H.O.F.    ENTHALPY  HEAT CAPACITY ENTROPY
                                   KCAL/MOL   CAL/MOLE    CAL/K/MOL  CAL/K/MOL


 298.00  VIB.     0.6824D+01                  2252.2375    20.5805    11.3740
         ROT.     0.3330D+06                   888.2813     2.9808    28.2499
         INT.     0.2272D+07                  3140.5188    23.5613    39.6239
         TRA.     0.1210D+28                  1480.4688     4.9680    40.1623
         TOT.                       40.554    4620.9876    28.5293    79.7863

 200.00  VIB.     0.2302D+01                   735.4203    10.5923     5.3343
         ROT.     0.1831D+06                   596.1620     2.9808    27.0612
         INT.     0.4215D+06                  1331.5822    13.5731    32.3956
         TRA.     0.6655D+27                   993.6033     4.9680    38.1812
         TOT.                       38.258    2325.1855    18.5411    70.5768

 210.00  VIB.     0.2531D+01                   846.0259    11.5334     5.8738
         ROT.     0.1970D+06                   625.9700     2.9808    27.2067
         INT.     0.4985D+06                  1471.9959    14.5142    33.0805
         TRA.     0.7160D+27                  1043.2834     4.9680    38.4236
         TOT.                       38.448    2515.2793    19.4822    71.5041

 220.00  VIB.     0.2793D+01                   966.1749    12.5005     6.4325
         ROT.     0.2112D+06                   655.7781     2.9808    27.3453
         INT.     0.5899D+06                  1621.9531    15.4813    33.7779
         TRA.     0.7678D+27                  1092.9636     4.9680    38.6547
         TOT.                       38.648    2714.9166    20.4493    72.4326

 230.00  VIB.     0.3094D+01                  1096.1125    13.4906     7.0100
         ROT.     0.2258D+06                   685.5862     2.9808    27.4778
         INT.     0.6985D+06                  1781.6987    16.4714    34.4878
         TRA.     0.8207D+27                  1142.6437     4.9680    38.8756
         TOT.                       38.857    2924.3425    21.4394    73.3634

 240.00  VIB.     0.3440D+01                  1236.0527    14.5005     7.6054
         ROT.     0.2407D+06                   715.3943     2.9808    27.6047
         INT.     0.8279D+06                  1951.4470    17.4813    35.2101
         TRA.     0.8748D+27                  1192.3239     4.9680    39.0870
         TOT.                       39.077    3143.7709    22.4493    74.2971

 250.00  VIB.     0.3839D+01                  1386.1769    15.5268     8.2181
         ROT.     0.2559D+06                   745.2024     2.9808    27.7264
         INT.     0.9824D+06                  2131.3793    18.5076    35.9445
         TRA.     0.9301D+27                  1242.0041     4.9680    39.2898
         TOT.                       39.306    3373.3834    23.4757    75.2343

 260.00  VIB.     0.4300D+01                  1546.6333    16.5664     8.8473
         ROT.     0.2714D+06                   775.0105     2.9808    27.8433
         INT.     0.1167D+07                  2321.6438    19.5472    36.6906
         TRA.     0.9864D+27                  1291.6842     4.9680    39.4846
         TOT.                       39.546    3613.3281    24.5152    76.1752

 270.00  VIB.     0.4833D+01                  1717.5372    17.6158     9.4922
         ROT.     0.2872D+06                   804.8186     2.9808    27.9558
         INT.     0.1388D+07                  2522.3558    20.5966    37.4480
         TRA.     0.1044D+28                  1341.3644     4.9680    39.6721
         TOT.                       39.797    3863.7202    25.5646    77.1201

 280.00  VIB.     0.5451D+01                  1898.9714    18.6719    10.1519
         ROT.     0.3033D+06                   834.6267     2.9808    28.0642
         INT.     0.1653D+07                  2733.5982    21.6527    38.2161
         TRA.     0.1102D+28                  1391.0445     4.9680    39.8528
         TOT.                       40.058    4124.6427    26.6208    78.0689

 290.00  VIB.     0.6167D+01                  2090.9882    19.7318    10.8256
         ROT.     0.3197D+06                   864.4348     2.9808    28.1688
         INT.     0.1972D+07                  2955.4230    22.7126    38.9944
         TRA.     0.1162D+28                  1440.7247     4.9680    40.0272
         TOT.                       40.329    4396.1477    27.6806    79.0215

 300.00  VIB.     0.7000D+01                  2293.6106    20.7926    11.5124
         ROT.     0.3364D+06                   894.2429     2.9808    28.2699
         INT.     0.2355D+07                  3187.8535    23.7734    39.7823
         TRA.     0.1223D+28                  1490.4049     4.9680    40.1956
         TOT.                       40.611    4678.2584    28.7414    79.9778

 310.00  VIB.     0.7970D+01                  2506.8345    21.8517    12.2115
         ROT.     0.3533D+06                   924.0510     2.9808    28.3676
         INT.     0.2816D+07                  3430.8855    24.8325    40.5791
         TRA.     0.1284D+28                  1540.0850     4.9680    40.3585
         TOT.                       40.904    4970.9705    29.8005    80.9375

 320.00  VIB.     0.9102D+01                  2730.6311    22.9068    12.9219
         ROT.     0.3705D+06                   953.8591     2.9808    28.4622
         INT.     0.3373D+07                  3684.4902    25.8876    41.3841
         TRA.     0.1347D+28                  1589.7652     4.9680    40.5162
         TOT.                       41.207    5274.2554    30.8556    81.9003

 330.00  VIB.     0.1042D+02                  2964.9489    23.9556    13.6428
         ROT.     0.3881D+06                   983.6672     2.9808    28.5540
         INT.     0.4045D+07                  3948.6161    26.9364    42.1968
         TRA.     0.1410D+28                  1639.4454     4.9680    40.6691
         TOT.                       41.521    5588.0615    31.9044    82.8659

 340.00  VIB.     0.1197D+02                  3209.7163    24.9964    14.3735
         ROT.     0.4058D+06                  1013.4753     2.9808    28.6429
         INT.     0.4858D+07                  4223.1916    27.9772    43.0164
         TRA.     0.1475D+28                  1689.1255     4.9680    40.8174
         TOT.                       41.845    5912.3171    32.9452    83.8338

 350.00  VIB.     0.1378D+02                  3464.8434    26.0273    15.1130
         ROT.     0.4239D+06                  1043.2834     2.9808    28.7294
         INT.     0.5842D+07                  4508.1268    29.0081    43.8423
         TRA.     0.1541D+28                  1738.8057     4.9680    40.9614
         TOT.                       42.180    6246.9325    33.9761    84.8037

 360.00  VIB.     0.1591D+02                  3730.2247    27.0470    15.8605
         ROT.     0.4422D+06                  1073.0915     2.9808    28.8133
         INT.     0.7036D+07                  4803.3162    30.0278    44.6738
         TRA.     0.1607D+28                  1788.4859     4.9680    41.1014
         TOT.                       42.525    6591.8021    34.9958    85.7752

 370.00  VIB.     0.1841D+02                  4005.7409    28.0541    16.6153
         ROT.     0.4607D+06                  1102.8996     2.9808    28.8950
         INT.     0.8484D+07                  5108.6405    31.0349    45.5103
         TRA.     0.1675D+28                  1838.1660     4.9680    41.2375
         TOT.                       42.880    6946.8065    36.0029    86.7478

 380.00  VIB.     0.2136D+02                  4291.2610    29.0476    17.3767
         ROT.     0.4795D+06                  1132.7077     2.9808    28.9745
         INT.     0.1024D+08                  5423.9687    32.0284    46.3512
         TRA.     0.1743D+28                  1887.8462     4.9680    41.3700
         TOT.                       43.245    7311.8149    36.9964    87.7211

 390.00  VIB.     0.2483D+02                  4586.6441    30.0265    18.1439
         ROT.     0.4986D+06                  1162.5158     2.9808    29.0519
         INT.     0.1238D+08                  5749.1599    33.0074    47.1958
         TRA.     0.1812D+28                  1937.5263     4.9680    41.4990
         TOT.                       43.620    7686.6862    37.9754    88.6948

 400.00  VIB.     0.2893D+02                  4891.7411    30.9902    18.9163
         ROT.     0.5179D+06                  1192.3239     2.9808    29.1274
         INT.     0.1498D+08                  6084.0650    33.9711    48.0437
         TRA.     0.1882D+28                  1987.2065     4.9680    41.6248
         TOT.                       44.004    8071.2715    38.9391    89.6685

   *: NOTE: HEATS OF FORMATION ARE RELATIVE TO THE
            ELEMENTS IN THEIR STANDARD STATE AT 298K
              (=  Standard Enthalpy of Formation).

            Hvib:  Zero-point energy is not included.
                   frequencies of less than zero cm-1 are not included.
            Hrot = (3/2)RT
            Htra = (3/2)RT + pV = (5/2)RT

            Heat capacity is Cp, not Cv

          For more information, see: HTTP://OpenMOPAC.net/Manual/thermochemistry.html


           FORCE CONSTANT IN CARTESIAN COORDINATES (Millidynes/A)

    ATOM   CHEMICAL       X               Y               Z
   NUMBER   SYMBOL  FORCE CONSTANT  FORCE CONSTANT  FORCE CONSTANT

      1       C        8.668969        8.994200        7.888226
      2       C       12.447444       12.948437        2.659636
      3       C       15.041176       11.058471        2.497674
      4       C       14.772691        9.638570        2.357280
      5       C       11.754925       13.553098        2.223660
      6       C       11.929769       12.486343        2.330800
      7       C       12.217668       12.170660        2.328494
      8       C       11.995218       12.012478        2.348062
      9       C       12.071330       12.110110        2.348738
     10       H        1.213816        1.522400        3.554495
     11       H        1.212580        1.519357        3.558040
     12       H        4.895916        1.209235        0.340776
     13       H        1.193307        4.729356        0.355886
     14       H        0.711663        5.373184        0.350731
     15       H        5.002526        0.912458        0.352990
     16       H        2.698760        3.216595        0.351181
     17       H        1.188121        4.735356        0.355957

 **********************
 *                    *
 * JOB ENDED NORMALLY *
 *                    *
 **********************



 TOTAL JOB TIME:             1.04 SECONDS

 == MOPAC DONE ==
