 *******************************************************************************
 ** Site#: 14399        For non-commercial use only    Version 18.184L 64BITS **
 *******************************************************************************
 ** Cite this program as: MOPAC2016, Version: 18.184L, James J. P. Stewart,   **
 ** Stewart Computational Chemistry, web: HTTP://OpenMOPAC.net. Days left:  18**
 *******************************************************************************
 **                                                                           **
 **                                MOPAC2016                                  **
 **                                                                           **
 *******************************************************************************

                              PM3 CALCULATION RESULTS

 *******************************************************************************
 *  CALCULATION DONE:                                Sat Jun 15 10:17:20 2019  *
 *  PM3        - The PM3 Hamiltonian to be used
 *  PRECISE    - CRITERIA TO BE INCREASED BY 100 TIMES
 *  NOSYM      - POINT-GROUP SYMMETRY SET TO C1
 *  THREADS=1  - MULTI-THREADING NOT USED
 *  T=         - A TIME OF 172800.0 SECONDS REQUESTED
 *  DUMP=N     - RESTART FILE WRITTEN EVERY  7200.000 SECONDS
 *******************************************************************************
pm3  precise nosym THREADS=1
 InChI=1S/C10H12/c1-2-6-10-7-3-5-9(10)8(10)4-1/h1-3,5,8-9H,4,6-7H2

   ATOM   CHEMICAL          X               Y               Z
  NUMBER   SYMBOL      (ANGSTROMS)     (ANGSTROMS)     (ANGSTROMS)
 
     1       C          0.31220000  *   0.33970000  *  -0.37480000  *
     2       C          0.05600000  *  -1.14830000  *  -0.16490000  *
     3       C          0.58500000  *  -0.29770000  *   0.99170000  *
     4       C          1.67370000  *   0.76760000  *  -0.93960000  *
     5       C         -0.85000000  *   1.34290000  *  -0.39780000  *
     6       C         -1.38770000  *  -1.62280000  *   0.03790000  *
     7       C          2.06650000  *  -0.22290000  *   1.13740000  *
     8       C          2.65310000  *   0.36370000  *   0.10560000  *
     9       C         -2.20230000  *   0.75890000  *  -0.09600000  *
    10       C         -2.43820000  *  -0.54530000  *   0.09620000  *
    11       H          0.79950000  *  -1.86310000  *  -0.58070000  *
    12       H         -0.08360000  *   0.08080000  *   1.79550000  *
    13       H          1.88460000  *   0.24150000  *  -1.89460000  *
    14       H          1.71960000  *   1.86720000  *  -1.08980000  *
    15       H         -0.64030000  *   2.15230000  *   0.33370000  *
    16       H         -0.89730000  *   1.80530000  *  -1.40620000  *
    17       H         -1.43640000  *  -2.21650000  *   0.97540000  *
    18       H         -1.64640000  *  -2.30440000  *  -0.79910000  *
    19       H          2.60920000  *  -0.60030000  *   1.99730000  *
    20       H          3.72490000  *   0.51380000  *   0.02990000  *
    21       H         -3.04240000  *   1.44540000  *  -0.04840000  *
    22       H         -3.45990000  *  -0.85770000  *   0.29130000  *
 


          CARTESIAN COORDINATES 

    NO.       ATOM           X           Y           Z

     1         C          0.3122      0.3397     -0.3748
     2         C          0.0560     -1.1483     -0.1649
     3         C          0.5850     -0.2977      0.9917
     4         C          1.6737      0.7676     -0.9396
     5         C         -0.8500      1.3429     -0.3978
     6         C         -1.3877     -1.6228      0.0379
     7         C          2.0665     -0.2229      1.1374
     8         C          2.6531      0.3637      0.1056
     9         C         -2.2023      0.7589     -0.0960
    10         C         -2.4382     -0.5453      0.0962
    11         H          0.7995     -1.8631     -0.5807
    12         H         -0.0836      0.0808      1.7955
    13         H          1.8846      0.2415     -1.8946
    14         H          1.7196      1.8672     -1.0898
    15         H         -0.6403      2.1523      0.3337
    16         H         -0.8973      1.8053     -1.4062
    17         H         -1.4364     -2.2165      0.9754
    18         H         -1.6464     -2.3044     -0.7991
    19         H          2.6092     -0.6003      1.9973
    20         H          3.7249      0.5138      0.0299
    21         H         -3.0424      1.4454     -0.0484
    22         H         -3.4599     -0.8577      0.2913

  H: (PM3): J. J. P. STEWART, J. COMP. CHEM. 10, 209 (1989).
  C: (PM3): J. J. P. STEWART, J. COMP. CHEM. 10, 209 (1989).

           Empirical Formula: C10 H12  =    22 atoms



      MOLECULAR POINT GROUP   :   C1  


      RHF CALCULATION, NO. OF DOUBLY OCCUPIED LEVELS = 26


          Geometry optimization using EF

          DIAGONAL MATRIX USED AS START HESSIAN

 CYCLE:     1 TIME:   0.008 TIME LEFT:  2.00D  GRAD.:    89.579 HEAT:  55.42370
 CYCLE:     2 TIME:   0.012 TIME LEFT:  2.00D  GRAD.:    69.725 HEAT:  53.40054
 CYCLE:     3 TIME:   0.004 TIME LEFT:  2.00D  GRAD.:    77.730 HEAT:  52.29959
 CYCLE:     4 TIME:   0.004 TIME LEFT:  2.00D  GRAD.:    71.435 HEAT:  51.15232
 CYCLE:     5 TIME:   0.008 TIME LEFT:  2.00D  GRAD.:    86.725 HEAT:  50.77565
 CYCLE:     6 TIME:   0.004 TIME LEFT:  2.00D  GRAD.:    58.995 HEAT:  49.71605
 CYCLE:     7 TIME:   0.008 TIME LEFT:  2.00D  GRAD.:    30.840 HEAT:  48.83611
 CYCLE:     8 TIME:   0.008 TIME LEFT:  2.00D  GRAD.:    23.337 HEAT:  48.52764
 CYCLE:     9 TIME:   0.004 TIME LEFT:  2.00D  GRAD.:    35.564 HEAT:  48.38561
 CYCLE:    10 TIME:   0.008 TIME LEFT:  2.00D  GRAD.:    21.384 HEAT:  47.99996
 CYCLE:    11 TIME:   0.004 TIME LEFT:  2.00D  GRAD.:    33.556 HEAT:  47.96274
 CYCLE:    12 TIME:   0.004 TIME LEFT:  2.00D  GRAD.:    30.552 HEAT:  47.68625
 CYCLE:    13 TIME:   0.004 TIME LEFT:  2.00D  GRAD.:    34.456 HEAT:  47.67133
 CYCLE:    14 TIME:   0.004 TIME LEFT:  2.00D  GRAD.:    27.913 HEAT:  47.47577
 CYCLE:    15 TIME:   0.012 TIME LEFT:  2.00D  GRAD.:    13.831 HEAT:  47.26861
 CYCLE:    16 TIME:   0.008 TIME LEFT:  2.00D  GRAD.:    11.257 HEAT:  47.21121
 CYCLE:    17 TIME:   0.004 TIME LEFT:  2.00D  GRAD.:    15.306 HEAT:  47.17613
 CYCLE:    18 TIME:   0.004 TIME LEFT:  2.00D  GRAD.:    10.585 HEAT:  47.09216
 CYCLE:    19 TIME:   0.008 TIME LEFT:  2.00D  GRAD.:    15.584 HEAT:  47.03212
 CYCLE:    20 TIME:   0.004 TIME LEFT:  2.00D  GRAD.:     8.014 HEAT:  46.92196
 CYCLE:    21 TIME:   0.004 TIME LEFT:  2.00D  GRAD.:    13.270 HEAT:  46.90755
 CYCLE:    22 TIME:   0.004 TIME LEFT:  2.00D  GRAD.:     6.149 HEAT:  46.85282
 CYCLE:    23 TIME:   0.008 TIME LEFT:  2.00D  GRAD.:     4.969 HEAT:  46.84112
 CYCLE:    24 TIME:   0.004 TIME LEFT:  2.00D  GRAD.:     4.116 HEAT:  46.83062
 CYCLE:    25 TIME:   0.008 TIME LEFT:  2.00D  GRAD.:     4.928 HEAT:  46.81889
 CYCLE:    26 TIME:   0.004 TIME LEFT:  2.00D  GRAD.:     2.953 HEAT:  46.80763
 CYCLE:    27 TIME:   0.004 TIME LEFT:  2.00D  GRAD.:     5.935 HEAT:  46.80622
 CYCLE:    28 TIME:   0.004 TIME LEFT:  2.00D  GRAD.:     2.970 HEAT:  46.79454
 CYCLE:    29 TIME:   0.008 TIME LEFT:  2.00D  GRAD.:     2.349 HEAT:  46.78960
 CYCLE:    30 TIME:   0.004 TIME LEFT:  2.00D  GRAD.:     1.725 HEAT:  46.78417
 CYCLE:    31 TIME:   0.004 TIME LEFT:  2.00D  GRAD.:     1.808 HEAT:  46.77927
 CYCLE:    32 TIME:   0.004 TIME LEFT:  2.00D  GRAD.:     1.715 HEAT:  46.77676
 CYCLE:    33 TIME:   0.004 TIME LEFT:  2.00D  GRAD.:     1.456 HEAT:  46.77325
 CYCLE:    34 TIME:   0.008 TIME LEFT:  2.00D  GRAD.:     0.937 HEAT:  46.77006
 CYCLE:    35 TIME:   0.004 TIME LEFT:  2.00D  GRAD.:     0.910 HEAT:  46.76938
 CYCLE:    36 TIME:   0.004 TIME LEFT:  2.00D  GRAD.:     0.599 HEAT:  46.76871
 CYCLE:    37 TIME:   0.004 TIME LEFT:  2.00D  GRAD.:     0.628 HEAT:  46.76785
 CYCLE:    38 TIME:   0.004 TIME LEFT:  2.00D  GRAD.:     0.610 HEAT:  46.76732
 CYCLE:    39 TIME:   0.008 TIME LEFT:  2.00D  GRAD.:     0.618 HEAT:  46.76655
 CYCLE:    40 TIME:   0.004 TIME LEFT:  2.00D  GRAD.:     0.608 HEAT:  46.76579
 CYCLE:    41 TIME:   0.004 TIME LEFT:  2.00D  GRAD.:     0.414 HEAT:  46.76530
 CYCLE:    42 TIME:   0.004 TIME LEFT:  2.00D  GRAD.:     0.335 HEAT:  46.76506
 CYCLE:    43 TIME:   0.004 TIME LEFT:  2.00D  GRAD.:     0.337 HEAT:  46.76493
 CYCLE:    44 TIME:   0.008 TIME LEFT:  2.00D  GRAD.:     0.227 HEAT:  46.76480
 CYCLE:    45 TIME:   0.004 TIME LEFT:  2.00D  GRAD.:     0.156 HEAT:  46.76468
 CYCLE:    46 TIME:   0.004 TIME LEFT:  2.00D  GRAD.:     0.147 HEAT:  46.76463
 CYCLE:    47 TIME:   0.004 TIME LEFT:  2.00D  GRAD.:     0.141 HEAT:  46.76458
 CYCLE:    48 TIME:   0.004 TIME LEFT:  2.00D  GRAD.:     0.144 HEAT:  46.76451
 CYCLE:    49 TIME:   0.004 TIME LEFT:  2.00D  GRAD.:     0.138 HEAT:  46.76447
 CYCLE:    50 TIME:   0.008 TIME LEFT:  2.00D  GRAD.:     0.120 HEAT:  46.76442
 CYCLE:    51 TIME:   0.004 TIME LEFT:  2.00D  GRAD.:     0.162 HEAT:  46.76435
 CYCLE:    52 TIME:   0.004 TIME LEFT:  2.00D  GRAD.:     0.183 HEAT:  46.76429
 CYCLE:    53 TIME:   0.004 TIME LEFT:  2.00D  GRAD.:     0.205 HEAT:  46.76417
 CYCLE:    54 TIME:   0.008 TIME LEFT:  2.00D  GRAD.:     0.226 HEAT:  46.76404
 CYCLE:    55 TIME:   0.004 TIME LEFT:  2.00D  GRAD.:     0.241 HEAT:  46.76390
 CYCLE:    56 TIME:   0.004 TIME LEFT:  2.00D  GRAD.:     0.234 HEAT:  46.76376
 CYCLE:    57 TIME:   0.004 TIME LEFT:  2.00D  GRAD.:     0.232 HEAT:  46.76358
 CYCLE:    58 TIME:   0.004 TIME LEFT:  2.00D  GRAD.:     0.218 HEAT:  46.76347
 CYCLE:    59 TIME:   0.004 TIME LEFT:  2.00D  GRAD.:     0.246 HEAT:  46.76325
 CYCLE:    60 TIME:   0.004 TIME LEFT:  2.00D  GRAD.:     0.192 HEAT:  46.76317
 CYCLE:    61 TIME:   0.008 TIME LEFT:  2.00D  GRAD.:     0.172 HEAT:  46.76307
 CYCLE:    62 TIME:   0.004 TIME LEFT:  2.00D  GRAD.:     0.104 HEAT:  46.76304
 CYCLE:    63 TIME:   0.004 TIME LEFT:  2.00D  GRAD.:     0.071 HEAT:  46.76302
 CYCLE:    64 TIME:   0.004 TIME LEFT:  2.00D  GRAD.:     0.056 HEAT:  46.76300
 CYCLE:    65 TIME:   0.008 TIME LEFT:  2.00D  GRAD.:     0.120 HEAT:  46.76301
 CYCLE:    66 TIME:   0.004 TIME LEFT:  2.00D  GRAD.:     0.028 HEAT:  46.76299

     GRADIENT =  0.02760  IS LESS THAN CUTOFF =  0.05000



 -------------------------------------------------------------------------------
 pm3  precise nosym THREADS=1
 InChI=1S/C10H12/c1-2-6-10-7-3-5-9(10)8(10)4-1/h1-3,5,8-9H,4,6-7H2



     GEOMETRY OPTIMISED USING EIGENVECTOR FOLLOWING (EF).     
     SCF FIELD WAS ACHIEVED                                   


                              PM3 CALCULATION
                                                       MOPAC2016 (Version: 18.184L)
                                                       Sat Jun 15 10:17:20 2019
                                                       No. of days remaining =  18




          FINAL HEAT OF FORMATION =         46.76299 KCAL/MOL =     195.65636 KJ/MOL


          TOTAL ENERGY            =      -1368.36846 EV
          ELECTRONIC ENERGY       =      -7701.00795 EV  POINT GROUP:     C1  
          CORE-CORE REPULSION     =       6332.63949 EV
          COSMO AREA              =        171.38 SQUARE ANGSTROMS
          COSMO VOLUME            =        176.28 CUBIC ANGSTROMS

          GRADIENT NORM           =          0.02760 = 0.00588 PER ATOM
          IONIZATION POTENTIAL    =          9.485025 EV
          HOMO LUMO ENERGIES (EV) =         -9.485  0.974
          NO. OF FILLED LEVELS    =         26
          MOLECULAR WEIGHT        =        132.2048

          MOLECULAR DIMENSIONS (Angstroms)

            Atom       Atom       Distance
            H    22    H    20     7.27319
            H    16    H    19     4.75557
            H    15    H    18     3.99301


          SCF CALCULATIONS        =         74
 
          WALL-CLOCK TIME         =          0.348 SECONDS
          COMPUTATION TIME        =          0.323 SECONDS




   ATOM   CHEMICAL          X               Y               Z
  NUMBER   SYMBOL      (ANGSTROMS)     (ANGSTROMS)     (ANGSTROMS)
 
     1       C          0.28406453  *   0.38796263  *  -0.27510776  *
     2       C          0.04453382  *  -1.09142567  *  -0.09111552  *
     3       C          0.61510052  *  -0.28167956  *   1.05351176  *
     4       C          1.61544339  *   0.78305363  *  -0.91066203  *
     5       C         -0.86145577  *   1.33222080  *  -0.47150509  *
     6       C         -1.36700902  *  -1.60113864  *   0.00921655  *
     7       C          2.09874915  *  -0.26362129  *   1.15662411  *
     8       C          2.64773563  *   0.32901262  *   0.08399319  *
     9       C         -2.18574975  *   0.75292241  *  -0.12897358  *
    10       C         -2.40749857  *  -0.54380733  *   0.08716265  *
    11       H          0.71414395  *  -1.80150717  *  -0.61225955  *
    12       H          0.04083678  *  -0.13243790  *   1.97834323  *
    13       H          1.76077330  *   0.29631508  *  -1.89228660  *
    14       H          1.67895294  *   1.87357431  *  -1.08097001  *
    15       H         -0.68934843  *   2.24523999  *   0.13359515  *
    16       H         -0.88510143  *   1.66319078  *  -1.53006906  *
    17       H         -1.44908254  *  -2.26327383  *   0.89474791  *
    18       H         -1.59352838  *  -2.23606376  *  -0.87126342  *
    19       H          2.61949200  *  -0.67703839  *   2.01874025  *
    20       H          3.70992558  *   0.48811703  *  -0.09747202  *
    21       H         -3.01190147  *   1.47125936  *  -0.06932269  *
    22       H         -3.41756282  *  -0.89677994  *   0.32708981  *

                             CARTESIAN COORDINATES

   1    C        0.284064529     0.387962628    -0.275107764
   2    C        0.044533823    -1.091425674    -0.091115521
   3    C        0.615100520    -0.281679564     1.053511758
   4    C        1.615443393     0.783053635    -0.910662032
   5    C       -0.861455773     1.332220798    -0.471505091
   6    C       -1.367009025    -1.601138636     0.009216546
   7    C        2.098749153    -0.263621290     1.156624105
   8    C        2.647735630     0.329012618     0.083993195
   9    C       -2.185749752     0.752922415    -0.128973579
  10    C       -2.407498567    -0.543807331     0.087162649
  11    H        0.714143948    -1.801507170    -0.612259552
  12    H        0.040836778    -0.132437902     1.978343228
  13    H        1.760773296     0.296315080    -1.892286602
  14    H        1.678952943     1.873574313    -1.080970007
  15    H       -0.689348434     2.245239994     0.133595152
  16    H       -0.885101434     1.663190778    -1.530069062
  17    H       -1.449082539    -2.263273834     0.894747907
  18    H       -1.593528383    -2.236063762    -0.871263423
  19    H        2.619491998    -0.677038386     2.018740249
  20    H        3.709925580     0.488117034    -0.097472024
  21    H       -3.011901473     1.471259360    -0.069322690
  22    H       -3.417562820    -0.896779945     0.327089813


           Empirical Formula: C10 H12  =    22 atoms



      MOLECULAR POINT GROUP   :   C1  


                  EIGENVALUES  
 -43.14360 -35.71141 -31.38617 -29.09069 -27.23771 -23.62556 -21.35409 -19.77395
 -18.92907 -17.78349 -16.69669 -16.12312 -15.67597 -14.90866 -14.33322 -14.07400
 -13.79812 -13.43404 -13.32806 -13.24713 -12.60453 -11.81560 -11.54059 -10.68710
  -9.65569  -9.48503   0.97354   1.10632   2.79402   3.13530   3.17831   3.36259
   3.45581   3.62513   3.67432   3.81802   3.96264   4.03179   4.16708   4.29296
   4.31398   4.46399   4.54268   4.62995   4.75021   4.92708   5.04095   5.30910
   5.59208   5.73444   5.98848   6.02325


              NET ATOMIC CHARGES AND DIPOLE CONTRIBUTIONS

  ATOM NO.   TYPE          CHARGE      No. of ELECS.   s-Pop       p-Pop       
    1          C          -0.124618        4.1246     1.19365     2.93097
    2          C          -0.104574        4.1046     1.17943     2.92514
    3          C          -0.112055        4.1121     1.17939     2.93267
    4          C          -0.031326        4.0313     1.14860     2.88272
    5          C          -0.008558        4.0086     1.13179     2.87677
    6          C          -0.028816        4.0288     1.13716     2.89166
    7          C          -0.121210        4.1212     1.19498     2.92623
    8          C          -0.160224        4.1602     1.20638     2.95384
    9          C          -0.147413        4.1474     1.19275     2.95466
   10          C          -0.148860        4.1489     1.19298     2.95588
   11          H           0.097342        0.9027     0.90266
   12          H           0.112733        0.8873     0.88727
   13          H           0.063358        0.9366     0.93664
   14          H           0.060717        0.9393     0.93928
   15          H           0.058537        0.9415     0.94146
   16          H           0.060096        0.9399     0.93990
   17          H           0.058250        0.9418     0.94175
   18          H           0.058227        0.9418     0.94177
   19          H           0.113867        0.8861     0.88613
   20          H           0.111337        0.8887     0.88866
   21          H           0.096772        0.9032     0.90323
   22          H           0.096418        0.9036     0.90358
 DIPOLE           X         Y         Z       TOTAL
 POINT-CHG.    -0.017     0.007    -0.243     0.244
 HYBRID        -0.011     0.002     0.013     0.017
 SUM           -0.028     0.009    -0.230     0.232


          ATOMIC ORBITAL ELECTRON POPULATIONS

     Atom    s        px        py        pz   
    1  C   1.19365   0.97045   0.95342   1.00711
    2  C   1.17943   0.97412   0.93736   1.01366
    3  C   1.17939   0.94895   1.05095   0.93277
    4  C   1.14860   0.91267   1.00153   0.96852
    5  C   1.13179   0.91127   0.96093   1.00457
    6  C   1.13716   0.91978   0.96156   1.01032
    7  C   1.19498   0.94586   1.00085   0.97952
    8  C   1.20638   0.98332   1.00617   0.96435
    9  C   1.19275   0.97660   0.96394   1.01412
   10  C   1.19298   0.98534   0.95409   1.01645
   11  H   0.90266
   12  H   0.88727
   13  H   0.93664
   14  H   0.93928
   15  H   0.94146
   16  H   0.93990
   17  H   0.94175
   18  H   0.94177
   19  H   0.88613
   20  H   0.88866
   21  H   0.90323
   22  H   0.90358
 *******************************************************************************
 ** Site#: 14399        For non-commercial use only    Version 18.184L 64BITS **
 *******************************************************************************
 ** Cite this program as: MOPAC2016, Version: 18.184L, James J. P. Stewart,   **
 ** Stewart Computational Chemistry, web: HTTP://OpenMOPAC.net. Days left:  18**
 *******************************************************************************
 **                                                                           **
 **                                MOPAC2016                                  **
 **                                                                           **
 *******************************************************************************

                              PM3 CALCULATION RESULTS

 *******************************************************************************
 *  CALCULATION DONE:                                Sat Jun 15 10:17:20 2019  *
 *  PM3        - The PM3 Hamiltonian to be used
 *  OLDGEO     - PREVIOUS GEOMETRY TO BE USED
 *  PRECISE    - CRITERIA TO BE INCREASED BY 100 TIMES
 *  NOSYM      - POINT-GROUP SYMMETRY SET TO C1
 *  THREADS=1  - MULTI-THREADING NOT USED
 *  T=         - A TIME OF 172800.0 SECONDS REQUESTED
 *  DUMP=N     - RESTART FILE WRITTEN EVERY  7200.000 SECONDS
 *  THERMO     - THERMODYNAMIC QUANTITIES TO BE CALCULATED
 *******************************************************************************
oldgeo thermo nosym precise THREADS=1  pm3
 InChI=1S/C10H12/c1-2-6-10-7-3-5-9(10)8(10)4-1/h1-3,5,8-9H,4,6-7H2

   ATOM   CHEMICAL          X               Y               Z
  NUMBER   SYMBOL      (ANGSTROMS)     (ANGSTROMS)     (ANGSTROMS)
 
     1       C          0.28406453  *   0.38796263  *  -0.27510776  *
     2       C          0.04453382  *  -1.09142567  *  -0.09111552  *
     3       C          0.61510052  *  -0.28167956  *   1.05351176  *
     4       C          1.61544339  *   0.78305363  *  -0.91066203  *
     5       C         -0.86145577  *   1.33222080  *  -0.47150509  *
     6       C         -1.36700902  *  -1.60113864  *   0.00921655  *
     7       C          2.09874915  *  -0.26362129  *   1.15662411  *
     8       C          2.64773563  *   0.32901262  *   0.08399319  *
     9       C         -2.18574975  *   0.75292241  *  -0.12897358  *
    10       C         -2.40749857  *  -0.54380733  *   0.08716265  *
    11       H          0.71414395  *  -1.80150717  *  -0.61225955  *
    12       H          0.04083678  *  -0.13243790  *   1.97834323  *
    13       H          1.76077330  *   0.29631508  *  -1.89228660  *
    14       H          1.67895294  *   1.87357431  *  -1.08097001  *
    15       H         -0.68934843  *   2.24523999  *   0.13359515  *
    16       H         -0.88510143  *   1.66319078  *  -1.53006906  *
    17       H         -1.44908254  *  -2.26327383  *   0.89474791  *
    18       H         -1.59352838  *  -2.23606376  *  -0.87126342  *
    19       H          2.61949200  *  -0.67703839  *   2.01874025  *
    20       H          3.70992558  *   0.48811703  *  -0.09747202  *
    21       H         -3.01190147  *   1.47125936  *  -0.06932269  *
    22       H         -3.41756282  *  -0.89677994  *   0.32708981  *
 


          CARTESIAN COORDINATES 

    NO.       ATOM           X           Y           Z

     1         C          0.2841      0.3880     -0.2751
     2         C          0.0445     -1.0914     -0.0911
     3         C          0.6151     -0.2817      1.0535
     4         C          1.6154      0.7831     -0.9107
     5         C         -0.8615      1.3322     -0.4715
     6         C         -1.3670     -1.6011      0.0092
     7         C          2.0987     -0.2636      1.1566
     8         C          2.6477      0.3290      0.0840
     9         C         -2.1857      0.7529     -0.1290
    10         C         -2.4075     -0.5438      0.0872
    11         H          0.7141     -1.8015     -0.6123
    12         H          0.0408     -0.1324      1.9783
    13         H          1.7608      0.2963     -1.8923
    14         H          1.6790      1.8736     -1.0810
    15         H         -0.6893      2.2452      0.1336
    16         H         -0.8851      1.6632     -1.5301
    17         H         -1.4491     -2.2633      0.8947
    18         H         -1.5935     -2.2361     -0.8713
    19         H          2.6195     -0.6770      2.0187
    20         H          3.7099      0.4881     -0.0975
    21         H         -3.0119      1.4713     -0.0693
    22         H         -3.4176     -0.8968      0.3271

  H: (PM3): J. J. P. STEWART, J. COMP. CHEM. 10, 209 (1989).
  C: (PM3): J. J. P. STEWART, J. COMP. CHEM. 10, 209 (1989).

           Empirical Formula: C10 H12  =    22 atoms



      MOLECULAR POINT GROUP   :   C1  


      RHF CALCULATION, NO. OF DOUBLY OCCUPIED LEVELS = 26



          HEAT OF FORMATION =      46.762992 KCALS/MOLE


          CARTESIAN COORDINATE DERIVATIVES

   NUMBER  ATOM         X            Y            Z

     1       C     -0.000357    -0.001072     0.001508
     2       C      0.000146     0.000456    -0.002595
     3       C      0.001611     0.000696     0.000409
     4       C      0.001754     0.000667    -0.003468
     5       C     -0.003678     0.000686     0.001368
     6       C     -0.001009    -0.003367     0.003548
     7       C      0.005128     0.002203     0.004227
     8       C     -0.002727    -0.000647     0.001497
     9       C     -0.001302     0.001305    -0.003521
    10       C     -0.003097    -0.003502     0.004978
    11       H      0.009623     0.001879     0.000738
    12       H     -0.001626     0.002366     0.000095
    13       H      0.001494    -0.000712     0.001062
    14       H      0.003371    -0.001389     0.006524
    15       H     -0.000197    -0.002518     0.001511
    16       H      0.000538    -0.000181    -0.001074
    17       H     -0.010524     0.004561    -0.009299
    18       H     -0.002639    -0.000180    -0.003379
    19       H      0.005271    -0.004183    -0.002528
    20       H     -0.004208     0.001124     0.001359
    21       H     -0.001113     0.000394    -0.000412
    22       H      0.003541     0.001414    -0.002548
 


          GRADIENT NORM =   0.02642


          TIME FOR SCF CALCULATION =    0.00

          TIME FOR DERIVATIVES     =    0.00

          MOLECULAR WEIGHT =  132.20



          ROTATIONAL CONSTANTS IN CM(-1)

          A =    0.09741418   B =    0.03879834   C =    0.03233652



           PRINCIPAL MOMENTS OF INERTIA IN UNITS OF 10**(-40)*GRAM-CM**2

          A =      287.3583   B =      721.4942   C =      865.6706


          ORIENTATION OF MOLECULE IN FORCE CALCULATION

    NO.       ATOM         X         Y         Z

     1          C      -0.4746   -0.1873   -0.2518
     2          C       1.0353   -0.1873   -0.2518
     3          C       0.2909    1.1308   -0.2518
     4          C      -1.1503   -0.3018   -1.6166
     5          C      -1.2419   -0.7070    0.9244
     6          C       1.7709   -0.6089    0.9906
     7          C       0.0504    1.7378   -1.5881
     8          C      -0.7480    0.9571   -2.3338
     9          C      -0.4225   -0.8759    2.1519
    10          C       0.9095   -0.8286    2.1807
    11          H       1.5613   -0.4892   -1.1772
    12          H       0.3485    1.8095    0.6104
    13          H      -0.8161   -1.2016   -2.1646
    14          H      -2.2496   -0.3731   -1.5233
    15          H      -2.0901   -0.0251    1.1367
    16          H      -1.6915   -1.6871    0.6635
    17          H       2.5406    0.1525    1.2297
    18          H       2.3216   -1.5506    0.7917
    19          H       0.4779    2.6994   -1.8673
    20          H      -1.0945    1.1614   -3.3461
    21          H      -0.9880   -1.0598    3.0730
    22          H       1.4448   -0.9720    3.1269


    FIRST DERIVATIVES WILL BE USED IN THE CALCULATION OF SECOND DERIVATIVES

          ESTIMATED TIME TO COMPLETE CALCULATION =        2.06 SECONDS

    FOR POINT-GROUP C1   THERE ARE   1 UNIQUE SYMMETRY FUNCTIONS.

 STEP:   1 TIME =     0.02 SECS, INTEGRAL =      0.02 TIME LEFT: 172799.97
 STEP:   2 TIME =     0.02 SECS, INTEGRAL =      0.04 TIME LEFT: 172799.95
 STEP:   3 TIME =     0.02 SECS, INTEGRAL =      0.06 TIME LEFT: 172799.93
 STEP:   4 TIME =     0.02 SECS, INTEGRAL =      0.08 TIME LEFT: 172799.91
 STEP:   5 TIME =     0.02 SECS, INTEGRAL =      0.11 TIME LEFT: 172799.89
 STEP:   6 TIME =     0.02 SECS, INTEGRAL =      0.12 TIME LEFT: 172799.87
 STEP:   7 TIME =     0.02 SECS, INTEGRAL =      0.14 TIME LEFT: 172799.85
 STEP:   8 TIME =     0.02 SECS, INTEGRAL =      0.16 TIME LEFT: 172799.83
 STEP:   9 TIME =     0.02 SECS, INTEGRAL =      0.18 TIME LEFT: 172799.81
 STEP:  10 TIME =     0.02 SECS, INTEGRAL =      0.21 TIME LEFT: 172799.79
 STEP:  11 TIME =     0.02 SECS, INTEGRAL =      0.23 TIME LEFT: 172799.77
 STEP:  12 TIME =     0.02 SECS, INTEGRAL =      0.25 TIME LEFT: 172799.74
 STEP:  13 TIME =     0.02 SECS, INTEGRAL =      0.27 TIME LEFT: 172799.72
 STEP:  14 TIME =     0.02 SECS, INTEGRAL =      0.29 TIME LEFT: 172799.70
 STEP:  15 TIME =     0.02 SECS, INTEGRAL =      0.31 TIME LEFT: 172799.68
 STEP:  16 TIME =     0.02 SECS, INTEGRAL =      0.33 TIME LEFT: 172799.66
 STEP:  17 TIME =     0.02 SECS, INTEGRAL =      0.36 TIME LEFT: 172799.64
 STEP:  18 TIME =     0.02 SECS, INTEGRAL =      0.38 TIME LEFT: 172799.62
 STEP:  19 TIME =     0.02 SECS, INTEGRAL =      0.39 TIME LEFT: 172799.60
 STEP:  20 TIME =     0.02 SECS, INTEGRAL =      0.41 TIME LEFT: 172799.58
 STEP:  21 TIME =     0.02 SECS, INTEGRAL =      0.43 TIME LEFT: 172799.56
 STEP:  22 TIME =     0.02 SECS, INTEGRAL =      0.46 TIME LEFT: 172799.54
 STEP:  23 TIME =     0.02 SECS, INTEGRAL =      0.48 TIME LEFT: 172799.52
 STEP:  24 TIME =     0.02 SECS, INTEGRAL =      0.50 TIME LEFT: 172799.49
 STEP:  25 TIME =     0.02 SECS, INTEGRAL =      0.52 TIME LEFT: 172799.47
 STEP:  26 TIME =     0.02 SECS, INTEGRAL =      0.54 TIME LEFT: 172799.45
 STEP:  27 TIME =     0.02 SECS, INTEGRAL =      0.56 TIME LEFT: 172799.43
 STEP:  28 TIME =     0.02 SECS, INTEGRAL =      0.58 TIME LEFT: 172799.41
 STEP:  29 TIME =     0.02 SECS, INTEGRAL =      0.61 TIME LEFT: 172799.39
 STEP:  30 TIME =     0.02 SECS, INTEGRAL =      0.62 TIME LEFT: 172799.37
 STEP:  31 TIME =     0.02 SECS, INTEGRAL =      0.65 TIME LEFT: 172799.34
 STEP:  32 TIME =     0.02 SECS, INTEGRAL =      0.67 TIME LEFT: 172799.32
 STEP:  33 TIME =     0.02 SECS, INTEGRAL =      0.69 TIME LEFT: 172799.30
 STEP:  34 TIME =     0.02 SECS, INTEGRAL =      0.71 TIME LEFT: 172799.28
 STEP:  35 TIME =     0.02 SECS, INTEGRAL =      0.73 TIME LEFT: 172799.26
 STEP:  36 TIME =     0.02 SECS, INTEGRAL =      0.75 TIME LEFT: 172799.24
 STEP:  37 TIME =     0.02 SECS, INTEGRAL =      0.77 TIME LEFT: 172799.22
 STEP:  38 TIME =     0.02 SECS, INTEGRAL =      0.79 TIME LEFT: 172799.20
 STEP:  39 TIME =     0.02 SECS, INTEGRAL =      0.81 TIME LEFT: 172799.18
 STEP:  40 TIME =     0.02 SECS, INTEGRAL =      0.83 TIME LEFT: 172799.16
 STEP:  41 TIME =     0.02 SECS, INTEGRAL =      0.86 TIME LEFT: 172799.14
 STEP:  42 TIME =     0.02 SECS, INTEGRAL =      0.88 TIME LEFT: 172799.12
 STEP:  43 TIME =     0.02 SECS, INTEGRAL =      0.90 TIME LEFT: 172799.09
 STEP:  44 TIME =     0.02 SECS, INTEGRAL =      0.92 TIME LEFT: 172799.07
 STEP:  45 TIME =     0.02 SECS, INTEGRAL =      0.94 TIME LEFT: 172799.05
 STEP:  46 TIME =     0.02 SECS, INTEGRAL =      0.96 TIME LEFT: 172799.04
 STEP:  47 TIME =     0.02 SECS, INTEGRAL =      0.98 TIME LEFT: 172799.02
 STEP:  48 TIME =     0.02 SECS, INTEGRAL =      1.00 TIME LEFT: 172798.99
 STEP:  49 TIME =     0.02 SECS, INTEGRAL =      1.02 TIME LEFT: 172798.97
 STEP:  50 TIME =     0.02 SECS, INTEGRAL =      1.04 TIME LEFT: 172798.95
 STEP:  51 TIME =     0.02 SECS, INTEGRAL =      1.06 TIME LEFT: 172798.93
 STEP:  52 TIME =     0.02 SECS, INTEGRAL =      1.09 TIME LEFT: 172798.91
 STEP:  53 TIME =     0.02 SECS, INTEGRAL =      1.11 TIME LEFT: 172798.89
 STEP:  54 TIME =     0.02 SECS, INTEGRAL =      1.12 TIME LEFT: 172798.87
 STEP:  55 TIME =     0.02 SECS, INTEGRAL =      1.14 TIME LEFT: 172798.85
 STEP:  56 TIME =     0.02 SECS, INTEGRAL =      1.16 TIME LEFT: 172798.83
 STEP:  57 TIME =     0.02 SECS, INTEGRAL =      1.19 TIME LEFT: 172798.80
 STEP:  58 TIME =     0.02 SECS, INTEGRAL =      1.21 TIME LEFT: 172798.79
 STEP:  59 TIME =     0.02 SECS, INTEGRAL =      1.23 TIME LEFT: 172798.76
 STEP:  60 TIME =     0.02 SECS, INTEGRAL =      1.25 TIME LEFT: 172798.74
 STEP:  61 TIME =     0.02 SECS, INTEGRAL =      1.27 TIME LEFT: 172798.72
 STEP:  62 TIME =     0.02 SECS, INTEGRAL =      1.29 TIME LEFT: 172798.70
 STEP:  63 TIME =     0.02 SECS, INTEGRAL =      1.32 TIME LEFT: 172798.68
 STEP:  64 TIME =     0.02 SECS, INTEGRAL =      1.34 TIME LEFT: 172798.66
 STEP:  65 TIME =     0.02 SECS, INTEGRAL =      1.36 TIME LEFT: 172798.63
 STEP:  66 TIME =     0.02 SECS, INTEGRAL =      1.38 TIME LEFT: 172798.61

(To convert to Hartree/Bohr^2, multiply by (10^(-21) x N x a0^2)/(4.184 x 627.51) =  0.0642)


           FORCE MATRIX IN MILLIDYNES/ANGSTROM


                  C  1       C  2       C  3       C  4       C  5       C  6
 ------------------------------------------------------------------------------
     C    1  15.793788
     C    2   4.546286  15.341635
     C    3   4.034096   4.428105  15.548923
     C    4   3.828821   0.543975   0.761009  14.697797
     C    5   4.731072   0.510362   0.468817   0.525000  15.101624
     C    6   0.544452   4.563080   0.546730   0.047311   0.099828  14.939240
     C    7   0.927973   0.617431   4.826541   1.120520   0.042409   0.048383
     C    8   0.921766   0.092239   1.255758   4.442473   0.039452   0.009259
     C    9   0.696963   0.044384   0.028208   0.043764   5.020822   0.817793
     C   10   0.046690   0.672643   0.033825   0.004193   0.821032   5.017352
     H   11   0.444196   4.540525   0.440386   0.023460   0.037174   0.412489
     H   12   0.408169   0.439490   4.759815   0.037341   0.018372   0.019073
     H   13   0.438701   0.016319   0.039614   4.520014   0.016836   0.003819
     H   14   0.443337   0.039606   0.017719   4.518360   0.035642   0.007384
     H   15   0.435508   0.042563   0.015818   0.015234   4.421895   0.008996
     H   16   0.436040   0.008895   0.042886   0.031613   4.398987   0.012243
     H   17   0.043967   0.427925   0.017860   0.008124   0.009466   4.421984
     H   18   0.009638   0.428039   0.044610   0.001256   0.012132   4.419802
     H   19   0.042092   0.013585   0.413582   0.112627   0.004557   0.001421
     H   20   0.043623   0.016705   0.112107   0.408167   0.005661   0.004066
     H   21   0.044643   0.004591   0.002379   0.006924   0.423958   0.123383
     H   22   0.005397   0.045159   0.002406   0.000849   0.123449   0.424174


                  C  7       C  8       C  9       C 10       H 11       H 12
 ------------------------------------------------------------------------------
     C    7  18.302662
     C    8  10.296985  18.113786
     C    9   0.003504   0.007454  18.225570
     C   10   0.004089   0.001228  10.702445  18.215130
     H   11   0.029208   0.010531   0.003457   0.041224   5.067700
     H   12   0.416307   0.041590   0.004236   0.004954   0.031967   5.297698
     H   13   0.038538   0.429158   0.002695   0.000545   0.011214   0.006282
     H   14   0.037687   0.428635   0.002115   0.001138   0.004255   0.001562
     H   15   0.003145   0.001584   0.431022   0.042298   0.006798   0.003354
     H   16   0.007099   0.002213   0.413236   0.031566   0.001397   0.003396
     H   17   0.003303   0.001244   0.042097   0.430604   0.015753   0.007012
     H   18   0.007851   0.001797   0.032516   0.410452   0.038084   0.003579
     H   19   5.048314   0.448657   0.000732   0.000580   0.003350   0.013294
     H   20   0.446434   5.030635   0.001349   0.000610   0.001600   0.009829
     H   21   0.000866   0.001291   4.803921   0.443740   0.000460   0.001069
     H   22   0.001346   0.000697   0.443557   4.799654   0.006032   0.001167


                  H 13       H 14       H 15       H 16       H 17       H 18
 ------------------------------------------------------------------------------
     H   13   5.124781
     H   14   0.550156   5.119809
     H   15   0.000991   0.008799   4.999169
     H   16   0.002565   0.014662   0.557054   4.977086
     H   17   0.000752   0.001486   0.001146   0.001129   5.003312
     H   18   0.000254   0.000345   0.000991   0.001371   0.559814   4.991465
     H   19   0.014571   0.015286   0.000560   0.001120   0.000311   0.000330
     H   20   0.012784   0.013597   0.000276   0.000583   0.000364   0.000755
     H   21   0.000537   0.000496   0.035399   0.021974   0.014930   0.017121
     H   22   0.000291   0.000280   0.014620   0.017159   0.034912   0.025220


                  H 19       H 20       H 21       H 22
 ------------------------------------------------------
     H   19   5.439609
     H   20   0.045500   5.425817
     H   21   0.000194   0.000320   5.175879
     H   22   0.000270   0.000258   0.071695   5.172414


          HEAT OF FORMATION =      46.762992 KCALS/MOLE

          ZERO POINT ENERGY     119.589 KCAL/MOL


           NORMAL COORDINATE ANALYSIS (Total motion = 1 Angstrom)


   Root No.       1         2         3         4         5         6         7         8

                 1 A       2 A       3 A       4 A       5 A       6 A       7 A       8 A   

                  86.4     201.1     219.3     292.5     367.7     387.4     409.3     449.0
  
           1    0.0025    0.0114   -0.0216   -0.0202   -0.0002   -0.0279   -0.0085   -0.0064
           2   -0.0162   -0.0056    0.0151   -0.0260   -0.0043    0.0258   -0.0200   -0.0055
           3   -0.0090   -0.0040    0.0117   -0.0066   -0.0058    0.0180   -0.0285    0.0031
           4    0.0024    0.0099   -0.0219   -0.0188    0.0005   -0.0317   -0.0063    0.0013
           5   -0.0129    0.0056    0.0344   -0.0315    0.0002   -0.0169    0.0061    0.0259
           6   -0.0079    0.0010    0.0059   -0.0115    0.0037   -0.0016    0.0240    0.0154
           7   -0.0003   -0.0022   -0.0401   -0.0147   -0.0077    0.0106   -0.0342   -0.0208
           8   -0.0145    0.0011    0.0253   -0.0304   -0.0026    0.0073   -0.0094    0.0022
           9    0.0113    0.0033    0.0225    0.0165    0.0014   -0.0137   -0.0110    0.0246
          10    0.0006    0.0393    0.0057    0.0014   -0.0069    0.0309   -0.0123   -0.0015
          11    0.0041   -0.0314   -0.0031   -0.0014    0.0025   -0.0029    0.0137   -0.0132
          12   -0.0094   -0.0149    0.0009   -0.0213   -0.0040   -0.0120   -0.0416    0.0062
          13    0.0079   -0.0058   -0.0033   -0.0175    0.0073   -0.0046    0.0255   -0.0215
          14   -0.0356    0.0404   -0.0052    0.0143   -0.0070   -0.0166    0.0064    0.0000
          15   -0.0139    0.0041    0.0155    0.0129   -0.0042    0.0196    0.0115   -0.0089
          16   -0.0030    0.0014   -0.0064    0.0087    0.0054   -0.0139   -0.0046    0.0183
          17   -0.0296   -0.0270   -0.0251    0.0282    0.0081    0.0032   -0.0120    0.0063
          18   -0.0101   -0.0057   -0.0280   -0.0113    0.0066   -0.0080    0.0255   -0.0101
          19   -0.0035   -0.0330    0.0012    0.0054   -0.0032    0.0152    0.0095    0.0507
          20    0.0065    0.0125    0.0022    0.0003   -0.0005    0.0063   -0.0042   -0.0367
          21    0.0218    0.0143    0.0030    0.0329    0.0015   -0.0159   -0.0193   -0.0040
          22   -0.0039   -0.0156    0.0543    0.0287    0.0010   -0.0064   -0.0151   -0.0253
          23    0.0173   -0.0004   -0.0300    0.0066    0.0003    0.0166    0.0286    0.0075
          24    0.0108    0.0084   -0.0209    0.0017   -0.0038   -0.0026   -0.0257    0.0305
          25   -0.0017   -0.0039    0.0132    0.0113   -0.0016    0.0064    0.0239   -0.0011
          26    0.0408    0.0209    0.0039    0.0072    0.0615   -0.0058   -0.0059    0.0101
          27    0.0037    0.0001    0.0077   -0.0045    0.0113    0.0186    0.0197   -0.0241
          28   -0.0015   -0.0023    0.0143    0.0117    0.0031    0.0067    0.0225    0.0002
          29    0.0446   -0.0157   -0.0079    0.0164   -0.0609   -0.0034   -0.0090    0.0044
          30    0.0052   -0.0059   -0.0109   -0.0129   -0.0078    0.0050    0.0434   -0.0266
          31    0.0062    0.0142   -0.0272   -0.0297    0.0055   -0.0607    0.0275    0.0079
          32    0.0008    0.0193    0.0683   -0.0361    0.0054   -0.0608    0.0287    0.0659
          33   -0.0100   -0.0015   -0.0098   -0.0158    0.0050   -0.0043    0.0355    0.0048
          34   -0.0020   -0.0110   -0.0618   -0.0118   -0.0176    0.0544   -0.0986   -0.0728
          35   -0.0281   -0.0062    0.0277   -0.0549   -0.0043    0.0177   -0.0038    0.0153
          36    0.0222    0.0099    0.0207    0.0363    0.0035   -0.0249   -0.0109    0.0170
          37    0.0024    0.1080   -0.0078    0.0016   -0.0221    0.1379   -0.0112    0.0553
          38    0.0144   -0.0040   -0.0289    0.0028   -0.0010    0.0273    0.0324    0.0191
          39   -0.0253   -0.0191    0.0354   -0.0280   -0.0070   -0.0002   -0.0710   -0.0147
          40    0.0011    0.0423    0.0015   -0.0008   -0.0073    0.0337   -0.0109    0.0027
          41   -0.0008   -0.1025    0.0325    0.0107    0.0167   -0.0964    0.0079   -0.0807
          42   -0.0083   -0.0403   -0.0226   -0.0433    0.0037   -0.0740   -0.0370   -0.0054
          43   -0.0362    0.0296   -0.0151    0.0199   -0.0514   -0.0428    0.0538   -0.0171
          44   -0.0805    0.0862   -0.0236    0.0571   -0.0661   -0.0700    0.0371    0.0064
          45   -0.0465    0.0001    0.0263    0.0272   -0.0544    0.0326    0.0280   -0.0101
          46    0.0709   -0.0568    0.0144   -0.0705    0.0915    0.0513   -0.0128   -0.0298
          47   -0.0675    0.0591   -0.0130    0.0320   -0.0537   -0.0384    0.0181    0.0019
          48   -0.0017    0.0230    0.0147    0.0410    0.0223    0.0030    0.0372   -0.0016
          49    0.0441    0.0258    0.0437   -0.0387   -0.0664   -0.0281    0.0205    0.0273
          50   -0.0686   -0.0543   -0.0738    0.0825    0.0680    0.0226   -0.0341   -0.0057
          51   -0.0389    0.0019   -0.0361   -0.0278    0.0530   -0.0235    0.0126   -0.0009
          52   -0.0605   -0.0288   -0.0658    0.0681    0.0930    0.0047   -0.0341    0.0087
          53   -0.0658   -0.0419   -0.0519    0.0585    0.0648    0.0141   -0.0266    0.0044
          54    0.0017   -0.0197   -0.0677    0.0136   -0.0133   -0.0070    0.0093   -0.0282
          55   -0.0056   -0.0716    0.0025    0.0073   -0.0019    0.0243    0.0501    0.1518
          56    0.0117    0.0333    0.0013    0.0083   -0.0000    0.0009   -0.0197   -0.0941
          57    0.0365    0.0268    0.0020    0.0634    0.0051   -0.0209   -0.0108   -0.0461
          58   -0.0064   -0.0347    0.1168    0.0596    0.0082   -0.0357   -0.0224   -0.0609
          59    0.0335    0.0087   -0.0668    0.0184    0.0003    0.0277    0.0531    0.0356
          60    0.0149    0.0167   -0.0496   -0.0063   -0.0063    0.0097   -0.0185    0.0485
          61   -0.0061   -0.0044    0.0250    0.0262   -0.0079    0.0159    0.0089    0.0107
          62    0.0946    0.0359    0.0184   -0.0028    0.1499   -0.0060   -0.0125    0.0194
          63    0.0114    0.0028    0.0177    0.0030    0.0249    0.0243    0.0096   -0.0148
          64   -0.0028   -0.0032    0.0282    0.0161    0.0042    0.0219    0.0252   -0.0103
          65    0.1018   -0.0370   -0.0056    0.0172   -0.1480   -0.0012   -0.0125    0.0012
          66    0.0143   -0.0086   -0.0186   -0.0151   -0.0214   -0.0033    0.0410   -0.0210


   Root No.       9        10        11        12        13        14        15        16

                 9 A      10 A      11 A      12 A      13 A      14 A      15 A      16 A   

                 558.7     654.5     720.1     752.0     769.5     805.9     830.0     885.1
  
           1    0.0256   -0.0100    0.0032    0.0033    0.0119   -0.0114   -0.0095   -0.0088
           2   -0.0304    0.0318    0.0035    0.0204   -0.0145   -0.0143    0.0038    0.0009
           3   -0.0076   -0.0286   -0.0017    0.0059    0.0040   -0.0053   -0.0174    0.0019
           4    0.0157   -0.0236   -0.0096    0.0217   -0.0068    0.0048    0.0025    0.0253
           5    0.0225   -0.0057   -0.0021   -0.0027   -0.0206    0.0209   -0.0005    0.0074
           6   -0.0578   -0.0117   -0.0010   -0.0088   -0.0063   -0.0013    0.0120   -0.0266
           7   -0.0049    0.0151   -0.0038    0.0026   -0.0268    0.0290    0.0017   -0.0034
           8   -0.0010    0.0148    0.0132   -0.0061   -0.0033    0.0033    0.0062   -0.0195
           9   -0.0017    0.0264    0.0018    0.0237   -0.0178   -0.0124   -0.0208   -0.0110
          10    0.0080   -0.0271    0.0025   -0.0140    0.0113   -0.0240   -0.0324   -0.0172
          11   -0.0073   -0.0267    0.0002    0.0232    0.0067   -0.0084   -0.0291    0.0110
          12    0.0045   -0.0116    0.0089   -0.0104    0.0345   -0.0122   -0.0169    0.0178
          13    0.0316    0.0423    0.0091    0.0096    0.0034   -0.0216    0.0107   -0.0270
          14   -0.0054    0.0277   -0.0146    0.0093    0.0011   -0.0248    0.0208    0.0111
          15    0.0250   -0.0334   -0.0113    0.0064   -0.0107    0.0042    0.0121    0.0074
          16   -0.0559   -0.0392   -0.0106    0.0164   -0.0048   -0.0020    0.0318   -0.0135
          17    0.0192    0.0051   -0.0189   -0.0092   -0.0018    0.0214   -0.0175   -0.0144
          18   -0.0321    0.0003   -0.0027    0.0003    0.0032    0.0090    0.0019    0.0026
          19    0.0228    0.0046    0.0005   -0.0308   -0.0080   -0.0019    0.0123    0.0132
          20    0.0009   -0.0167    0.0087   -0.0282    0.0376    0.0128    0.0358    0.0007
          21    0.0007    0.0277   -0.0046    0.0161   -0.0097    0.0042   -0.0049   -0.0077
          22    0.0047    0.0002   -0.0007   -0.0222   -0.0054   -0.0007    0.0092    0.0079
          23    0.0057   -0.0209   -0.0014    0.0071    0.0105   -0.0000   -0.0034   -0.0016
          24    0.0159    0.0291    0.0065   -0.0304    0.0173    0.0168    0.0357    0.0001
          25   -0.0250    0.0179    0.0059   -0.0108    0.0054    0.0064   -0.0153    0.0129
          26   -0.0103    0.0063   -0.0152   -0.0078    0.0106    0.0012   -0.0117    0.0050
          27    0.0612   -0.0215   -0.0092    0.0162   -0.0162   -0.0046    0.0234   -0.0175
          28   -0.0266    0.0142    0.0044   -0.0104    0.0048    0.0068   -0.0140    0.0118
          29   -0.0018   -0.0005   -0.0181    0.0023    0.0038   -0.0066    0.0004   -0.0052
          30   -0.0059    0.0341    0.0084   -0.0102    0.0109    0.0075   -0.0221    0.0227
          31    0.0457   -0.0150   -0.0094    0.0224   -0.0241    0.0269   -0.0061    0.0895
          32    0.0742   -0.0033    0.0069    0.0190   -0.0601    0.0168   -0.0113    0.1075
          33   -0.0574   -0.0073   -0.0038   -0.0142   -0.0030    0.0123    0.0108   -0.0222
          34   -0.0176    0.0438   -0.0066    0.0502   -0.0670    0.1115   -0.0647   -0.0368
          35   -0.0174   -0.0041    0.0143   -0.0059   -0.0240    0.0061   -0.0050   -0.0265
          36    0.0115    0.0394    0.0004    0.0207    0.0009   -0.0200   -0.0070   -0.0031
          37    0.0004    0.0046    0.0113    0.0770    0.0455    0.0095   -0.0253    0.0725
          38    0.0068   -0.0268    0.0018    0.0517    0.0328    0.0204   -0.0121    0.0268
          39   -0.0237    0.0050    0.0107   -0.0053    0.0101   -0.0422   -0.0430    0.0428
          40    0.0101   -0.0266    0.0033   -0.0079    0.0166   -0.0235   -0.0336   -0.0154
          41   -0.0111   -0.0607   -0.0111   -0.0671   -0.0426   -0.0469   -0.0486   -0.0626
          42    0.0210   -0.0320    0.0100   -0.0387    0.0504   -0.0418   -0.0405   -0.0391
          43    0.0537    0.0223    0.0718   -0.0046    0.0056    0.0132   -0.0357   -0.0690
          44    0.0328    0.0008    0.0558   -0.0091    0.0106    0.0144   -0.0375   -0.0456
          45   -0.0087   -0.0293    0.0225    0.0059   -0.0314    0.0241    0.0042    0.0220
          46    0.0033    0.0796   -0.0808    0.0332    0.0013   -0.0827    0.0843    0.0213
          47    0.0030    0.0150    0.0320    0.0055   -0.0021   -0.0056   -0.0092   -0.0137
          48    0.0458   -0.0525   -0.0236   -0.0196    0.0029    0.0392   -0.0056    0.0105
          49   -0.0697   -0.0450   -0.0836   -0.0063    0.0023    0.0535    0.0063   -0.0549
          50    0.0273    0.0210    0.0509    0.0081   -0.0021   -0.0398    0.0015    0.0203
          51   -0.0116   -0.0335    0.0179    0.0231   -0.0229    0.0196    0.0300    0.0281
          52   -0.0479   -0.0379    0.0777    0.0472   -0.0153   -0.0722    0.0758    0.0286
          53    0.0239    0.0059    0.0369    0.0048   -0.0124   -0.0136    0.0056    0.0088
          54   -0.0289    0.0034   -0.0100    0.0215    0.0224   -0.0251    0.0132    0.0171
          55    0.0647    0.0148    0.0151    0.0857    0.1162    0.0163   -0.0034   -0.0638
          56   -0.0212   -0.0306   -0.0039   -0.0894   -0.0319   -0.0048    0.0353    0.0517
          57   -0.0110   -0.0040   -0.0257   -0.0152   -0.0590   -0.0306   -0.0335    0.0506
          58   -0.0010    0.0344    0.0092    0.1355    0.1114    0.1013    0.0616   -0.0030
          59    0.0083   -0.0043   -0.0231   -0.0495   -0.1194   -0.0386   -0.0212   -0.0134
          60    0.0185    0.0210   -0.0013   -0.0960   -0.0485   -0.0261    0.0142    0.0017
          61   -0.0242   -0.0275   -0.0147   -0.0078   -0.0080    0.0170   -0.0019    0.0179
          62   -0.0185   -0.0510    0.1883   -0.0067   -0.0449    0.0678   -0.0415   -0.0420
          63    0.0591   -0.0613    0.0186    0.0184   -0.0356    0.0156    0.0262   -0.0236
          64    0.0295    0.0191   -0.0036   -0.0109   -0.0041    0.0044   -0.0215    0.0007
          65   -0.0163   -0.0438    0.1853    0.0420   -0.0642   -0.0419    0.0877    0.0434
          66   -0.0398    0.0238    0.0434   -0.0037    0.0053    0.0040   -0.0045    0.0370


   Root No.      17        18        19        20        21        22        23        24

                17 A      18 A      19 A      20 A      21 A      22 A      23 A      24 A   

                 896.3     906.9     946.3     979.3     999.9    1013.1    1018.4    1031.1
  
           1   -0.0046    0.0000   -0.0111   -0.0039    0.0088    0.0008   -0.0087   -0.0020
           2    0.0090    0.0046    0.0195   -0.0110   -0.0027   -0.0160    0.0024    0.0033
           3    0.0015    0.0025    0.0013    0.0033    0.0043   -0.0053    0.0023   -0.0051
           4    0.0024    0.0104    0.0167   -0.0055    0.0021   -0.0175   -0.0093   -0.0017
           5   -0.0056    0.0019   -0.0026    0.0082    0.0018   -0.0157    0.0022   -0.0040
           6   -0.0018   -0.0127   -0.0268   -0.0030   -0.0255    0.0161    0.0034    0.0165
           7   -0.0110   -0.0069   -0.0143   -0.0108   -0.0047   -0.0070   -0.0199    0.0236
           8   -0.0141   -0.0164   -0.0013   -0.0034    0.0141   -0.0004   -0.0125   -0.0085
           9   -0.0058   -0.0087   -0.0013   -0.0036    0.0117    0.0044   -0.0135   -0.0073
          10   -0.0210    0.0137   -0.0070   -0.0071   -0.0010   -0.0040    0.0094   -0.0000
          11    0.0135   -0.0113   -0.0094    0.0050    0.0050    0.0137   -0.0212    0.0002
          12    0.0177   -0.0041   -0.0053    0.0082   -0.0062    0.0081    0.0034    0.0017
          13    0.0261   -0.0120    0.0003    0.0124   -0.0246    0.0036    0.0086   -0.0118
          14   -0.0023    0.0298   -0.0150   -0.0033    0.0036    0.0174    0.0033   -0.0074
          15   -0.0073    0.0069   -0.0010   -0.0031   -0.0084   -0.0003   -0.0030   -0.0146
          16    0.0092   -0.0057    0.0184    0.0109    0.0325    0.0044    0.0140   -0.0011
          17    0.0241    0.0276   -0.0095    0.0079    0.0030    0.0048   -0.0059    0.0072
          18    0.0045    0.0053    0.0062    0.0009   -0.0102    0.0003   -0.0054   -0.0068
          19    0.0143   -0.0091   -0.0136   -0.0049    0.0086   -0.0073    0.0156   -0.0063
          20   -0.0078    0.0031    0.0215    0.0043   -0.0080    0.0120   -0.0027    0.0028
          21   -0.0029    0.0095    0.0031    0.0026   -0.0054   -0.0042   -0.0037    0.0039
          22    0.0081   -0.0012    0.0157    0.0121   -0.0011    0.0131   -0.0165   -0.0087
          23   -0.0025    0.0038   -0.0076   -0.0036   -0.0060   -0.0104    0.0222    0.0061
          24   -0.0026    0.0001   -0.0011   -0.0063    0.0051   -0.0017    0.0007    0.0009
          25   -0.0074    0.0047   -0.0029   -0.0046   -0.0109   -0.0026   -0.0064   -0.0040
          26   -0.0106   -0.0196   -0.0005    0.0212   -0.0098   -0.0206   -0.0054    0.0070
          27    0.0033   -0.0077    0.0040    0.0000    0.0221    0.0011    0.0030    0.0232
          28   -0.0086    0.0055   -0.0027   -0.0022    0.0079   -0.0004   -0.0031    0.0075
          29   -0.0022   -0.0217    0.0125   -0.0240   -0.0065    0.0019    0.0098   -0.0094
          30   -0.0111    0.0049    0.0129    0.0023    0.0451   -0.0064    0.0105    0.0040
          31   -0.0234   -0.0042    0.0049   -0.0399   -0.0884    0.0858    0.0154    0.0484
          32   -0.0569   -0.0428    0.0138   -0.0251   -0.0164    0.1205    0.0857    0.0270
          33    0.0005   -0.0063   -0.0377   -0.0122   -0.0737    0.0312   -0.0103    0.0343
          34   -0.0679   -0.0100    0.0147    0.0931   -0.0170    0.1053    0.1224   -0.0920
          35   -0.0204   -0.0353   -0.0223   -0.0005    0.0037   -0.0042    0.0243   -0.0120
          36    0.0035    0.0074    0.0137   -0.0132    0.0201   -0.0014   -0.0531    0.0039
          37    0.0823   -0.0433   -0.0010    0.0312   -0.0076    0.0351   -0.0355    0.0184
          38    0.0301   -0.0373   -0.0598    0.0023    0.0468    0.0370   -0.0698   -0.0691
          39    0.0492    0.0070    0.0807    0.0346   -0.0795   -0.0076    0.0581    0.1269
          40   -0.0178    0.0114   -0.0150   -0.0082    0.0013   -0.0051    0.0098   -0.0092
          41   -0.0749    0.0438    0.0226   -0.0141   -0.0073   -0.0051    0.0068    0.0379
          42   -0.0371    0.0236   -0.0718   -0.0300    0.0120   -0.0282    0.0451   -0.0759
          43    0.0527   -0.0773    0.0299    0.0271   -0.0468   -0.0244    0.0114   -0.0048
          44    0.0275   -0.0553    0.0086    0.0333    0.0045    0.0059    0.0037    0.0222
          45    0.0037    0.0132    0.0473   -0.0612   -0.0933   -0.0806    0.0075   -0.0781
          46    0.0004    0.0794   -0.0459   -0.0011   -0.0243    0.0489    0.0106   -0.0424
          47    0.0184   -0.0016    0.0139   -0.0155    0.0116   -0.0104    0.0122    0.0192
          48   -0.0368   -0.0386   -0.0270    0.0667   -0.0445    0.0248   -0.0398   -0.0632
          49    0.0702    0.0535    0.0113    0.0321    0.0563    0.0203    0.0088    0.0128
          50   -0.0378   -0.0362   -0.0058   -0.0276    0.0058    0.0202    0.0041    0.0142
          51   -0.0011    0.0102    0.0190    0.0437   -0.0942   -0.0982   -0.0174   -0.0703
          52   -0.0633   -0.0831    0.0344   -0.0072    0.0411   -0.0078    0.0369   -0.0058
          53   -0.0196   -0.0128   -0.0108    0.0131    0.0143   -0.0118    0.0174    0.0129
          54    0.0018   -0.0230    0.0566   -0.0744   -0.0414    0.0409   -0.0524   -0.0511
          55   -0.0755    0.0823    0.1031    0.0394   -0.0622    0.0166    0.0136    0.0251
          56    0.0530   -0.0375   -0.0443   -0.0124    0.0144   -0.0115    0.0377   -0.0125
          57    0.0700    0.0102   -0.0458    0.0125   -0.0353   -0.0480    0.1296   -0.0012
          58   -0.0056   -0.0080   -0.0891   -0.0498    0.0041   -0.0766    0.0736    0.0219
          59    0.0009    0.0168    0.0543    0.0252   -0.0111   -0.0306   -0.0097   -0.0032
          60    0.0033    0.0055    0.0473    0.0209    0.0019    0.0245   -0.0357   -0.0114
          61   -0.0286    0.0039   -0.0162   -0.0368   -0.0690   -0.0085   -0.0510    0.0045
          62    0.0960    0.0901    0.0316   -0.1105    0.0163    0.0616    0.0229   -0.0405
          63    0.0114    0.0135    0.0032   -0.0454   -0.0064    0.0135   -0.0178    0.0186
          64   -0.0136    0.0015   -0.0237   -0.0358    0.0021    0.0098   -0.0221    0.0776
          65   -0.0341    0.0856   -0.0914    0.1162   -0.0186   -0.0127   -0.0416    0.0368
          66   -0.0137    0.0236    0.0097    0.0419    0.0476   -0.0148    0.0129   -0.0278


   Root No.      25        26        27        28        29        30        31        32

                25 A      26 A      27 A      28 A      29 A      30 A      31 A      32 A   

                1044.1    1051.1    1060.2    1072.0    1086.9    1101.1    1131.2    1150.7
  
           1    0.0131    0.0066   -0.0036   -0.0047    0.0068   -0.0112   -0.0125    0.0199
           2   -0.0092    0.0051   -0.0110    0.0011   -0.0144    0.0166    0.0255   -0.0341
           3    0.0043    0.0004    0.0000   -0.0060    0.0174   -0.0088    0.0014   -0.0025
           4    0.0038    0.0025   -0.0020   -0.0101    0.0054    0.0068   -0.0160   -0.0218
           5    0.0113   -0.0034    0.0094   -0.0044    0.0067    0.0165   -0.0350   -0.0053
           6    0.0131   -0.0104    0.0003    0.0075    0.0027   -0.0000   -0.0175   -0.0060
           7    0.0005   -0.0008    0.0159    0.0307   -0.0020    0.0185    0.0058    0.0175
           8    0.0019    0.0182   -0.0009   -0.0030   -0.0032    0.0003   -0.0016    0.0216
           9   -0.0132    0.0039    0.0001   -0.0039   -0.0204   -0.0011   -0.0103    0.0097
          10   -0.0210   -0.0072    0.0051   -0.0017    0.0014    0.0001    0.0113   -0.0100
          11   -0.0056   -0.0150    0.0062   -0.0026    0.0100   -0.0020    0.0023   -0.0022
          12    0.0083   -0.0011   -0.0004    0.0062   -0.0006   -0.0057    0.0006    0.0012
          13   -0.0113   -0.0041    0.0059    0.0061    0.0086   -0.0023    0.0006   -0.0005
          14    0.0064   -0.0040    0.0108   -0.0037    0.0024   -0.0051   -0.0064    0.0055
          15   -0.0054    0.0053    0.0082    0.0085    0.0071   -0.0026   -0.0053    0.0054
          16   -0.0098    0.0018   -0.0002    0.0074   -0.0028    0.0015    0.0077    0.0014
          17   -0.0128    0.0033   -0.0084    0.0054   -0.0022   -0.0039    0.0100    0.0027
          18   -0.0054    0.0045   -0.0047   -0.0080   -0.0070   -0.0017    0.0083    0.0058
          19   -0.0120    0.0042   -0.0013   -0.0116   -0.0116   -0.0019   -0.0083    0.0012
          20    0.0043   -0.0018   -0.0048    0.0060   -0.0131    0.0037   -0.0062    0.0029
          21    0.0107    0.0002    0.0013    0.0047    0.0158    0.0038    0.0113   -0.0025
          22    0.0208   -0.0033   -0.0090    0.0096    0.0030   -0.0014    0.0040   -0.0022
          23   -0.0031    0.0129    0.0036   -0.0007   -0.0106   -0.0050   -0.0091    0.0081
          24   -0.0163   -0.0103    0.0037   -0.0162    0.0194   -0.0041    0.0102   -0.0135
          25    0.0033    0.0012    0.0016   -0.0081   -0.0019   -0.0013    0.0033    0.0046
          26   -0.0126   -0.0036   -0.0243    0.0040    0.0065   -0.0036   -0.0026    0.0034
          27    0.0034   -0.0069   -0.0147   -0.0069   -0.0103    0.0029    0.0060   -0.0020
          28    0.0061   -0.0001   -0.0030   -0.0079   -0.0033   -0.0001    0.0028   -0.0017
          29    0.0175   -0.0148    0.0215   -0.0022   -0.0054   -0.0026    0.0018   -0.0013
          30    0.0048   -0.0036    0.0068    0.0075    0.0016    0.0018   -0.0021   -0.0016
          31   -0.0243   -0.0028   -0.0432    0.0214   -0.0022   -0.0257    0.0358   -0.0791
          32   -0.0637   -0.0119   -0.0201    0.0662   -0.0124   -0.0326    0.1278    0.0550
          33    0.0210   -0.0100   -0.0150    0.0006    0.0036   -0.0026   -0.0424   -0.0614
          34    0.0053   -0.0276   -0.0491   -0.0846   -0.0356   -0.0445   -0.0839   -0.0199
          35    0.0438    0.0497   -0.0063   -0.0330    0.1437    0.0174    0.0987    0.0285
          36   -0.0468   -0.0196    0.0090    0.0285   -0.1373   -0.0089   -0.0866    0.0062
          37    0.0137   -0.0117    0.0187   -0.0016    0.0200   -0.0217   -0.0108    0.0116
          38    0.0207   -0.0585   -0.0315    0.0099    0.0399    0.0229    0.0335   -0.0280
          39   -0.0158    0.0674    0.0701   -0.0148   -0.0366   -0.0615   -0.0618    0.0534
          40   -0.0107   -0.0022   -0.0044    0.0093   -0.0109   -0.0017    0.0151   -0.0131
          41   -0.0958   -0.0452    0.0578   -0.0618    0.0768    0.0056    0.0095   -0.0159
          42    0.0570    0.0395   -0.0831    0.0932   -0.1164   -0.0061    0.0522   -0.0475
          43   -0.0304   -0.0045   -0.0121    0.0144    0.0090    0.0040    0.0125   -0.0123
          44    0.0039    0.0184    0.0117   -0.0251   -0.0159    0.0127    0.0353   -0.0132
          45   -0.0730   -0.0675   -0.0691    0.1117    0.0664   -0.0318   -0.0911    0.0096
          46    0.0014   -0.0065    0.0433    0.0061    0.0199   -0.0163   -0.0186    0.0195
          47    0.0067   -0.0374   -0.0421   -0.0111    0.0101   -0.0212   -0.0061    0.0254
          48   -0.0320    0.1347    0.1430    0.0361   -0.0410    0.0832    0.0288   -0.1044
          49   -0.0416    0.0151   -0.0216    0.0217   -0.0076   -0.0038    0.0272    0.0025
          50    0.0096    0.0217   -0.0080    0.0142    0.0303    0.0174   -0.0491   -0.0066
          51    0.0279   -0.0995    0.0627   -0.0821   -0.0972   -0.0507    0.1322    0.0237
          52    0.0263   -0.0175    0.0269    0.0096    0.0037    0.0118   -0.0195   -0.0140
          53    0.0193   -0.0394    0.0249    0.0228   -0.0058   -0.0110    0.0001   -0.0053
          54   -0.0565    0.1523   -0.0838   -0.0839    0.0299    0.0603   -0.0224    0.0094
          55    0.0678   -0.0061   -0.0148    0.0337    0.0163    0.1129    0.0128    0.0287
          56   -0.0155    0.0087   -0.0083   -0.0177   -0.0252    0.0131   -0.0158    0.0073
          57    0.0611    0.0164   -0.0300   -0.0094    0.0199    0.2097    0.0130    0.0501
          58   -0.0104    0.0654    0.0171   -0.0111    0.0305   -0.1238    0.0164   -0.0288
          59    0.1058    0.1001   -0.0129    0.0426    0.0358   -0.2057    0.0224   -0.0364
          60    0.0170   -0.0157   -0.0087   -0.0005    0.0207   -0.0040    0.0136   -0.0146
          61    0.0222    0.0108   -0.0338   -0.0663   -0.0477   -0.0067    0.0384    0.1396
          62    0.0262    0.0053    0.0616    0.0037    0.0015    0.0029   -0.0056   -0.0108
          63    0.0216    0.0009   -0.0188   -0.0405   -0.0388    0.0013    0.0263    0.0768
          64    0.0580   -0.0225   -0.0385   -0.0687   -0.0376    0.0120   -0.0095   -0.1348
          65   -0.0374    0.0259   -0.0540   -0.0110   -0.0014    0.0023    0.0025   -0.0156
          66   -0.0319    0.0151    0.0146    0.0384    0.0201   -0.0040    0.0061    0.0713


   Root No.      33        34        35        36        37        38        39        40

                33 A      34 A      35 A      36 A      37 A      38 A      39 A      40 A   

                1171.0    1183.8    1207.4    1239.3    1244.2    1317.2    1341.1    1366.4
  
           1   -0.0092   -0.0252    0.0187    0.0147   -0.0017   -0.0239   -0.0080   -0.0074
           2   -0.0272    0.0094    0.0096    0.0048   -0.0117   -0.0106    0.0066   -0.0041
           3    0.0027    0.0075    0.0484   -0.0039   -0.0221    0.0068   -0.0235   -0.0058
           4   -0.0171   -0.0026    0.0035   -0.0009   -0.0259   -0.0102    0.0104    0.0056
           5    0.0125    0.0342   -0.0199   -0.0097    0.0041    0.0117   -0.0033   -0.0021
           6    0.0028    0.0085    0.0050    0.0026   -0.0161   -0.0217    0.0106    0.0007
           7    0.0231    0.0093    0.0022   -0.0053    0.0025    0.0104    0.0014    0.0041
           8   -0.0017   -0.0259    0.0099    0.0121    0.0332   -0.0010   -0.0145   -0.0025
           9   -0.0027   -0.0252    0.0071   -0.0087   -0.0107    0.0122    0.0206    0.0179
          10    0.0016    0.0121   -0.0133    0.0011    0.0086    0.0044    0.0031   -0.0017
          11   -0.0009    0.0012   -0.0236   -0.0011    0.0062   -0.0235   -0.0282   -0.0024
          12    0.0081    0.0104   -0.0037    0.0112    0.0144    0.0304    0.0471   -0.0004
          13    0.0023    0.0099    0.0037   -0.0003   -0.0071    0.0036    0.0061   -0.0313
          14    0.0060   -0.0031   -0.0083    0.0027    0.0016    0.0010    0.0090   -0.0036
          15    0.0001   -0.0012    0.0207   -0.0156    0.0011    0.0009   -0.0274   -0.0102
          16    0.0060   -0.0019   -0.0097    0.0032    0.0099    0.0012    0.0054    0.0225
          17    0.0009   -0.0079    0.0047   -0.0007   -0.0012   -0.0021    0.0035    0.0009
          18    0.0019   -0.0016   -0.0031    0.0142   -0.0109    0.0045   -0.0120   -0.0123
          19   -0.0039   -0.0068    0.0011   -0.0038   -0.0038    0.0019   -0.0007   -0.0021
          20    0.0015   -0.0060    0.0119   -0.0028   -0.0125    0.0002    0.0069    0.0094
          21   -0.0002    0.0008   -0.0216   -0.0116   -0.0026    0.0042   -0.0056   -0.0161
          22    0.0008   -0.0004   -0.0060   -0.0070   -0.0074    0.0035    0.0013   -0.0039
          23    0.0049   -0.0090    0.0021   -0.0146   -0.0153    0.0226    0.0165   -0.0081
          24   -0.0090    0.0062   -0.0112    0.0058    0.0054   -0.0206   -0.0188    0.0015
          25    0.0014    0.0043    0.0079   -0.0121    0.0045   -0.0111    0.0049   -0.0025
          26    0.0010   -0.0001    0.0036    0.0003   -0.0025    0.0020   -0.0043   -0.0014
          27    0.0006    0.0013   -0.0115   -0.0079    0.0143   -0.0155    0.0223    0.0084
          28    0.0049    0.0003    0.0055   -0.0120    0.0093   -0.0120    0.0093    0.0049
          29   -0.0022   -0.0007    0.0012   -0.0019    0.0016   -0.0023    0.0011   -0.0008
          30   -0.0034   -0.0035   -0.0084    0.0089   -0.0022    0.0134   -0.0050    0.0065
          31   -0.1240   -0.0555    0.0407   -0.0523    0.1167    0.0721   -0.0238    0.0129
          32    0.0946    0.0314    0.0333    0.0465   -0.0657   -0.0439   -0.0049   -0.0179
          33   -0.0877   -0.0208    0.0101   -0.0468    0.0913    0.0456   -0.0093    0.0096
          34   -0.0171    0.0053   -0.0249    0.0143    0.0008   -0.0195    0.0111    0.0001
          35   -0.0092   -0.1123   -0.0619   -0.0522   -0.0474    0.0326    0.0443    0.0288
          36    0.0055    0.0448    0.0684    0.0413    0.0543   -0.0118   -0.0270   -0.0062
          37    0.0072    0.0049   -0.0535    0.0199    0.0420   -0.0391   -0.0179    0.0396
          38   -0.0026    0.0384    0.0149    0.0311    0.0281    0.0140    0.0346    0.0127
          39    0.0136   -0.0517   -0.0929   -0.0285    0.0018   -0.0604   -0.0703    0.0046
          40    0.0018    0.0114   -0.0252   -0.0061    0.0060   -0.0059   -0.0128    0.0004
          41   -0.0044    0.0364    0.0108    0.0480    0.0504    0.0046    0.0337    0.0344
          42    0.0051    0.0205   -0.1068   -0.0571   -0.0072   -0.0522   -0.0873    0.0246
          43   -0.0070    0.0257    0.0088    0.0094   -0.0289    0.0549   -0.0643    0.1134
          44   -0.0125    0.0446    0.0295   -0.0145   -0.0258    0.0572   -0.0836    0.1355
          45    0.0254   -0.0955   -0.0783    0.0727    0.0100   -0.0014    0.0248    0.0468
          46    0.0152    0.0073   -0.0047    0.0071   -0.0200    0.0753   -0.0904    0.1673
          47    0.0105    0.0098    0.0112   -0.0229    0.0098   -0.0180    0.0244   -0.0751
          48   -0.0432   -0.0399   -0.0382    0.0723   -0.0155   -0.0303    0.0522   -0.0218
          49   -0.0013   -0.0233   -0.0196    0.0209    0.0208    0.0702   -0.0562   -0.0946
          50   -0.0203    0.0260    0.0067   -0.0023   -0.0336   -0.0567    0.0464    0.0899
          51    0.0947   -0.0433    0.0157   -0.0330    0.0633   -0.0148    0.0251    0.0338
          52   -0.0068    0.0076   -0.0322    0.0111    0.0301    0.0849   -0.0693   -0.1159
          53   -0.0353   -0.0149   -0.0028    0.0142   -0.0061    0.0376   -0.0356   -0.0671
          54    0.1423    0.0672   -0.0235   -0.0388    0.0545    0.0112   -0.0017   -0.0148
          55    0.0094    0.0012    0.0316    0.0311    0.0319   -0.0178   -0.0093    0.0162
          56   -0.0051   -0.0136    0.0230    0.0056   -0.0033   -0.0025    0.0047    0.0131
          57   -0.0040   -0.0082    0.0569    0.0709    0.0856   -0.0380   -0.0291    0.0211
          58    0.0019    0.0428    0.0157    0.0419    0.0344   -0.0137    0.0045    0.0152
          59    0.0111    0.0641    0.0340    0.0682    0.0590   -0.0053    0.0252    0.0253
          60   -0.0086    0.0073   -0.0139    0.0065    0.0072   -0.0216   -0.0190    0.0013
          61   -0.1355    0.0677   -0.0765    0.0774   -0.0581    0.0591   -0.0151   -0.0083
          62    0.0115   -0.0058    0.0051   -0.0036    0.0014   -0.0016   -0.0012   -0.0015
          63   -0.0811    0.0380   -0.0637    0.0457   -0.0217    0.0257    0.0121    0.0065
          64    0.1375   -0.0839   -0.0235    0.0908   -0.0428    0.0624   -0.0535   -0.0045
          65    0.0224   -0.0113   -0.0001    0.0112   -0.0073    0.0060   -0.0057   -0.0024
          66   -0.0730    0.0421    0.0064   -0.0462    0.0264   -0.0266    0.0295    0.0129


   Root No.      41        42        43        44        45        46        47        48

                41 A      42 A      43 A      44 A      45 A      46 A      47 A      48 A   

                1375.1    1383.4    1396.4    1410.4    1482.8    1601.6    1804.4    1886.7
  
           1   -0.0178   -0.0100    0.0242    0.0051    0.0042    0.1403    0.0025   -0.0061
           2   -0.0057   -0.0036    0.0116    0.0099    0.0217    0.0746    0.0060   -0.0007
           3   -0.0132   -0.0056    0.0164   -0.0351   -0.0806   -0.0452   -0.0096   -0.0025
           4    0.0126   -0.0088   -0.0031    0.0155    0.0342   -0.1237    0.0004    0.0060
           5   -0.0001    0.0040   -0.0054   -0.0085   -0.0259    0.0640   -0.0032   -0.0006
           6   -0.0064   -0.0244    0.0141    0.0013    0.0434   -0.0335    0.0013   -0.0014
           7    0.0090   -0.0027   -0.0080   -0.0089   -0.0112    0.0030    0.0072   -0.0001
           8   -0.0110    0.0246    0.0081    0.0157    0.0143   -0.1123    0.0062    0.0015
           9    0.0363   -0.0221   -0.0286   -0.0150   -0.0059    0.0276    0.0159   -0.0002
          10   -0.0110   -0.0012   -0.0291    0.0044    0.0092   -0.0107   -0.0104    0.0011
          11   -0.0169   -0.0112   -0.0385   -0.0055    0.0016   -0.0074   -0.0148    0.0006
          12   -0.0074    0.0062   -0.0080    0.0228    0.0270    0.0056   -0.0027   -0.0004
          13    0.0095    0.0142   -0.0089   -0.0327   -0.0006   -0.0287   -0.0015    0.0275
          14   -0.0015   -0.0042   -0.0013   -0.0096   -0.0263   -0.0214   -0.0011   -0.0036
          15    0.0205    0.0267   -0.0133    0.0072    0.0911    0.0472    0.0028    0.0261
          16   -0.0126    0.0330   -0.0044   -0.0286    0.0030    0.0220   -0.0002   -0.0284
          17   -0.0019   -0.0157    0.0063   -0.0067    0.0187   -0.0119    0.0007   -0.0052
          18    0.0215    0.0433   -0.0268    0.0444   -0.0641    0.0276   -0.0005    0.0249
          19   -0.0027    0.0046    0.0079    0.0021   -0.0006   -0.0000   -0.1343    0.0001
          20    0.0196   -0.0158   -0.0112   -0.0112   -0.0055    0.0132   -0.1183   -0.0000
          21   -0.0292    0.0251    0.0316    0.0172    0.0089   -0.0104   -0.1461    0.0003
          22   -0.0063    0.0051    0.0100    0.0026   -0.0015    0.0010    0.1387   -0.0003
          23   -0.0116    0.0154    0.0270    0.0089   -0.0018   -0.0039    0.1496   -0.0004
          24    0.0009   -0.0071   -0.0126   -0.0052   -0.0010    0.0022    0.1114   -0.0001
          25    0.0049   -0.0044   -0.0025    0.0233   -0.0175   -0.0030   -0.0003   -0.2452
          26    0.0013    0.0023   -0.0002   -0.0023    0.0073    0.0025    0.0001   -0.0021
          27   -0.0063   -0.0150    0.0030    0.0219   -0.0426   -0.0092   -0.0003   -0.0434
          28   -0.0023   -0.0101    0.0029    0.0182   -0.0229    0.0008    0.0003    0.2466
          29    0.0015    0.0016   -0.0017    0.0063   -0.0078    0.0014   -0.0000    0.0148
          30   -0.0098   -0.0058    0.0089   -0.0354    0.0367   -0.0030    0.0001   -0.0327
          31   -0.0162    0.0266   -0.0034   -0.0611   -0.0616   -0.0030   -0.0030   -0.0104
          32   -0.0168   -0.0120    0.0245    0.0217    0.0120   -0.0172    0.0011    0.0025
          33   -0.0182    0.0011    0.0040   -0.0544   -0.0270    0.0681   -0.0020   -0.0119
          34   -0.0009   -0.0068    0.0014    0.0160    0.0332   -0.0023    0.0027    0.0005
          35    0.0582   -0.0236   -0.0427   -0.0124    0.0022    0.0112   -0.0328    0.0011
          36   -0.0177    0.0168    0.0115    0.0050    0.0001   -0.0776    0.0434    0.0004
          37    0.1612    0.0318    0.1673   -0.0176   -0.0155    0.0081   -0.0039   -0.0006
          38    0.0465    0.0108    0.0467    0.0071    0.0086    0.0097   -0.0251   -0.0004
          39    0.0144   -0.0047   -0.0020   -0.0150   -0.0054   -0.0116    0.0264   -0.0005
          40   -0.0014   -0.0004   -0.0218   -0.0025    0.0014   -0.0152   -0.0029    0.0016
          41    0.1407    0.0339    0.1508   -0.0038   -0.0049    0.0083   -0.0276    0.0002
          42    0.1017    0.0185    0.0667   -0.0426   -0.0441   -0.0716    0.0237    0.0010
          43   -0.0254   -0.0291    0.0162    0.0463    0.0019   -0.0052   -0.0006    0.0210
          44   -0.0189   -0.0278    0.0137    0.0761    0.0296    0.0144    0.0010   -0.0055
          45   -0.0456   -0.0486    0.0288    0.0061   -0.0850    0.0087   -0.0006    0.0285
          46   -0.0296   -0.0428    0.0142    0.0758    0.0042   -0.0047   -0.0002    0.0066
          47    0.0288    0.0323   -0.0211   -0.0409    0.0182   -0.0186   -0.0002    0.0025
          48   -0.0396   -0.0317    0.0310   -0.0274   -0.0832    0.0125   -0.0018    0.0160
          49    0.0338   -0.1022    0.0149    0.0435    0.0019    0.0010    0.0005   -0.0208
          50   -0.0235    0.1278   -0.0290   -0.0372   -0.0158    0.0102   -0.0003   -0.0069
          51   -0.0418   -0.0376    0.0332   -0.0636    0.0538    0.0125    0.0010    0.0266
          52    0.0354   -0.1271    0.0221    0.0502   -0.0058    0.0080   -0.0009   -0.0083
          53    0.0332   -0.0669    0.0042    0.0506   -0.0092   -0.0162    0.0006    0.0022
          54   -0.0314   -0.0885    0.0441   -0.0421    0.0435    0.0242   -0.0008    0.0164
          55    0.0271   -0.0203   -0.0312   -0.0134   -0.0019   -0.0084   -0.0418    0.0002
          56    0.0255   -0.0185   -0.0175   -0.0136   -0.0072    0.0081   -0.1369   -0.0000
          57    0.0288   -0.0188   -0.0484   -0.0107    0.0045   -0.0352    0.0917    0.0003
          58    0.0224   -0.0247   -0.0425   -0.0096    0.0030    0.0072    0.0221    0.0002
          59    0.0375   -0.0338   -0.0615   -0.0096    0.0081    0.0025   -0.0802    0.0003
          60   -0.0001   -0.0067   -0.0133   -0.0040    0.0007    0.0016    0.1497   -0.0002
          61   -0.0112    0.0033    0.0068   -0.0852    0.0366   -0.0227   -0.0009   -0.0208
          62    0.0025    0.0006   -0.0014    0.0026    0.0021   -0.0005    0.0001   -0.0247
          63   -0.0171   -0.0119    0.0092   -0.0429   -0.0110   -0.0207   -0.0004    0.1373
          64    0.0036    0.0572   -0.0119   -0.0545    0.0461    0.0239   -0.0000    0.0160
          65    0.0026    0.0069   -0.0029   -0.0031    0.0022    0.0004    0.0001   -0.0231
          66   -0.0143   -0.0430    0.0178    0.0023   -0.0007   -0.0152    0.0003    0.1382


   Root No.      49        50        51        52        53        54        55        56

                49 A      50 A      51 A      52 A      53 A      54 A      55 A      56 A   

                2937.0    2939.3    2980.4    2998.8    3011.9    3015.6    3038.1    3049.5
  
           1    0.0001    0.0001   -0.0002   -0.0002   -0.0004   -0.0003   -0.0000   -0.0005
           2   -0.0002   -0.0001    0.0001   -0.0007   -0.0003   -0.0000    0.0000   -0.0002
           3   -0.0000    0.0001    0.0002   -0.0004    0.0003   -0.0002   -0.0002   -0.0006
           4   -0.0001   -0.0014    0.0003    0.0268    0.0011    0.0045   -0.0004   -0.0001
           5   -0.0001    0.0006   -0.0001   -0.0153   -0.0004   -0.0026    0.0002    0.0002
           6    0.0001    0.0020    0.0002   -0.0454   -0.0015   -0.0068    0.0008    0.0005
           7    0.0002   -0.0002   -0.0001    0.0006    0.0001    0.0000    0.0000    0.0001
           8    0.0002    0.0001    0.0000    0.0020    0.0003    0.0007   -0.0001   -0.0007
           9   -0.0002   -0.0003   -0.0001    0.0015    0.0001    0.0005   -0.0001   -0.0009
          10    0.0001   -0.0000   -0.0498    0.0001   -0.0002   -0.0001   -0.0000   -0.0229
          11   -0.0001    0.0000    0.0278   -0.0005   -0.0002   -0.0001   -0.0000   -0.0307
          12    0.0001   -0.0000    0.0216   -0.0002    0.0001    0.0000   -0.0000   -0.0144
          13    0.0117   -0.0003   -0.0001    0.0011   -0.0379    0.0005   -0.0028    0.0003
          14   -0.0559    0.0015   -0.0000    0.0003   -0.0064    0.0001   -0.0002   -0.0001
          15   -0.0158    0.0004   -0.0003    0.0001   -0.0007    0.0001    0.0002   -0.0001
          16   -0.0002   -0.0062   -0.0001   -0.0090    0.0003    0.0333   -0.0038   -0.0000
          17   -0.0014   -0.0555    0.0000   -0.0017   -0.0001   -0.0041    0.0002    0.0000
          18   -0.0004   -0.0140   -0.0001   -0.0012    0.0000    0.0011   -0.0004   -0.0000
          19    0.0000   -0.0000   -0.0002    0.0002    0.0000    0.0000   -0.0000    0.0000
          20    0.0000    0.0000    0.0001   -0.0002   -0.0000   -0.0000    0.0000   -0.0001
          21    0.0000    0.0000    0.0001    0.0001    0.0000    0.0000   -0.0000    0.0002
          22    0.0000   -0.0000   -0.0001    0.0000    0.0000    0.0000   -0.0000    0.0001
          23    0.0000   -0.0000    0.0000   -0.0000    0.0000   -0.0000    0.0000   -0.0009
          24   -0.0000    0.0000    0.0001   -0.0000   -0.0000    0.0000   -0.0000    0.0014
          25   -0.0005   -0.0000    0.0000    0.0000    0.0029   -0.0004   -0.0159   -0.0000
          26   -0.0001   -0.0002   -0.0000   -0.0000    0.0010   -0.0001   -0.0052   -0.0000
          27    0.0004   -0.0001    0.0000    0.0001   -0.0053    0.0007    0.0263    0.0000
          28    0.0001    0.0004   -0.0000    0.0001    0.0002   -0.0031   -0.0161    0.0001
          29   -0.0002   -0.0001   -0.0000   -0.0002   -0.0000    0.0009    0.0043   -0.0000
          30   -0.0001    0.0003    0.0000    0.0008    0.0003   -0.0058   -0.0284    0.0001
          31    0.0001    0.0159   -0.0002   -0.3231   -0.0096   -0.0492    0.0042    0.0029
          32   -0.0002   -0.0104    0.0007    0.1849    0.0057    0.0289   -0.0025   -0.0021
          33   -0.0003   -0.0235    0.0020    0.5463    0.0167    0.0880   -0.0074   -0.0058
          34    0.0000   -0.0002    0.0000   -0.0037   -0.0003   -0.0005    0.0001    0.0012
          35   -0.0004    0.0005    0.0002   -0.0149   -0.0013   -0.0052    0.0008    0.0110
          36   -0.0006    0.0002    0.0002   -0.0222   -0.0017   -0.0068    0.0010    0.0135
          37    0.0001    0.0000    0.1287   -0.0014   -0.0010   -0.0002   -0.0003   -0.1625
          38   -0.0001   -0.0001   -0.3736    0.0057    0.0024    0.0008    0.0006    0.3631
          39    0.0002   -0.0001   -0.2261    0.0037    0.0017    0.0005    0.0004    0.2246
          40   -0.0014   -0.0000    0.4707    0.0042    0.0031    0.0018    0.0004    0.4371
          41   -0.0007    0.0000    0.0366    0.0000   -0.0002    0.0001   -0.0000    0.0043
          42    0.0002    0.0000   -0.0348   -0.0003    0.0009   -0.0002    0.0000   -0.0488
          43   -0.3342    0.0087   -0.0008   -0.0117    0.3170   -0.0039    0.0270   -0.0029
          44    0.2599   -0.0069    0.0006    0.0105   -0.2912    0.0035   -0.0242    0.0025
          45    0.0811   -0.0022   -0.0005    0.0036   -0.0901    0.0012   -0.0051    0.0004
          46    0.1943   -0.0048   -0.0001   -0.0050    0.1371   -0.0018    0.0094   -0.0009
          47    0.4145   -0.0106    0.0008   -0.0138    0.3689   -0.0049    0.0252   -0.0018
          48    0.1097   -0.0027   -0.0004   -0.0037    0.0981   -0.0013    0.0082   -0.0013
          49    0.0083    0.3018    0.0006    0.0797   -0.0023   -0.2407    0.0306    0.0001
          50    0.0078    0.2894    0.0006    0.0869   -0.0027   -0.2732    0.0339    0.0001
          51    0.0024    0.0913    0.0002    0.0258   -0.0008   -0.0842    0.0080    0.0001
          52   -0.0064   -0.2263    0.0003    0.0284   -0.0020   -0.1593    0.0174    0.0002
          53    0.0105    0.3780   -0.0007   -0.0641    0.0039    0.3219   -0.0348   -0.0004
          54    0.0023    0.0800   -0.0002   -0.0181    0.0007    0.0691   -0.0092   -0.0000
          55    0.0000    0.0000   -0.0005   -0.0000    0.0001    0.0001   -0.0000    0.0040
          56    0.0001    0.0000    0.0006   -0.0002    0.0001    0.0001   -0.0001    0.0085
          57   -0.0000    0.0000    0.0002    0.0003   -0.0000    0.0000    0.0000   -0.0023
          58    0.0000    0.0000   -0.0012   -0.0001   -0.0000   -0.0000    0.0000   -0.0056
[...]
 EFF. MASS   7.0884

 VIBRATION   40   40A         ATOM PAIR      ENERGY CONTRIBUTION    RADIAL
 FREQ.      1366.43         C  5 -- H 16         +19.3% ( 47.6%)      4.4%
 T-DIPOLE    0.0656         C  5 -- H 15         +18.8% ( 47.0%)      5.1%
 TRAVEL      0.1215         C  6 -- H 18         +10.6% ( 35.3%)      4.0%
 RED. MASS   0.2980         C  6 -- H 17         +10.6% ( 35.3%)      4.4%
 EFF. MASS   3.3436

 VIBRATION   41   41A         ATOM PAIR      ENERGY CONTRIBUTION    RADIAL
 FREQ.      1375.15         C  3 -- C  7         +14.5% ( 49.2%)    100.0%
 T-DIPOLE    0.1457         C  4 -- H 14         +10.2% ( 41.3%)      2.6%
 TRAVEL      0.0923         C  4 -- H 13          +9.5% ( 39.8%)      3.9%
 RED. MASS   0.4926         C  1 -- C  3          +7.4% ( 35.2%)      2.4%
 EFF. MASS   5.7548

 VIBRATION   42   42A         ATOM PAIR      ENERGY CONTRIBUTION    RADIAL
 FREQ.      1383.37         C  6 -- H 17         +14.6% ( 52.8%)      3.7%
 T-DIPOLE    0.1568         C  6 -- H 18         +14.6% ( 52.8%)      3.8%
 TRAVEL      0.0846         C  2 -- C  6         +12.7% ( 49.3%)     99.8%
 RED. MASS   0.8715         C  6 -- C 10          +8.5% ( 40.4%)      6.2%
 EFF. MASS   6.8176

 VIBRATION   43   43A         ATOM PAIR      ENERGY CONTRIBUTION    RADIAL
 FREQ.      1396.43         C  4 -- H 13         +12.9% ( 49.5%)      5.8%
 T-DIPOLE    0.0387         C  4 -- H 14         +11.9% ( 47.5%)      8.2%
 TRAVEL      0.0838         C  4 -- C  8         +11.1% ( 46.0%)     78.0%
 RED. MASS   0.6790         C  1 -- C  4         +10.2% ( 44.0%)     40.7%
 EFF. MASS   6.8816

 VIBRATION   44   44A         ATOM PAIR      ENERGY CONTRIBUTION    RADIAL
 FREQ.      1410.45         C  6 -- C 10         +14.1% ( 55.6%)     99.1%
 T-DIPOLE    0.1764         C  6 -- H 17          +7.7% ( 41.1%)      2.6%
 TRAVEL      0.0755         C  6 -- H 18          +7.5% ( 40.7%)      3.3%
 RED. MASS   0.9250         C  1 -- C  5          +7.1% ( 39.6%)     97.9%
 EFF. MASS   8.3956

 VIBRATION   45   45A         ATOM PAIR      ENERGY CONTRIBUTION    RADIAL
 FREQ.      1482.85         C  1 -- C  5         +16.0% ( 65.0%)     74.6%
 T-DIPOLE    0.1548         C  5 -- C  9         +10.7% ( 53.1%)     79.2%
 TRAVEL      0.0644         C  1 -- C  2          +8.6% ( 47.7%)      4.8%
 RED. MASS   1.9923         C  2 -- C  6          +8.1% ( 46.2%)     93.5%
 EFF. MASS  10.9540

 VIBRATION   46   46A         ATOM PAIR      ENERGY CONTRIBUTION    RADIAL
 FREQ.      1601.58         C  1 -- C  2         +20.6% ( 75.4%)     99.6%
 T-DIPOLE    0.0993         C  1 -- C  3         +16.5% ( 67.3%)     90.0%
 TRAVEL      0.0598         C  2 -- C  3         +13.8% ( 61.7%)     91.6%
 RED. MASS   3.4750         C  1 -- C  5         +12.2% ( 58.0%)     80.0%
 EFF. MASS  11.7715

 VIBRATION   47   47A         ATOM PAIR      ENERGY CONTRIBUTION    RADIAL
 FREQ.      1804.44         C  7 -- C  8         +45.8% (100.1%)    100.0%
 T-DIPOLE    0.1171         C  4 -- C  8         +14.0% ( 55.4%)     24.3%
 TRAVEL      0.0561         C  3 -- C  7         +13.8% ( 55.0%)     22.4%
 RED. MASS   5.3694         C  8 -- H 20         +13.1% ( 53.5%)     10.2%
 EFF. MASS  11.8748         C  7 -- H 19         +12.8% ( 52.9%)     10.5%

 VIBRATION   48   48A         ATOM PAIR      ENERGY CONTRIBUTION    RADIAL
 FREQ.      1886.69         C  9 -- C 10         +44.2% ( 97.9%)    100.0%
 T-DIPOLE    0.1337         C  6 -- C 10         +14.3% ( 55.7%)     54.8%
 TRAVEL      0.0549         C  5 -- C  9         +14.3% ( 55.6%)     54.6%
 RED. MASS   5.4167         C 10 -- H 22         +13.1% ( 53.3%)      4.3%
 EFF. MASS  11.8744         C  9 -- H 21         +13.1% ( 53.3%)      4.3%

 VIBRATION   49   49A         ATOM PAIR      ENERGY CONTRIBUTION    RADIAL
 FREQ.      2936.96         C  5 -- H 16         +52.8% ( 75.4%)     96.9%
 T-DIPOLE    0.0394         C  5 -- H 15         +44.9% ( 69.5%)     96.0%
 TRAVEL      0.1220         C  5 -- C  9          +1.1% ( 11.0%)      0.0%
 RED. MASS   0.5210         C  1 -- C  5          +1.1% ( 11.0%)      0.0%
 EFF. MASS   1.5417

 VIBRATION   50   50A         ATOM PAIR      ENERGY CONTRIBUTION    RADIAL
 FREQ.      2939.34         C  6 -- H 18         +50.7% ( 73.9%)     96.7%
 T-DIPOLE    0.0375         C  6 -- H 17         +46.7% ( 70.9%)     96.2%
 TRAVEL      0.1219         C  2 -- C  6          +1.1% ( 11.0%)      0.0%
 RED. MASS   0.5166         C  6 -- C 10          +1.1% ( 11.0%)      0.0%
 EFF. MASS   1.5436

 VIBRATION   51   51A         ATOM PAIR      ENERGY CONTRIBUTION    RADIAL
 FREQ.      2980.40         C  4 -- H 14         +50.6% ( 73.8%)     96.9%
 T-DIPOLE    0.0560         C  4 -- H 13         +47.1% ( 71.2%)     96.5%
 TRAVEL      0.1211         C  4 -- C  8          +1.1% ( 11.0%)      0.0%
 RED. MASS   0.5193         C  1 -- C  4          +1.1% ( 11.0%)      0.0%
 EFF. MASS   1.5422

 VIBRATION   52   52A         ATOM PAIR      ENERGY CONTRIBUTION    RADIAL
 FREQ.      2998.83         C  2 -- H 11         +92.4% ( 97.7%)    100.0%
 T-DIPOLE    0.1938         C  6 -- H 17          +2.9% ( 17.4%)     99.3%
 TRAVEL      0.1246         C  2 -- C  3          +1.1% ( 10.7%)     24.6%
 RED. MASS   0.8493         C  2 -- C  6          +1.1% ( 10.7%)      6.7%
 EFF. MASS   1.4485

 VIBRATION   53   53A         ATOM PAIR      ENERGY CONTRIBUTION    RADIAL
 FREQ.      3011.94         C  5 -- H 15         +52.7% ( 71.6%)     98.1%
 T-DIPOLE    0.0740         C  5 -- H 16         +44.4% ( 65.7%)     97.2%
 TRAVEL      0.1321         C  9 -- H 21          +1.4% ( 11.7%)    100.0%
 RED. MASS   0.4731         C  5 -- C  9          +0.7% (  8.1%)     18.5%
 EFF. MASS   1.2826

 VIBRATION   54   54A         ATOM PAIR      ENERGY CONTRIBUTION    RADIAL
 FREQ.      3015.60         C  6 -- H 17         +47.3% ( 67.9%)     97.8%
 T-DIPOLE    0.1078         C  6 -- H 18         +45.2% ( 66.4%)     97.6%
 TRAVEL      0.1317         C  2 -- H 11          +3.9% ( 19.6%)    100.0%
 RED. MASS   0.4301         C 10 -- H 22          +2.1% ( 14.3%)    100.0%
 EFF. MASS   1.2891

 VIBRATION   55   55A         ATOM PAIR      ENERGY CONTRIBUTION    RADIAL
 FREQ.      3038.07         C 10 -- H 22         +50.3% ( 71.9%)    100.0%
 T-DIPOLE    0.2875         C  9 -- H 21         +45.6% ( 68.5%)    100.0%
 TRAVEL      0.1236         C  9 -- C 10          +1.1% ( 10.4%)      0.0%
 RED. MASS   0.4484         C  6 -- C 10          +0.7% (  8.2%)     26.7%
 EFF. MASS   1.4517

 VIBRATION   56   56A         ATOM PAIR      ENERGY CONTRIBUTION    RADIAL
 FREQ.      3049.52         C  4 -- H 13         +51.2% ( 70.7%)     97.6%
 T-DIPOLE    0.1169         C  4 -- H 14         +47.3% ( 67.9%)     97.2%
 TRAVEL      0.1313         C  1 -- C  4          +0.7% (  8.2%)     37.1%
 RED. MASS   0.4832         C  4 -- C  8          +0.7% (  8.2%)     33.3%
 EFF. MASS   1.2823

 VIBRATION   57   57A         ATOM PAIR      ENERGY CONTRIBUTION    RADIAL
 FREQ.      3058.17         C  9 -- H 21         +50.2% ( 71.8%)     99.9%
 T-DIPOLE    0.2770         C 10 -- H 22         +44.9% ( 67.9%)     99.9%
 TRAVEL      0.1181         C  9 -- C 10          +2.0% ( 14.2%)     99.9%
 RED. MASS   0.4540         C  5 -- C  9          +0.8% (  9.2%)     14.5%
 EFF. MASS   1.5800

 VIBRATION   58   58A         ATOM PAIR      ENERGY CONTRIBUTION    RADIAL
 FREQ.      3075.17         C  3 -- H 12         +95.7% ( 99.7%)    100.0%
 T-DIPOLE    0.3083         C  1 -- C  3          +1.3% ( 11.4%)     33.9%
 TRAVEL      0.1221         C  3 -- C  7          +1.3% ( 11.4%)     18.2%
 RED. MASS   0.9195         C  2 -- C  3          +1.2% ( 11.3%)     27.0%
 EFF. MASS   1.4703

 VIBRATION   59   59A         ATOM PAIR      ENERGY CONTRIBUTION    RADIAL
 FREQ.      3120.69         C  8 -- H 20         +61.5% ( 79.7%)    100.0%
 T-DIPOLE    0.3789         C  7 -- H 19         +35.9% ( 60.8%)    100.0%
 TRAVEL      0.1213         C  7 -- C  8          +1.2% ( 10.9%)      1.5%
 RED. MASS   0.4973         C  4 -- C  8          +0.9% (  9.8%)     25.7%
 EFF. MASS   1.4685

 VIBRATION   60   60A         ATOM PAIR      ENERGY CONTRIBUTION    RADIAL
 FREQ.      3139.78         C  7 -- H 19         +60.4% ( 79.1%)     99.9%
 T-DIPOLE    0.3715         C  8 -- H 20         +35.0% ( 60.3%)     99.9%
 TRAVEL      0.1142         C  7 -- C  8          +2.4% ( 15.9%)     98.0%
 RED. MASS   0.4966         C  3 -- C  7          +1.2% ( 11.0%)     24.7%
 EFF. MASS   1.6457

      SYMMETRY NUMBER FOR POINT-GROUP C1  =  1


          SYSTEM IS A GROUND STATE



 InChI=1S/C10H12/c1-2-6-10-7-3-5-9(10)8(10)4-1/h1-3,5,8-9H,4,6-7H2


          MOLECULE IS NOT LINEAR

          THERE ARE 60 GENUINE VIBRATIONS IN THIS SYSTEM
          THIS THERMODYNAMICS CALCULATION IS LIMITED TO
          MOLECULES WHICH HAVE NO INTERNAL ROTATIONS




                    CALCULATED THERMODYNAMIC PROPERTIES
                                          *
   TEMP. (K)   PARTITION FUNCTION   H.O.F.    ENTHALPY  HEAT CAPACITY ENTROPY
                                   KCAL/MOL   CAL/MOLE    CAL/K/MOL  CAL/K/MOL


 298.00  VIB.     0.2639D+02                  3140.3144    26.7738    17.0422
         ROT.     0.4779D+06                   888.2813     2.9808    28.9679
         INT.     0.1261D+08                  4028.5957    29.7546    46.0101
         TRA.     0.1470D+28                  1480.4688     4.9680    40.5480
         TOT.                       46.763    5509.0646    34.7226    86.5580

 200.00  VIB.     0.5433D+01                  1143.4638    14.4046     9.0806
         ROT.     0.2628D+06                   596.1620     2.9808    27.7792
         INT.     0.1428D+07                  1739.6257    17.3854    36.8598
         TRA.     0.8080D+27                   993.6033     4.9680    38.5668
         TOT.                       43.987    2733.2290    22.3534    75.4266

 210.00  VIB.     0.6285D+01                  1293.0894    15.5275     9.8104
         ROT.     0.2827D+06                   625.9700     2.9808    27.9246
         INT.     0.1777D+07                  1919.0594    18.5083    37.7350
         TRA.     0.8694D+27                  1043.2834     4.9680    38.8092
         TOT.                       44.216    2962.3428    23.4763    76.5443

 220.00  VIB.     0.7298D+01                  1454.1482    16.6909    10.5595
         ROT.     0.3031D+06                   655.7781     2.9808    28.0633
         INT.     0.2212D+07                  2109.9264    19.6717    38.6227
         TRA.     0.9322D+27                  1092.9636     4.9680    39.0403
         TOT.                       44.457    3202.8900    24.6397    77.6631

 230.00  VIB.     0.8504D+01                  1627.0346    17.8925    11.3278
         ROT.     0.3241D+06                   685.5862     2.9808    28.1958
         INT.     0.2756D+07                  2312.6208    20.8733    39.5236
         TRA.     0.9965D+27                  1142.6437     4.9680    39.2612
         TOT.                       44.709    3455.2646    25.8413    78.7847

 240.00  VIB.     0.9945D+01                  1812.1137    19.1289    12.1153
         ROT.     0.3454D+06                   715.3943     2.9808    28.3226
         INT.     0.3435D+07                  2527.5081    22.1097    40.4379
         TRA.     0.1062D+28                  1192.3239     4.9680    39.4726
         TOT.                       44.974    3719.8320    27.0777    79.9105

 250.00  VIB.     0.1167D+02                  2009.7152    20.3963    12.9217
         ROT.     0.3672D+06                   745.2024     2.9808    28.4443
         INT.     0.4286D+07                  2754.9176    23.3771    41.3661
         TRA.     0.1129D+28                  1242.0041     4.9680    39.6754
         TOT.                       45.251    3996.9217    28.3451    81.0415

 260.00  VIB.     0.1375D+02                  2220.1280    21.6904    13.7468
         ROT.     0.3895D+06                   775.0105     2.9808    28.5612
         INT.     0.5354D+07                  2995.1385    24.6712    42.3081
         TRA.     0.1198D+28                  1291.6842     4.9680    39.8703
         TOT.                       45.541    4286.8227    29.6392    82.1783

 270.00  VIB.     0.1624D+02                  2443.5978    23.0069    14.5901
         ROT.     0.4122D+06                   804.8186     2.9808    28.6737
         INT.     0.6695D+07                  3248.4164    25.9877    43.2638
         TRA.     0.1267D+28                  1341.3644     4.9680    40.0578
         TOT.                       45.844    4589.7808    30.9557    83.3216

 280.00  VIB.     0.1926D+02                  2680.3253    24.3412    15.4508
         ROT.     0.4353D+06                   834.6267     2.9808    28.7821
         INT.     0.8383D+07                  3514.9520    27.3220    44.2330
         TRA.     0.1338D+28                  1391.0445     4.9680    40.2384
         TOT.                       46.160    4905.9966    32.2900    84.4714

 290.00  VIB.     0.2291D+02                  2930.4666    25.6889    16.3285
         ROT.     0.4588D+06                   864.4348     2.9808    28.8867
         INT.     0.1051D+08                  3794.9015    28.6697    45.2152
         TRA.     0.1411D+28                  1440.7247     4.9680    40.4128
         TOT.                       46.490    5235.6262    33.6377    85.6280

 300.00  VIB.     0.2735D+02                  3194.1339    27.0457    17.2222
         ROT.     0.4827D+06                   894.2429     2.9808    28.9878
         INT.     0.1320D+08                  4088.3768    30.0265    46.2100
         TRA.     0.1484D+28                  1490.4049     4.9680    40.5812
         TOT.                       46.833    5578.7817    34.9945    86.7912

 310.00  VIB.     0.3275D+02                  3471.3973    28.4075    18.1312
         ROT.     0.5071D+06                   924.0510     2.9808    29.0855
         INT.     0.1661D+08                  4395.4483    31.3883    47.2168
         TRA.     0.1559D+28                  1540.0850     4.9680    40.7441
         TOT.                       47.189    5935.5334    36.3563    87.9609

 320.00  VIB.     0.3934D+02                  3762.2876    29.7705    19.0547
         ROT.     0.5318D+06                   953.8591     2.9808    29.1802
         INT.     0.2092D+08                  4716.1467    32.7513    48.2348
         TRA.     0.1635D+28                  1589.7652     4.9680    40.9018
         TOT.                       47.560    6305.9119    37.7193    89.1367

 330.00  VIB.     0.4740D+02                  4066.7987    31.1311    19.9916
         ROT.     0.5569D+06                   983.6672     2.9808    29.2719
         INT.     0.2640D+08                  5050.4660    34.1119    49.2635
         TRA.     0.1713D+28                  1639.4454     4.9680    41.0547
         TOT.                       47.944    6689.9113    39.0799    90.3182

 340.00  VIB.     0.5729D+02                  4384.8912    32.4862    20.9411
         ROT.     0.5824D+06                  1013.4753     2.9808    29.3609
         INT.     0.3337D+08                  5398.3666    35.4670    50.3020
         TRA.     0.1791D+28                  1689.1255     4.9680    41.2030
         TOT.                       48.341    7087.4921    40.4351    91.5050

 350.00  VIB.     0.6943D+02                  4716.4952    33.8330    21.9022
         ROT.     0.6083D+06                  1043.2834     2.9808    29.4473
         INT.     0.4224D+08                  5759.7787    36.8138    51.3495
         TRA.     0.1871D+28                  1738.8057     4.9680    41.3470
         TOT.                       48.753    7498.5843    41.7818    92.6965

 360.00  VIB.     0.8440D+02                  5061.5138    35.1687    22.8741
         ROT.     0.6346D+06                  1073.0915     2.9808    29.5313
         INT.     0.5356D+08                  6134.6053    38.1496    52.4054
         TRA.     0.1951D+28                  1788.4859     4.9680    41.4870
         TOT.                       49.177    7923.0912    43.1176    93.8923

 370.00  VIB.     0.1029D+03                  5419.8262    36.4914    23.8557
         ROT.     0.6612D+06                  1102.8996     2.9808    29.6129
         INT.     0.6801D+08                  6522.7258    39.4722    53.4687
         TRA.     0.2033D+28                  1838.1660     4.9680    41.6231
         TOT.                       49.615    8360.8918    44.4402    95.0918

 380.00  VIB.     0.1257D+03                  5791.2909    37.7989    24.8463
         ROT.     0.6882D+06                  1132.7077     2.9808    29.6924
         INT.     0.8651D+08                  6923.9987    40.7797    54.5387
         TRA.     0.2116D+28                  1887.8462     4.9680    41.7556
         TOT.                       50.066    8811.8448    45.7477    96.2943

 390.00  VIB.     0.1540D+03                  6175.7487    39.0897    25.8449
         ROT.     0.7155D+06                  1162.5158     2.9808    29.7699
         INT.     0.1102D+09                  7338.2645    42.0705    55.6147
         TRA.     0.2200D+28                  1937.5263     4.9680    41.8846
         TOT.                       50.530    9275.7908    47.0386    97.4994

 400.00  VIB.     0.1892D+03                  6573.0251    40.3624    26.8506
         ROT.     0.7432D+06                  1192.3239     2.9808    29.8453
         INT.     0.1406D+09                  7765.3490    43.3432    56.6959
         TRA.     0.2285D+28                  1987.2065     4.9680    42.0104
         TOT.                       51.006    9752.5555    48.3113    98.7064

   *: NOTE: HEATS OF FORMATION ARE RELATIVE TO THE
            ELEMENTS IN THEIR STANDARD STATE AT 298K
              (=  Standard Enthalpy of Formation).

            Hvib:  Zero-point energy is not included.
                   frequencies of less than zero cm-1 are not included.
            Hrot = (3/2)RT
            Htra = (3/2)RT + pV = (5/2)RT

            Heat capacity is Cp, not Cv

          For more information, see: HTTP://OpenMOPAC.net/Manual/thermochemistry.html


           FORCE CONSTANT IN CARTESIAN COORDINATES (Millidynes/A)

    ATOM   CHEMICAL       X               Y               Z
   NUMBER   SYMBOL  FORCE CONSTANT  FORCE CONSTANT  FORCE CONSTANT

      1       C        9.843150        6.561756        9.638060
      2       C        9.690160        6.272144        9.296950
      3       C        4.757129       10.612887       10.081497
      4       C        8.722550        8.886506        7.706695
      5       C        8.868845        8.006907        9.217753
      6       C        8.791291        8.052733        8.987468
      7       C        6.795818       11.350021        9.378327
      8       C        6.749525        8.692577       11.647726
      9       C       15.351120        2.621014        9.282115
     10       C       15.361061        2.601409        9.262885
     11       H        1.734759        0.932448        3.651443
     12       H        0.515417        2.513325        3.430030
     13       H        1.115981        3.513593        1.723766
     14       H        4.984757        0.656890        0.742393
     15       H        3.026605        2.363110        0.848275
     16       H        1.249219        4.036448        0.916831
     17       H        2.590998        2.765669        0.884053
     18       H        1.588432        3.801336        0.835254
     19       H        1.186994        4.278358        0.970401
     20       H        0.944822        0.800917        4.684800
     21       H        1.903551        0.484970        3.841918
     22       H        1.783145        0.437866        4.007745

 **********************
 *                    *
 * JOB ENDED NORMALLY *
 *                    *
 **********************



 TOTAL JOB TIME:             2.11 SECONDS

 == MOPAC DONE ==
