 *******************************************************************************
 ** Site#: 14399        For non-commercial use only    Version 18.184L 64BITS **
 *******************************************************************************
 ** Cite this program as: MOPAC2016, Version: 18.184L, James J. P. Stewart,   **
 ** Stewart Computational Chemistry, web: HTTP://OpenMOPAC.net. Days left:  18**
 *******************************************************************************
 **                                                                           **
 **                                MOPAC2016                                  **
 **                                                                           **
 *******************************************************************************

                              PM3 CALCULATION RESULTS

 *******************************************************************************
 *  CALCULATION DONE:                                Sat Jun 15 10:14:53 2019  *
 *  PM3        - The PM3 Hamiltonian to be used
 *  PRECISE    - CRITERIA TO BE INCREASED BY 100 TIMES
 *  NOSYM      - POINT-GROUP SYMMETRY SET TO C1
 *  THREADS=1  - MULTI-THREADING NOT USED
 *  T=         - A TIME OF 172800.0 SECONDS REQUESTED
 *  DUMP=N     - RESTART FILE WRITTEN EVERY  7200.000 SECONDS
 *******************************************************************************
pm3  precise nosym THREADS=1
 InChI=1S/C9H10/c1-2-5-9-7-3-6-8(9)4-1/h1-6,8-9H,7H2

   ATOM   CHEMICAL          X               Y               Z
  NUMBER   SYMBOL      (ANGSTROMS)     (ANGSTROMS)     (ANGSTROMS)
 
     1       C         -0.37130000  *   0.85200000  *  -0.37800000  *
     2       C         -0.11680000  *  -0.58110000  *  -0.92320000  *
     3       C         -1.56220000  *   0.72850000  *   0.58910000  *
     4       C         -1.23230000  *  -1.38550000  *  -0.35360000  *
     5       C          0.80950000  *   1.51050000  *   0.29420000  *
     6       C          1.20350000  *  -1.19870000  *  -0.53740000  *
     7       C         -2.00750000  *  -0.68210000  *   0.45300000  *
     8       C          2.15100000  *  -0.52280000  *   0.11100000  *
     9       C          1.95840000  *   0.87330000  *   0.51460000  *
    10       H         -0.67230000  *   1.49940000  *  -1.23200000  *
    11       H         -0.19930000  *  -0.58580000  *  -2.03180000  *
    12       H         -1.27670000  *   0.91780000  *   1.64730000  *
    13       H         -2.38460000  *   1.41600000  *   0.29590000  *
    14       H         -2.86590000  *  -1.09970000  *   0.96900000  *
    15       H          1.39990000  *  -2.22410000  *  -0.82710000  *
    16       H         -1.39900000  *  -2.43590000  *  -0.57130000  *
    17       H          0.70910000  *   2.53750000  *   0.62360000  *
    18       H          3.08910000  *  -1.01060000  *   0.34320000  *
    19       H          2.76770000  *   1.39120000  *   1.01330000  *
 


          CARTESIAN COORDINATES 

    NO.       ATOM           X           Y           Z

     1         C         -0.3713      0.8520     -0.3780
     2         C         -0.1168     -0.5811     -0.9232
     3         C         -1.5622      0.7285      0.5891
     4         C         -1.2323     -1.3855     -0.3536
     5         C          0.8095      1.5105      0.2942
     6         C          1.2035     -1.1987     -0.5374
     7         C         -2.0075     -0.6821      0.4530
     8         C          2.1510     -0.5228      0.1110
     9         C          1.9584      0.8733      0.5146
    10         H         -0.6723      1.4994     -1.2320
    11         H         -0.1993     -0.5858     -2.0318
    12         H         -1.2767      0.9178      1.6473
    13         H         -2.3846      1.4160      0.2959
    14         H         -2.8659     -1.0997      0.9690
    15         H          1.3999     -2.2241     -0.8271
    16         H         -1.3990     -2.4359     -0.5713
    17         H          0.7091      2.5375      0.6236
    18         H          3.0891     -1.0106      0.3432
    19         H          2.7677      1.3912      1.0133

  H: (PM3): J. J. P. STEWART, J. COMP. CHEM. 10, 209 (1989).
  C: (PM3): J. J. P. STEWART, J. COMP. CHEM. 10, 209 (1989).

           Empirical Formula: C9 H10  =    19 atoms



      MOLECULAR POINT GROUP   :   C1  


      RHF CALCULATION, NO. OF DOUBLY OCCUPIED LEVELS = 23


          Geometry optimization using EF

          DIAGONAL MATRIX USED AS START HESSIAN

 CYCLE:     1 TIME:   0.004 TIME LEFT:  2.00D  GRAD.:    69.303 HEAT:  43.00744
 CYCLE:     2 TIME:   0.012 TIME LEFT:  2.00D  GRAD.:    51.506 HEAT:  42.13525
 CYCLE:     3 TIME:   0.004 TIME LEFT:  2.00D  GRAD.:    28.814 HEAT:  41.69439
 CYCLE:     4 TIME:   0.004 TIME LEFT:  2.00D  GRAD.:    27.382 HEAT:  41.39803
 CYCLE:     5 TIME:   0.004 TIME LEFT:  2.00D  GRAD.:    36.766 HEAT:  41.14465
 CYCLE:     6 TIME:   0.004 TIME LEFT:  2.00D  GRAD.:    49.438 HEAT:  41.13940
 CYCLE:     7 TIME:   0.008 TIME LEFT:  2.00D  GRAD.:    32.632 HEAT:  40.84143
 CYCLE:     8 TIME:   0.008 TIME LEFT:  2.00D  GRAD.:    12.891 HEAT:  40.67266
 CYCLE:     9 TIME:   0.004 TIME LEFT:  2.00D  GRAD.:    15.269 HEAT:  40.66476
 CYCLE:    10 TIME:   0.004 TIME LEFT:  2.00D  GRAD.:    16.393 HEAT:  40.65701
 CYCLE:    11 TIME:   0.008 TIME LEFT:  2.00D  GRAD.:     9.361 HEAT:  40.59755
 CYCLE:    12 TIME:   0.004 TIME LEFT:  2.00D  GRAD.:     6.501 HEAT:  40.57887
 CYCLE:    13 TIME:   0.004 TIME LEFT:  2.00D  GRAD.:     6.028 HEAT:  40.56902
 CYCLE:    14 TIME:   0.004 TIME LEFT:  2.00D  GRAD.:     6.606 HEAT:  40.55919
 CYCLE:    15 TIME:   0.004 TIME LEFT:  2.00D  GRAD.:     7.301 HEAT:  40.55342
 CYCLE:    16 TIME:   0.008 TIME LEFT:  2.00D  GRAD.:     4.089 HEAT:  40.54190
 CYCLE:    17 TIME:   0.008 TIME LEFT:  2.00D  GRAD.:     3.205 HEAT:  40.53830
 CYCLE:    18 TIME:   0.004 TIME LEFT:  2.00D  GRAD.:     5.649 HEAT:  40.53555
 CYCLE:    19 TIME:   0.000 TIME LEFT:  2.00D  GRAD.:     5.186 HEAT:  40.52809
 CYCLE:    20 TIME:   0.004 TIME LEFT:  2.00D  GRAD.:     4.186 HEAT:  40.52239
 CYCLE:    21 TIME:   0.004 TIME LEFT:  2.00D  GRAD.:     3.377 HEAT:  40.51812
 CYCLE:    22 TIME:   0.004 TIME LEFT:  2.00D  GRAD.:     2.741 HEAT:  40.51515
 CYCLE:    23 TIME:   0.004 TIME LEFT:  2.00D  GRAD.:     2.157 HEAT:  40.51275
 CYCLE:    24 TIME:   0.004 TIME LEFT:  2.00D  GRAD.:     2.170 HEAT:  40.51174
 CYCLE:    25 TIME:   0.004 TIME LEFT:  2.00D  GRAD.:     1.387 HEAT:  40.50991
 CYCLE:    26 TIME:   0.004 TIME LEFT:  2.00D  GRAD.:     1.049 HEAT:  40.50852
 CYCLE:    27 TIME:   0.004 TIME LEFT:  2.00D  GRAD.:     1.653 HEAT:  40.50625
 CYCLE:    28 TIME:   0.004 TIME LEFT:  2.00D  GRAD.:     1.618 HEAT:  40.50209
 CYCLE:    29 TIME:   0.004 TIME LEFT:  2.00D  GRAD.:     1.273 HEAT:  40.49919
 CYCLE:    30 TIME:   0.004 TIME LEFT:  2.00D  GRAD.:     1.357 HEAT:  40.49582
 CYCLE:    31 TIME:   0.004 TIME LEFT:  2.00D  GRAD.:     1.901 HEAT:  40.49226
 CYCLE:    32 TIME:   0.004 TIME LEFT:  2.00D  GRAD.:     1.700 HEAT:  40.48877
 CYCLE:    33 TIME:   0.004 TIME LEFT:  2.00D  GRAD.:     0.912 HEAT:  40.48609
 CYCLE:    34 TIME:   0.004 TIME LEFT:  2.00D  GRAD.:     0.993 HEAT:  40.48411
 CYCLE:    35 TIME:   0.004 TIME LEFT:  2.00D  GRAD.:     0.919 HEAT:  40.48288
 CYCLE:    36 TIME:   0.004 TIME LEFT:  2.00D  GRAD.:     0.828 HEAT:  40.48121
 CYCLE:    37 TIME:   0.004 TIME LEFT:  2.00D  GRAD.:     0.805 HEAT:  40.47959
 CYCLE:    38 TIME:   0.004 TIME LEFT:  2.00D  GRAD.:     0.832 HEAT:  40.47832
 CYCLE:    39 TIME:   0.004 TIME LEFT:  2.00D  GRAD.:     0.840 HEAT:  40.47679
 CYCLE:    40 TIME:   0.004 TIME LEFT:  2.00D  GRAD.:     0.843 HEAT:  40.47518
 CYCLE:    41 TIME:   0.004 TIME LEFT:  2.00D  GRAD.:     1.213 HEAT:  40.47286
 CYCLE:    42 TIME:   0.004 TIME LEFT:  2.00D  GRAD.:     1.420 HEAT:  40.46943
 CYCLE:    43 TIME:   0.004 TIME LEFT:  2.00D  GRAD.:     1.567 HEAT:  40.46403
 CYCLE:    44 TIME:   0.004 TIME LEFT:  2.00D  GRAD.:     1.206 HEAT:  40.45880
 CYCLE:    45 TIME:   0.004 TIME LEFT:  2.00D  GRAD.:     0.728 HEAT:  40.45713
 CYCLE:    46 TIME:   0.004 TIME LEFT:  2.00D  GRAD.:     0.548 HEAT:  40.45588
 CYCLE:    47 TIME:   0.004 TIME LEFT:  2.00D  GRAD.:     0.491 HEAT:  40.45536
 CYCLE:    48 TIME:   0.004 TIME LEFT:  2.00D  GRAD.:     0.331 HEAT:  40.45483
 CYCLE:    49 TIME:   0.004 TIME LEFT:  2.00D  GRAD.:     0.236 HEAT:  40.45468
 CYCLE:    50 TIME:   0.004 TIME LEFT:  2.00D  GRAD.:     0.225 HEAT:  40.45457
 CYCLE:    51 TIME:   0.004 TIME LEFT:  2.00D  GRAD.:     0.203 HEAT:  40.45447
 CYCLE:    52 TIME:   0.004 TIME LEFT:  2.00D  GRAD.:     0.149 HEAT:  40.45438
 CYCLE:    53 TIME:   0.004 TIME LEFT:  2.00D  GRAD.:     0.126 HEAT:  40.45434
 CYCLE:    54 TIME:   0.004 TIME LEFT:  2.00D  GRAD.:     0.129 HEAT:  40.45430
 CYCLE:    55 TIME:   0.004 TIME LEFT:  2.00D  GRAD.:     0.152 HEAT:  40.45425
 CYCLE:    56 TIME:   0.000 TIME LEFT:  2.00D  GRAD.:     0.117 HEAT:  40.45421
 CYCLE:    57 TIME:   0.004 TIME LEFT:  2.00D  GRAD.:     0.098 HEAT:  40.45418
 CYCLE:    58 TIME:   0.004 TIME LEFT:  2.00D  GRAD.:     0.054 HEAT:  40.45417
 CYCLE:    59 TIME:   0.004 TIME LEFT:  2.00D  GRAD.:     0.044 HEAT:  40.45417

     GRADIENT =  0.04365  IS LESS THAN CUTOFF =  0.05000



 -------------------------------------------------------------------------------
 pm3  precise nosym THREADS=1
 InChI=1S/C9H10/c1-2-5-9-7-3-6-8(9)4-1/h1-6,8-9H,7H2



     GEOMETRY OPTIMISED USING EIGENVECTOR FOLLOWING (EF).     
     SCF FIELD WAS ACHIEVED                                   


                              PM3 CALCULATION
                                                       MOPAC2016 (Version: 18.184L)
                                                       Sat Jun 15 10:14:53 2019
                                                       No. of days remaining =  18




          FINAL HEAT OF FORMATION =         40.45417 KCAL/MOL =     169.26024 KJ/MOL


          TOTAL ENERGY            =      -1219.33627 EV
          ELECTRONIC ENERGY       =      -6304.28753 EV  POINT GROUP:     C1  
          CORE-CORE REPULSION     =       5084.95126 EV
          COSMO AREA              =        157.87 SQUARE ANGSTROMS
          COSMO VOLUME            =        157.83 CUBIC ANGSTROMS

          GRADIENT NORM           =          0.04365 = 0.01002 PER ATOM
          IONIZATION POTENTIAL    =          9.006153 EV
          HOMO LUMO ENERGIES (EV) =         -9.006  0.265
          NO. OF FILLED LEVELS    =         23
          MOLECULAR WEIGHT        =        118.1780

          MOLECULAR DIMENSIONS (Angstroms)

            Atom       Atom       Distance
            H    19    H    14     6.15194
            H    15    H    13     4.94008
            H    12    H    11     3.05203


          SCF CALCULATIONS        =         69
 
          WALL-CLOCK TIME         =          0.258 SECONDS
          COMPUTATION TIME        =          0.239 SECONDS




   ATOM   CHEMICAL          X               Y               Z
  NUMBER   SYMBOL      (ANGSTROMS)     (ANGSTROMS)     (ANGSTROMS)
 
     1       C         -0.35583220  *   0.85131883  *  -0.37843803  *
     2       C         -0.11196347  *  -0.58847999  *  -0.90514969  *
     3       C         -1.59852825  *   0.75706997  *   0.53784396  *
     4       C         -1.21750693  *  -1.40803781  *  -0.29744725  *
     5       C          0.79046944  *   1.46649427  *   0.34388608  *
     6       C          1.21769650  *  -1.17858973  *  -0.58825156  *
     7       C         -2.02228352  *  -0.67341355  *   0.47620551  *
     8       C          2.17557209  *  -0.51025061  *   0.06380688  *
     9       C          1.95862291  *   0.84305928  *   0.53520058  *
    10       H         -0.57884450  *   1.51670258  *  -1.24586879  *
    11       H         -0.21852670  *  -0.60245689  *  -2.01712513  *
    12       H         -1.37333604  *   1.05254670  *   1.57993270  *
    13       H         -2.41059519  *   1.42499848  *   0.19680786  *
    14       H         -2.89671138  *  -1.02625805  *   1.02252429  *
    15       H          1.37214952  *  -2.21087007  *  -0.92234427  *
    16       H         -1.29819199  *  -2.47623621  *  -0.49745459  *
    17       H          0.62438728  *   2.48194871  *   0.72188505  *
    18       H          3.14932224  *  -0.96701050  *   0.26873209  *
    19       H          2.78472283  *   1.33301411  *   1.06102361  *

                             CARTESIAN COORDINATES

   1    C       -0.355832196     0.851318827    -0.378438028
   2    C       -0.111963474    -0.588479992    -0.905149687
   3    C       -1.598528247     0.757069972     0.537843961
   4    C       -1.217506931    -1.408037807    -0.297447254
   5    C        0.790469444     1.466494266     0.343886078
   6    C        1.217696505    -1.178589732    -0.588251561
   7    C       -2.022283519    -0.673413548     0.476205509
   8    C        2.175572091    -0.510250606     0.063806877
   9    C        1.958622913     0.843059284     0.535200578
  10    H       -0.578844496     1.516702579    -1.245868788
  11    H       -0.218526699    -0.602456889    -2.017125127
  12    H       -1.373336039     1.052546698     1.579932700
  13    H       -2.410595194     1.424998476     0.196807862
  14    H       -2.896711380    -1.026258047     1.022524294
  15    H        1.372149519    -2.210870073    -0.922344266
  16    H       -1.298191990    -2.476236205    -0.497454595
  17    H        0.624387281     2.481948712     0.721885045
  18    H        3.149322235    -0.967010502     0.268732085
  19    H        2.784722834     1.333014112     1.061023608


           Empirical Formula: C9 H10  =    19 atoms



      MOLECULAR POINT GROUP   :   C1  


                  EIGENVALUES  
 -41.54445 -34.52912 -31.13949 -27.39882 -25.96880 -21.15920 -20.71692 -19.02788
 -17.64276 -17.17345 -15.97398 -15.67924 -14.60748 -14.20100 -13.93312 -13.17452
 -13.07233 -12.67632 -12.25701 -11.75289 -11.38243  -9.69602  -9.00615   0.26471
   1.09527   2.10469   3.29010   3.32078   3.44485   3.47452   3.65797   3.74197
   3.85191   3.94503   4.08132   4.15505   4.40568   4.43811   4.80233   5.04171
   5.05393   5.38246   5.52929   5.91917   6.01022   6.27296


              NET ATOMIC CHARGES AND DIPOLE CONTRIBUTIONS

  ATOM NO.   TYPE          CHARGE      No. of ELECS.   s-Pop       p-Pop       
    1          C          -0.040049        4.0400     1.17158     2.86847
    2          C          -0.007533        4.0075     1.15929     2.84824
    3          C          -0.063794        4.0638     1.15730     2.90649
    4          C          -0.150695        4.1507     1.20383     2.94687
    5          C          -0.131797        4.1318     1.19595     2.93585
    6          C          -0.123397        4.1234     1.19459     2.92881
    7          C          -0.148125        4.1481     1.20080     2.94732
    8          C          -0.110873        4.1109     1.17744     2.93344
    9          C          -0.107341        4.1073     1.17745     2.92989
   10          H           0.067828        0.9322     0.93217
   11          H           0.072731        0.9273     0.92727
   12          H           0.063298        0.9367     0.93670
   13          H           0.055488        0.9445     0.94451
   14          H           0.111622        0.8884     0.88838
   15          H           0.099366        0.9006     0.90063
   16          H           0.112987        0.8870     0.88701
   17          H           0.098953        0.9010     0.90105
   18          H           0.100909        0.8991     0.89909
   19          H           0.100422        0.8996     0.89958
 DIPOLE           X         Y         Z       TOTAL
 POINT-CHG.    -0.269     0.119    -0.116     0.317
 HYBRID        -0.014    -0.019     0.041     0.047
 SUM           -0.283     0.100    -0.076     0.310


          ATOMIC ORBITAL ELECTRON POPULATIONS

     Atom    s        px        py        pz   
    1  C   1.17158   0.94150   0.95436   0.97261
    2  C   1.15929   0.92840   0.93180   0.98804
    3  C   1.15730   0.96047   0.95102   0.99500
    4  C   1.20383   0.96844   0.98375   0.99467
    5  C   1.19595   0.95560   0.98578   0.99447
    6  C   1.19459   0.95176   0.98635   0.99069
    7  C   1.20080   0.99201   0.96245   0.99287
    8  C   1.17744   0.98234   0.95565   0.99544
    9  C   1.17745   0.97204   0.95401   1.00384
   10  H   0.93217
   11  H   0.92727
   12  H   0.93670
   13  H   0.94451
   14  H   0.88838
   15  H   0.90063
   16  H   0.88701
   17  H   0.90105
   18  H   0.89909
   19  H   0.89958
 *******************************************************************************
 ** Site#: 14399        For non-commercial use only    Version 18.184L 64BITS **
 *******************************************************************************
 ** Cite this program as: MOPAC2016, Version: 18.184L, James J. P. Stewart,   **
 ** Stewart Computational Chemistry, web: HTTP://OpenMOPAC.net. Days left:  18**
 *******************************************************************************
 **                                                                           **
 **                                MOPAC2016                                  **
 **                                                                           **
 *******************************************************************************

                              PM3 CALCULATION RESULTS

 *******************************************************************************
 *  CALCULATION DONE:                                Sat Jun 15 10:14:53 2019  *
 *  PM3        - The PM3 Hamiltonian to be used
 *  OLDGEO     - PREVIOUS GEOMETRY TO BE USED
 *  PRECISE    - CRITERIA TO BE INCREASED BY 100 TIMES
 *  NOSYM      - POINT-GROUP SYMMETRY SET TO C1
 *  THREADS=1  - MULTI-THREADING NOT USED
 *  T=         - A TIME OF 172800.0 SECONDS REQUESTED
 *  DUMP=N     - RESTART FILE WRITTEN EVERY  7200.000 SECONDS
 *  THERMO     - THERMODYNAMIC QUANTITIES TO BE CALCULATED
 *******************************************************************************
oldgeo thermo nosym precise THREADS=1  pm3
 InChI=1S/C9H10/c1-2-5-9-7-3-6-8(9)4-1/h1-6,8-9H,7H2

   ATOM   CHEMICAL          X               Y               Z
  NUMBER   SYMBOL      (ANGSTROMS)     (ANGSTROMS)     (ANGSTROMS)
 
     1       C         -0.35583220  *   0.85131883  *  -0.37843803  *
     2       C         -0.11196347  *  -0.58847999  *  -0.90514969  *
     3       C         -1.59852825  *   0.75706997  *   0.53784396  *
     4       C         -1.21750693  *  -1.40803781  *  -0.29744725  *
     5       C          0.79046944  *   1.46649427  *   0.34388608  *
     6       C          1.21769650  *  -1.17858973  *  -0.58825156  *
     7       C         -2.02228352  *  -0.67341355  *   0.47620551  *
     8       C          2.17557209  *  -0.51025061  *   0.06380688  *
     9       C          1.95862291  *   0.84305928  *   0.53520058  *
    10       H         -0.57884450  *   1.51670258  *  -1.24586879  *
    11       H         -0.21852670  *  -0.60245689  *  -2.01712513  *
    12       H         -1.37333604  *   1.05254670  *   1.57993270  *
    13       H         -2.41059519  *   1.42499848  *   0.19680786  *
    14       H         -2.89671138  *  -1.02625805  *   1.02252429  *
    15       H          1.37214952  *  -2.21087007  *  -0.92234427  *
    16       H         -1.29819199  *  -2.47623621  *  -0.49745459  *
    17       H          0.62438728  *   2.48194871  *   0.72188505  *
    18       H          3.14932224  *  -0.96701050  *   0.26873209  *
    19       H          2.78472283  *   1.33301411  *   1.06102361  *
 


          CARTESIAN COORDINATES 

    NO.       ATOM           X           Y           Z

     1         C         -0.3558      0.8513     -0.3784
     2         C         -0.1120     -0.5885     -0.9051
     3         C         -1.5985      0.7571      0.5378
     4         C         -1.2175     -1.4080     -0.2974
     5         C          0.7905      1.4665      0.3439
     6         C          1.2177     -1.1786     -0.5883
     7         C         -2.0223     -0.6734      0.4762
     8         C          2.1756     -0.5103      0.0638
     9         C          1.9586      0.8431      0.5352
    10         H         -0.5788      1.5167     -1.2459
    11         H         -0.2185     -0.6025     -2.0171
    12         H         -1.3733      1.0525      1.5799
    13         H         -2.4106      1.4250      0.1968
    14         H         -2.8967     -1.0263      1.0225
    15         H          1.3721     -2.2109     -0.9223
    16         H         -1.2982     -2.4762     -0.4975
    17         H          0.6244      2.4819      0.7219
    18         H          3.1493     -0.9670      0.2687
    19         H          2.7847      1.3330      1.0610

  H: (PM3): J. J. P. STEWART, J. COMP. CHEM. 10, 209 (1989).
  C: (PM3): J. J. P. STEWART, J. COMP. CHEM. 10, 209 (1989).

           Empirical Formula: C9 H10  =    19 atoms



      MOLECULAR POINT GROUP   :   C1  


      RHF CALCULATION, NO. OF DOUBLY OCCUPIED LEVELS = 23



          HEAT OF FORMATION =      40.454169 KCALS/MOLE


          CARTESIAN COORDINATE DERIVATIVES

   NUMBER  ATOM         X            Y            Z

     1       C     -0.003476     0.002639     0.005204
     2       C      0.000067    -0.001853     0.001624
     3       C     -0.001885     0.003547     0.007759
     4       C     -0.006128     0.004652     0.003319
     5       C     -0.007191     0.001469     0.007030
     6       C      0.008559     0.010576     0.007212
     7       C      0.001979    -0.002421     0.004790
     8       C     -0.008183     0.001761    -0.011340
     9       C      0.007465     0.003432     0.002650
    10       H     -0.000539    -0.010921    -0.008610
    11       H     -0.004189     0.005035     0.002757
    12       H      0.003171    -0.009330    -0.006604
    13       H      0.002805     0.010180     0.004168
    14       H      0.008848     0.007208    -0.001049
    15       H     -0.005589     0.001045    -0.003320
    16       H      0.004001    -0.003979    -0.001874
    17       H      0.000920    -0.004887    -0.002617
    18       H     -0.006790    -0.002883    -0.000817
    19       H      0.006154    -0.015269    -0.010282
 


          GRADIENT NORM =   0.04508


          TIME FOR SCF CALCULATION =    0.00

          TIME FOR DERIVATIVES     =    0.00

          MOLECULAR WEIGHT =  118.18



          ROTATIONAL CONSTANTS IN CM(-1)

          A =    0.10146375   B =    0.05685158   C =    0.04136020



           PRINCIPAL MOMENTS OF INERTIA IN UNITS OF 10**(-40)*GRAM-CM**2

          A =      275.8894   B =      492.3834   C =      676.8046


          ORIENTATION OF MOLECULE IN FORCE CALCULATION

    NO.       ATOM         X         Y         Z

     1          C      -0.7735   -0.1325    0.7039
     2          C       0.7789   -0.1325    0.7039
     3          C      -1.1922    1.3566    0.7039
     4          C       1.1591    1.3228    0.7294
     5          C      -1.4091   -0.8623   -0.4264
     6          C       1.4275   -0.8274   -0.4419
     7          C       0.0889    2.1230    0.7364
     8          C       0.7369   -1.4621   -1.3957
     9          C      -0.7123   -1.4841   -1.3844
    10          H      -1.1314   -0.6229    1.6401
    11          H       1.1524   -0.6219    1.6361
    12          H      -1.7844    1.6247   -0.1913
    13          H      -1.8236    1.6046    1.5767
    14          H       0.0934    3.2125    0.7601
    15          H       2.5226   -0.7887   -0.4640
    16          H       2.2050    1.6287    0.7347
    17          H      -2.5052   -0.8636   -0.4350
    18          H       1.2440   -1.9771   -2.2181
    19          H      -1.2153   -2.0224   -2.1944


    FIRST DERIVATIVES WILL BE USED IN THE CALCULATION OF SECOND DERIVATIVES

          ESTIMATED TIME TO COMPLETE CALCULATION =        1.78 SECONDS

    FOR POINT-GROUP C1   THERE ARE   1 UNIQUE SYMMETRY FUNCTIONS.

 STEP:   1 TIME =     0.02 SECS, INTEGRAL =      0.02 TIME LEFT: 172799.98
 STEP:   2 TIME =     0.02 SECS, INTEGRAL =      0.03 TIME LEFT: 172799.96
 STEP:   3 TIME =     0.02 SECS, INTEGRAL =      0.05 TIME LEFT: 172799.95
 STEP:   4 TIME =     0.02 SECS, INTEGRAL =      0.06 TIME LEFT: 172799.93
 STEP:   5 TIME =     0.02 SECS, INTEGRAL =      0.08 TIME LEFT: 172799.91
 STEP:   6 TIME =     0.02 SECS, INTEGRAL =      0.09 TIME LEFT: 172799.90
 STEP:   7 TIME =     0.02 SECS, INTEGRAL =      0.11 TIME LEFT: 172799.88
 STEP:   8 TIME =     0.02 SECS, INTEGRAL =      0.13 TIME LEFT: 172799.86
 STEP:   9 TIME =     0.02 SECS, INTEGRAL =      0.14 TIME LEFT: 172799.85
 STEP:  10 TIME =     0.02 SECS, INTEGRAL =      0.16 TIME LEFT: 172799.83
 STEP:  11 TIME =     0.02 SECS, INTEGRAL =      0.18 TIME LEFT: 172799.82
 STEP:  12 TIME =     0.02 SECS, INTEGRAL =      0.20 TIME LEFT: 172799.80
 STEP:  13 TIME =     0.02 SECS, INTEGRAL =      0.21 TIME LEFT: 172799.78
 STEP:  14 TIME =     0.02 SECS, INTEGRAL =      0.23 TIME LEFT: 172799.77
 STEP:  15 TIME =     0.02 SECS, INTEGRAL =      0.24 TIME LEFT: 172799.75
 STEP:  16 TIME =     0.02 SECS, INTEGRAL =      0.26 TIME LEFT: 172799.73
 STEP:  17 TIME =     0.02 SECS, INTEGRAL =      0.27 TIME LEFT: 172799.72
 STEP:  18 TIME =     0.02 SECS, INTEGRAL =      0.29 TIME LEFT: 172799.70
 STEP:  19 TIME =     0.02 SECS, INTEGRAL =      0.30 TIME LEFT: 172799.69
 STEP:  20 TIME =     0.02 SECS, INTEGRAL =      0.32 TIME LEFT: 172799.67
 STEP:  21 TIME =     0.02 SECS, INTEGRAL =      0.34 TIME LEFT: 172799.65
 STEP:  22 TIME =     0.02 SECS, INTEGRAL =      0.36 TIME LEFT: 172799.64
 STEP:  23 TIME =     0.02 SECS, INTEGRAL =      0.37 TIME LEFT: 172799.62
 STEP:  24 TIME =     0.02 SECS, INTEGRAL =      0.39 TIME LEFT: 172799.61
 STEP:  25 TIME =     0.02 SECS, INTEGRAL =      0.40 TIME LEFT: 172799.59
 STEP:  26 TIME =     0.02 SECS, INTEGRAL =      0.42 TIME LEFT: 172799.57
 STEP:  27 TIME =     0.02 SECS, INTEGRAL =      0.43 TIME LEFT: 172799.56
 STEP:  28 TIME =     0.02 SECS, INTEGRAL =      0.45 TIME LEFT: 172799.54
 STEP:  29 TIME =     0.02 SECS, INTEGRAL =      0.46 TIME LEFT: 172799.53
 STEP:  30 TIME =     0.02 SECS, INTEGRAL =      0.48 TIME LEFT: 172799.51
 STEP:  31 TIME =     0.02 SECS, INTEGRAL =      0.50 TIME LEFT: 172799.50
 STEP:  32 TIME =     0.02 SECS, INTEGRAL =      0.51 TIME LEFT: 172799.48
 STEP:  33 TIME =     0.02 SECS, INTEGRAL =      0.53 TIME LEFT: 172799.46
 STEP:  34 TIME =     0.02 SECS, INTEGRAL =      0.54 TIME LEFT: 172799.45
 STEP:  35 TIME =     0.02 SECS, INTEGRAL =      0.56 TIME LEFT: 172799.43
 STEP:  36 TIME =     0.02 SECS, INTEGRAL =      0.58 TIME LEFT: 172799.41
 STEP:  37 TIME =     0.02 SECS, INTEGRAL =      0.59 TIME LEFT: 172799.40
 STEP:  38 TIME =     0.02 SECS, INTEGRAL =      0.61 TIME LEFT: 172799.38
 STEP:  39 TIME =     0.02 SECS, INTEGRAL =      0.63 TIME LEFT: 172799.36
 STEP:  40 TIME =     0.02 SECS, INTEGRAL =      0.64 TIME LEFT: 172799.35
 STEP:  41 TIME =     0.02 SECS, INTEGRAL =      0.66 TIME LEFT: 172799.33
 STEP:  42 TIME =     0.02 SECS, INTEGRAL =      0.68 TIME LEFT: 172799.32
 STEP:  43 TIME =     0.02 SECS, INTEGRAL =      0.69 TIME LEFT: 172799.30
 STEP:  44 TIME =     0.02 SECS, INTEGRAL =      0.71 TIME LEFT: 172799.29
 STEP:  45 TIME =     0.02 SECS, INTEGRAL =      0.73 TIME LEFT: 172799.27
 STEP:  46 TIME =     0.02 SECS, INTEGRAL =      0.74 TIME LEFT: 172799.25
 STEP:  47 TIME =     0.02 SECS, INTEGRAL =      0.76 TIME LEFT: 172799.23
 STEP:  48 TIME =     0.02 SECS, INTEGRAL =      0.77 TIME LEFT: 172799.22
 STEP:  49 TIME =     0.02 SECS, INTEGRAL =      0.79 TIME LEFT: 172799.20
 STEP:  50 TIME =     0.02 SECS, INTEGRAL =      0.81 TIME LEFT: 172799.18
 STEP:  51 TIME =     0.02 SECS, INTEGRAL =      0.82 TIME LEFT: 172799.17
 STEP:  52 TIME =     0.02 SECS, INTEGRAL =      0.84 TIME LEFT: 172799.15
 STEP:  53 TIME =     0.02 SECS, INTEGRAL =      0.86 TIME LEFT: 172799.13
 STEP:  54 TIME =     0.02 SECS, INTEGRAL =      0.88 TIME LEFT: 172799.12
 STEP:  55 TIME =     0.02 SECS, INTEGRAL =      0.89 TIME LEFT: 172799.10
 STEP:  56 TIME =     0.02 SECS, INTEGRAL =      0.91 TIME LEFT: 172799.09
 STEP:  57 TIME =     0.02 SECS, INTEGRAL =      0.92 TIME LEFT: 172799.07

(To convert to Hartree/Bohr^2, multiply by (10^(-21) x N x a0^2)/(4.184 x 627.51) =  0.0642)


           FORCE MATRIX IN MILLIDYNES/ANGSTROM


                  C  1       C  2       C  3       C  4       C  5       C  6
 ------------------------------------------------------------------------------
     C    1  14.536168
     C    2   3.259287  14.941927
     C    3   3.396538   0.695272  14.584704
     C    4   0.829769   4.387162   1.181754  18.360156
     C    5   4.914163   0.578917   0.662006   0.035395  18.135522
     C    6   0.562746   4.865642   0.033125   0.729923   0.165723  18.131240
     C    7   0.867254   1.148216   4.786019  10.631770   0.031926   0.041944
     C    8   0.116529   0.835441   0.016274   0.045384   1.133238  10.351535
     C    9   0.826241   0.118534   0.042899   0.019344  10.344206   1.137618
     H   10   4.265282   0.419918   0.431356   0.028152   0.395475   0.029138
     H   11   0.419094   4.203844   0.029291   0.413107   0.027413   0.400786
     H   12   0.448881   0.025725   4.502068   0.036699   0.064489   0.002076
     H   13   0.432886   0.029497   4.525683   0.038902   0.026316   0.004203
     H   14   0.042875   0.111637   0.413384   0.449871   0.004735   0.016533
     H   15   0.042427   0.432023   0.005361   0.019447   0.011649   4.819385
     H   16   0.040058   0.415319   0.115121   5.014544   0.003988   0.014845
     H   17   0.429171   0.043274   0.019483   0.005968   4.810992   0.011973
     H   18   0.003263   0.117180   0.000703   0.017612   0.047203   0.443319
     H   19   0.117907   0.003052   0.016039   0.000628   0.442718   0.047375


                  C  7       C  8       C  9       H 10       H 11       H 12
 ------------------------------------------------------------------------------
     C    7  18.411020
     C    8   0.011585  18.473059
     C    9   0.009631   5.711588  18.465812
     H   10   0.024574   0.012203   0.039042   4.697284
     H   11   0.036694   0.037417   0.012790   0.023665   4.645865
     H   12   0.427100   0.001483   0.004924   0.027976   0.003279   5.116794
     H   13   0.431174   0.002134   0.003778   0.028774   0.001136   0.567928
     H   14   5.014490   0.002887   0.002274   0.002671   0.014976   0.014851
     H   15   0.001926   0.443809   0.125766   0.005193   0.030645   0.000651
     H   16   0.449421   0.002347   0.000980   0.002896   0.014396   0.015582
     H   17   0.001747   0.124925   0.443906   0.032310   0.005172   0.017077
     H   18   0.002066   4.853444   0.434290   0.000665   0.015145   0.000370
     H   19   0.001619   0.433932   4.851361   0.014878   0.000659   0.000826


                  H 13       H 14       H 15       H 16       H 17       H 18
 ------------------------------------------------------------------------------
     H   13   5.129081
     H   14   0.015198   5.410115
     H   15   0.000995   0.000745   5.195961
     H   16   0.015739   0.048554   0.008003   5.412231
     H   17   0.001014   0.000547   0.009949   0.001405   5.188917
     H   18   0.000132   0.001329   0.065458   0.000708   0.007090   5.217626
     H   19   0.001507   0.000399   0.007167   0.000325   0.065761   0.032500


                  H 19
 ------------------
     H   19   5.214875


          HEAT OF FORMATION =      40.454169 KCALS/MOLE

          ZERO POINT ENERGY     101.501 KCAL/MOL


           NORMAL COORDINATE ANALYSIS (Total motion = 1 Angstrom)


   Root No.       1         2         3         4         5         6         7         8

                 1 A       2 A       3 A       4 A       5 A       6 A       7 A       8 A   

                  80.8     171.0     298.7     368.6     465.0     485.7     518.2     565.3
  
           1    0.0009    0.0020    0.0184    0.0212    0.0147    0.0218   -0.0139   -0.0094
           2   -0.0064    0.0162   -0.0057   -0.0152    0.0067   -0.0193   -0.0256    0.0009
           3    0.0026   -0.0305    0.0085    0.0105   -0.0298   -0.0181   -0.0073   -0.0485
           4    0.0010    0.0015    0.0184    0.0221    0.0107    0.0235   -0.0166    0.0115
           5    0.0052    0.0192    0.0121    0.0019    0.0235    0.0076    0.0198   -0.0019
           6   -0.0009   -0.0345   -0.0116    0.0051   -0.0024    0.0292    0.0129   -0.0435
           7   -0.0093   -0.0015   -0.0039   -0.0013    0.0091    0.0147    0.0298   -0.0058
           8   -0.0091    0.0139   -0.0120   -0.0243    0.0054   -0.0322   -0.0142   -0.0082
           9    0.0542    0.0178   -0.0310   -0.0099    0.0123   -0.0122    0.0033   -0.0057
          10   -0.0081   -0.0007   -0.0040   -0.0008    0.0071    0.0150    0.0259    0.0063
          11    0.0083    0.0180    0.0192    0.0077    0.0307    0.0160    0.0096   -0.0102
          12   -0.0459    0.0101   -0.0132    0.0458    0.0405   -0.0120   -0.0180    0.0023
          13    0.0057    0.0007    0.0026    0.0008    0.0029   -0.0168   -0.0209   -0.0760
          14    0.0295    0.0170   -0.0039    0.0288   -0.0365    0.0266   -0.0453   -0.0075
          15   -0.0236   -0.0298    0.0176   -0.0050   -0.0024   -0.0309   -0.0076    0.0051
          16    0.0063    0.0004    0.0046    0.0004   -0.0156   -0.0057   -0.0223    0.0761
          17   -0.0295    0.0092   -0.0322    0.0204   -0.0315   -0.0002    0.0498    0.0013
          18    0.0235   -0.0282    0.0078   -0.0208    0.0148    0.0270    0.0089    0.0010
          19   -0.0136   -0.0028   -0.0163   -0.0133    0.0011   -0.0017    0.0269   -0.0001
          20    0.0006    0.0154    0.0036   -0.0073    0.0249   -0.0074    0.0045   -0.0190
          21   -0.0141    0.0621    0.0352   -0.0363   -0.0120    0.0065    0.0088   -0.0048
          22    0.0095    0.0005   -0.0089   -0.0131   -0.0150   -0.0252   -0.0079    0.0035
          23   -0.0204   -0.0571   -0.0136   -0.0298    0.0046    0.0396   -0.0090    0.0270
          24    0.0152    0.0152    0.0040    0.0206   -0.0140    0.0131    0.0397    0.0413
          25    0.0086    0.0002   -0.0098   -0.0138   -0.0145   -0.0243   -0.0087   -0.0055
          26    0.0227   -0.0499    0.0339    0.0165   -0.0145   -0.0342    0.0094    0.0315
          27   -0.0170    0.0127   -0.0147   -0.0053   -0.0302    0.0072   -0.0356    0.0362
          28    0.0030    0.0096    0.0366    0.0288    0.0220    0.0098   -0.0178    0.0340
          29   -0.0443   -0.0066    0.0104   -0.0268    0.0002   -0.0548   -0.0268   -0.0021
          30   -0.0165   -0.0387    0.0233    0.0064   -0.0290   -0.0413   -0.0095   -0.0326
          31    0.0039   -0.0006    0.0328    0.0374   -0.0045    0.0199   -0.0120   -0.0334
          32    0.0409    0.0052    0.0391   -0.0299    0.0285    0.0467    0.0282   -0.0159
          33    0.0169   -0.0399   -0.0022   -0.0179    0.0073    0.0504    0.0153   -0.0322
          34   -0.0717    0.0126    0.0662   -0.0258   -0.0604    0.0391    0.0417   -0.0506
          35    0.0020    0.0452   -0.0275   -0.0484    0.0175   -0.0305   -0.0009    0.0269
          36    0.0989    0.0180   -0.0836   -0.0015    0.0646   -0.0296    0.0001    0.0357
          37    0.0477   -0.0162   -0.0804    0.0135    0.0724   -0.0166    0.0298    0.0387
          38   -0.0283   -0.0203   -0.0131   -0.0162   -0.0236   -0.0481   -0.0131   -0.0383
          39    0.1012    0.0169   -0.0872   -0.0011    0.0682   -0.0311    0.0023    0.0368
          40   -0.0206   -0.0053   -0.0333   -0.0310   -0.0142   -0.0314    0.0131    0.0002
          41    0.0010    0.0141    0.0025   -0.0061    0.0257   -0.0075    0.0041   -0.0197
          42   -0.0318    0.1225    0.0940   -0.0904   -0.0334    0.0135    0.0137    0.0228
          43    0.0078   -0.0012    0.0069   -0.0012   -0.0119   -0.0060   -0.0240    0.0771
          44   -0.0602    0.0392   -0.0903    0.0439   -0.1163   -0.0065    0.0980   -0.0421
          45    0.0467   -0.0497    0.0271   -0.0590    0.0482   -0.0016   -0.0140    0.0168
          46   -0.0101   -0.0014   -0.0093   -0.0066    0.0046    0.0099    0.0333    0.0041
          47    0.0159    0.0204    0.0372    0.0258    0.0371    0.0334   -0.0146   -0.0034
          48   -0.0951    0.0124   -0.0228    0.1135    0.1165   -0.0468   -0.0697    0.0539
          49    0.0057    0.0008    0.0024    0.0006    0.0026   -0.0168   -0.0205   -0.0753
          50    0.0587    0.0569   -0.0094    0.0919   -0.0973    0.0930   -0.0719   -0.0580
          51   -0.0469   -0.0548    0.0384   -0.0232    0.0562   -0.0410    0.0047    0.0304
          52    0.0129    0.0001   -0.0175   -0.0198   -0.0023   -0.0164    0.0257   -0.0411
          53   -0.0436   -0.0974   -0.0486   -0.0812    0.0038    0.1162   -0.0656   -0.0171
          54    0.0318    0.0402    0.0205    0.0484   -0.0062   -0.0298    0.0958    0.0408
          55    0.0106   -0.0005   -0.0195   -0.0224   -0.0127   -0.0063    0.0220    0.0410
          56    0.0478   -0.0804    0.0810    0.0632   -0.0343   -0.0992    0.0749    0.0038
          57   -0.0349    0.0335   -0.0399   -0.0307   -0.0180    0.0398   -0.0982    0.0252


   Root No.       9        10        11        12        13        14        15        16

                 9 A      10 A      11 A      12 A      13 A      14 A      15 A      16 A   

                 712.2     745.3     755.9     792.8     830.5     850.9     882.3     938.7
  
           1    0.0288    0.0078   -0.0047    0.0202   -0.0032   -0.0249   -0.0237    0.0160
           2    0.0360   -0.0073    0.0169   -0.0132    0.0034   -0.0089   -0.0059    0.0060
           3   -0.0348   -0.0056    0.0017    0.0011   -0.0099    0.0333    0.0080   -0.0273
           4    0.0339    0.0045   -0.0023   -0.0088   -0.0045    0.0242    0.0328    0.0134
           5   -0.0215   -0.0162    0.0200   -0.0235    0.0024   -0.0003   -0.0111   -0.0085
           6    0.0358    0.0051   -0.0038    0.0104    0.0050    0.0021    0.0420    0.0256
           7   -0.0345    0.0119   -0.0272    0.0265    0.0088   -0.0150    0.0036   -0.0047
           8    0.0262    0.0123   -0.0077   -0.0044   -0.0162    0.0244    0.0059    0.0077
           9   -0.0047   -0.0081   -0.0192   -0.0121    0.0015    0.0284   -0.0194    0.0249
          10   -0.0074   -0.0252    0.0383   -0.0410    0.0100    0.0035    0.0069   -0.0063
          11   -0.0225   -0.0009   -0.0014   -0.0167    0.0131    0.0021    0.0167   -0.0067
          12   -0.0014   -0.0082   -0.0249   -0.0190    0.0029   -0.0122    0.0099   -0.0289
          13    0.0223   -0.0054    0.0185    0.0102   -0.0155   -0.0044   -0.0301   -0.0212
          14   -0.0037   -0.0189    0.0058    0.0192    0.0241   -0.0029   -0.0084   -0.0071
          15    0.0015    0.0072    0.0077   -0.0053   -0.0074   -0.0227   -0.0060    0.0042
          16    0.0070    0.0140   -0.0236   -0.0003   -0.0150    0.0296   -0.0019   -0.0215
          17    0.0089   -0.0190    0.0066    0.0139   -0.0265   -0.0089   -0.0025    0.0041
          18    0.0021    0.0069    0.0106   -0.0015    0.0093   -0.0034   -0.0175   -0.0017
          19   -0.0130   -0.0023    0.0022   -0.0022   -0.0006    0.0020   -0.0039   -0.0011
          20   -0.0246    0.0301   -0.0503    0.0332   -0.0000   -0.0022    0.0021   -0.0002
          21    0.0112   -0.0031   -0.0171   -0.0112    0.0018   -0.0112   -0.0005   -0.0014
          22   -0.0173   -0.0019   -0.0012   -0.0040    0.0140   -0.0106    0.0106    0.0115
          23   -0.0005   -0.0113   -0.0006    0.0103   -0.0367    0.0033   -0.0063    0.0049
          24    0.0235    0.0116    0.0018    0.0050   -0.0066    0.0157   -0.0288   -0.0264
          25   -0.0162   -0.0042    0.0034   -0.0043    0.0128   -0.0118    0.0115    0.0113
          26    0.0003   -0.0110    0.0004    0.0129    0.0358   -0.0082    0.0076   -0.0015
          27   -0.0263    0.0024    0.0015   -0.0090    0.0073   -0.0307    0.0117    0.0241
          28    0.0155    0.0008    0.0036   -0.0057   -0.0069   -0.0296   -0.0878    0.0218
          29    0.0573    0.0192    0.0270   -0.0187   -0.0266   -0.0255    0.0352   -0.0367
          30   -0.0281    0.0055    0.0106   -0.0109   -0.0264    0.0200    0.0038   -0.0481
          31    0.0143    0.0081   -0.0081    0.0161   -0.0195    0.0678    0.0621    0.0179
          32   -0.0420    0.0116    0.0498   -0.0155    0.0280    0.0380    0.0057    0.0514
          33    0.0321    0.0182    0.0146    0.0055    0.0241    0.0038    0.0369    0.0561
          34   -0.0577   -0.0300   -0.1107   -0.0192    0.0224    0.0595   -0.0588    0.0795
          35    0.0613    0.0157    0.0013   -0.0273   -0.0151   -0.0180    0.0218    0.0371
          36    0.0220    0.0229    0.0403    0.0134   -0.0082   -0.0360    0.0287   -0.0239
          37   -0.0255    0.0513    0.0528    0.0645   -0.0073   -0.0677    0.0783   -0.0946
          38   -0.0219   -0.0050    0.0032   -0.0223   -0.0275    0.1243    0.0279   -0.0393
          39    0.0172    0.0263    0.0394    0.0205   -0.0073   -0.0404    0.0313   -0.0292
          40    0.0279    0.0116   -0.0104    0.0141   -0.0368    0.0311   -0.0273    0.0312
          41   -0.0237    0.0286   -0.0560    0.0294    0.0009   -0.0025    0.0016    0.0005
          42   -0.0346    0.0813    0.2240    0.1501   -0.0309    0.0254    0.0788   -0.0439
          43    0.0039    0.0078   -0.0246    0.0007   -0.0241    0.0281   -0.0007   -0.0219
          44    0.0583    0.1077    0.0332   -0.0071    0.1702    0.0109   -0.0447    0.0063
          45   -0.0739   -0.0823    0.0060    0.0213   -0.0933   -0.0708   -0.0359    0.0049
          46   -0.0169   -0.0236    0.0340   -0.0314    0.0078   -0.0045   -0.0105   -0.0097
          47    0.0131   -0.0071    0.0102   -0.0526    0.0203    0.0294    0.0790    0.0016
          48   -0.1225    0.0513    0.1599    0.0680    0.0081    0.1179   -0.0883    0.1597
          49    0.0218   -0.0050    0.0184    0.0099   -0.0162   -0.0045   -0.0303   -0.0213
          50   -0.0705    0.0783    0.0165   -0.0636   -0.1610   -0.0767   -0.0109    0.0132
          51    0.0903   -0.0467    0.0011    0.0786    0.0952   -0.0099   -0.0691   -0.0060
          52   -0.0079   -0.0126    0.0172    0.0021   -0.0015   -0.0131   -0.0127    0.0161
          53   -0.0101    0.1293    0.0216   -0.0887    0.0763    0.0178   -0.0863   -0.0906
          54    0.0351   -0.0834    0.0001    0.0714   -0.0871    0.0041    0.0051    0.0358
          55   -0.0183    0.0001   -0.0106   -0.0068    0.0005    0.0203    0.0198    0.0113
          56   -0.0041    0.1245    0.0179   -0.1117   -0.0581   -0.0787   -0.0082    0.0721
          57   -0.0216   -0.0905   -0.0008    0.0760    0.0777   -0.0057    0.0161   -0.0242


   Root No.      17        18        19        20        21        22        23        24

                17 A      18 A      19 A      20 A      21 A      22 A      23 A      24 A   

                 969.1     986.0     995.5    1002.1    1020.7    1058.6    1064.8    1077.0
  
           1   -0.0022    0.0205    0.0081   -0.0002   -0.0032    0.0072    0.0051   -0.0065
           2   -0.0040   -0.0126    0.0115   -0.0129   -0.0030    0.0124   -0.0153    0.0011
           3    0.0031    0.0015   -0.0098    0.0011   -0.0137    0.0014   -0.0061   -0.0098
           4   -0.0052    0.0093   -0.0044   -0.0074   -0.0024   -0.0048   -0.0015   -0.0007
           5    0.0034    0.0079   -0.0054    0.0157    0.0042   -0.0022   -0.0053    0.0076
           6   -0.0077   -0.0072   -0.0009   -0.0052    0.0151    0.0057   -0.0032   -0.0245
           7   -0.0013   -0.0185   -0.0015   -0.0147   -0.0066    0.0154    0.0069    0.0296
           8    0.0003    0.0184   -0.0008    0.0060    0.0015   -0.0080    0.0173    0.0010
           9   -0.0116   -0.0016    0.0278   -0.0073    0.0098    0.0135   -0.0083    0.0094
          10    0.0010   -0.0076    0.0098   -0.0025    0.0019   -0.0074   -0.0027   -0.0228
          11   -0.0006   -0.0131    0.0114   -0.0089   -0.0001   -0.0085    0.0026   -0.0193
          12   -0.0057    0.0132    0.0177    0.0240    0.0054    0.0092   -0.0074    0.0213
          13    0.0040   -0.0293   -0.0042    0.0070    0.0119   -0.0204   -0.0014    0.0164
          14   -0.0218   -0.0111   -0.0118    0.0111   -0.0209    0.0039   -0.0027   -0.0007
          15    0.0150   -0.0031    0.0065   -0.0030    0.0203   -0.0088    0.0086    0.0068
          16    0.0072   -0.0281    0.0014    0.0121    0.0127    0.0165    0.0021   -0.0167
          17   -0.0220    0.0068   -0.0188   -0.0114    0.0187    0.0104    0.0037   -0.0036
          18    0.0126    0.0071    0.0129    0.0007   -0.0201   -0.0116    0.0034    0.0086
          19    0.0012    0.0044   -0.0013    0.0078    0.0039   -0.0074   -0.0092   -0.0154
          20   -0.0018    0.0016    0.0042    0.0027    0.0033   -0.0121   -0.0166   -0.0276
          21    0.0189   -0.0067   -0.0367   -0.0055   -0.0157   -0.0073    0.0136   -0.0233
          22   -0.0013    0.0109    0.0024   -0.0006   -0.0005    0.0190    0.0128   -0.0135
          23    0.0165   -0.0145    0.0139    0.0132   -0.0260   -0.0142   -0.0055    0.0102
          24   -0.0094    0.0017   -0.0113   -0.0139    0.0097   -0.0131   -0.0054    0.0114
          25   -0.0037    0.0075   -0.0026   -0.0023   -0.0011   -0.0186   -0.0117    0.0126
          26    0.0187    0.0167    0.0006   -0.0142    0.0264   -0.0118   -0.0000    0.0064
          27   -0.0181   -0.0047   -0.0032    0.0116   -0.0108   -0.0163   -0.0038    0.0089
          28    0.0077    0.1451    0.0424    0.0145   -0.0632    0.0617   -0.0136   -0.0332
          29    0.0415   -0.0277   -0.0175   -0.1135   -0.0702    0.1593   -0.1207    0.0075
          30    0.0313    0.0388   -0.0116   -0.0466   -0.0713    0.1004   -0.0697   -0.0175
          31   -0.0080    0.1038   -0.0883   -0.0057   -0.0692   -0.0521   -0.0221    0.1260
          32    0.0646    0.0155   -0.1217    0.1608    0.0599    0.1401   -0.0342    0.1004
          33    0.0258   -0.0385   -0.0287    0.0712    0.0706    0.1008   -0.0100   -0.0268
          34   -0.0268   -0.0365    0.0573   -0.0417    0.0316    0.0436    0.0112    0.1439
          35    0.0324   -0.0156   -0.0436   -0.0372    0.0284   -0.0113    0.0213    0.1756
          36    0.0163    0.0004   -0.0268   -0.0024   -0.0081   -0.0063   -0.0089   -0.0108
          37    0.0237   -0.0169   -0.0650    0.0023   -0.0507    0.0145    0.0874    0.0409
          38   -0.0290    0.0306    0.0363    0.0330   -0.0395    0.0430    0.1560    0.0001
          39    0.0160   -0.0047   -0.0304   -0.0037   -0.0116   -0.0012    0.0085    0.0153
          40    0.0056    0.1066   -0.0442    0.0759    0.0213   -0.0717   -0.0049   -0.0556
          41    0.0003   -0.0002    0.0012    0.0010    0.0017   -0.0129   -0.0151   -0.0296
          42   -0.0855    0.0339    0.1402    0.0304    0.0482    0.0197   -0.0326    0.0426
          43    0.0008   -0.0265   -0.0028    0.0092    0.0163    0.0194    0.0034   -0.0186
          44    0.1161   -0.0068    0.0854    0.0433   -0.0786    0.0189    0.0464   -0.0088
          45   -0.0675    0.0406   -0.0271   -0.0379    0.0186    0.0833    0.0859   -0.0473
          46    0.0040   -0.0022    0.0040    0.0155    0.0096   -0.0059   -0.0408   -0.0465
          47   -0.0107   -0.0273    0.0322   -0.0651   -0.0248   -0.0157    0.1273    0.0555
          48    0.0379   -0.0530   -0.0806   -0.0787   -0.0129   -0.0174    0.0151   -0.0469
          49    0.0044   -0.0289   -0.0043    0.0063    0.0115   -0.0222   -0.0036    0.0183
          50    0.1230    0.0402    0.0522   -0.0332    0.0784    0.0361    0.0593   -0.0175
          51   -0.0700   -0.0293   -0.0164    0.0420   -0.0320    0.0709    0.0796   -0.0352
          52   -0.0017    0.0640    0.0094   -0.0327   -0.0568    0.0500    0.0497   -0.0006
          53   -0.0877    0.0643   -0.0660   -0.0735    0.0581    0.0093    0.0117    0.0106
          54    0.0556   -0.0147    0.0430    0.0201   -0.0783   -0.0104    0.0070    0.0208
          55   -0.0069    0.0595    0.0003   -0.0335   -0.0487   -0.0312   -0.0709    0.0277
          56   -0.1151   -0.0758   -0.0126    0.0679   -0.0632   -0.0079    0.0099    0.0039
          57    0.0727    0.0246    0.0036   -0.0234    0.0787   -0.0130    0.0271    0.0026


   Root No.      25        26        27        28        29        30        31        32

                25 A      26 A      27 A      28 A      29 A      30 A      31 A      32 A   

                1082.8    1107.0    1117.0    1145.2    1152.4    1198.7    1225.6    1232.6
  
           1    0.0128    0.0005    0.0022   -0.0036    0.0145    0.0004   -0.0476    0.0064
           2    0.0184   -0.0057   -0.0212   -0.0023   -0.0041   -0.0207    0.0525   -0.0272
           3   -0.0166    0.0067    0.0138    0.0066    0.0023   -0.0132    0.0013   -0.0141
           4    0.0007   -0.0057   -0.0064    0.0001   -0.0131   -0.0018   -0.0092   -0.0280
           5   -0.0002    0.0010   -0.0049    0.0022   -0.0015    0.0218    0.0080   -0.0271
           6   -0.0002   -0.0029    0.0122   -0.0061   -0.0007    0.0092    0.0204   -0.0077
           7    0.0110    0.0092   -0.0079   -0.0001   -0.0033   -0.0041    0.0149   -0.0062
           8   -0.0055   -0.0055    0.0211   -0.0021    0.0046   -0.0110   -0.0208    0.0247
           9    0.0071   -0.0016   -0.0136   -0.0022    0.0023    0.0058   -0.0055    0.0060
          10   -0.0090   -0.0081    0.0083   -0.0005    0.0060   -0.0050   -0.0082    0.0161
          11   -0.0091   -0.0024    0.0079    0.0005    0.0044    0.0097   -0.0153   -0.0037
          12   -0.0040   -0.0004   -0.0053    0.0014    0.0021   -0.0037   -0.0040    0.0032
          13    0.0049    0.0060    0.0010   -0.0061   -0.0014   -0.0014    0.0005    0.0037
          14   -0.0090    0.0051    0.0047    0.0052   -0.0013   -0.0030   -0.0087   -0.0029
          15    0.0034   -0.0058   -0.0066    0.0084   -0.0008   -0.0127   -0.0008   -0.0103
          16   -0.0133   -0.0027    0.0016   -0.0060   -0.0005   -0.0023    0.0096   -0.0057
          17    0.0036    0.0027    0.0020   -0.0043   -0.0031    0.0025    0.0033    0.0074
          18   -0.0035   -0.0036   -0.0053   -0.0079   -0.0027    0.0132    0.0058    0.0056
          19   -0.0068   -0.0009   -0.0020   -0.0002   -0.0003   -0.0113    0.0093    0.0204
          20   -0.0064   -0.0067   -0.0004    0.0011   -0.0043   -0.0056    0.0027    0.0070
          21    0.0139   -0.0011    0.0009   -0.0002   -0.0012   -0.0000    0.0026   -0.0007
          22   -0.0146   -0.0095   -0.0040    0.0024   -0.0032    0.0117    0.0152    0.0011
          23    0.0019    0.0014   -0.0006   -0.0001   -0.0011    0.0021   -0.0016    0.0063
          24    0.0090    0.0029   -0.0001   -0.0008   -0.0015   -0.0002   -0.0018    0.0107
          25    0.0168    0.0073    0.0062    0.0010    0.0032    0.0127   -0.0007    0.0165
          26    0.0118    0.0000   -0.0022    0.0001   -0.0007   -0.0011   -0.0066    0.0022
          27    0.0080    0.0028    0.0006    0.0008   -0.0011    0.0007   -0.0135    0.0038
          28    0.0281    0.0743    0.1690   -0.0679   -0.0989   -0.0099    0.1590    0.0113
          29    0.0006    0.0360   -0.0803   -0.0155    0.0253    0.0861   -0.1101    0.0539
          30   -0.0221    0.0580    0.0471   -0.0231   -0.0249    0.0394   -0.0047    0.0304
          31   -0.0482   -0.1483   -0.0969   -0.0885    0.0535    0.0029    0.1079    0.0625
          32    0.0326    0.0060   -0.0278    0.0109    0.0120   -0.0612   -0.0094    0.0560
          33    0.0370    0.0566    0.0373    0.0322   -0.0201   -0.0370   -0.0362   -0.0003
          34   -0.0149    0.0122    0.0215   -0.0033   -0.0086    0.0397    0.0079   -0.0641
          35   -0.1475   -0.0023    0.1623    0.0029   -0.0056    0.0417   -0.0584   -0.0628
          36   -0.0200   -0.0007    0.0114    0.0013    0.0023   -0.0057   -0.0125    0.0149
          37    0.0638    0.0090    0.0254   -0.0013   -0.0150    0.0314    0.0252   -0.0703
          38    0.1791   -0.0410    0.0064   -0.0157   -0.0025    0.0786   -0.0562   -0.0171
          39   -0.0081    0.0071    0.0143    0.0009   -0.0035    0.0049    0.0104   -0.0257
          40   -0.0679    0.1947   -0.1345    0.0214    0.0077    0.0923   -0.0100   -0.1030
          41   -0.0055   -0.0088    0.0019    0.0010   -0.0045   -0.0069    0.0019    0.0090
          42   -0.0262    0.0037   -0.0039   -0.0004    0.0016    0.0032   -0.0014   -0.0008
          43   -0.0147   -0.0040    0.0011   -0.0072   -0.0011   -0.0034    0.0103   -0.0068
          44   -0.0517   -0.0141   -0.0325   -0.1078    0.0642   -0.0467   -0.0411   -0.0552
          45   -0.0670   -0.0147   -0.0341   -0.1774    0.1007   -0.0890   -0.0619   -0.0722
          46   -0.0014   -0.0725    0.0259   -0.0033    0.0013    0.0197   -0.0307   -0.0210
          47   -0.0384    0.2110   -0.0522    0.0092    0.0208   -0.0746    0.0575    0.1232
          48    0.0071    0.0027    0.0098   -0.0025   -0.0024    0.0053    0.0081   -0.0019
          49    0.0071    0.0080    0.0023   -0.0088   -0.0025   -0.0029   -0.0022    0.0034
          50   -0.0168   -0.0456   -0.0186    0.0922    0.0854    0.0488    0.0834    0.0297
          51   -0.0814   -0.0457    0.0093    0.1483    0.1344    0.0872    0.0941    0.0539
          52   -0.0577   -0.0644   -0.0623    0.1824   -0.1753   -0.0777   -0.0629   -0.0296
          53   -0.0026   -0.0160   -0.0199    0.0515   -0.0527   -0.0261   -0.0237   -0.0032
          54   -0.0144   -0.0200   -0.0249    0.0766   -0.0767   -0.0385   -0.0382   -0.0008
          55    0.0750    0.0357    0.0614    0.1312    0.2157   -0.0791   -0.0118   -0.0706
          56   -0.0156   -0.0058   -0.0164   -0.0336   -0.0587    0.0254   -0.0037    0.0253
          57   -0.0094   -0.0114   -0.0248   -0.0561   -0.0958    0.0409   -0.0101    0.0446


   Root No.      33        34        35        36        37        38        39        40

                33 A      34 A      35 A      36 A      37 A      38 A      39 A      40 A   

                1309.2    1325.9    1375.9    1406.6    1408.2    1459.7    1832.7    1854.7
  
           1    0.0294   -0.0469   -0.0244   -0.0100   -0.0315    0.0398    0.0047   -0.0043
           2    0.0029   -0.0141   -0.0061    0.0127   -0.0485    0.0302    0.0055   -0.0101
           3    0.0319   -0.0050   -0.0039    0.0072   -0.0473    0.0361    0.0005   -0.0141
           4    0.0104    0.0820    0.0123    0.0020   -0.0134   -0.0350    0.0073    0.0020
           5    0.0473    0.0133   -0.0272   -0.0217    0.0620    0.0367   -0.0181   -0.0061
           6   -0.0060   -0.0278   -0.0070   -0.0077    0.0453    0.0330   -0.0051   -0.0126
           7    0.0255   -0.0035    0.0136    0.0713    0.0252   -0.0032   -0.0174    0.0017
           8    0.0449   -0.0087    0.0488    0.0060    0.0273   -0.0106    0.0003   -0.0021
           9   -0.0040    0.0015    0.0020   -0.0004    0.0073   -0.0043   -0.0003   -0.0004
          10   -0.0163   -0.0161    0.0084   -0.0017   -0.0108   -0.0034   -0.1473    0.0275
          11   -0.0326   -0.0352    0.0335    0.0302   -0.0166   -0.0138    0.1365   -0.0259
          12   -0.0021    0.0015    0.0022    0.0019   -0.0057   -0.0025    0.0021   -0.0016
          13   -0.0238    0.0106    0.0061   -0.0014    0.0278   -0.0230   -0.0099   -0.0520
          14   -0.0059   -0.0058   -0.0061   -0.0058    0.0162   -0.0351    0.0094    0.0645
          15   -0.0086   -0.0126   -0.0093   -0.0042    0.0196   -0.0514    0.0144    0.0979
          16   -0.0036   -0.0293   -0.0062   -0.0043    0.0256    0.0216    0.0124    0.0510
          17    0.0062    0.0007   -0.0033    0.0015   -0.0177   -0.0339    0.0149    0.0641
          18    0.0193    0.0044   -0.0083    0.0003   -0.0209   -0.0507    0.0258    0.0957
          19   -0.0060    0.0236   -0.0356   -0.0387    0.0029    0.0062    0.1744   -0.0307
          20   -0.0239    0.0235   -0.0223   -0.0248   -0.0155   -0.0027   -0.1015    0.0195
          21   -0.0000   -0.0003   -0.0010   -0.0012    0.0006    0.0010   -0.0007    0.0001
          22    0.0259   -0.0163   -0.0186   -0.0025   -0.0220   -0.0733   -0.0267   -0.1057
          23   -0.0013    0.0058    0.0040    0.0025   -0.0100    0.0040   -0.0141   -0.0516
          24   -0.0055    0.0082    0.0076    0.0048   -0.0167    0.0081   -0.0208   -0.0757
          25   -0.0053    0.0279    0.0210    0.0090   -0.0174    0.0741    0.0207    0.1071
          26   -0.0081    0.0035    0.0029   -0.0012    0.0096    0.0060   -0.0080   -0.0500
          27   -0.0107    0.0054    0.0034   -0.0031    0.0166    0.0070   -0.0125   -0.0782
          28   -0.0809   -0.0015    0.0371    0.0274    0.0617   -0.0206   -0.0025   -0.0124
          29   -0.0282    0.0189   -0.0078   -0.0421    0.0552   -0.0219   -0.0000   -0.0046
          30   -0.0275    0.0292    0.0181   -0.0075    0.0424   -0.0138   -0.0063   -0.0111
          31   -0.0721   -0.1131   -0.0057   -0.0032    0.0405    0.0089   -0.0150    0.0155
          32   -0.0429   -0.0091    0.0151    0.0127   -0.0614   -0.0201   -0.0204   -0.0014
          33   -0.0199    0.0392    0.0219    0.0118   -0.0425   -0.0144   -0.0021   -0.0109
          34   -0.0235   -0.0422    0.0862   -0.1900   -0.0472   -0.0037   -0.0194    0.0022
          35   -0.0734    0.0037   -0.1476    0.0633   -0.0731    0.0445   -0.0213   -0.0000
          36   -0.0055    0.0265   -0.0932    0.1649    0.0211    0.0127   -0.0013   -0.0026
          37   -0.0168   -0.0445    0.0833   -0.1804   -0.0518    0.0026   -0.0201    0.0044
          38   -0.1157    0.0122   -0.1297    0.0500   -0.0108    0.0057   -0.0220    0.0061
          39    0.0099   -0.0296    0.0897   -0.1696   -0.0351   -0.0031   -0.0006   -0.0010
          40   -0.0775   -0.0781    0.0472    0.0697   -0.0292   -0.0107   -0.0474    0.0083
          41   -0.0256    0.0256   -0.0229   -0.0272   -0.0173   -0.0040   -0.1381    0.0268
          42   -0.0022   -0.0026   -0.0005   -0.0004    0.0039    0.0023   -0.0029    0.0001
          43   -0.0043   -0.0303   -0.0066   -0.0046    0.0274    0.0205    0.0170    0.0714
          44   -0.0248    0.0644    0.0207   -0.0008    0.0308    0.0516   -0.0033   -0.0094
          45   -0.0614    0.0951    0.0401    0.0034    0.0352    0.0737   -0.0045   -0.0154
          46   -0.0281   -0.0254    0.0423    0.0256   -0.0193   -0.0162   -0.1228    0.0231
          47    0.0006    0.0000   -0.0781   -0.0663    0.0073    0.0247   -0.0833    0.0159
          48    0.0007   -0.0055   -0.0034   -0.0029    0.0086    0.0048   -0.0040    0.0004
          49   -0.0256    0.0091    0.0057   -0.0017    0.0303   -0.0236   -0.0130   -0.0711
          50   -0.0168    0.0653    0.0363    0.0132   -0.0140    0.0491   -0.0004   -0.0125
          51   -0.0227    0.1065    0.0526    0.0188   -0.0178    0.0725   -0.0016   -0.0153
          52   -0.0596   -0.0329    0.0077   -0.0095    0.0762    0.0693    0.0100    0.0254
          53   -0.0260    0.0025    0.0116    0.0001    0.0200    0.0503   -0.0056   -0.0230
          54   -0.0452    0.0034    0.0219    0.0031    0.0228    0.0729   -0.0100   -0.0385
          55   -0.0427   -0.0224   -0.0176   -0.0161    0.0762   -0.0723   -0.0018   -0.0264
          56    0.0016    0.0180    0.0136    0.0060   -0.0153    0.0489   -0.0035   -0.0247
          57    0.0031    0.0302    0.0227    0.0078   -0.0226    0.0754   -0.0057   -0.0384


   Root No.      41        42        43        44        45        46        47        48

                41 A      42 A      43 A      44 A      45 A      46 A      47 A      48 A   

                1868.4    2869.5    2887.0    2975.1    3045.9    3048.5    3052.1    3063.6
  
           1   -0.0053   -0.0063    0.0171    0.0009   -0.0002    0.0004    0.0005   -0.0002
           2   -0.0142   -0.0074    0.0236    0.0014   -0.0003    0.0001   -0.0007   -0.0001
           3   -0.0206    0.0141   -0.0450   -0.0028    0.0003   -0.0004   -0.0004    0.0003
           4   -0.0048   -0.0192   -0.0045   -0.0000    0.0001   -0.0004   -0.0003   -0.0001
           5    0.0142    0.0249    0.0070    0.0001    0.0002    0.0002    0.0003    0.0001
           6    0.0202   -0.0468   -0.0131   -0.0002    0.0001   -0.0004   -0.0000   -0.0003
           7   -0.0007    0.0003   -0.0004   -0.0002   -0.0001   -0.0002    0.0382    0.0000
           8   -0.0010   -0.0004    0.0007    0.0013   -0.0000    0.0001   -0.0157   -0.0001
           9    0.0001   -0.0009    0.0038   -0.0584   -0.0000    0.0000   -0.0017   -0.0000
          10   -0.0065    0.0002   -0.0001    0.0000   -0.0000   -0.0001    0.0003   -0.0000
          11    0.0062    0.0009    0.0001   -0.0000    0.0000    0.0001    0.0003    0.0001
          12    0.0007   -0.0001   -0.0001   -0.0003    0.0000    0.0001   -0.0000    0.0000
          13   -0.0489    0.0005   -0.0012   -0.0001   -0.0320    0.0161    0.0001   -0.0187
          14    0.0697    0.0002   -0.0003    0.0006    0.0003   -0.0003   -0.0001    0.0015
          15    0.1061    0.0002   -0.0004    0.0002    0.0003   -0.0003   -0.0000    0.0022
          16   -0.0483    0.0012    0.0002    0.0000   -0.0111   -0.0335   -0.0002   -0.0184
          17   -0.0703   -0.0003    0.0000    0.0000   -0.0005   -0.0015   -0.0000   -0.0020
          18   -0.1059   -0.0006   -0.0001    0.0000    0.0001    0.0000   -0.0000   -0.0017
          19    0.0079    0.0003    0.0000   -0.0000    0.0000    0.0000    0.0005    0.0000
          20   -0.0044   -0.0003   -0.0003   -0.0000   -0.0000   -0.0000    0.0019    0.0000
          21    0.0001   -0.0002   -0.0001   -0.0001    0.0000   -0.0000    0.0000    0.0000
          22    0.0669    0.0002    0.0001   -0.0000    0.0056    0.0108    0.0002   -0.0071
          23    0.0592    0.0004    0.0000   -0.0000   -0.0055   -0.0098   -0.0002    0.0103
          24    0.0889    0.0002    0.0001    0.0000   -0.0088   -0.0157   -0.0003    0.0163
          25    0.0676   -0.0000   -0.0002    0.0001    0.0110   -0.0029   -0.0001   -0.0088
          26   -0.0578   -0.0002    0.0003   -0.0000    0.0107   -0.0021   -0.0000   -0.0127
          27   -0.0893   -0.0000    0.0001   -0.0000    0.0161   -0.0032   -0.0000   -0.0192
          28   -0.0014    0.0611   -0.2079   -0.0110    0.0005   -0.0006   -0.0011    0.0006
          29    0.0008    0.0900   -0.2859   -0.0208    0.0021   -0.0016   -0.0034    0.0015
          30   -0.0087   -0.1702    0.5417    0.0309   -0.0064    0.0042    0.0049   -0.0040
          31   -0.0027    0.2269    0.0674    0.0011   -0.0001    0.0006    0.0002    0.0004
          32   -0.0007   -0.3014   -0.0843   -0.0014   -0.0002   -0.0022   -0.0005   -0.0012
          33    0.0077    0.5693    0.1595    0.0024    0.0012    0.0064    0.0009    0.0034
          34   -0.0017    0.0035   -0.0133    0.2532   -0.0001    0.0014   -0.2098   -0.0002
          35   -0.0075   -0.0010    0.0041   -0.1172   -0.0008   -0.0002    0.0986   -0.0003
          36   -0.0024    0.0055   -0.0210    0.3718    0.0002    0.0022   -0.3679   -0.0002
          37   -0.0005   -0.0037    0.0180   -0.2500    0.0003    0.0013   -0.2474   -0.0001
          38    0.0018   -0.0001   -0.0035    0.0985   -0.0003   -0.0005    0.0966   -0.0000
          39   -0.0021    0.0051   -0.0258    0.3316   -0.0005   -0.0021    0.3890    0.0002
          40   -0.0010    0.0003   -0.0003   -0.0000   -0.0000   -0.0000    0.0018    0.0000
          41   -0.0062   -0.0027   -0.0030    0.0000    0.0001   -0.0001   -0.0209   -0.0003
          42    0.0003   -0.0006   -0.0002   -0.0013   -0.0000   -0.0000   -0.0005   -0.0000
          43   -0.0709   -0.0110   -0.0053   -0.0002    0.1304    0.3940    0.0026    0.2046
          44    0.0207   -0.0008    0.0001    0.0000    0.0036    0.0116    0.0001    0.0072
          45    0.0347   -0.0029   -0.0006   -0.0000   -0.0040   -0.0110   -0.0001   -0.0039
          46   -0.0058   -0.0039   -0.0030    0.0001    0.0000   -0.0005   -0.0114   -0.0001
          47   -0.0024    0.0004   -0.0008    0.0000    0.0001    0.0003   -0.0030    0.0002
          48    0.0006   -0.0011   -0.0004   -0.0007    0.0000    0.0002   -0.0000    0.0001
          49   -0.0698   -0.0019    0.0132    0.0009    0.3751   -0.1894   -0.0004    0.2052
          50   -0.0233    0.0005   -0.0003    0.0006    0.0028   -0.0011   -0.0006    0.0001
          51   -0.0339    0.0011   -0.0029   -0.0001    0.0059   -0.0025   -0.0002    0.0011
          52   -0.0895   -0.0009   -0.0003   -0.0000   -0.0639   -0.1230   -0.0019    0.1025
          53    0.0235    0.0017    0.0006    0.0000    0.0655    0.1213    0.0019   -0.1068
          54    0.0414    0.0016    0.0005    0.0000    0.1047    0.1940    0.0030   -0.1704
          55   -0.0892   -0.0002    0.0008   -0.0000   -0.1245    0.0309    0.0005    0.1230
          56   -0.0266   -0.0004    0.0017   -0.0000   -0.1310    0.0298    0.0005    0.1340
          57   -0.0396   -0.0003    0.0014   -0.0000   -0.1972    0.0447    0.0008    0.2017


   Root No.      49        50        51

                49 A      50 A      51 A   

                3074.0    3113.8    3132.9
  
           1   -0.0003   -0.0001    0.0006
           2    0.0001    0.0001    0.0008
           3    0.0005   -0.0000   -0.0001
           4    0.0003    0.0000   -0.0006
           5    0.0001    0.0003    0.0008
           6    0.0005    0.0001   -0.0002
           7   -0.0001    0.0002    0.0022
           8   -0.0000   -0.0002   -0.0007
           9   -0.0000   -0.0000   -0.0000
          10   -0.0001    0.0361   -0.0416
          11   -0.0001    0.0106   -0.0066
          12   -0.0000    0.0002   -0.0002
          13   -0.0139   -0.0000    0.0001
          14    0.0014    0.0000   -0.0000
          15    0.0020   -0.0000   -0.0001
          16    0.0166    0.0001   -0.0001
          17    0.0021    0.0001   -0.0001
          18    0.0021   -0.0000   -0.0001
          19    0.0000   -0.0002    0.0051
          20   -0.0001   -0.0387   -0.0408
          21    0.0000   -0.0008   -0.0008
          22    0.0112   -0.0000   -0.0000
          23   -0.0137    0.0000    0.0001
          24   -0.0218    0.0000    0.0001
          25   -0.0102   -0.0000    0.0000
          26   -0.0129    0.0000    0.0000
          27   -0.0194    0.0000    0.0001
          28    0.0007   -0.0002   -0.0006
          29    0.0016    0.0001   -0.0008
          30   -0.0037    0.0001    0.0017
          31   -0.0007    0.0006    0.0005
          32    0.0016    0.0014   -0.0026
          33   -0.0039   -0.0008    0.0034
          34    0.0004   -0.0032   -0.0079
          35   -0.0005   -0.0001    0.0024
          36    0.0008   -0.0043   -0.0127
          37    0.0006   -0.0038   -0.0091
          38   -0.0003   -0.0002    0.0022
          39   -0.0009    0.0045    0.0130
          40    0.0000    0.0052    0.0023
          41    0.0012    0.4596    0.4296
          42    0.0000    0.0099    0.0093
          43   -0.1740    0.0002    0.0010
          44   -0.0064    0.0004   -0.0005
          45    0.0030    0.0002   -0.0003
          46    0.0009   -0.4295    0.4231
          47    0.0000   -0.1294    0.1247
          48   -0.0001   -0.0026    0.0024
          49    0.1437    0.0000   -0.0007
          50   -0.0001    0.0000   -0.0000
          51    0.0006   -0.0000   -0.0000
          52   -0.1431    0.0002    0.0005
          53    0.1437   -0.0002   -0.0004
          54    0.2296   -0.0003   -0.0008
          55    0.1288   -0.0000   -0.0004
          56    0.1359   -0.0000   -0.0004
          57    0.2044   -0.0001   -0.0006


           MASS-WEIGHTED COORDINATE ANALYSIS (NORMAL COORDINATES)


   Root No.       1         2         3         4         5         6         7         8

                 1 A       2 A       3 A       4 A       5 A       6 A       7 A       8 A   

                  80.8     171.0     298.7     368.6     465.0     485.7     518.2     565.3
  
           1    0.0073    0.0137    0.1617    0.1771    0.1171    0.1694   -0.1028   -0.0597
           2   -0.0512    0.1140   -0.0502   -0.1263    0.0530   -0.1498   -0.1893    0.0059
           3    0.0210   -0.2139    0.0749    0.0872   -0.2375   -0.1405   -0.0541   -0.3063
           4    0.0079    0.0107    0.1623    0.1843    0.0848    0.1830   -0.1223    0.0728
           5    0.0419    0.1344    0.1068    0.0155    0.1872    0.0588    0.1462   -0.0119
           6   -0.0071   -0.2423   -0.1021    0.0429   -0.0190    0.2271    0.0953   -0.2748
           7   -0.0750   -0.0105   -0.0341   -0.0110    0.0727    0.1139    0.2201   -0.0368
           8   -0.0734    0.0976   -0.1054   -0.2030    0.0434   -0.2505   -0.1049   -0.0520
           9    0.4354    0.1252   -0.2726   -0.0826    0.0978   -0.0950    0.0241   -0.0360
          10   -0.0649   -0.0049   -0.0349   -0.0069    0.0566    0.1167    0.1915    0.0396
          11    0.0663    0.1260    0.1694    0.0639    0.2443    0.1242    0.0710   -0.0643
          12   -0.3683    0.0705   -0.1158    0.3818    0.3228   -0.0931   -0.1329    0.0144
          13    0.0454    0.0047    0.0226    0.0067    0.0230   -0.1307   -0.1547   -0.4805
          14    0.2367    0.1194   -0.0340    0.2402   -0.2907    0.2066   -0.3344   -0.0473
          15   -0.1894   -0.2091    0.1553   -0.0418   -0.0190   -0.2405   -0.0561    0.0322
          16    0.0503    0.0025    0.0408    0.0035   -0.1243   -0.0447   -0.1647    0.4809
          17   -0.2371    0.0647   -0.2838    0.1702   -0.2507   -0.0017    0.3678    0.0080
          18    0.1889   -0.1977    0.0687   -0.1736    0.1181    0.2099    0.0657    0.0063
          19   -0.1093   -0.0196   -0.1432   -0.1109    0.0085   -0.0136    0.1989   -0.0006
          20    0.0047    0.1080    0.0320   -0.0613    0.1982   -0.0575    0.0330   -0.1203
          21   -0.1136    0.4359    0.3095   -0.3024   -0.0952    0.0507    0.0648   -0.0304
          22    0.0762    0.0033   -0.0781   -0.1093   -0.1194   -0.1955   -0.0583    0.0221
          23   -0.1637   -0.4003   -0.1195   -0.2482    0.0368    0.3079   -0.0667    0.1706
          24    0.1223    0.1066    0.0354    0.1716   -0.1112    0.1022    0.2930    0.2610
          25    0.0694    0.0014   -0.0861   -0.1151   -0.1158   -0.1889   -0.0643   -0.0349
          26    0.1826   -0.3498    0.2984    0.1376   -0.1154   -0.2659    0.0696    0.1992
          27   -0.1367    0.0893   -0.1293   -0.0441   -0.2402    0.0559   -0.2631    0.2289
          28    0.0070    0.0196    0.0933    0.0696    0.0507    0.0221   -0.0381    0.0623
          29   -0.1029   -0.0133    0.0265   -0.0648    0.0004   -0.1234   -0.0574   -0.0038
          30   -0.0384   -0.0786    0.0593    0.0154   -0.0668   -0.0929   -0.0203   -0.0596
          31    0.0091   -0.0012    0.0836    0.0904   -0.0105    0.0447   -0.0256   -0.0611
          32    0.0950    0.0106    0.0997   -0.0723    0.0657    0.1051    0.0603   -0.0291
          33    0.0393   -0.0810   -0.0056   -0.0432    0.0169    0.1135    0.0328   -0.0589
          34   -0.1668    0.0256    0.1688   -0.0623   -0.1393    0.0881    0.0892   -0.0926
          35    0.0047    0.0919   -0.0701   -0.1168    0.0404   -0.0686   -0.0019    0.0492
          36    0.2301    0.0367   -0.2132   -0.0037    0.1490   -0.0667    0.0002    0.0653
          37    0.1108   -0.0330   -0.2049    0.0326    0.1670   -0.0374    0.0637    0.0708
          38   -0.0657   -0.0413   -0.0334   -0.0392   -0.0544   -0.1083   -0.0281   -0.0702
          39    0.2352    0.0343   -0.2223   -0.0027    0.1573   -0.0701    0.0050    0.0673
          40   -0.0478   -0.0109   -0.0849   -0.0750   -0.0327   -0.0708    0.0280    0.0004
          41    0.0023    0.0287    0.0064   -0.0146    0.0592   -0.0168    0.0088   -0.0361
          42   -0.0740    0.2489    0.2396   -0.2184   -0.0770    0.0305    0.0293    0.0418
          43    0.0181   -0.0024    0.0177   -0.0030   -0.0275   -0.0135   -0.0514    0.1412
          44   -0.1399    0.0796   -0.2302    0.1059   -0.2682   -0.0147    0.2097   -0.0771
          45    0.1086   -0.1011    0.0691   -0.1425    0.1111   -0.0035   -0.0299    0.0308
          46   -0.0234   -0.0029   -0.0237   -0.0160    0.0106    0.0223    0.0713    0.0075
          47    0.0369    0.0414    0.0950    0.0624    0.0856    0.0752   -0.0313   -0.0061
          48   -0.2210    0.0251   -0.0582    0.2743    0.2687   -0.1055   -0.1491    0.0987
          49    0.0132    0.0017    0.0061    0.0016    0.0061   -0.0378   -0.0440   -0.1379
          50    0.1366    0.1156   -0.0241    0.2221   -0.2244    0.2095   -0.1539   -0.1061
          51   -0.1091   -0.1115    0.0980   -0.0561    0.1297   -0.0922    0.0101    0.0556
          52    0.0299    0.0001   -0.0445   -0.0478   -0.0054   -0.0369    0.0551   -0.0753
          53   -0.1013   -0.1980   -0.1239   -0.1960    0.0087    0.2616   -0.1403   -0.0314
          54    0.0740    0.0817    0.0522    0.1170   -0.0142   -0.0672    0.2051    0.0748
          55    0.0247   -0.0011   -0.0497   -0.0541   -0.0293   -0.0141    0.0471    0.0751
          56    0.1111   -0.1635    0.2067    0.1528   -0.0792   -0.2234    0.1603    0.0070
          57   -0.0811    0.0681   -0.1017   -0.0742   -0.0415    0.0897   -0.2100    0.0461


   Root No.       9        10        11        12        13        14        15        16

                 9 A      10 A      11 A      12 A      13 A      14 A      15 A      16 A   

                 712.2     745.3     755.9     792.8     830.5     850.9     882.3     938.7
  
           1    0.2208    0.0723   -0.0360    0.1726   -0.0262   -0.2160   -0.2108    0.1437
           2    0.2760   -0.0680    0.1300   -0.1131    0.0283   -0.0774   -0.0527    0.0535
           3   -0.2669   -0.0518    0.0132    0.0097   -0.0820    0.2892    0.0716   -0.2444
           4    0.2603    0.0415   -0.0181   -0.0754   -0.0375    0.2104    0.2916    0.1202
           5   -0.1652   -0.1511    0.1538   -0.2009    0.0197   -0.0022   -0.0984   -0.0762
           6    0.2747    0.0475   -0.0290    0.0893    0.0419    0.0185    0.3742    0.2296
           7   -0.2648    0.1109   -0.2098    0.2263    0.0727   -0.1300    0.0322   -0.0423
           8    0.2007    0.1150   -0.0596   -0.0372   -0.1344    0.2121    0.0525    0.0691
           9   -0.0361   -0.0754   -0.1476   -0.1034    0.0124    0.2466   -0.1730    0.2235
          10   -0.0568   -0.2345    0.2952   -0.3505    0.0833    0.0305    0.0618   -0.0561
          11   -0.1729   -0.0088   -0.0108   -0.1428    0.1089    0.0183    0.1491   -0.0605
          12   -0.0104   -0.0764   -0.1915   -0.1624    0.0237   -0.1057    0.0884   -0.2592
          13    0.1711   -0.0500    0.1422    0.0875   -0.1287   -0.0385   -0.2679   -0.1900
          14   -0.0280   -0.1757    0.0446    0.1639    0.1999   -0.0255   -0.0747   -0.0635
          15    0.0116    0.0668    0.0591   -0.0454   -0.0612   -0.1975   -0.0536    0.0373
          16    0.0536    0.1308   -0.1821   -0.0024   -0.1242    0.2571   -0.0173   -0.1930
          17    0.0679   -0.1769    0.0505    0.1185   -0.2198   -0.0776   -0.0225    0.0368
          18    0.0164    0.0639    0.0819   -0.0125    0.0771   -0.0294   -0.1555   -0.0153
          19   -0.1000   -0.0211    0.0169   -0.0190   -0.0050    0.0173   -0.0350   -0.0094
          20   -0.1886    0.2800   -0.3876    0.2841   -0.0003   -0.0195    0.0190   -0.0017
          21    0.0863   -0.0289   -0.1320   -0.0953    0.0153   -0.0970   -0.0047   -0.0122
          22   -0.1325   -0.0173   -0.0094   -0.0346    0.1163   -0.0922    0.0941    0.1027
          23   -0.0035   -0.1051   -0.0046    0.0883   -0.3047    0.0288   -0.0558    0.0444
          24    0.1804    0.1077    0.0140    0.0431   -0.0545    0.1363   -0.2567   -0.2362
          25   -0.1241   -0.0393    0.0259   -0.0365    0.1063   -0.1024    0.1021    0.1014
          26    0.0022   -0.1026    0.0031    0.1104    0.2974   -0.0710    0.0679   -0.0137
          27   -0.2019    0.0226    0.0117   -0.0771    0.0607   -0.2671    0.1037    0.2159
          28    0.0344    0.0022    0.0080   -0.0141   -0.0165   -0.0746   -0.2263    0.0566
          29    0.1274    0.0518    0.0602   -0.0462   -0.0641   -0.0641    0.0909   -0.0953
          30   -0.0625    0.0148    0.0237   -0.0271   -0.0634    0.0503    0.0098   -0.1249
          31    0.0317    0.0217   -0.0181    0.0399   -0.0470    0.1707    0.1600    0.0464
          32   -0.0934    0.0314    0.1111   -0.0384    0.0674    0.0956    0.0147    0.1335
          33    0.0713    0.0491    0.0327    0.0136    0.0580    0.0096    0.0951    0.1456
          34   -0.1283   -0.0809   -0.2470   -0.0475    0.0539    0.1498   -0.1517    0.2066
          35    0.1363    0.0424    0.0030   -0.0675   -0.0363   -0.0453    0.0562    0.0964
          36    0.0489    0.0618    0.0901    0.0331   -0.0197   -0.0906    0.0740   -0.0621
          37   -0.0567    0.1384    0.1179    0.1597   -0.0175   -0.1703    0.2019   -0.2456
          38   -0.0486   -0.0134    0.0072   -0.0553   -0.0662    0.3127    0.0719   -0.1019
          39    0.0382    0.0709    0.0880    0.0508   -0.0176   -0.1017    0.0808   -0.0758
          40    0.0620    0.0313   -0.0232    0.0348   -0.0885    0.0784   -0.0705    0.0810
          41   -0.0528    0.0771   -0.1249    0.0728    0.0022   -0.0063    0.0041    0.0012
          42   -0.0769    0.2193    0.5001    0.3716   -0.0743    0.0639    0.2032   -0.1141
          43    0.0088    0.0209   -0.0549    0.0018   -0.0580    0.0707   -0.0019   -0.0568
          44    0.1296    0.2908    0.0741   -0.0177    0.4096    0.0274   -0.1152    0.0164
          45   -0.1641   -0.2220    0.0135    0.0528   -0.2245   -0.1783   -0.0926    0.0127
          46   -0.0374   -0.0637    0.0759   -0.0778    0.0187   -0.0113   -0.0271   -0.0251
          47    0.0292   -0.0192    0.0228   -0.1303    0.0489    0.0739    0.2037    0.0040
          48   -0.2721    0.1386    0.3569    0.1684    0.0195    0.2966   -0.2277    0.4148
          49    0.0485   -0.0136    0.0410    0.0245   -0.0389   -0.0112   -0.0780   -0.0553
          50   -0.1565    0.2114    0.0369   -0.1574   -0.3875   -0.1930   -0.0282    0.0343
          51    0.2006   -0.1261    0.0024    0.1944    0.2291   -0.0248   -0.1782   -0.0157
          52   -0.0176   -0.0341    0.0384    0.0053   -0.0037   -0.0329   -0.0327    0.0418
          53   -0.0224    0.3490    0.0481   -0.2195    0.1836    0.0448   -0.2225   -0.2352
          54    0.0780   -0.2250    0.0002    0.1766   -0.2096    0.0104    0.0132    0.0929
          55   -0.0406    0.0001   -0.0236   -0.0168    0.0012    0.0512    0.0510    0.0292
          56   -0.0092    0.3360    0.0400   -0.2765   -0.1399   -0.1980   -0.0212    0.1873
          57   -0.0480   -0.2442   -0.0019    0.1880    0.1870   -0.0143    0.0415   -0.0628


   Root No.      17        18        19        20        21        22        23        24

                17 A      18 A      19 A      20 A      21 A      22 A      23 A      24 A   

                 969.1     986.0     995.5    1002.1    1020.7    1058.6    1064.8    1077.0
  
           1   -0.0212    0.1948    0.0762   -0.0021   -0.0305    0.0652    0.0500   -0.0543
           2   -0.0390   -0.1192    0.1084   -0.1283   -0.0288    0.1122   -0.1505    0.0089
           3    0.0307    0.0139   -0.0924    0.0107   -0.1320    0.0126   -0.0601   -0.0816
           4   -0.0509    0.0883   -0.0416   -0.0741   -0.0230   -0.0436   -0.0148   -0.0060
           5    0.0329    0.0752   -0.0513    0.1564    0.0408   -0.0197   -0.0523    0.0632
           6   -0.0753   -0.0683   -0.0082   -0.0523    0.1452    0.0514   -0.0311   -0.2035
[...]
 FREQ.      1198.73         C  1 -- H 10         +10.1% ( 39.7%)      0.1%
 T-DIPOLE    0.0239         C  1 -- C  2          +8.7% ( 36.9%)      0.2%
 TRAVEL      0.1349         C  6 -- H 15          +8.2% ( 35.7%)      0.1%
 RED. MASS   0.1964         C  5 -- H 17          +8.1% ( 35.5%)      0.0%
 EFF. MASS   3.0927

 VIBRATION   31   31A         ATOM PAIR      ENERGY CONTRIBUTION    RADIAL
 FREQ.      1225.60         C  1 -- H 10         +25.1% ( 69.5%)      0.1%
 T-DIPOLE    0.0385         C  1 -- C  3         +16.7% ( 56.6%)     82.1%
 TRAVEL      0.0962         C  1 -- C  5         +12.2% ( 48.3%)      2.1%
 RED. MASS   1.4766         C  1 -- C  2         +12.2% ( 48.3%)     38.5%
 EFF. MASS   5.9420

 VIBRATION   32   32A         ATOM PAIR      ENERGY CONTRIBUTION    RADIAL
 FREQ.      1232.60         C  2 -- H 11          +9.8% ( 42.4%)      0.2%
 T-DIPOLE    0.0271         C  1 -- C  2          +9.2% ( 41.1%)     96.7%
 TRAVEL      0.1016         C  2 -- C  4          +8.3% ( 39.2%)     44.0%
 RED. MASS   0.4949         C  1 -- C  3          +8.3% ( 39.1%)     87.6%
 EFF. MASS   5.3010

 VIBRATION   33   33A         ATOM PAIR      ENERGY CONTRIBUTION    RADIAL
 FREQ.      1309.23         C  2 -- C  4         +11.1% ( 50.0%)     99.2%
 T-DIPOLE    0.1313         C  3 -- H 13          +8.7% ( 44.3%)      0.4%
 TRAVEL      0.0774         C  1 -- C  3          +8.6% ( 44.1%)     56.0%
 RED. MASS   0.9807         C  3 -- C  7          +8.5% ( 43.7%)     67.5%
 EFF. MASS   8.6021

 VIBRATION   34   34A         ATOM PAIR      ENERGY CONTRIBUTION    RADIAL
 FREQ.      1325.88         C  1 -- C  2         +17.8% ( 64.0%)     92.9%
 T-DIPOLE    0.0907         C  2 -- C  4         +15.0% ( 58.7%)     39.5%
 TRAVEL      0.0746         C  2 -- H 11         +14.3% ( 57.4%)      0.0%
 RED. MASS   2.0472         C  2 -- C  6         +14.2% ( 57.1%)     33.5%
 EFF. MASS   9.1479

 VIBRATION   35   35A         ATOM PAIR      ENERGY CONTRIBUTION    RADIAL
 FREQ.      1375.89         C  3 -- H 12         +15.0% ( 50.9%)      0.2%
 T-DIPOLE    0.0694         C  3 -- C  7         +13.8% ( 48.8%)     82.9%
 TRAVEL      0.0870         C  3 -- H 13         +13.0% ( 47.4%)      0.5%
 RED. MASS   0.6845         C  4 -- C  7          +7.6% ( 36.3%)      0.1%
 EFF. MASS   6.4684

 VIBRATION   36   36A         ATOM PAIR      ENERGY CONTRIBUTION    RADIAL
 FREQ.      1406.65         C  3 -- H 12         +22.1% ( 59.5%)      5.4%
 T-DIPOLE    0.0511         C  3 -- H 13         +21.1% ( 58.2%)      6.5%
 TRAVEL      0.0929         C  3 -- C  7         +20.0% ( 56.7%)     93.0%
 RED. MASS   0.9698         C  1 -- C  3         +11.2% ( 42.3%)     12.1%
 EFF. MASS   5.5591

 VIBRATION   37   37A         ATOM PAIR      ENERGY CONTRIBUTION    RADIAL
 FREQ.      1408.18         C  1 -- C  2         +15.5% ( 62.6%)      1.5%
 T-DIPOLE    0.0857         C  2 -- C  6         +12.1% ( 55.3%)     90.2%
 TRAVEL      0.0698         C  1 -- C  5         +11.6% ( 54.1%)     95.6%
 RED. MASS   1.8645         C  1 -- C  3          +9.3% ( 48.5%)     27.8%
 EFF. MASS   9.8401

 VIBRATION   38   38A         ATOM PAIR      ENERGY CONTRIBUTION    RADIAL
 FREQ.      1459.72         C  8 -- C  9         +16.3% ( 62.1%)    100.0%
 T-DIPOLE    0.1497         C  1 -- C  5         +11.0% ( 50.9%)     99.0%
 TRAVEL      0.0660         C  2 -- C  6         +10.5% ( 49.8%)     98.0%
 RED. MASS   1.5267         C  5 -- C  9          +8.9% ( 45.7%)      0.7%
 EFF. MASS  10.5935

 VIBRATION   39   39A         ATOM PAIR      ENERGY CONTRIBUTION    RADIAL
 FREQ.      1832.75         C  4 -- C  7         +43.9% ( 98.1%)    100.0%
 T-DIPOLE    0.0644         C  2 -- C  4         +13.4% ( 54.2%)     25.5%
 TRAVEL      0.0556         C  3 -- C  7         +13.4% ( 54.2%)     26.8%
 RED. MASS   4.9712         C  7 -- H 14         +12.4% ( 52.3%)      9.4%
 EFF. MASS  11.8889         C  4 -- H 16         +12.4% ( 52.1%)     10.1%

 VIBRATION   40   40A         ATOM PAIR      ENERGY CONTRIBUTION    RADIAL
 FREQ.      1854.72         C  5 -- C  9         +21.4% ( 68.8%)     99.0%
 T-DIPOLE    0.3074         C  6 -- C  8         +20.7% ( 67.8%)     98.9%
 TRAVEL      0.0551         C  8 -- C  9         +16.1% ( 59.7%)    100.0%
 RED. MASS   2.6720         C  9 -- H 19          +7.0% ( 39.4%)      1.7%
 EFF. MASS  11.9534

 VIBRATION   41   41A         ATOM PAIR      ENERGY CONTRIBUTION    RADIAL
 FREQ.      1868.42         C  6 -- C  8         +22.2% ( 69.0%)     99.3%
 T-DIPOLE    0.3717         C  5 -- C  9         +22.2% ( 69.0%)     99.3%
 TRAVEL      0.0553         C  8 -- C  9         +12.1% ( 50.8%)      0.0%
 RED. MASS   2.6768         C  1 -- C  5          +7.9% ( 41.2%)     56.4%
 EFF. MASS  11.7847

 VIBRATION   42   42A         ATOM PAIR      ENERGY CONTRIBUTION    RADIAL
 FREQ.      2869.46         C  2 -- H 11         +88.9% ( 95.9%)    100.0%
 T-DIPOLE    0.0763         C  1 -- H 10          +7.9% ( 28.6%)    100.0%
 TRAVEL      0.1273         C  1 -- C  2          +1.1% ( 10.6%)      3.4%
 RED. MASS   0.7910         C  2 -- C  6          +1.0% (  9.9%)      6.9%
 EFF. MASS   1.4496

 VIBRATION   43   43A         ATOM PAIR      ENERGY CONTRIBUTION    RADIAL
 FREQ.      2887.03         C  1 -- H 10         +88.7% ( 95.6%)    100.0%
 T-DIPOLE    0.0913         C  2 -- H 11          +7.7% ( 28.3%)    100.0%
 TRAVEL      0.1272         C  1 -- C  2          +1.0% ( 10.1%)     26.5%
 RED. MASS   0.7847         C  1 -- C  3          +1.0% ( 10.0%)      9.3%
 EFF. MASS   1.4426

 VIBRATION   44   44A         ATOM PAIR      ENERGY CONTRIBUTION    RADIAL
 FREQ.      2975.10         C  3 -- H 12         +52.5% ( 75.2%)     97.1%
 T-DIPOLE    0.0570         C  3 -- H 13         +44.9% ( 69.5%)     96.1%
 TRAVEL      0.1214         C  3 -- C  7          +1.1% ( 10.9%)      0.0%
 RED. MASS   0.5172         C  1 -- C  3          +1.1% ( 10.9%)      0.0%
 EFF. MASS   1.5378

 VIBRATION   45   45A         ATOM PAIR      ENERGY CONTRIBUTION    RADIAL
 FREQ.      3045.90         C  5 -- H 17         +55.2% ( 75.4%)    100.0%
 T-DIPOLE    0.2538         C  9 -- H 19         +28.1% ( 53.8%)    100.0%
 TRAVEL      0.1227         C  8 -- H 18          +7.6% ( 28.0%)    100.0%
 RED. MASS   0.3850         C  6 -- H 15          +6.7% ( 26.3%)    100.0%
 EFF. MASS   1.4701

 VIBRATION   46   46A         ATOM PAIR      ENERGY CONTRIBUTION    RADIAL
 FREQ.      3048.50         C  6 -- H 15         +57.7% ( 77.1%)    100.0%
 T-DIPOLE    0.2491         C  8 -- H 18         +25.0% ( 50.8%)    100.0%
 TRAVEL      0.1230         C  5 -- H 17         +13.3% ( 37.0%)    100.0%
 RED. MASS   0.4050         C  9 -- H 19          +1.4% ( 12.0%)     99.5%
 EFF. MASS   1.4626

 VIBRATION   47   47A         ATOM PAIR      ENERGY CONTRIBUTION    RADIAL
 FREQ.      3052.10         C  3 -- H 13         +53.4% ( 72.1%)     98.0%
 T-DIPOLE    0.1032         C  3 -- H 12         +45.1% ( 66.2%)     97.0%
 TRAVEL      0.1313         C  1 -- C  3          +0.7% (  8.2%)     36.9%
 RED. MASS   0.4856         C  3 -- C  7          +0.7% (  8.1%)     31.2%
 EFF. MASS   1.2816

 VIBRATION   48   48A         ATOM PAIR      ENERGY CONTRIBUTION    RADIAL
 FREQ.      3063.58         C  9 -- H 19         +34.1% ( 59.4%)     99.9%
 T-DIPOLE    0.3580         C  8 -- H 18         +23.6% ( 49.4%)     99.9%
 TRAVEL      0.1183         C  5 -- H 17         +19.4% ( 44.8%)     99.9%
 RED. MASS   0.2472         C  6 -- H 15         +19.3% ( 44.7%)     99.9%
 EFF. MASS   1.5733

 VIBRATION   49   49A         ATOM PAIR      ENERGY CONTRIBUTION    RADIAL
 FREQ.      3073.97         C  8 -- H 18         +40.7% ( 64.7%)    100.0%
 T-DIPOLE    0.3544         C  9 -- H 19         +33.4% ( 58.6%)    100.0%
 TRAVEL      0.1170         C  6 -- H 15         +13.2% ( 36.8%)     99.8%
 RED. MASS   0.3037         C  5 -- H 17          +9.0% ( 30.4%)     99.8%
 EFF. MASS   1.6025

 VIBRATION   50   50A         ATOM PAIR      ENERGY CONTRIBUTION    RADIAL
 FREQ.      3113.80         C  7 -- H 14         +49.9% ( 71.8%)    100.0%
 T-DIPOLE    0.3688         C  4 -- H 16         +47.5% ( 70.0%)    100.0%
 TRAVEL      0.1218         C  4 -- C  7          +1.1% ( 10.7%)      0.0%
 RED. MASS   0.4651         C  3 -- C  7          +0.7% (  8.7%)     27.5%
 EFF. MASS   1.4608

 VIBRATION   51   51A         ATOM PAIR      ENERGY CONTRIBUTION    RADIAL
 FREQ.      3132.86         C  4 -- H 16         +49.0% ( 71.3%)     99.9%
 T-DIPOLE    0.3596         C  7 -- H 14         +46.5% ( 69.5%)     99.9%
 TRAVEL      0.1142         C  4 -- C  7          +2.5% ( 16.1%)    100.0%
 RED. MASS   0.4667         C  2 -- C  4          +1.0% ( 10.0%)     17.7%
 EFF. MASS   1.6515

      SYMMETRY NUMBER FOR POINT-GROUP C1  =  1


          SYSTEM IS A GROUND STATE



 InChI=1S/C9H10/c1-2-5-9-7-3-6-8(9)4-1/h1-6,8-9H,7H2


          MOLECULE IS NOT LINEAR

          THERE ARE 51 GENUINE VIBRATIONS IN THIS SYSTEM
          THIS THERMODYNAMICS CALCULATION IS LIMITED TO
          MOLECULES WHICH HAVE NO INTERNAL ROTATIONS




                    CALCULATED THERMODYNAMIC PROPERTIES
                                          *
   TEMP. (K)   PARTITION FUNCTION   H.O.F.    ENTHALPY  HEAT CAPACITY ENTROPY
                                   KCAL/MOL   CAL/MOLE    CAL/K/MOL  CAL/K/MOL


 298.00  VIB.     0.1634D+02                  2584.3759    22.5403    14.2236
         ROT.     0.3421D+06                   888.2813     2.9808    28.3032
         INT.     0.5588D+07                  3472.6572    25.5211    42.5268
         TRA.     0.1242D+28                  1480.4688     4.9680    40.2136
         TOT.                       40.454    4953.1260    30.4891    82.7405

 200.00  VIB.     0.4502D+01                   926.1070    11.6575     7.6202
         ROT.     0.1881D+06                   596.1620     2.9808    27.1145
         INT.     0.8466D+06                  1522.2689    14.6383    34.7347
         TRA.     0.6829D+27                   993.6033     4.9680    38.2325
         TOT.                       38.017    2515.8722    19.6064    72.9672

 210.00  VIB.     0.5066D+01                  1047.5956    12.6468     8.2127
         ROT.     0.2023D+06                   625.9700     2.9808    27.2600
         INT.     0.1025D+07                  1673.5657    15.6276    35.4727
         TRA.     0.7347D+27                  1043.2834     4.9680    38.4749
         TOT.                       38.218    2716.8491    20.5956    73.9476

 220.00  VIB.     0.5718D+01                  1179.1687    13.6739     8.8246
         ROT.     0.2170D+06                   655.7781     2.9808    27.3986
         INT.     0.1241D+07                  1834.9468    16.6547    36.2233
         TRA.     0.7878D+27                  1092.9636     4.9680    38.7060
         TOT.                       38.429    2927.9104    21.6227    74.9293

 230.00  VIB.     0.6473D+01                  1321.1872    14.7352     9.4558
         ROT.     0.2319D+06                   685.5862     2.9808    27.5311
         INT.     0.1501D+07                  2006.7735    17.7161    36.9869
         TRA.     0.8422D+27                  1142.6437     4.9680    38.9268
         TOT.                       38.650    3149.4172    22.6841    75.9137

 240.00  VIB.     0.7351D+01                  1473.9749    15.8270    10.1058
         ROT.     0.2472D+06                   715.3943     2.9808    27.6580
         INT.     0.1817D+07                  2189.3692    18.8078    37.7639
         TRA.     0.8977D+27                  1192.3239     4.9680    39.1383
         TOT.                       38.883    3381.6931    23.7758    76.9021

 250.00  VIB.     0.8375D+01                  1637.8144    16.9449    10.7745
         ROT.     0.2628D+06                   745.2024     2.9808    27.7797
         INT.     0.2201D+07                  2383.0168    19.9257    38.5542
         TRA.     0.9544D+27                  1242.0041     4.9680    39.3411
         TOT.                       39.126    3625.0209    24.8937    77.8953

 260.00  VIB.     0.9570D+01                  1812.9457    18.0847    11.4612
         ROT.     0.2788D+06                   775.0105     2.9808    27.8966
         INT.     0.2668D+07                  2587.9563    21.0655    39.3578
         TRA.     0.1012D+28                  1291.6842     4.9680    39.5359
         TOT.                       39.381    3879.6405    26.0335    78.8938

 270.00  VIB.     0.1097D+02                  1999.5658    19.2419    12.1654
         ROT.     0.2950D+06                   804.8186     2.9808    28.0091
         INT.     0.3236D+07                  2804.3844    22.2227    40.1745
         TRA.     0.1071D+28                  1341.3644     4.9680    39.7234
         TOT.                       39.647    4145.7488    27.1908    79.8979

 280.00  VIB.     0.1261D+02                  2197.8287    20.4125    12.8863
         ROT.     0.3115D+06                   834.6267     2.9808    28.1175
         INT.     0.3929D+07                  3032.4554    23.3933    41.0038
         TRA.     0.1131D+28                  1391.0445     4.9680    39.9041
         TOT.                       39.925    4423.4999    28.3613    80.9079

 290.00  VIB.     0.1455D+02                  2407.8469    21.5924    13.6232
         ROT.     0.3284D+06                   864.4348     2.9808    28.2221
         INT.     0.4776D+07                  3272.2817    24.5732    41.8453
         TRA.     0.1192D+28                  1440.7247     4.9680    40.0784
         TOT.                       40.214    4713.0064    29.5412    81.9237

 300.00  VIB.     0.1682D+02                  2629.6938    22.7776    14.3752
         ROT.     0.3455D+06                   894.2429     2.9808    28.3232
         INT.     0.5813D+07                  3523.9367    25.7584    42.6983
         TRA.     0.1255D+28                  1490.4049     4.9680    40.2469
         TOT.                       40.515    5014.3416    30.7264    82.9452

 310.00  VIB.     0.1952D+02                  2863.4056    23.9648    15.1414
         ROT.     0.3629D+06                   924.0510     2.9808    28.4209
         INT.     0.7083D+07                  3787.4566    26.9456    43.5623
         TRA.     0.1318D+28                  1540.0850     4.9680    40.4098
         TOT.                       40.829    5327.5417    31.9136    83.9721

 320.00  VIB.     0.2271D+02                  3108.9847    25.1506    15.9210
         ROT.     0.3806D+06                   953.8591     2.9808    28.5155
         INT.     0.8643D+07                  4062.8438    28.1314    44.4365
         TRA.     0.1382D+28                  1589.7652     4.9680    40.5675
         TOT.                       41.154    5652.6090    33.0994    85.0040

 330.00  VIB.     0.2649D+02                  3366.4022    26.3320    16.7130
         ROT.     0.3986D+06                   983.6672     2.9808    28.6073
         INT.     0.1056D+08                  4350.0694    29.3128    45.3203
         TRA.     0.1447D+28                  1639.4454     4.9680    40.7204
         TOT.                       41.491    5989.5148    34.2808    86.0406

 340.00  VIB.     0.3099D+02                  3635.6014    27.5065    17.5166
         ROT.     0.4169D+06                  1013.4753     2.9808    28.6962
         INT.     0.1292D+08                  4649.0767    30.4873    46.2128
         TRA.     0.1514D+28                  1689.1255     4.9680    40.8687
         TOT.                       41.839    6338.2022    35.4553    87.0815

 350.00  VIB.     0.3636D+02                  3916.5006    28.6716    18.3307
         ROT.     0.4354D+06                  1043.2834     2.9808    28.7827
         INT.     0.1583D+08                  4959.7841    31.6525    47.1134
         TRA.     0.1581D+28                  1738.8057     4.9680    41.0127
         TOT.                       42.200    6698.5897    36.6205    88.1261

 360.00  VIB.     0.4276D+02                  4208.9965    29.8255    19.1546
         ROT.     0.4542D+06                  1073.0915     2.9808    28.8666
         INT.     0.1942D+08                  5282.0880    32.8063    48.0213
         TRA.     0.1649D+28                  1788.4859     4.9680    41.1526
         TOT.                       42.572    7070.5738    37.7743    89.1739

 370.00  VIB.     0.5041D+02                  4512.9664    30.9662    19.9874
         ROT.     0.4732D+06                  1102.8996     2.9808    28.9483
         INT.     0.2386D+08                  5615.8660    33.9470    48.9357
         TRA.     0.1718D+28                  1838.1660     4.9680    41.2888
         TOT.                       42.955    7454.0320    38.9150    90.2245

 380.00  VIB.     0.5958D+02                  4828.2718    32.0923    20.8282
         ROT.     0.4925D+06                  1132.7077     2.9808    29.0278
         INT.     0.2934D+08                  5960.9795    35.0731    49.8560
         TRA.     0.1788D+28                  1887.8462     4.9680    41.4213
         TOT.                       43.350    7848.8256    40.0412    91.2773

 390.00  VIB.     0.7057D+02                  5154.7602    33.2026    21.6762
         ROT.     0.5121D+06                  1162.5158     2.9808    29.1052
         INT.     0.3614D+08                  6317.2760    36.1834    50.7814
         TRA.     0.1860D+28                  1937.5263     4.9680    41.5503
         TOT.                       43.756    8254.8023    41.1514    92.3317

 400.00  VIB.     0.8379D+02                  5492.2679    34.2960    22.5307
         ROT.     0.5319D+06                  1192.3239     2.9808    29.1807
         INT.     0.4457D+08                  6684.5918    37.2768    51.7113
         TRA.     0.1932D+28                  1987.2065     4.9680    41.6761
         TOT.                       44.173    8671.7983    42.2449    93.3874

   *: NOTE: HEATS OF FORMATION ARE RELATIVE TO THE
            ELEMENTS IN THEIR STANDARD STATE AT 298K
              (=  Standard Enthalpy of Formation).

            Hvib:  Zero-point energy is not included.
                   frequencies of less than zero cm-1 are not included.
            Hrot = (3/2)RT
            Htra = (3/2)RT + pV = (5/2)RT

            Heat capacity is Cp, not Cv

          For more information, see: HTTP://OpenMOPAC.net/Manual/thermochemistry.html


           FORCE CONSTANT IN CARTESIAN COORDINATES (Millidynes/A)

    ATOM   CHEMICAL       X               Y               Z
   NUMBER   SYMBOL  FORCE CONSTANT  FORCE CONSTANT  FORCE CONSTANT

      1       C        7.888015        8.250646        8.842339
      2       C        7.944413        9.214327        8.566425
      3       C        9.622315        7.371135        8.109225
      4       C       14.601197       10.374761        2.396387
      5       C       11.221579        5.907598       10.108273
      6       C       11.193596        5.867490       10.125347
      7       C       12.044943       13.105961        2.350257
      8       C       11.634271        5.701955       10.427784
      9       C       11.663849        5.715244       10.371552
     10       H        1.097955        1.433957        3.420712
     11       H        1.124939        1.371310        3.355528
     12       H        1.820184        0.993621        3.603558
     13       H        1.998604        0.903080        3.487054
     14       H        0.710890        5.348981        0.354889
     15       H        5.120391        0.467805        0.648506
     16       H        4.975250        1.090314        0.349871
     17       H        5.119418        0.473374        0.642807
     18       H        1.710876        1.439352        3.113588
     19       H        1.695926        1.532360        3.032760

 **********************
 *                    *
 * JOB ENDED NORMALLY *
 *                    *
 **********************



 TOTAL JOB TIME:             1.48 SECONDS

 == MOPAC DONE ==
