 *******************************************************************************
 ** Site#: 14399        For non-commercial use only    Version 18.184L 64BITS **
 *******************************************************************************
 ** Cite this program as: MOPAC2016, Version: 18.184L, James J. P. Stewart,   **
 ** Stewart Computational Chemistry, web: HTTP://OpenMOPAC.net. Days left:  18**
 *******************************************************************************
 **                                                                           **
 **                                MOPAC2016                                  **
 **                                                                           **
 *******************************************************************************

                              PM3 CALCULATION RESULTS

 *******************************************************************************
 *  CALCULATION DONE:                                Sat Jun 15 10:30:26 2019  *
 *  PM3        - The PM3 Hamiltonian to be used
 *  PRECISE    - CRITERIA TO BE INCREASED BY 100 TIMES
 *  NOSYM      - POINT-GROUP SYMMETRY SET TO C1
 *  THREADS=1  - MULTI-THREADING NOT USED
 *  T=         - A TIME OF 172800.0 SECONDS REQUESTED
 *  DUMP=N     - RESTART FILE WRITTEN EVERY  7200.000 SECONDS
 *******************************************************************************
pm3  precise nosym THREADS=1
 InChI=1S/C7H12O4/c8-10-11-9-7-3-1-2-5-4-6(5)7/h5-8H,1-4H2

   ATOM   CHEMICAL          X               Y               Z
  NUMBER   SYMBOL      (ANGSTROMS)     (ANGSTROMS)     (ANGSTROMS)
 
     1       O          1.66850000  *  -0.35150000  *   1.50860000  *
     2       O          2.55300000  *  -1.16780000  *   0.96120000  *
     3       O          3.70420000  *  -0.53180000  *   1.06020000  *
     4       O          4.02090000  *  -0.21150000  *  -0.17820000  *
     5       C         -0.25570000  *  -1.23350000  *   0.34730000  *
     6       C         -1.72990000  *  -0.95630000  *   0.03790000  *
     7       C          0.72340000  *  -0.04640000  *   0.50930000  *
     8       C         -0.79580000  *  -1.40610000  *  -1.07500000  *
     9       C         -2.21870000  *   0.50410000  *  -0.03890000  *
    10       C         -0.00520000  *   1.23650000  *   0.91760000  *
    11       C         -1.11160000  *   1.56400000  *  -0.08040000  *
    12       H         -2.44740000  *  -1.74050000  *   0.36090000  *
    13       H         -0.03870000  *  -2.19830000  *   0.85450000  *
    14       H          1.24420000  *   0.15720000  *  -0.45760000  *
    15       H         -0.68950000  *   1.64020000  *  -1.10600000  *
    16       H         -1.54950000  *   2.55420000  *   0.17100000  *
    17       H         -0.43660000  *   1.12580000  *   1.93750000  *
    18       H          0.72220000  *   2.07700000  *   0.94200000  *
    19       H         -2.84780000  *   0.69170000  *   0.85770000  *
    20       H         -2.87260000  *   0.62150000  *  -0.92930000  *
    21       H         -0.94130000  *  -2.46380000  *  -1.38060000  *
    22       H         -0.52460000  *  -0.62330000  *  -1.81440000  *
    23       H          3.82850000  *   0.75870000  *  -0.24560000  *
 


          CARTESIAN COORDINATES 

    NO.       ATOM           X           Y           Z

     1         O          1.6685     -0.3515      1.5086
     2         O          2.5530     -1.1678      0.9612
     3         O          3.7042     -0.5318      1.0602
     4         O          4.0209     -0.2115     -0.1782
     5         C         -0.2557     -1.2335      0.3473
     6         C         -1.7299     -0.9563      0.0379
     7         C          0.7234     -0.0464      0.5093
     8         C         -0.7958     -1.4061     -1.0750
     9         C         -2.2187      0.5041     -0.0389
    10         C         -0.0052      1.2365      0.9176
    11         C         -1.1116      1.5640     -0.0804
    12         H         -2.4474     -1.7405      0.3609
    13         H         -0.0387     -2.1983      0.8545
    14         H          1.2442      0.1572     -0.4576
    15         H         -0.6895      1.6402     -1.1060
    16         H         -1.5495      2.5542      0.1710
    17         H         -0.4366      1.1258      1.9375
    18         H          0.7222      2.0770      0.9420
    19         H         -2.8478      0.6917      0.8577
    20         H         -2.8726      0.6215     -0.9293
    21         H         -0.9413     -2.4638     -1.3806
    22         H         -0.5246     -0.6233     -1.8144
    23         H          3.8285      0.7587     -0.2456

  H: (PM3): J. J. P. STEWART, J. COMP. CHEM. 10, 209 (1989).
  C: (PM3): J. J. P. STEWART, J. COMP. CHEM. 10, 209 (1989).
  O: (PM3): J. J. P. STEWART, J. COMP. CHEM. 10, 209 (1989).

           Empirical Formula: C7 H12 O4  =    23 atoms



      MOLECULAR POINT GROUP   :   C1  


      RHF CALCULATION, NO. OF DOUBLY OCCUPIED LEVELS = 32


          Geometry optimization using EF

          DIAGONAL MATRIX USED AS START HESSIAN

 CYCLE:     1 TIME:   0.008 TIME LEFT:  2.00D  GRAD.:   219.300 HEAT:  27.62471
 CYCLE:     2 TIME:   0.008 TIME LEFT:  2.00D  GRAD.:   122.075 HEAT:  14.29718
 CYCLE:     3 TIME:   0.008 TIME LEFT:  2.00D  GRAD.:   114.026 HEAT:  12.39596
 CYCLE:     4 TIME:   0.008 TIME LEFT:  2.00D  GRAD.:    72.269 HEAT:  8.594042
 CYCLE:     5 TIME:   0.008 TIME LEFT:  2.00D  GRAD.:    67.953 HEAT:  7.842433
 CYCLE:     6 TIME:   0.008 TIME LEFT:  2.00D  GRAD.:    52.235 HEAT:  6.585889
 CYCLE:     7 TIME:   0.008 TIME LEFT:  2.00D  GRAD.:    49.281 HEAT:  6.203999
 CYCLE:     8 TIME:   0.008 TIME LEFT:  2.00D  GRAD.:    33.234 HEAT:  5.599117
 CYCLE:     9 TIME:   0.008 TIME LEFT:  2.00D  GRAD.:    33.018 HEAT:  5.429250
 CYCLE:    10 TIME:   0.004 TIME LEFT:  2.00D  GRAD.:    35.464 HEAT:  5.396729
 CYCLE:    11 TIME:   0.008 TIME LEFT:  2.00D  GRAD.:    28.190 HEAT:  5.195006
 CYCLE:    12 TIME:   0.008 TIME LEFT:  2.00D  GRAD.:    12.891 HEAT:  4.976819
 CYCLE:    13 TIME:   0.012 TIME LEFT:  2.00D  GRAD.:    10.200 HEAT:  4.925078
 CYCLE:    14 TIME:   0.004 TIME LEFT:  2.00D  GRAD.:     8.507 HEAT:  4.866378
 CYCLE:    15 TIME:   0.008 TIME LEFT:  2.00D  GRAD.:    12.588 HEAT:  4.806290
 CYCLE:    16 TIME:   0.004 TIME LEFT:  2.00D  GRAD.:    15.742 HEAT:  4.758682
 CYCLE:    17 TIME:   0.004 TIME LEFT:  2.00D  GRAD.:    12.920 HEAT:  4.704956
 CYCLE:    18 TIME:   0.008 TIME LEFT:  2.00D  GRAD.:    13.854 HEAT:  4.700254
 CYCLE:    19 TIME:   0.004 TIME LEFT:  2.00D  GRAD.:     9.736 HEAT:  4.662739
 CYCLE:    20 TIME:   0.012 TIME LEFT:  2.00D  GRAD.:     5.204 HEAT:  4.632572
 CYCLE:    21 TIME:   0.004 TIME LEFT:  2.00D  GRAD.:     4.806 HEAT:  4.619851
 CYCLE:    22 TIME:   0.004 TIME LEFT:  2.00D  GRAD.:     4.356 HEAT:  4.601541
 CYCLE:    23 TIME:   0.008 TIME LEFT:  2.00D  GRAD.:     4.646 HEAT:  4.580052
 CYCLE:    24 TIME:   0.004 TIME LEFT:  2.00D  GRAD.:     5.348 HEAT:  4.552321
 CYCLE:    25 TIME:   0.004 TIME LEFT:  2.00D  GRAD.:     5.194 HEAT:  4.529217
 CYCLE:    26 TIME:   0.008 TIME LEFT:  2.00D  GRAD.:     4.436 HEAT:  4.505914
 CYCLE:    27 TIME:   0.004 TIME LEFT:  2.00D  GRAD.:     5.225 HEAT:  4.479655
 CYCLE:    28 TIME:   0.008 TIME LEFT:  2.00D  GRAD.:     5.470 HEAT:  4.448737
 CYCLE:    29 TIME:   0.004 TIME LEFT:  2.00D  GRAD.:     4.661 HEAT:  4.426975
 CYCLE:    30 TIME:   0.004 TIME LEFT:  2.00D  GRAD.:     5.320 HEAT:  4.398582
 CYCLE:    31 TIME:   0.008 TIME LEFT:  2.00D  GRAD.:     7.878 HEAT:  4.360914
 CYCLE:    32 TIME:   0.004 TIME LEFT:  2.00D  GRAD.:     6.576 HEAT:  4.339971
 CYCLE:    33 TIME:   0.004 TIME LEFT:  2.00D  GRAD.:     8.058 HEAT:  4.314653
 CYCLE:    34 TIME:   0.008 TIME LEFT:  2.00D  GRAD.:    10.172 HEAT:  4.310409
 CYCLE:    35 TIME:   0.004 TIME LEFT:  2.00D  GRAD.:     5.525 HEAT:  4.266254
 CYCLE:    36 TIME:   0.004 TIME LEFT:  2.00D  GRAD.:     6.492 HEAT:  4.249823
 CYCLE:    37 TIME:   0.008 TIME LEFT:  2.00D  GRAD.:     6.320 HEAT:  4.220175
 CYCLE:    38 TIME:   0.004 TIME LEFT:  2.00D  GRAD.:     4.635 HEAT:  4.188592
 CYCLE:    39 TIME:   0.008 TIME LEFT:  2.00D  GRAD.:     8.830 HEAT:  4.159587
 CYCLE:    40 TIME:   0.004 TIME LEFT:  2.00D  GRAD.:     6.454 HEAT:  4.103351
 CYCLE:    41 TIME:   0.004 TIME LEFT:  2.00D  GRAD.:     5.615 HEAT:  4.040187
 CYCLE:    42 TIME:   0.008 TIME LEFT:  2.00D  GRAD.:     7.020 HEAT:  3.971795
 CYCLE:    43 TIME:   0.008 TIME LEFT:  2.00D  GRAD.:    16.294 HEAT:  3.959895
 CYCLE:    44 TIME:   0.008 TIME LEFT:  2.00D  GRAD.:     5.833 HEAT:  3.867862
 CYCLE:    45 TIME:   0.004 TIME LEFT:  2.00D  GRAD.:     4.142 HEAT:  3.819833
 CYCLE:    46 TIME:   0.004 TIME LEFT:  2.00D  GRAD.:     6.897 HEAT:  3.747060
 CYCLE:    47 TIME:   0.008 TIME LEFT:  2.00D  GRAD.:     6.185 HEAT:  3.703940
 CYCLE:    48 TIME:   0.004 TIME LEFT:  2.00D  GRAD.:     3.941 HEAT:  3.656862
 CYCLE:    49 TIME:   0.004 TIME LEFT:  2.00D  GRAD.:     8.534 HEAT:  3.641457
 CYCLE:    50 TIME:   0.008 TIME LEFT:  2.00D  GRAD.:     4.193 HEAT:  3.608667
 CYCLE:    51 TIME:   0.004 TIME LEFT:  2.00D  GRAD.:     2.518 HEAT:  3.575087
 CYCLE:    52 TIME:   0.008 TIME LEFT:  2.00D  GRAD.:     2.515 HEAT:  3.554341
 CYCLE:    53 TIME:   0.004 TIME LEFT:  2.00D  GRAD.:     3.171 HEAT:  3.540446
 CYCLE:    54 TIME:   0.004 TIME LEFT:  2.00D  GRAD.:     3.482 HEAT:  3.530541
 CYCLE:    55 TIME:   0.008 TIME LEFT:  2.00D  GRAD.:     3.245 HEAT:  3.514006
 CYCLE:    56 TIME:   0.004 TIME LEFT:  2.00D  GRAD.:     5.298 HEAT:  3.499563
 CYCLE:    57 TIME:   0.004 TIME LEFT:  2.00D  GRAD.:     2.841 HEAT:  3.485564
 CYCLE:    58 TIME:   0.008 TIME LEFT:  2.00D  GRAD.:     3.481 HEAT:  3.473061
 CYCLE:    59 TIME:   0.004 TIME LEFT:  2.00D  GRAD.:     2.554 HEAT:  3.459413
 CYCLE:    60 TIME:   0.008 TIME LEFT:  2.00D  GRAD.:     3.043 HEAT:  3.445664
 CYCLE:    61 TIME:   0.004 TIME LEFT:  2.00D  GRAD.:     2.983 HEAT:  3.424611
 CYCLE:    62 TIME:   0.004 TIME LEFT:  2.00D  GRAD.:     5.020 HEAT:  3.414256
 CYCLE:    63 TIME:   0.008 TIME LEFT:  2.00D  GRAD.:     3.134 HEAT:  3.387958
 CYCLE:    64 TIME:   0.004 TIME LEFT:  2.00D  GRAD.:     3.585 HEAT:  3.370388
 CYCLE:    65 TIME:   0.004 TIME LEFT:  2.00D  GRAD.:     2.152 HEAT:  3.355120
 CYCLE:    66 TIME:   0.008 TIME LEFT:  2.00D  GRAD.:     3.361 HEAT:  3.346986
 CYCLE:    67 TIME:   0.004 TIME LEFT:  2.00D  GRAD.:     2.174 HEAT:  3.340173
 CYCLE:    68 TIME:   0.008 TIME LEFT:  2.00D  GRAD.:     2.346 HEAT:  3.332543
 CYCLE:    69 TIME:   0.004 TIME LEFT:  2.00D  GRAD.:     2.519 HEAT:  3.323892
 CYCLE:    70 TIME:   0.004 TIME LEFT:  2.00D  GRAD.:     1.816 HEAT:  3.316101
 CYCLE:    71 TIME:   0.008 TIME LEFT:  2.00D  GRAD.:     2.689 HEAT:  3.308091
 CYCLE:    72 TIME:   0.004 TIME LEFT:  2.00D  GRAD.:     1.898 HEAT:  3.297402
 CYCLE:    73 TIME:   0.008 TIME LEFT:  2.00D  GRAD.:     3.781 HEAT:  3.289734
 CYCLE:    74 TIME:   0.004 TIME LEFT:  2.00D  GRAD.:     2.022 HEAT:  3.278785
 CYCLE:    75 TIME:   0.008 TIME LEFT:  2.00D  GRAD.:     2.127 HEAT:  3.272119
 CYCLE:    76 TIME:   0.004 TIME LEFT:  2.00D  GRAD.:     2.407 HEAT:  3.261628
 CYCLE:    77 TIME:   0.004 TIME LEFT:  2.00D  GRAD.:     1.626 HEAT:  3.256486
 CYCLE:    78 TIME:   0.008 TIME LEFT:  2.00D  GRAD.:     1.909 HEAT:  3.249633
 CYCLE:    79 TIME:   0.004 TIME LEFT:  2.00D  GRAD.:     1.757 HEAT:  3.243764
 CYCLE:    80 TIME:   0.004 TIME LEFT:  2.00D  GRAD.:     1.713 HEAT:  3.239818
 CYCLE:    81 TIME:   0.008 TIME LEFT:  2.00D  GRAD.:     1.359 HEAT:  3.236045
 CYCLE:    82 TIME:   0.008 TIME LEFT:  2.00D  GRAD.:     1.550 HEAT:  3.233101
 CYCLE:    83 TIME:   0.004 TIME LEFT:  2.00D  GRAD.:     1.061 HEAT:  3.230141
 CYCLE:    84 TIME:   0.004 TIME LEFT:  2.00D  GRAD.:     1.455 HEAT:  3.228101
 CYCLE:    85 TIME:   0.008 TIME LEFT:  2.00D  GRAD.:     0.971 HEAT:  3.226233
 CYCLE:    86 TIME:   0.004 TIME LEFT:  2.00D  GRAD.:     0.893 HEAT:  3.224843
 CYCLE:    87 TIME:   0.004 TIME LEFT:  2.00D  GRAD.:     1.194 HEAT:  3.222410
 CYCLE:    88 TIME:   0.008 TIME LEFT:  2.00D  GRAD.:     1.284 HEAT:  3.219718
 CYCLE:    89 TIME:   0.004 TIME LEFT:  2.00D  GRAD.:     2.633 HEAT:  3.216740
 CYCLE:    90 TIME:   0.008 TIME LEFT:  2.00D  GRAD.:     2.365 HEAT:  3.215632
 CYCLE:    91 TIME:   0.004 TIME LEFT:  2.00D  GRAD.:     1.082 HEAT:  3.212209
 CYCLE:    92 TIME:   0.004 TIME LEFT:  2.00D  GRAD.:     1.130 HEAT:  3.209837
 CYCLE:    93 TIME:   0.008 TIME LEFT:  2.00D  GRAD.:     1.973 HEAT:  3.206326
 CYCLE:    94 TIME:   0.004 TIME LEFT:  2.00D  GRAD.:     1.491 HEAT:  3.203000
 CYCLE:    95 TIME:   0.008 TIME LEFT:  2.00D  GRAD.:     1.108 HEAT:  3.198627
 CYCLE:    96 TIME:   0.004 TIME LEFT:  2.00D  GRAD.:     0.660 HEAT:  3.197090
 CYCLE:    97 TIME:   0.008 TIME LEFT:  2.00D  GRAD.:     1.630 HEAT:  3.195794
 CYCLE:    98 TIME:   0.004 TIME LEFT:  2.00D  GRAD.:     1.295 HEAT:  3.194192
 CYCLE:    99 TIME:   0.004 TIME LEFT:  2.00D  GRAD.:     0.760 HEAT:  3.192592
 CYCLE:   100 TIME:   0.008 TIME LEFT:  2.00D  GRAD.:     0.888 HEAT:  3.191049
 CYCLE:   101 TIME:   0.008 TIME LEFT:  2.00D  GRAD.:     0.500 HEAT:  3.190423
 CYCLE:   102 TIME:   0.004 TIME LEFT:  2.00D  GRAD.:     0.605 HEAT:  3.189677
 CYCLE:   103 TIME:   0.008 TIME LEFT:  2.00D  GRAD.:     0.530 HEAT:  3.188867
 CYCLE:   104 TIME:   0.004 TIME LEFT:  2.00D  GRAD.:     0.555 HEAT:  3.188250
 CYCLE:   105 TIME:   0.004 TIME LEFT:  2.00D  GRAD.:     0.735 HEAT:  3.187481
 CYCLE:   106 TIME:   0.008 TIME LEFT:  2.00D  GRAD.:     0.844 HEAT:  3.187033
 CYCLE:   107 TIME:   0.004 TIME LEFT:  2.00D  GRAD.:     0.754 HEAT:  3.186479
 CYCLE:   108 TIME:   0.004 TIME LEFT:  2.00D  GRAD.:     0.650 HEAT:  3.186170
 CYCLE:   109 TIME:   0.008 TIME LEFT:  2.00D  GRAD.:     0.507 HEAT:  3.185696
 CYCLE:   110 TIME:   0.004 TIME LEFT:  2.00D  GRAD.:     0.421 HEAT:  3.185495
 CYCLE:   111 TIME:   0.008 TIME LEFT:  2.00D  GRAD.:     0.652 HEAT:  3.185043
 CYCLE:   112 TIME:   0.004 TIME LEFT:  2.00D  GRAD.:     0.546 HEAT:  3.184912
 CYCLE:   113 TIME:   0.004 TIME LEFT:  2.00D  GRAD.:     0.891 HEAT:  3.184630
 CYCLE:   114 TIME:   0.008 TIME LEFT:  2.00D  GRAD.:     0.372 HEAT:  3.184430
 CYCLE:   115 TIME:   0.004 TIME LEFT:  2.00D  GRAD.:     0.518 HEAT:  3.184141
 CYCLE:   116 TIME:   0.004 TIME LEFT:  2.00D  GRAD.:     0.676 HEAT:  3.183808
 CYCLE:   117 TIME:   0.008 TIME LEFT:  2.00D  GRAD.:     0.585 HEAT:  3.183062
 CYCLE:   118 TIME:   0.004 TIME LEFT:  2.00D  GRAD.:     0.572 HEAT:  3.182724
 CYCLE:   119 TIME:   0.008 TIME LEFT:  2.00D  GRAD.:     0.469 HEAT:  3.182233
 CYCLE:   120 TIME:   0.004 TIME LEFT:  2.00D  GRAD.:     0.396 HEAT:  3.182016
 CYCLE:   121 TIME:   0.008 TIME LEFT:  2.00D  GRAD.:     0.442 HEAT:  3.181686
 CYCLE:   122 TIME:   0.004 TIME LEFT:  2.00D  GRAD.:     0.493 HEAT:  3.181470
 CYCLE:   123 TIME:   0.004 TIME LEFT:  2.00D  GRAD.:     1.201 HEAT:  3.181098
 CYCLE:   124 TIME:   0.008 TIME LEFT:  2.00D  GRAD.:     0.662 HEAT:  3.180701
 CYCLE:   125 TIME:   0.004 TIME LEFT:  2.00D  GRAD.:     0.397 HEAT:  3.180121
 CYCLE:   126 TIME:   0.004 TIME LEFT:  2.00D  GRAD.:     0.455 HEAT:  3.179574
 CYCLE:   127 TIME:   0.008 TIME LEFT:  2.00D  GRAD.:     0.328 HEAT:  3.179096
 CYCLE:   128 TIME:   0.004 TIME LEFT:  2.00D  GRAD.:     0.172 HEAT:  3.179027
 CYCLE:   129 TIME:   0.008 TIME LEFT:  2.00D  GRAD.:     0.172 HEAT:  3.178962
 CYCLE:   130 TIME:   0.004 TIME LEFT:  2.00D  GRAD.:     0.211 HEAT:  3.178874
 CYCLE:   131 TIME:   0.004 TIME LEFT:  2.00D  GRAD.:     0.197 HEAT:  3.178822
 CYCLE:   132 TIME:   0.008 TIME LEFT:  2.00D  GRAD.:     0.159 HEAT:  3.178780
 CYCLE:   133 TIME:   0.004 TIME LEFT:  2.00D  GRAD.:     0.183 HEAT:  3.178761
 CYCLE:   134 TIME:   0.004 TIME LEFT:  2.00D  GRAD.:     0.116 HEAT:  3.178733
 CYCLE:   135 TIME:   0.008 TIME LEFT:  2.00D  GRAD.:     0.124 HEAT:  3.178705
 CYCLE:   136 TIME:   0.004 TIME LEFT:  2.00D  GRAD.:     0.135 HEAT:  3.178651
 CYCLE:   137 TIME:   0.004 TIME LEFT:  2.00D  GRAD.:     0.162 HEAT:  3.178566
 CYCLE:   138 TIME:   0.008 TIME LEFT:  2.00D  GRAD.:     0.190 HEAT:  3.178459
 CYCLE:   139 TIME:   0.004 TIME LEFT:  2.00D  GRAD.:     0.390 HEAT:  3.178383
 CYCLE:   140 TIME:   0.008 TIME LEFT:  2.00D  GRAD.:     0.239 HEAT:  3.178247
 CYCLE:   141 TIME:   0.004 TIME LEFT:  2.00D  GRAD.:     0.153 HEAT:  3.178137
 CYCLE:   142 TIME:   0.004 TIME LEFT:  2.00D  GRAD.:     0.130 HEAT:  3.178072
 CYCLE:   143 TIME:   0.008 TIME LEFT:  2.00D  GRAD.:     0.105 HEAT:  3.177969
 CYCLE:   144 TIME:   0.004 TIME LEFT:  2.00D  GRAD.:     0.064 HEAT:  3.177947
 CYCLE:   145 TIME:   0.004 TIME LEFT:  2.00D  GRAD.:     0.022 HEAT:  3.177936

     GRADIENT =  0.02167  IS LESS THAN CUTOFF =  0.05000



 -------------------------------------------------------------------------------
 pm3  precise nosym THREADS=1
 InChI=1S/C7H12O4/c8-10-11-9-7-3-1-2-5-4-6(5)7/h5-8H,1-4H2



     GEOMETRY OPTIMISED USING EIGENVECTOR FOLLOWING (EF).     
     SCF FIELD WAS ACHIEVED                                   


                              PM3 CALCULATION
                                                       MOPAC2016 (Version: 18.184L)
                                                       Sat Jun 15 10:30:27 2019
                                                       No. of days remaining =  18




          FINAL HEAT OF FORMATION =          3.17794 KCAL/MOL =      13.29649 KJ/MOL


          TOTAL ENERGY            =      -2182.03697 EV
          ELECTRONIC ENERGY       =     -11030.06763 EV  POINT GROUP:     C1  
          CORE-CORE REPULSION     =       8848.03066 EV
          COSMO AREA              =        188.26 SQUARE ANGSTROMS
          COSMO VOLUME            =        191.25 CUBIC ANGSTROMS

          GRADIENT NORM           =          0.02167 = 0.00452 PER ATOM
          IONIZATION POTENTIAL    =         10.894169 EV
          HOMO LUMO ENERGIES (EV) =        -10.894  0.197
          NO. OF FILLED LEVELS    =         32
          MOLECULAR WEIGHT        =        160.1694

          MOLECULAR DIMENSIONS (Angstroms)

            Atom       Atom       Distance
            H    23    H    20     8.25017
            H    21    H    16     5.25217
            H    12    H    22     3.02190


          SCF CALCULATIONS        =        154
 
          WALL-CLOCK TIME         =          0.836 SECONDS
          COMPUTATION TIME        =          0.778 SECONDS




   ATOM   CHEMICAL          X               Y               Z
  NUMBER   SYMBOL      (ANGSTROMS)     (ANGSTROMS)     (ANGSTROMS)
 
     1       O          1.70655967  *  -0.27511756  *   1.11959470  *
     2       O          2.81385496  *  -1.12402210  *   0.40221792  *
     3       O          3.78954149  *  -0.90984886  *   1.22984052  *
     4       O          4.49226460  *   0.22012954  *   0.52746621  *
     5       C         -0.34735641  *  -1.21118591  *   0.24943368  *
     6       C         -1.82864993  *  -0.92367600  *   0.20942205  *
     7       C          0.65367927  *  -0.06271349  *   0.20819322  *
     8       C         -1.14347571  *  -1.51318485  *  -0.98979145  *
     9       C         -2.33231322  *   0.49327438  *   0.19553122  *
    10       C          0.01172222  *   1.27665235  *   0.61458053  *
    11       C         -1.26288709  *   1.50765560  *  -0.17789413  *
    12       H         -2.49503280  *  -1.58544532  *   0.79392994  *
    13       H         -0.00564051  *  -2.05872971  *   0.87283255  *
    14       H          1.05994266  *   0.02342381  *  -0.83174043  *
    15       H         -1.04676193  *   1.45984438  *  -1.26455874  *
    16       H         -1.64055825  *   2.53192331  *   0.00678424  *
    17       H         -0.21115745  *   1.29196508  *   1.70039328  *
    18       H          0.72756483  *   2.10320020  *   0.43947440  *
    19       H         -2.73327716  *   0.73517618  *   1.20020532  *
    20       H         -3.18908098  *   0.56883655  *  -0.50194802  *
    21       H         -1.33833695  *  -2.55303379  *  -1.27288120  *
    22       H         -0.99868920  *  -0.90539023  *  -1.89182652  *
    23       H          4.86317214  *   0.62600483  *   1.29337293  *

                             CARTESIAN COORDINATES

   1    O        1.706559669    -0.275117564     1.119594705
   2    O        2.813854959    -1.124022099     0.402217920
   3    O        3.789541494    -0.909848858     1.229840521
   4    O        4.492264598     0.220129538     0.527466211
   5    C       -0.347356405    -1.211185908     0.249433677
   6    C       -1.828649931    -0.923676001     0.209422048
   7    C        0.653679270    -0.062713491     0.208193220
   8    C       -1.143475713    -1.513184849    -0.989791449
   9    C       -2.332313223     0.493274380     0.195531217
  10    C        0.011722217     1.276652346     0.614580534
  11    C       -1.262887093     1.507655601    -0.177894132
  12    H       -2.495032804    -1.585445321     0.793929943
  13    H       -0.005640512    -2.058729708     0.872832547
  14    H        1.059942661     0.023423811    -0.831740426
  15    H       -1.046761925     1.459844375    -1.264558738
  16    H       -1.640558251     2.531923311     0.006784242
  17    H       -0.211157451     1.291965076     1.700393278
  18    H        0.727564827     2.103200205     0.439474402
  19    H       -2.733277163     0.735176181     1.200205316
  20    H       -3.189080982     0.568836555    -0.501948022
  21    H       -1.338336955    -2.553033790    -1.272881202
  22    H       -0.998689198    -0.905390232    -1.891826519
  23    H        4.863172141     0.626004826     1.293372932


           Empirical Formula: C7 H12 O4  =    23 atoms



      MOLECULAR POINT GROUP   :   C1  


                  EIGENVALUES  
 -42.24165 -35.76486 -35.01192 -34.28619 -33.24242 -30.63626 -28.66865 -23.83139
 -22.29879 -21.09465 -19.42692 -18.77762 -18.67487 -18.17335 -17.52127 -16.41263
 -15.97284 -15.56051 -15.25879 -15.03749 -14.23839 -13.75909 -13.41118 -13.13963
 -12.86746 -12.40662 -12.17837 -12.12980 -11.76827 -11.27897 -11.08781 -10.89417
   0.19680   0.96062   2.70808   2.96495   3.13493   3.35747   3.40427   3.44257
   3.61328   3.64617   3.71838   3.89982   4.01471   4.10056   4.30923   4.37776
   4.44991   4.63237   4.69275   4.80371   4.94449   5.00716   5.10275   5.28960


              NET ATOMIC CHARGES AND DIPOLE CONTRIBUTIONS

  ATOM NO.   TYPE          CHARGE      No. of ELECS.   s-Pop       p-Pop       
    1          O          -0.176465        6.1765     1.91321     4.26325
    2          O           0.014027        5.9860     1.94261     4.04336
    3          O           0.033037        5.9670     1.93346     4.03350
    4          O          -0.223846        6.2238     1.86607     4.35778
    5          C          -0.165860        4.1659     1.18872     2.97714
    6          C          -0.123569        4.1236     1.17611     2.94745
    7          C           0.090800        3.9092     1.16907     2.74013
    8          C          -0.152366        4.1524     1.16481     2.98755
    9          C          -0.066339        4.0663     1.15149     2.91485
   10          C          -0.103345        4.1033     1.16302     2.94032
   11          C          -0.096294        4.0963     1.15912     2.93718
   12          H           0.092190        0.9078     0.90781
   13          H           0.110099        0.8899     0.88990
   14          H           0.073892        0.9261     0.92611
   15          H           0.052719        0.9473     0.94728
   16          H           0.053013        0.9470     0.94699
   17          H           0.065295        0.9347     0.93471
   18          H           0.059999        0.9400     0.94000
   19          H           0.052569        0.9474     0.94743
   20          H           0.054114        0.9459     0.94589
   21          H           0.078354        0.9216     0.92165
   22          H           0.083245        0.9168     0.91675
   23          H           0.194729        0.8053     0.80527
 DIPOLE           X         Y         Z       TOTAL
 POINT-CHG.    -0.824     0.721    -0.081     1.098
 HYBRID         0.075     0.218     0.276     0.360
 SUM           -0.749     0.939     0.195     1.217


          ATOMIC ORBITAL ELECTRON POPULATIONS

     Atom    s        px        py        pz   
    1  O   1.91321   1.27541   1.70555   1.28230
    2  O   1.94261   1.09046   1.60542   1.34748
    3  O   1.93346   1.29739   1.41895   1.31716
    4  O   1.86607   1.70963   1.39655   1.25159
    5  C   1.18872   0.94142   1.01171   1.02402
    6  C   1.17611   0.95028   0.97846   1.01872
    7  C   1.16907   0.86552   0.92856   0.94604
    8  C   1.16481   1.04261   1.01830   0.92665
    9  C   1.15149   0.97040   0.93066   1.01378
   10  C   1.16302   0.97243   0.95720   1.01069
   11  C   1.15912   0.95391   0.98601   0.99726
   12  H   0.90781
   13  H   0.88990
   14  H   0.92611
   15  H   0.94728
   16  H   0.94699
   17  H   0.93471
   18  H   0.94000
   19  H   0.94743
   20  H   0.94589
   21  H   0.92165
   22  H   0.91675
   23  H   0.80527
 *******************************************************************************
 ** Site#: 14399        For non-commercial use only    Version 18.184L 64BITS **
 *******************************************************************************
 ** Cite this program as: MOPAC2016, Version: 18.184L, James J. P. Stewart,   **
 ** Stewart Computational Chemistry, web: HTTP://OpenMOPAC.net. Days left:  18**
 *******************************************************************************
 **                                                                           **
 **                                MOPAC2016                                  **
 **                                                                           **
 *******************************************************************************

                              PM3 CALCULATION RESULTS

 *******************************************************************************
 *  CALCULATION DONE:                                Sat Jun 15 10:30:27 2019  *
 *  PM3        - The PM3 Hamiltonian to be used
 *  OLDGEO     - PREVIOUS GEOMETRY TO BE USED
 *  PRECISE    - CRITERIA TO BE INCREASED BY 100 TIMES
 *  NOSYM      - POINT-GROUP SYMMETRY SET TO C1
 *  THREADS=1  - MULTI-THREADING NOT USED
 *  T=         - A TIME OF 172800.0 SECONDS REQUESTED
 *  DUMP=N     - RESTART FILE WRITTEN EVERY  7200.000 SECONDS
 *  THERMO     - THERMODYNAMIC QUANTITIES TO BE CALCULATED
 *******************************************************************************
oldgeo thermo nosym precise THREADS=1  pm3
 InChI=1S/C7H12O4/c8-10-11-9-7-3-1-2-5-4-6(5)7/h5-8H,1-4H2

   ATOM   CHEMICAL          X               Y               Z
  NUMBER   SYMBOL      (ANGSTROMS)     (ANGSTROMS)     (ANGSTROMS)
 
     1       O          1.70655967  *  -0.27511756  *   1.11959470  *
     2       O          2.81385496  *  -1.12402210  *   0.40221792  *
     3       O          3.78954149  *  -0.90984886  *   1.22984052  *
     4       O          4.49226460  *   0.22012954  *   0.52746621  *
     5       C         -0.34735641  *  -1.21118591  *   0.24943368  *
     6       C         -1.82864993  *  -0.92367600  *   0.20942205  *
     7       C          0.65367927  *  -0.06271349  *   0.20819322  *
     8       C         -1.14347571  *  -1.51318485  *  -0.98979145  *
     9       C         -2.33231322  *   0.49327438  *   0.19553122  *
    10       C          0.01172222  *   1.27665235  *   0.61458053  *
    11       C         -1.26288709  *   1.50765560  *  -0.17789413  *
    12       H         -2.49503280  *  -1.58544532  *   0.79392994  *
    13       H         -0.00564051  *  -2.05872971  *   0.87283255  *
    14       H          1.05994266  *   0.02342381  *  -0.83174043  *
    15       H         -1.04676193  *   1.45984438  *  -1.26455874  *
    16       H         -1.64055825  *   2.53192331  *   0.00678424  *
    17       H         -0.21115745  *   1.29196508  *   1.70039328  *
    18       H          0.72756483  *   2.10320020  *   0.43947440  *
    19       H         -2.73327716  *   0.73517618  *   1.20020532  *
    20       H         -3.18908098  *   0.56883655  *  -0.50194802  *
    21       H         -1.33833695  *  -2.55303379  *  -1.27288120  *
    22       H         -0.99868920  *  -0.90539023  *  -1.89182652  *
    23       H          4.86317214  *   0.62600483  *   1.29337293  *
 


          CARTESIAN COORDINATES 

    NO.       ATOM           X           Y           Z

     1         O          1.7066     -0.2751      1.1196
     2         O          2.8139     -1.1240      0.4022
     3         O          3.7895     -0.9098      1.2298
     4         O          4.4923      0.2201      0.5275
     5         C         -0.3474     -1.2112      0.2494
     6         C         -1.8286     -0.9237      0.2094
     7         C          0.6537     -0.0627      0.2082
     8         C         -1.1435     -1.5132     -0.9898
     9         C         -2.3323      0.4933      0.1955
    10         C          0.0117      1.2767      0.6146
    11         C         -1.2629      1.5077     -0.1779
    12         H         -2.4950     -1.5854      0.7939
    13         H         -0.0056     -2.0587      0.8728
    14         H          1.0599      0.0234     -0.8317
    15         H         -1.0468      1.4598     -1.2646
    16         H         -1.6406      2.5319      0.0068
    17         H         -0.2112      1.2920      1.7004
    18         H          0.7276      2.1032      0.4395
    19         H         -2.7333      0.7352      1.2002
    20         H         -3.1891      0.5688     -0.5019
    21         H         -1.3383     -2.5530     -1.2729
    22         H         -0.9987     -0.9054     -1.8918
    23         H          4.8632      0.6260      1.2934

  H: (PM3): J. J. P. STEWART, J. COMP. CHEM. 10, 209 (1989).
  C: (PM3): J. J. P. STEWART, J. COMP. CHEM. 10, 209 (1989).
  O: (PM3): J. J. P. STEWART, J. COMP. CHEM. 10, 209 (1989).

           Empirical Formula: C7 H12 O4  =    23 atoms



      MOLECULAR POINT GROUP   :   C1  


      RHF CALCULATION, NO. OF DOUBLY OCCUPIED LEVELS = 32



          HEAT OF FORMATION =       3.177937 KCALS/MOLE


          CARTESIAN COORDINATE DERIVATIVES

   NUMBER  ATOM         X            Y            Z

     1       O      0.002141    -0.009391     0.003087
     2       O      0.005028     0.023205     0.003962
     3       O      0.005591    -0.021431    -0.002250
     4       O     -0.003819    -0.000680     0.005840
     5       C     -0.001952     0.004078    -0.000913
     6       C     -0.001729    -0.003570     0.002366
     7       C     -0.000926     0.008863     0.000951
     8       C      0.003787    -0.000737    -0.002527
     9       C      0.000203    -0.000194     0.002951
    10       C      0.000965    -0.002493    -0.002131
    11       C     -0.000006    -0.000407     0.002023
    12       H      0.004395     0.000442     0.005998
    13       H     -0.004442     0.000178    -0.001608
    14       H     -0.003282    -0.001635    -0.002288
    15       H     -0.003008    -0.000632    -0.002379
    16       H      0.002883     0.002620    -0.000486
    17       H     -0.004487    -0.002034    -0.002091
    18       H     -0.003553     0.000842    -0.004602
    19       H      0.002724     0.001370     0.000669
    20       H      0.000981    -0.000520    -0.002721
    21       H     -0.002314    -0.001370    -0.001349
    22       H     -0.000593     0.000495     0.002674
    23       H      0.001414     0.003001    -0.005175
 


          GRADIENT NORM =   0.04073


          TIME FOR SCF CALCULATION =    0.00

          TIME FOR DERIVATIVES     =    0.00

          MOLECULAR WEIGHT =  160.17



          ROTATIONAL CONSTANTS IN CM(-1)

          A =    0.08341935   B =    0.01868206   C =    0.01649203



           PRINCIPAL MOMENTS OF INERTIA IN UNITS OF 10**(-40)*GRAM-CM**2

          A =      335.5669   B =     1498.3770   C =     1697.3519


          ORIENTATION OF MOLECULE IN FORCE CALCULATION

    NO.       ATOM         X         Y         Z

     1          O       0.3398    1.1498    0.1873
     2          O       1.9087    1.1498    0.1873
     3          O       2.1030    2.4324    0.1873
     4          O       2.3087    2.6713   -1.2840
     5          C      -0.2055   -1.0478    1.0388
     6          C      -1.3882   -1.9733    1.1908
     7          C      -0.1015   -0.1369   -0.1786
     8          C      -0.0373   -2.5290    0.8424
     9          C      -2.5040   -1.9597    0.1826
    10          C      -1.4651    0.0672   -0.8642
    11          C      -2.1274   -1.2749   -1.1217
    12          H      -1.7677   -2.1561    2.2136
    13          H       0.2093   -0.5900    1.9565
    14          H       0.6141   -0.5929   -0.9093
    15          H      -1.4521   -1.9219   -1.7176
    16          H      -3.0326   -1.1348   -1.7436
    17          H      -2.1272    0.7012   -0.2408
    18          H      -1.3271    0.6159   -1.8162
    19          H      -3.3773   -1.4438    0.6296
    20          H      -2.8307   -2.9995   -0.0137
    21          H       0.5173   -3.1175    1.5810
    22          H       0.1485   -2.9276   -0.1629
    23          H       2.0006    3.5621   -1.3056


    FIRST DERIVATIVES WILL BE USED IN THE CALCULATION OF SECOND DERIVATIVES

          ESTIMATED TIME TO COMPLETE CALCULATION =        2.16 SECONDS

    FOR POINT-GROUP C1   THERE ARE   1 UNIQUE SYMMETRY FUNCTIONS.

 STEP:   1 TIME =     0.02 SECS, INTEGRAL =      0.02 TIME LEFT: 172799.97
 STEP:   2 TIME =     0.02 SECS, INTEGRAL =      0.05 TIME LEFT: 172799.95
 STEP:   3 TIME =     0.03 SECS, INTEGRAL =      0.07 TIME LEFT: 172799.92
 STEP:   4 TIME =     0.02 SECS, INTEGRAL =      0.10 TIME LEFT: 172799.89
 STEP:   5 TIME =     0.02 SECS, INTEGRAL =      0.12 TIME LEFT: 172799.87
 STEP:   6 TIME =     0.02 SECS, INTEGRAL =      0.14 TIME LEFT: 172799.85
 STEP:   7 TIME =     0.02 SECS, INTEGRAL =      0.17 TIME LEFT: 172799.82
 STEP:   8 TIME =     0.02 SECS, INTEGRAL =      0.19 TIME LEFT: 172799.80
 STEP:   9 TIME =     0.02 SECS, INTEGRAL =      0.21 TIME LEFT: 172799.78
 STEP:  10 TIME =     0.02 SECS, INTEGRAL =      0.24 TIME LEFT: 172799.75
 STEP:  11 TIME =     0.02 SECS, INTEGRAL =      0.26 TIME LEFT: 172799.73
 STEP:  12 TIME =     0.02 SECS, INTEGRAL =      0.29 TIME LEFT: 172799.71
 STEP:  13 TIME =     0.02 SECS, INTEGRAL =      0.31 TIME LEFT: 172799.68
 STEP:  14 TIME =     0.03 SECS, INTEGRAL =      0.34 TIME LEFT: 172799.66
 STEP:  15 TIME =     0.02 SECS, INTEGRAL =      0.36 TIME LEFT: 172799.64
 STEP:  16 TIME =     0.02 SECS, INTEGRAL =      0.38 TIME LEFT: 172799.61
 STEP:  17 TIME =     0.02 SECS, INTEGRAL =      0.40 TIME LEFT: 172799.59
 STEP:  18 TIME =     0.02 SECS, INTEGRAL =      0.43 TIME LEFT: 172799.57
 STEP:  19 TIME =     0.02 SECS, INTEGRAL =      0.45 TIME LEFT: 172799.55
 STEP:  20 TIME =     0.02 SECS, INTEGRAL =      0.47 TIME LEFT: 172799.52
 STEP:  21 TIME =     0.02 SECS, INTEGRAL =      0.49 TIME LEFT: 172799.50
 STEP:  22 TIME =     0.02 SECS, INTEGRAL =      0.52 TIME LEFT: 172799.48
 STEP:  23 TIME =     0.02 SECS, INTEGRAL =      0.54 TIME LEFT: 172799.45
 STEP:  24 TIME =     0.02 SECS, INTEGRAL =      0.56 TIME LEFT: 172799.43
 STEP:  25 TIME =     0.02 SECS, INTEGRAL =      0.59 TIME LEFT: 172799.41
 STEP:  26 TIME =     0.02 SECS, INTEGRAL =      0.61 TIME LEFT: 172799.38
 STEP:  27 TIME =     0.02 SECS, INTEGRAL =      0.63 TIME LEFT: 172799.36
 STEP:  28 TIME =     0.02 SECS, INTEGRAL =      0.66 TIME LEFT: 172799.34
 STEP:  29 TIME =     0.02 SECS, INTEGRAL =      0.68 TIME LEFT: 172799.31
 STEP:  30 TIME =     0.02 SECS, INTEGRAL =      0.70 TIME LEFT: 172799.29
 STEP:  31 TIME =     0.02 SECS, INTEGRAL =      0.73 TIME LEFT: 172799.27
 STEP:  32 TIME =     0.02 SECS, INTEGRAL =      0.75 TIME LEFT: 172799.24
 STEP:  33 TIME =     0.02 SECS, INTEGRAL =      0.77 TIME LEFT: 172799.22
 STEP:  34 TIME =     0.02 SECS, INTEGRAL =      0.80 TIME LEFT: 172799.20
 STEP:  35 TIME =     0.02 SECS, INTEGRAL =      0.82 TIME LEFT: 172799.17
 STEP:  36 TIME =     0.02 SECS, INTEGRAL =      0.84 TIME LEFT: 172799.15
 STEP:  37 TIME =     0.02 SECS, INTEGRAL =      0.87 TIME LEFT: 172799.12
 STEP:  38 TIME =     0.02 SECS, INTEGRAL =      0.89 TIME LEFT: 172799.10
 STEP:  39 TIME =     0.02 SECS, INTEGRAL =      0.91 TIME LEFT: 172799.08
 STEP:  40 TIME =     0.02 SECS, INTEGRAL =      0.94 TIME LEFT: 172799.05
 STEP:  41 TIME =     0.02 SECS, INTEGRAL =      0.96 TIME LEFT: 172799.03
 STEP:  42 TIME =     0.02 SECS, INTEGRAL =      0.98 TIME LEFT: 172799.01
 STEP:  43 TIME =     0.03 SECS, INTEGRAL =      1.01 TIME LEFT: 172798.98
 STEP:  44 TIME =     0.02 SECS, INTEGRAL =      1.03 TIME LEFT: 172798.96
 STEP:  45 TIME =     0.02 SECS, INTEGRAL =      1.05 TIME LEFT: 172798.94
 STEP:  46 TIME =     0.02 SECS, INTEGRAL =      1.08 TIME LEFT: 172798.91
 STEP:  47 TIME =     0.02 SECS, INTEGRAL =      1.10 TIME LEFT: 172798.89
 STEP:  48 TIME =     0.02 SECS, INTEGRAL =      1.12 TIME LEFT: 172798.87
 STEP:  49 TIME =     0.02 SECS, INTEGRAL =      1.14 TIME LEFT: 172798.85
 STEP:  50 TIME =     0.02 SECS, INTEGRAL =      1.17 TIME LEFT: 172798.82
 STEP:  51 TIME =     0.02 SECS, INTEGRAL =      1.19 TIME LEFT: 172798.80
 STEP:  52 TIME =     0.03 SECS, INTEGRAL =      1.21 TIME LEFT: 172798.78
 STEP:  53 TIME =     0.02 SECS, INTEGRAL =      1.24 TIME LEFT: 172798.75
 STEP:  54 TIME =     0.02 SECS, INTEGRAL =      1.26 TIME LEFT: 172798.73
 STEP:  55 TIME =     0.02 SECS, INTEGRAL =      1.29 TIME LEFT: 172798.71
 STEP:  56 TIME =     0.02 SECS, INTEGRAL =      1.30 TIME LEFT: 172798.69
 STEP:  57 TIME =     0.02 SECS, INTEGRAL =      1.33 TIME LEFT: 172798.66
 STEP:  58 TIME =     0.02 SECS, INTEGRAL =      1.35 TIME LEFT: 172798.64
 STEP:  59 TIME =     0.02 SECS, INTEGRAL =      1.37 TIME LEFT: 172798.62
 STEP:  60 TIME =     0.02 SECS, INTEGRAL =      1.39 TIME LEFT: 172798.61
 STEP:  61 TIME =     0.02 SECS, INTEGRAL =      1.41 TIME LEFT: 172798.58
 STEP:  62 TIME =     0.02 SECS, INTEGRAL =      1.43 TIME LEFT: 172798.56
 STEP:  63 TIME =     0.02 SECS, INTEGRAL =      1.46 TIME LEFT: 172798.54
 STEP:  64 TIME =     0.02 SECS, INTEGRAL =      1.48 TIME LEFT: 172798.51
 STEP:  65 TIME =     0.02 SECS, INTEGRAL =      1.50 TIME LEFT: 172798.49
 STEP:  66 TIME =     0.02 SECS, INTEGRAL =      1.53 TIME LEFT: 172798.46
 STEP:  67 TIME =     0.02 SECS, INTEGRAL =      1.55 TIME LEFT: 172798.44
 STEP:  68 TIME =     0.02 SECS, INTEGRAL =      1.57 TIME LEFT: 172798.42
 STEP:  69 TIME =     0.02 SECS, INTEGRAL =      1.60 TIME LEFT: 172798.39

(To convert to Hartree/Bohr^2, multiply by (10^(-21) x N x a0^2)/(4.184 x 627.51) =  0.0642)


           FORCE MATRIX IN MILLIDYNES/ANGSTROM


                  O  1       O  2       O  3       O  4       C  5       C  6
 ------------------------------------------------------------------------------
     O    1   7.651927
     O    2   3.026479   6.821139
     O    3   1.212536   4.814298   6.478982
     O    4   0.111895   1.403079   2.420438   9.790954
     C    5   0.884598   0.042812   0.009870   0.006081  15.306423
     C    6   0.032246   0.007931   0.004706   0.002346   4.598668  15.500803
     C    7   5.011204   0.881290   0.296107   0.018714   3.888506   0.506264
     C    8   0.048997   0.008065   0.005242   0.002105   4.870336   4.918117
     C    9   0.003455   0.002860   0.002047   0.001539   0.527156   4.566023
     C   10   0.898022   0.085942   0.061646   0.006995   0.583354   0.052787
     C   11   0.062947   0.011506   0.013973   0.003715   0.053091   0.643531
     H   12   0.003069   0.002265   0.001322   0.000925   0.441903   4.551941
     H   13   0.082456   0.012426   0.008501   0.002377   4.570164   0.436856
     H   14   0.438820   0.098476   0.013203   0.003285   0.418254   0.031045
     H   15   0.003727   0.001227   0.000852   0.000608   0.007061   0.011106
     H   16   0.011037   0.002540   0.003396   0.001085   0.004300   0.051407
     H   17   0.081445   0.005478   0.004350   0.001025   0.009709   0.006662
     H   18   0.052872   0.003634   0.002930   0.001865   0.047966   0.005029
     H   19   0.000921   0.001052   0.000964   0.000472   0.008577   0.427993
     H   20   0.000880   0.000726   0.000843   0.000443   0.046430   0.432988
     H   21   0.005854   0.003237   0.002037   0.000877   0.458137   0.456913
     H   22   0.005842   0.001319   0.001020   0.000678   0.463898   0.468541
     H   23   0.019002   0.292350   0.823233   8.654502   0.001586   0.000795


                  C  7       C  8       C  9       C 10       C 11       H 12
 ------------------------------------------------------------------------------
     C    7  14.390343
     C    8   0.524169  15.319308
     C    9   0.036522   0.529045  14.581828
     C   10   3.536360   0.033697   0.670446  14.191082
     C   11   0.653906   0.044406   4.173449   4.222079  14.390265
     H   12   0.040930   0.441459   0.415068   0.002888   0.043539   5.065812
     H   13   0.451361   0.438424   0.040518   0.026224   0.001820   0.023971
     H   14   4.097621   0.031870   0.003602   0.423334   0.018510   0.005278
     H   15   0.033275   0.011834   0.444417   0.444754   4.427025   0.001325
     H   16   0.051815   0.002697   0.434235   0.433920   4.493883   0.007032
     H   17   0.465940   0.001546   0.028426   4.462838   0.446550   0.000814
     H   18   0.448763   0.004075   0.050792   4.496465   0.436063   0.000523
     H   19   0.003352   0.047961   4.451584   0.015848   0.441196   0.039190
     H   20   0.005776   0.018890   4.477289   0.050184   0.435588   0.020521
     H   21   0.041725   4.849841   0.044745   0.004686   0.001784   0.021669
     H   22   0.024845   4.775030   0.023258   0.003091   0.011891   0.039425
     H   23   0.008053   0.000957   0.000705   0.002509   0.001385   0.000320


                  H 13       H 14       H 15       H 16       H 17       H 18
 ------------------------------------------------------------------------------
     H   13   5.098310
     H   14   0.019186   4.499460
     H   15   0.000535   0.016225   5.049437
     H   16   0.000485   0.001371   0.569369   5.103758
     H   17   0.001480   0.042177   0.045865   0.025477   5.088238
     H   18   0.004698   0.032532   0.024820   0.036113   0.559081   5.115839
     H   19   0.001497   0.000473   0.045395   0.036409   0.012985   0.001503
     H   20   0.007216   0.000388   0.034073   0.025886   0.002590   0.008457
     H   21   0.020831   0.002663   0.000701   0.000417   0.000379   0.000985
     H   22   0.038970   0.024918   0.021617   0.001129   0.000499   0.000548
     H   23   0.000552   0.000862   0.000250   0.000295   0.000447   0.000913


                  H 19       H 20       H 21       H 22       H 23
 ------------------------------------------------------------------
     H   19   5.035299
     H   20   0.561384   5.075230
     H   21   0.006715   0.003226   5.452290
     H   22   0.004239   0.004195   0.491943   5.390344
     H   23   0.000325   0.000224   0.000323   0.000291   8.944742


          HEAT OF FORMATION =       3.177937 KCALS/MOLE

          ZERO POINT ENERGY     116.841 KCAL/MOL


           NORMAL COORDINATE ANALYSIS (Total motion = 1 Angstrom)


   Root No.       1         2         3         4         5         6         7         8

                 1 A       2 A       3 A       4 A       5 A       6 A       7 A       8 A   

                  16.2      30.4      73.3     125.8     151.4     190.0     264.5     274.8
  
           1    0.0108   -0.0243    0.0029   -0.0091    0.0059   -0.0305   -0.0051   -0.0047
           2   -0.0147    0.0161   -0.0106   -0.0054   -0.0163    0.0192    0.0105    0.0025
           3   -0.0445   -0.0480   -0.0016    0.0292    0.0154    0.0394   -0.0095   -0.0024
           4    0.0117   -0.0244    0.0009   -0.0087    0.0055   -0.0217    0.0086    0.0176
           5   -0.0226    0.0017    0.0157    0.0197    0.0274   -0.0011    0.0193    0.0283
           6   -0.0617    0.0230    0.0253   -0.0239   -0.0307   -0.0186    0.0209    0.0310
           7    0.0158   -0.0130   -0.0260   -0.0135   -0.0370    0.0379    0.0385    0.0516
           8   -0.0234    0.0001    0.0206    0.0190    0.0378   -0.0131    0.0100    0.0157
           9    0.0296    0.0175    0.0032   -0.0125   -0.0273   -0.0039    0.0020    0.0012
          10   -0.0016    0.0659   -0.0078    0.0143    0.0984    0.0194   -0.0047   -0.0023
          11    0.0845   -0.0214   -0.0043    0.0107    0.0407    0.0083    0.0085    0.0159
          12    0.0449    0.0251    0.0022   -0.0173   -0.0026   -0.0032   -0.0104   -0.0167
          13   -0.0020    0.0133    0.0220   -0.0039   -0.0107   -0.0091    0.0114   -0.0180
          14    0.0056    0.0131   -0.0193   -0.0172   -0.0261    0.0031   -0.0119   -0.0011
          15   -0.0028   -0.0223   -0.0157    0.0076    0.0121    0.0073   -0.0226    0.0026
          16   -0.0088    0.0253    0.0031   -0.0084   -0.0192    0.0038   -0.0141   -0.0076
          17    0.0177    0.0024    0.0092   -0.0131   -0.0203   -0.0135    0.0205   -0.0169
          18    0.0185    0.0046    0.0075    0.0010   -0.0008    0.0005    0.0089   -0.0046
          19    0.0017   -0.0182    0.0217    0.0011    0.0025   -0.0170    0.0018    0.0050
          20   -0.0181    0.0085   -0.0148   -0.0057   -0.0175    0.0197    0.0067   -0.0059
          21   -0.0203   -0.0284   -0.0124    0.0158    0.0186    0.0184   -0.0111    0.0010
          22   -0.0141    0.0239   -0.0178   -0.0119   -0.0211    0.0058   -0.0364    0.0007
          23    0.0005    0.0139   -0.0229   -0.0169   -0.0271    0.0090   -0.0203    0.0009
          24    0.0253   -0.0195   -0.0230   -0.0053    0.0053   -0.0286   -0.0071    0.0016
          25   -0.0114    0.0054   -0.0156   -0.0084   -0.0125   -0.0073   -0.0062   -0.0116
          26    0.0069   -0.0119    0.0405    0.0006   -0.0160    0.0126   -0.0136   -0.0349
          27    0.0212    0.0265    0.0292    0.0014   -0.0086    0.0142   -0.0017    0.0022
          28    0.0019   -0.0337    0.0287    0.0071   -0.0016   -0.0007   -0.0216    0.0134
          29   -0.0225   -0.0060   -0.0143   -0.0080   -0.0021   -0.0142   -0.0077   -0.0199
          30   -0.0222   -0.0020   -0.0276    0.0028    0.0291   -0.0222    0.0270   -0.0258
          31   -0.0087   -0.0265   -0.0031    0.0042   -0.0083    0.0174    0.0223   -0.0532
          32   -0.0227   -0.0132   -0.0051   -0.0063    0.0063   -0.0289   -0.0262    0.0041
          33    0.0064    0.0165    0.0092    0.0016    0.0045   -0.0002   -0.0002    0.0108
          34   -0.0074    0.0471    0.0192   -0.0086   -0.0271    0.0174   -0.0129   -0.0040
          35    0.0405    0.0029    0.0161   -0.0199   -0.0218   -0.0443    0.0586   -0.0228
          36    0.0231    0.0128    0.0147   -0.0003   -0.0040    0.0001    0.0153   -0.0038
          37    0.0043    0.0264    0.0533   -0.0004   -0.0138   -0.0046    0.0441   -0.0367
          38    0.0197    0.0211   -0.0337   -0.0281   -0.0344   -0.0101   -0.0269    0.0046
          39   -0.0127   -0.0322   -0.0225    0.0113    0.0174    0.0116   -0.0294    0.0082
          40   -0.0026   -0.0274    0.0336    0.0097   -0.0022    0.0051   -0.0063    0.0231
          41   -0.0367    0.0130   -0.0064    0.0016   -0.0194    0.0346    0.0226   -0.0076
          42   -0.0129   -0.0400   -0.0054    0.0195    0.0161    0.0287   -0.0276    0.0208
          43   -0.0148   -0.0323   -0.0207    0.0059   -0.0110    0.0365    0.0624   -0.1143
          44   -0.0401   -0.0093   -0.0373   -0.0112    0.0141   -0.0429   -0.0141   -0.0068
          45    0.0184    0.0057    0.0243    0.0088   -0.0070    0.0365    0.0317   -0.0460
          46   -0.0088   -0.0400   -0.0015    0.0096   -0.0071    0.0316    0.0440   -0.0863
          47   -0.0286   -0.0238    0.0006   -0.0044    0.0224   -0.0560   -0.0563    0.0562
          48    0.0053    0.0338    0.0081   -0.0059    0.0064   -0.0267   -0.0377    0.0692
          49    0.0077   -0.0271    0.0367    0.0028    0.0039   -0.0239   -0.0275    0.0273
          50   -0.0049   -0.0098    0.0197   -0.0036   -0.0135   -0.0005   -0.0564    0.0333
          51   -0.0339    0.0089   -0.0529   -0.0061    0.0468   -0.0613    0.0705   -0.0654
          52    0.0042   -0.0579    0.0467    0.0176   -0.0065    0.0213   -0.0671    0.0436
          53   -0.0428   -0.0086   -0.0469   -0.0117    0.0173   -0.0422    0.0339   -0.0713
          54   -0.0335   -0.0070   -0.0439    0.0022    0.0395   -0.0352    0.0452   -0.0518
          55   -0.0058    0.0094    0.0172   -0.0014   -0.0209    0.0208   -0.0250   -0.0289
          56    0.0235   -0.0184    0.0920    0.0137   -0.0309    0.0623   -0.0220   -0.0821
          57    0.0131    0.0417    0.0339   -0.0002   -0.0080    0.0122   -0.0298    0.0222
          58   -0.0208    0.0113   -0.0686   -0.0228   -0.0015   -0.0563    0.0171    0.0278
          59    0.0057   -0.0156    0.0520    0.0049   -0.0162    0.0238   -0.0230   -0.0438
          60    0.0431    0.0367    0.0568    0.0025   -0.0262    0.0380    0.0094   -0.0198
          61   -0.0166    0.0440   -0.0162   -0.0142   -0.0300    0.0205   -0.0360    0.0040
          62    0.0105    0.0223   -0.0377   -0.0262   -0.0355   -0.0024   -0.0249    0.0047
          63    0.0352   -0.0279   -0.0360   -0.0110    0.0054   -0.0487   -0.0111    0.0020
          64   -0.0201    0.0082   -0.0481   -0.0147   -0.0186    0.0016   -0.0726    0.0094
          65   -0.0205    0.0117   -0.0255   -0.0094   -0.0233    0.0343   -0.0432    0.0079
          66    0.0325   -0.0215   -0.0275   -0.0088    0.0042   -0.0395   -0.0048    0.0004
          67   -0.0078    0.0959   -0.0374    0.5271   -0.1750   -0.0692   -0.0027   -0.0015
          68    0.0840   -0.0116   -0.0151    0.1900   -0.0555   -0.0224    0.0094    0.0164
          69    0.1127    0.0014   -0.0228    0.0838   -0.0899   -0.0064    0.0014    0.0007


   Root No.       9        10        11        12        13        14        15        16

                 9 A      10 A      11 A      12 A      13 A      14 A      15 A      16 A   

                 298.0     357.4     387.2     413.9     459.0     509.0     552.7     639.0
  
           1   -0.0228   -0.0357    0.0158   -0.0083    0.0051    0.0086    0.0239    0.0151
           2    0.0015   -0.0004   -0.0260   -0.0079    0.0090    0.0266    0.0674    0.0186
           3    0.0405   -0.0273    0.0488   -0.0086   -0.0172    0.0031   -0.0108    0.0038
           4   -0.0304   -0.0321    0.0333   -0.0105    0.0117   -0.0377    0.0245   -0.0083
           5   -0.0056    0.0095   -0.0027   -0.0437    0.0035   -0.0171   -0.0177   -0.0086
           6   -0.0174    0.0149    0.0224    0.0783   -0.0030    0.0050    0.0013    0.0045
           7    0.0028    0.0301   -0.0098   -0.0312   -0.0008   -0.0060   -0.0248    0.0007
           8   -0.0088   -0.0049   -0.0026   -0.0616    0.0059   -0.0139   -0.0131    0.0032
           9   -0.0005   -0.0019   -0.0047   -0.0259    0.0019   -0.0085   -0.0031   -0.0143
          10    0.0060    0.0017    0.0076    0.0214   -0.0023    0.0021   -0.0002   -0.0012
          11   -0.0042    0.0145    0.0162    0.0737   -0.0043    0.0087    0.0022    0.0020
          12    0.0050   -0.0136   -0.0134   -0.0610    0.0034   -0.0037   -0.0013    0.0091
          13    0.0305    0.0130   -0.0098    0.0058   -0.0262   -0.0172    0.0292   -0.0296
          14   -0.0079   -0.0254    0.0060    0.0050   -0.0193    0.0055   -0.0164    0.0016
          15   -0.0247    0.0049   -0.0385    0.0206   -0.0182   -0.0364    0.0003   -0.0144
          16    0.0087    0.0113    0.0056    0.0027   -0.0047   -0.0135    0.0065   -0.0044
          17    0.0326   -0.0269   -0.0044    0.0162   -0.0400   -0.0142   -0.0014   -0.0251
          18    0.0124   -0.0156   -0.0144    0.0231    0.0276   -0.0258   -0.0267    0.0356
          19    0.0048   -0.0013   -0.0157   -0.0113   -0.0261    0.0469   -0.0114    0.0076
          20    0.0042   -0.0204    0.0080   -0.0040    0.0175    0.0112    0.0525    0.0111
          21   -0.0146    0.0008   -0.0357    0.0153   -0.0037   -0.0240    0.0421   -0.0108
          22   -0.0093    0.0244    0.0236   -0.0128   -0.0094    0.0040   -0.0010   -0.0123
          23   -0.0183   -0.0326    0.0054    0.0081   -0.0294    0.0071   -0.0351   -0.0027
          24    0.0229    0.0434    0.0265   -0.0218    0.0089    0.0030    0.0174    0.0033
          25    0.0241    0.0022   -0.0129    0.0248    0.0145   -0.0408   -0.0138    0.0314
          26   -0.0106    0.0366    0.0070    0.0000   -0.0127   -0.0228   -0.0051    0.0044
          27   -0.0056   -0.0083    0.0067   -0.0010    0.0130    0.0093   -0.0083    0.0012
          28    0.0083   -0.0023   -0.0339    0.0059   -0.0066    0.0411   -0.0077    0.0094
          29    0.0065    0.0110    0.0042    0.0120    0.0500   -0.0014   -0.0186   -0.0124
          30   -0.0186    0.0112   -0.0153   -0.0077   -0.0315    0.0218    0.0004   -0.0005
          31   -0.0117   -0.0001   -0.0113    0.0149    0.0312    0.0153   -0.0235    0.0013
          32    0.0158    0.0218   -0.0161    0.0108    0.0209    0.0047   -0.0174   -0.0066
          33   -0.0034   -0.0153   -0.0050   -0.0004    0.0311    0.0436   -0.0117   -0.0237
          34   -0.0017   -0.0090    0.0093    0.0027    0.0005    0.0056   -0.0082   -0.0074
          35    0.0897   -0.0295    0.0194    0.0056   -0.0390    0.0039    0.0179   -0.0273
          36    0.0182   -0.0226   -0.0080    0.0202    0.0290   -0.0147   -0.0277    0.0335
          37    0.0619   -0.0076   -0.0329    0.0368   -0.0120   -0.0655    0.0428   -0.0277
          38   -0.0105   -0.0075    0.0356   -0.0124   -0.0192    0.0232   -0.0501    0.0083
          39   -0.0357    0.0048   -0.0403    0.0145   -0.0242   -0.0223    0.0106   -0.0184
          40    0.0140   -0.0046   -0.0266   -0.0115   -0.0319    0.0666   -0.0076    0.0205
          41    0.0315   -0.0189    0.0296   -0.0154    0.0058    0.0294    0.0673    0.0131
          42   -0.0227   -0.0028   -0.0576    0.0204   -0.0027   -0.0161    0.0357    0.0016
          43   -0.0380    0.0010    0.0103    0.0163    0.0752    0.0250   -0.0427   -0.0681
          44    0.0209    0.0214   -0.0182    0.0197    0.0349   -0.0121   -0.0264   -0.0028
          45   -0.0386   -0.0129    0.0218   -0.0093    0.0621    0.0714   -0.0218   -0.1013
          46   -0.0340    0.0015   -0.0044    0.0091    0.0416    0.0432   -0.0292   -0.0473
          47    0.0324    0.0257   -0.0479    0.0028   -0.0352    0.0276    0.0045    0.0421
          48    0.0320   -0.0166   -0.0216    0.0062    0.0042    0.0095    0.0001    0.0548
          49    0.0141    0.0022   -0.0327   -0.0022   -0.0127    0.0707   -0.0383    0.0070
          50    0.0252   -0.0052   -0.0111    0.0275    0.1019    0.0044   -0.0019   -0.0679
          51   -0.0315    0.0343    0.0004   -0.0328   -0.0946    0.0489   -0.0510    0.0571
          52    0.0192   -0.0041   -0.0613    0.0339    0.0294    0.0010    0.0253   -0.0369
          53   -0.0093    0.0417    0.0115   -0.0030   -0.0151   -0.0079   -0.0526    0.0464
          54   -0.0267    0.0285   -0.0139   -0.0130   -0.0653    0.0123   -0.0152    0.0283
          55   -0.0135    0.0495    0.0178   -0.0057    0.0035   -0.0414    0.0060    0.0662
          56   -0.0691    0.0993    0.0495   -0.0386   -0.0346   -0.0339    0.0187    0.0674
          57   -0.0129    0.0151    0.0193   -0.0182    0.0145    0.0204    0.0048   -0.0002
          58    0.0908   -0.0764   -0.0597    0.0732    0.0247   -0.0457   -0.0405   -0.0300
          59   -0.0298    0.0612    0.0182   -0.0135   -0.0074   -0.0162   -0.0011    0.0218
          60   -0.0181   -0.0021    0.0290   -0.0136   -0.0354   -0.0187    0.0160    0.0198
          61   -0.0159   -0.0100    0.0211    0.0055    0.0233   -0.0005   -0.0518    0.0574
          62   -0.0026   -0.0087    0.0588   -0.0234    0.0052    0.0424   -0.0330    0.0341
          63    0.0406    0.0901    0.0725   -0.0623    0.0127    0.0359    0.0598   -0.0207
          64   -0.0369    0.0748    0.0579   -0.0548   -0.0341    0.0407    0.0286   -0.0778
          65   -0.0638   -0.0605   -0.0404    0.0370   -0.0625   -0.0187   -0.0688   -0.0251
          66    0.0364    0.0653    0.0525   -0.0423    0.0180    0.0209    0.0382   -0.0005
          67   -0.0135   -0.0089    0.0048   -0.0040    0.0019   -0.0038    0.0020    0.0023
          68   -0.0110    0.0113    0.0155    0.0677   -0.0031    0.0076    0.0032    0.0042
          69   -0.0005    0.0105    0.0048    0.0682   -0.0056    0.0177    0.0100    0.0074


   Root No.      17        18        19        20        21        22        23        24

                17 A      18 A      19 A      20 A      21 A      22 A      23 A      24 A   

                 662.2     763.5     815.0     836.8     882.2     899.7     927.1     950.8
  
           1   -0.0383    0.1150    0.0077    0.0020   -0.0047   -0.0032    0.0030    0.0032
           2    0.0115   -0.0007   -0.0039    0.0128    0.0012    0.0077   -0.0050    0.0039
           3   -0.0011    0.0082   -0.0038    0.0032    0.0031    0.0007   -0.0032    0.0007
           4    0.0396   -0.0991   -0.0067    0.0027    0.0028    0.0032   -0.0028    0.0000
           5    0.0370   -0.0043   -0.0005   -0.0015    0.0008    0.0009   -0.0014   -0.0019
           6   -0.0376   -0.0026    0.0003   -0.0004   -0.0002   -0.0007    0.0004    0.0003
           7   -0.0339    0.0181    0.0024   -0.0022   -0.0014   -0.0020    0.0018    0.0005
           8   -0.0444    0.0284    0.0040   -0.0021   -0.0030   -0.0039    0.0040    0.0026
           9    0.1264    0.0628    0.0036   -0.0005   -0.0017   -0.0018    0.0016    0.0011
          10    0.0121    0.0059    0.0002   -0.0000   -0.0000   -0.0001    0.0001    0.0001
          11   -0.0095    0.0042    0.0003   -0.0000   -0.0002   -0.0003    0.0003    0.0002
          12   -0.0915   -0.0523   -0.0030    0.0002    0.0013    0.0014   -0.0013   -0.0009
          13   -0.0165    0.0061    0.0028    0.0045    0.0413   -0.0002    0.0001    0.0032
          14    0.0021    0.0018   -0.0098   -0.0069    0.0051   -0.0051   -0.0118   -0.0150
          15   -0.0155    0.0199   -0.0162    0.0125    0.0219    0.0067    0.0021   -0.0091
          16   -0.0050    0.0054   -0.0064   -0.0026   -0.0132    0.0101   -0.0014   -0.0104
          17   -0.0127   -0.0009    0.0002   -0.0139   -0.0217    0.0001    0.0080   -0.0082
          18    0.0139   -0.0016    0.0179    0.0209    0.0212    0.0022   -0.0008    0.0180
          19    0.0151   -0.0036   -0.0107    0.0117    0.0134    0.0171   -0.0211   -0.0086
          20    0.0107   -0.0060   -0.0075    0.0036    0.0044   -0.0020    0.0035    0.0040
          21   -0.0067   -0.0052    0.0229   -0.0110   -0.0226   -0.0012    0.0123   -0.0145
          22   -0.0052   -0.0063    0.0232    0.0068   -0.0085    0.0134    0.0187    0.0137
          23    0.0026   -0.0094    0.0144   -0.0029    0.0240   -0.0171   -0.0074   -0.0028
          24    0.0014    0.0025   -0.0028    0.0054    0.0217    0.0158    0.0005    0.0135
          25    0.0097    0.0071   -0.0254   -0.0169   -0.0220   -0.0031   -0.0289   -0.0069
          26    0.0008   -0.0047    0.0020    0.0254   -0.0396   -0.0107   -0.0161    0.0254
          27    0.0014    0.0004   -0.0105    0.0110   -0.0176   -0.0033    0.0135   -0.0053
          28    0.0219   -0.0301    0.0038    0.0025   -0.0044   -0.0057    0.0151   -0.0053
          29   -0.0097    0.0145   -0.0078   -0.0037    0.0159    0.0074    0.0205   -0.0197
          30    0.0080   -0.0137    0.0157   -0.0275   -0.0100   -0.0045   -0.0322    0.0220
          31    0.0097   -0.0183   -0.0094   -0.0197   -0.0001   -0.0226    0.0270    0.0163
          32    0.0045   -0.0156    0.0048    0.0079    0.0018    0.0062   -0.0056   -0.0011
          33   -0.0008   -0.0132   -0.0146   -0.0173   -0.0017   -0.0105   -0.0005    0.0032
          34   -0.0028   -0.0000   -0.0089    0.0138   -0.0248   -0.0066    0.0174   -0.0155
          35   -0.0069   -0.0245    0.0479   -0.1003   -0.0699    0.1395    0.1186    0.0204
          36    0.0154   -0.0071    0.0230    0.0114    0.0067    0.0211    0.0263    0.0201
          37   -0.0258   -0.0000    0.0811    0.0376    0.1532   -0.1370    0.0017   -0.0352
          38    0.0082    0.0018   -0.0478   -0.0122   -0.0221    0.0485   -0.0179    0.0309
          39   -0.0140    0.0214   -0.0301   -0.0007   -0.0163    0.0420    0.0051   -0.0159
          40    0.0502   -0.0750   -0.0176    0.0375    0.0004    0.0356   -0.0307   -0.0493
          41    0.0409   -0.0759   -0.0234    0.0171    0.0355    0.0133   -0.0217    0.0528
          42    0.0099   -0.0323    0.0241    0.0075   -0.0546    0.0089    0.0185   -0.0856
          43   -0.0332    0.0113    0.0136    0.0175    0.0074    0.0442   -0.0640   -0.0297
          44    0.0014   -0.0024   -0.0022   -0.0303    0.0311    0.0244   -0.0477   -0.0153
          45   -0.0431    0.0046    0.0174    0.0633   -0.0240    0.0422   -0.0511   -0.0333
          46   -0.0112   -0.0201    0.0274    0.0188    0.0009    0.0101   -0.0001    0.0122
          47    0.0508   -0.0757    0.0171   -0.0383    0.0133   -0.0576    0.0848    0.0707
          48    0.0384   -0.0235   -0.0648   -0.0816   -0.0023   -0.0702    0.0580    0.0215
          49    0.0276   -0.0317   -0.0084    0.0106    0.0146    0.0184   -0.0306   -0.0296
          50   -0.0441    0.0372    0.0192   -0.0745    0.0311    0.0217   -0.0839    0.0195
          51    0.0535   -0.0446   -0.0266    0.0560   -0.0060    0.0054    0.0305   -0.0458
          52   -0.0142   -0.0143    0.0670   -0.0571   -0.0274   -0.0059   -0.0207    0.0237
          53    0.0299   -0.0142   -0.0274    0.0769    0.0051    0.0078    0.1330   -0.0878
          54    0.0263   -0.0276    0.0123    0.0129   -0.0208   -0.0039    0.0286   -0.0156
          55    0.0243    0.0171   -0.0413   -0.0872    0.0321    0.0227   -0.0416   -0.0597
          56    0.0264    0.0087   -0.0101   -0.0972    0.0583    0.0129   -0.0154   -0.0163
          57    0.0018    0.0047   -0.0289    0.0077   -0.0191    0.0206   -0.0101   -0.0619
          58   -0.0197    0.0013   -0.0177    0.1025   -0.1529   -0.0383   -0.0373    0.0439
          59    0.0114   -0.0085    0.0028   -0.0040    0.0037   -0.0005   -0.0169    0.0185
          60   -0.0020    0.0296   -0.0270   -0.0463   -0.0232    0.0064    0.0303   -0.0560
          61    0.0335   -0.0471    0.1799    0.0078    0.0038    0.0813    0.0165    0.0120
          62    0.0318   -0.0606    0.1480   -0.0117   -0.0284   -0.0826   -0.0319   -0.0741
          63   -0.0046   -0.0083   -0.0129   -0.0012   -0.0304   -0.0942   -0.0185   -0.0452
          64   -0.0348    0.0079   -0.0720    0.0250   -0.0320   -0.0968    0.0445    0.0433
          65   -0.0157    0.0240   -0.0768    0.0149    0.0825    0.0559    0.0404    0.1102
          66    0.0031   -0.0090    0.0163    0.0019   -0.0082   -0.0391   -0.0147   -0.0290
          67   -0.0215   -0.0094    0.0001   -0.0001   -0.0003   -0.0003    0.0002    0.0003
          68   -0.0293   -0.0045    0.0001    0.0000   -0.0002   -0.0002    0.0002    0.0002
          69   -0.0438   -0.0330   -0.0033    0.0019    0.0025    0.0032   -0.0033   -0.0020


   Root No.      25        26        27        28        29        30        31        32

                25 A      26 A      27 A      28 A      29 A      30 A      31 A      32 A   

                 985.9    1004.0    1026.8    1079.6    1089.4    1098.0    1110.1    1120.2
  
           1   -0.0010   -0.0023   -0.0026   -0.0037   -0.0003    0.0311    0.0013    0.0008
           2    0.0054   -0.0013    0.0005    0.0096    0.0001   -0.0002   -0.0092   -0.0237
           3   -0.0014    0.0011   -0.0009    0.0046    0.0017    0.0045   -0.0035   -0.0084
           4    0.0013    0.0013    0.0002    0.0049    0.0007   -0.0142   -0.0029   -0.0060
           5    0.0011    0.0003    0.0059   -0.0117   -0.0078    0.0962    0.0009   -0.0059
           6   -0.0005    0.0004   -0.0006    0.0005    0.0001   -0.0007   -0.0000   -0.0003
           7   -0.0009    0.0004   -0.0014    0.0008    0.0007   -0.0094    0.0006    0.0020
           8   -0.0022    0.0009   -0.0068    0.0105    0.0065   -0.0822   -0.0001    0.0056
           9   -0.0007    0.0000   -0.0024    0.0033    0.0022   -0.0253   -0.0001    0.0017
          10   -0.0001   -0.0000   -0.0001    0.0001    0.0001   -0.0014   -0.0000    0.0001
          11   -0.0002    0.0000   -0.0006    0.0010    0.0006   -0.0079   -0.0000    0.0006
          12    0.0006    0.0001    0.0020   -0.0028   -0.0019    0.0219    0.0001   -0.0015
          13   -0.0196    0.0064    0.0081   -0.0223    0.0009   -0.0211    0.0076   -0.0205
          14   -0.0136    0.0175   -0.0094    0.0064    0.0094    0.0132   -0.0073    0.0061
          15   -0.0183   -0.0084    0.0074    0.0045    0.0012    0.0038    0.0206   -0.0097
          16   -0.0109    0.0161   -0.0046    0.0093    0.0125    0.0117   -0.0019    0.0047
          17   -0.0003   -0.0037    0.0113    0.0126    0.0025   -0.0009   -0.0004    0.0069
          18    0.0247    0.0060   -0.0006   -0.0062    0.0172    0.0011    0.0150   -0.0128
          19    0.0061   -0.0145    0.0187   -0.0243   -0.0001    0.0043    0.0068    0.0167
          20   -0.0059    0.0001    0.0006   -0.0010   -0.0013    0.0058    0.0103    0.0149
          21    0.0047   -0.0038   -0.0041   -0.0126    0.0014   -0.0071   -0.0020    0.0062
          22    0.0034   -0.0093    0.0093    0.0127    0.0093    0.0081   -0.0078    0.0011
          23    0.0031   -0.0004   -0.0058   -0.0151   -0.0041   -0.0110   -0.0023   -0.0056
          24   -0.0108    0.0034   -0.0006    0.0094   -0.0116    0.0022   -0.0220    0.0197
          25    0.0058   -0.0104   -0.0171    0.0040   -0.0193   -0.0033    0.0104   -0.0013
          26   -0.0124   -0.0150    0.0006   -0.0042   -0.0032    0.0032   -0.0110    0.0002
          27    0.0079    0.0130    0.0079   -0.0103    0.0008   -0.0041   -0.0032    0.0057
          28    0.0037    0.0152   -0.0075    0.0137   -0.0143   -0.0103   -0.0050   -0.0203
          29    0.0089    0.0012    0.0247   -0.0054   -0.0125    0.0030   -0.0039    0.0046
          30    0.0109    0.0141    0.0047    0.0021   -0.0031    0.0060   -0.0062    0.0066
          31   -0.0176   -0.0027    0.0069   -0.0058    0.0106    0.0041   -0.0047    0.0080
          32    0.0011    0.0036   -0.0154    0.0033    0.0088   -0.0051    0.0121    0.0024
          33   -0.0225   -0.0258   -0.0107    0.0084   -0.0052   -0.0036   -0.0012   -0.0060
          34    0.0249    0.0833    0.0052   -0.0252    0.1158    0.0279   -0.0092    0.0058
          35    0.0627   -0.0719   -0.1118   -0.0362    0.0056    0.0281    0.0427   -0.0403
          36    0.0509    0.0204   -0.0192   -0.0287    0.0572    0.0125    0.0212   -0.0203
          37    0.0543   -0.0429   -0.0764    0.0801   -0.0245    0.0770   -0.0720    0.0726
          38   -0.0313    0.0794    0.0069   -0.0002    0.0466   -0.0193   -0.0358   -0.0460
          39   -0.0428   -0.0173    0.0378   -0.0397   -0.0049   -0.0250    0.0720   -0.0254
          40    0.0347   -0.0617    0.0120   -0.0268    0.0623   -0.0258   -0.0097    0.1511
          41    0.0072   -0.0053    0.0183   -0.0662   -0.0421   -0.1239    0.0841    0.0985
          42    0.0240   -0.0494   -0.0206    0.0249    0.0895    0.0435   -0.0611    0.0913
          43    0.0371   -0.0075   -0.0120   -0.0027    0.0395   -0.0347   -0.0209   -0.0145
          44    0.0476   -0.0313    0.0284   -0.0272    0.0988   -0.0547   -0.0550   -0.0167
          45   -0.0114    0.0066   -0.0755    0.0440   -0.0705    0.0059    0.0535   -0.0085
          46   -0.0041    0.0539   -0.0276    0.0416    0.0077    0.0292    0.0705    0.0344
          47   -0.0502    0.0756   -0.0179    0.0648    0.0340    0.0674    0.1326    0.0864
          48   -0.0515   -0.0894    0.0373   -0.0453    0.0013   -0.0256   -0.0841   -0.0260
          49    0.0297   -0.0280    0.0059    0.1022    0.0139   -0.0036    0.0022   -0.0921
          50    0.0461   -0.0016    0.0613    0.0332    0.0060    0.0232   -0.0015   -0.0124
          51   -0.0010   -0.0298   -0.0200    0.0598    0.0078   -0.0084    0.0002   -0.0528
          52    0.0582    0.1228    0.0038   -0.0631   -0.0784   -0.0485   -0.0901   -0.0071
          53    0.0077    0.0332    0.0031   -0.0357   -0.0629   -0.0451   -0.0423   -0.0243
          54    0.0176    0.0454   -0.0073   -0.0264   -0.0410   -0.0269   -0.0417   -0.0081
          55    0.0131    0.0074   -0.0726    0.0008   -0.0401   -0.0072    0.0271    0.0180
          56    0.0300   -0.0251    0.0193    0.0356    0.0029   -0.0085    0.0240   -0.0215
          57   -0.0270    0.0552   -0.1204   -0.0624   -0.0466   -0.0002   -0.0130    0.0667
          58    0.0006   -0.0134    0.0500    0.0162   -0.0468   -0.0026   -0.0068    0.0222
          59   -0.0246   -0.0179   -0.0492   -0.0260    0.0191    0.0072   -0.0137   -0.0143
          60    0.0901    0.0364    0.1586    0.0901   -0.0665   -0.0266    0.0461    0.0473
          61   -0.0640   -0.0620    0.0442    0.0192   -0.0626   -0.0127   -0.0025    0.0258
          62   -0.0121   -0.0434    0.0229   -0.0585   -0.0288   -0.0461    0.0744   -0.0401
          63    0.0297    0.0087   -0.0032   -0.0322    0.0253   -0.0106    0.0391   -0.0292
          64    0.1715   -0.0523   -0.0329   -0.0270   -0.0035   -0.0042    0.0644   -0.0300
          65    0.0813   -0.0295   -0.0434    0.0072   -0.0666   -0.0094   -0.0461    0.0505
          66   -0.0091    0.0071    0.0072   -0.0085    0.0126   -0.0013    0.0122   -0.0097
          67   -0.0002    0.0001   -0.0011    0.0020    0.0012   -0.0142   -0.0002    0.0007
          68   -0.0002    0.0000   -0.0007    0.0012    0.0008   -0.0094   -0.0001    0.0006
          69    0.0018   -0.0012    0.0058   -0.0098   -0.0058    0.0771    0.0000   -0.0052


   Root No.      33        34        35        36        37        38        39        40

                33 A      34 A      35 A      36 A      37 A      38 A      39 A      40 A   

                1140.3    1146.3    1155.7    1162.9    1172.9    1178.9    1222.8    1258.6
  
           1   -0.0108    0.0085    0.0030    0.0007   -0.0056    0.0009   -0.0072    0.0017
           2    0.0135   -0.0043   -0.0203   -0.0104    0.0093    0.0080   -0.0077    0.0177
           3    0.0064   -0.0021   -0.0072   -0.0057    0.0023    0.0018   -0.0026    0.0023
           4    0.0069   -0.0038   -0.0055   -0.0027    0.0034    0.0014   -0.0002    0.0026
           5   -0.0120    0.0115    0.0037    0.0011   -0.0055    0.0008   -0.0034    0.0001
           6   -0.0001    0.0004    0.0002   -0.0000   -0.0002   -0.0000    0.0001   -0.0006
           7   -0.0006    0.0001    0.0015    0.0009   -0.0006   -0.0005    0.0004   -0.0012
           8    0.0079   -0.0077   -0.0010    0.0003    0.0030   -0.0009    0.0027   -0.0016
           9    0.0023   -0.0023   -0.0005   -0.0000    0.0009   -0.0002    0.0006   -0.0002
          10    0.0001   -0.0001   -0.0000   -0.0000    0.0001   -0.0000    0.0000    0.0000
          11    0.0008   -0.0008   -0.0001    0.0000    0.0003   -0.0001    0.0004   -0.0003
          12   -0.0021    0.0021    0.0005    0.0001   -0.0008    0.0002   -0.0005   -0.0001
          13   -0.0096   -0.0069   -0.0066   -0.0068   -0.0396    0.0216   -0.0033   -0.0135
          14    0.0159   -0.0033    0.0142   -0.0090   -0.0079   -0.0278   -0.0012   -0.0117
          15    0.0254    0.0063    0.0072   -0.0027    0.0179   -0.0243   -0.0239    0.0086
          16    0.0085   -0.0015    0.0073   -0.0023   -0.0057   -0.0227   -0.0039   -0.0100
          17   -0.0236    0.0160   -0.0393    0.0311    0.0319   -0.0053   -0.0042    0.0019
          18   -0.0165   -0.0136   -0.0085    0.0091    0.0132    0.0019   -0.0108   -0.0037
          19    0.0197   -0.0198   -0.0115   -0.0118    0.0239   -0.0056    0.0194    0.0154
          20   -0.0054    0.0039    0.0146    0.0064   -0.0009   -0.0067    0.0122   -0.0428
          21   -0.0200    0.0029    0.0083    0.0119   -0.0196    0.0083    0.0247    0.0284
          22   -0.0184   -0.0081    0.0136    0.0053    0.0473    0.0170   -0.0074    0.0089
          23   -0.0108   -0.0121    0.0208   -0.0085    0.0026    0.0389    0.0148    0.0030
          24   -0.0008    0.0084   -0.0016    0.0015   -0.0121    0.0025    0.0216   -0.0071
          25   -0.0116   -0.0094   -0.0040   -0.0039   -0.0010    0.0016    0.0048   -0.0041
          26    0.0112   -0.0046    0.0119   -0.0008   -0.0073    0.0020    0.0015   -0.0003
          27    0.0151    0.0143    0.0048   -0.0056    0.0002    0.0115   -0.0094   -0.0158
          28   -0.0094    0.0166    0.0146    0.0093   -0.0016   -0.0060    0.0102   -0.0022
          29    0.0128   -0.0303   -0.0000    0.0189   -0.0015    0.0005    0.0017    0.0073
          30    0.0123   -0.0109    0.0026    0.0084    0.0033   -0.0028   -0.0017   -0.0042
          31    0.0156    0.0069   -0.0037    0.0033   -0.0010    0.0098   -0.0047    0.0097
          32   -0.0138    0.0193   -0.0052   -0.0251    0.0024   -0.0002    0.0107    0.0146
          33   -0.0243   -0.0032   -0.0049   -0.0168    0.0004   -0.0120    0.0008   -0.0027
          34    0.0219    0.0099   -0.0162    0.0612   -0.0351   -0.0962    0.1872    0.0442
          35    0.1025   -0.0339    0.1101   -0.0665   -0.0192   -0.0131   -0.0206    0.0109
          36    0.0128   -0.0172    0.0088    0.0165   -0.0066   -0.0275    0.0599    0.0184
          37    0.0623    0.0099    0.0524   -0.0242    0.0306   -0.0588   -0.0137    0.0657
          38   -0.0454   -0.0285   -0.0234   -0.0097   -0.1339   -0.0282   -0.1228    0.1730
          39    0.0231    0.0112    0.0002    0.0065    0.0503    0.0119    0.0429   -0.1201
          40   -0.0434   -0.0567    0.0091    0.0073   -0.0511   -0.0057   -0.0985   -0.0203
          41   -0.0845    0.0833    0.1374    0.0937   -0.0055   -0.0793   -0.0679    0.0768
          42   -0.0368   -0.0815   -0.0429   -0.0183   -0.0938    0.0518   -0.0461   -0.0785
          43   -0.0168    0.1096    0.0040   -0.0458    0.0097    0.0091   -0.0144   -0.0210
          44   -0.0057    0.1918    0.0106   -0.0775    0.0190    0.0168   -0.0279   -0.0436
          45   -0.0706   -0.0752   -0.0137   -0.0176   -0.0055   -0.0324    0.0305    0.0267
          46    0.0047    0.0012   -0.0186   -0.0203   -0.0067    0.0279   -0.0143   -0.0192
          47    0.0168   -0.0112   -0.0449   -0.0422   -0.0140    0.0502   -0.0416   -0.0269
          48   -0.0021    0.0008    0.0078    0.0137    0.0047   -0.0258    0.0010    0.0300
          49    0.0232    0.0312    0.0722    0.1397   -0.0734    0.0403   -0.0272   -0.0542
          50    0.0710   -0.0531    0.0271    0.1073   -0.0300    0.0275   -0.0355   -0.0206
          51   -0.0141    0.0268    0.0372    0.0591   -0.0463    0.0191   -0.0049   -0.0314
          52   -0.0234   -0.0238   -0.0055   -0.0413    0.0444   -0.0640   -0.0775   -0.0948
          53   -0.0412   -0.0242   -0.0018   -0.0138    0.0114   -0.0346   -0.0352   -0.0283
          54   -0.0224   -0.0143   -0.0015   -0.0178    0.0162   -0.0314   -0.0344   -0.0377
          55   -0.0089    0.0197   -0.0402    0.0248    0.0188    0.0363    0.0061    0.0256
          56   -0.0639   -0.0210   -0.0031   -0.0379   -0.0038   -0.0363    0.0250   -0.0109
          57    0.1037    0.0910   -0.0493    0.0917    0.0377    0.1222   -0.0381    0.0541
          58    0.0408    0.0063    0.0435   -0.0414   -0.0446    0.0323    0.0222    0.0120
          59   -0.0047   -0.0148   -0.0091    0.0288    0.0155   -0.0143   -0.0093   -0.0201
          60    0.0107    0.0529    0.0342   -0.1073   -0.0476    0.0494    0.0236    0.0628
          61    0.0453    0.0669   -0.1004    0.0201   -0.0691   -0.0743   -0.0038   -0.0118
          62    0.0511    0.0312   -0.0563   -0.0017   -0.0834   -0.0340   -0.0162    0.0005
          63    0.0017   -0.0145    0.0229   -0.0042    0.0081    0.0114   -0.0072    0.0056
          64    0.0238    0.0175   -0.0993    0.0205   -0.0447   -0.0630   -0.0380   -0.0251
          65    0.0045    0.0370   -0.0666    0.0075   -0.1014    0.0050    0.0566   -0.0295
          66    0.0014   -0.0063    0.0129   -0.0012    0.0139    0.0001   -0.0011   -0.0003
          67    0.0016   -0.0015   -0.0003    0.0001    0.0006   -0.0000    0.0007   -0.0006
          68    0.0010   -0.0010   -0.0002   -0.0000    0.0004   -0.0001    0.0004   -0.0003
          69   -0.0076    0.0077    0.0002   -0.0010   -0.0030    0.0011   -0.0047    0.0056


   Root No.      41        42        43        44        45        46        47        48

                41 A      42 A      43 A      44 A      45 A      46 A      47 A      48 A   

                1268.2    1297.1    1343.5    1358.8    1390.4    1391.4    1398.9    1410.4
  
           1    0.0090   -0.0034    0.0037    0.0027   -0.0004   -0.0033   -0.0016   -0.0006
           2    0.0251    0.0031    0.0120    0.0077   -0.0033   -0.0027   -0.0041   -0.0048
           3    0.0052   -0.0009    0.0025    0.0014   -0.0006   -0.0004   -0.0011   -0.0007
           4    0.0030    0.0007    0.0018    0.0015   -0.0011    0.0021   -0.0006   -0.0008
           5    0.0032   -0.0019    0.0013    0.0014   -0.0003   -0.0008   -0.0005   -0.0004
           6   -0.0003   -0.0003   -0.0002   -0.0002    0.0010   -0.0059   -0.0001    0.0000
           7   -0.0013   -0.0004   -0.0005   -0.0003    0.0008   -0.0043   -0.0000    0.0001
           8   -0.0032    0.0005   -0.0009   -0.0006   -0.0042    0.0270    0.0011    0.0011
           9   -0.0007    0.0002   -0.0003   -0.0002    0.0007   -0.0040   -0.0000   -0.0000
          10    0.0000    0.0000    0.0001    0.0001   -0.0018    0.0110    0.0003    0.0003
          11   -0.0006    0.0000   -0.0004   -0.0004    0.0041   -0.0238   -0.0005   -0.0005
          12    0.0004   -0.0002   -0.0001   -0.0001    0.0036   -0.0217   -0.0006   -0.0005
          13   -0.0021   -0.0116   -0.0025    0.0006   -0.0002    0.0009   -0.0060   -0.0036
          14   -0.0136    0.0090    0.0097   -0.0181   -0.0062    0.0014   -0.0224   -0.0047
          15    0.0085   -0.0188   -0.0112    0.0121    0.0071    0.0005    0.0125    0.0027
          16   -0.0094    0.0145    0.0201   -0.0038   -0.0113   -0.0036   -0.0013    0.0119
          17    0.0001    0.0021    0.0033    0.0038    0.0031    0.0005    0.0025    0.0031
          18   -0.0187   -0.0080   -0.0053   -0.0144   -0.0086   -0.0013   -0.0041    0.0066
          19   -0.0169    0.0293   -0.0119   -0.0255    0.0072    0.0027    0.0071    0.0056
          20   -0.0419   -0.0171   -0.0304   -0.0134    0.0108    0.0041    0.0170    0.0151
          21   -0.0162    0.0402    0.0012   -0.0218    0.0006    0.0018   -0.0050   -0.0016
          22   -0.0023   -0.0044   -0.0065    0.0009    0.0035    0.0002    0.0100    0.0115
          23    0.0161   -0.0012   -0.0004    0.0045   -0.0003    0.0003   -0.0080   -0.0176
          24    0.0083    0.0040    0.0037    0.0009   -0.0008    0.0000   -0.0041   -0.0057
          25    0.0068    0.0110    0.0111    0.0045   -0.0123   -0.0077    0.0164   -0.0199
          26    0.0026   -0.0020   -0.0127   -0.0046   -0.0165   -0.0065    0.0100   -0.0099
          27   -0.0044    0.0312    0.0328    0.0199    0.0237    0.0075   -0.0089    0.0005
          28   -0.0306   -0.0160   -0.0045    0.0430   -0.0178   -0.0066   -0.0064   -0.0066
          29   -0.0126    0.0026   -0.0021    0.0212    0.0076    0.0051    0.0140   -0.0294
          30   -0.0136   -0.0187    0.0048    0.0209   -0.0074   -0.0032   -0.0055    0.0013
[...]
 RED. MASS   0.8792         C 11 -- H 16          +9.0% ( 41.9%)      0.0%
 EFF. MASS   6.1077

 VIBRATION   43   43A         ATOM PAIR      ENERGY CONTRIBUTION    RADIAL
 FREQ.      1343.53         C  9 -- C 11         +14.4% ( 51.6%)     91.2%
 T-DIPOLE    0.2623         C 11 -- H 15         +11.1% ( 45.2%)      0.0%
 TRAVEL      0.0905         C 11 -- H 16          +9.9% ( 42.9%)      0.0%
 RED. MASS   0.8312         C  9 -- H 19          +9.1% ( 41.1%)      0.2%
 EFF. MASS   6.1268

 VIBRATION   44   44A         ATOM PAIR      ENERGY CONTRIBUTION    RADIAL
 FREQ.      1358.78         C 10 -- H 17         +14.9% ( 51.8%)      0.1%
 T-DIPOLE    0.0680         C  7 -- C 10         +14.5% ( 51.1%)     73.1%
 TRAVEL      0.0906         C 10 -- H 18         +12.4% ( 47.2%)      0.1%
 RED. MASS   0.8813         C 10 -- C 11         +11.5% ( 45.5%)     73.0%
 EFF. MASS   6.0518

 VIBRATION   45   45A         ATOM PAIR      ENERGY CONTRIBUTION    RADIAL
 FREQ.      1390.41         C  9 -- H 19         +14.9% ( 41.9%)      2.8%
 T-DIPOLE    0.1659         C  9 -- H 20         +13.5% ( 39.9%)      4.7%
 TRAVEL      0.1218         C 10 -- H 18         +11.4% ( 36.7%)      2.1%
 RED. MASS   0.2557         C 10 -- H 17         +10.5% ( 35.3%)      3.5%
 EFF. MASS   3.2690

 VIBRATION   46   46A         ATOM PAIR      ENERGY CONTRIBUTION    RADIAL
 FREQ.      1391.35         O  4 -- H 23         +84.6% ( 92.6%)      2.4%
 T-DIPOLE    0.3040         O  3 -- O  4          +3.5% ( 18.9%)      4.1%
 TRAVEL      0.1531         O  2 -- O  4          +2.2% ( 15.0%)      1.7%
 RED. MASS   0.7697         C  9 -- H 19          +1.4% ( 11.7%)      3.6%
 EFF. MASS   2.0666

 VIBRATION   47   47A         ATOM PAIR      ENERGY CONTRIBUTION    RADIAL
 FREQ.      1398.87         C  8 -- H 21         +11.6% ( 38.1%)      1.4%
 T-DIPOLE    0.1375         C  8 -- H 22         +11.2% ( 37.4%)      2.1%
 TRAVEL      0.1190         C  5 -- C  7          +7.8% ( 31.3%)     72.6%
 RED. MASS   0.2272         C  5 -- H 13          +7.0% ( 29.6%)      0.0%
 EFF. MASS   3.4028

 VIBRATION   48   48A         ATOM PAIR      ENERGY CONTRIBUTION    RADIAL
 FREQ.      1410.40         C  8 -- H 21         +13.1% ( 42.1%)      2.3%
 T-DIPOLE    0.2607         C  8 -- H 22         +12.6% ( 41.4%)      3.2%
 TRAVEL      0.1098         C 10 -- H 17         +10.1% ( 37.1%)      3.3%
 RED. MASS   0.2941         C 10 -- C 11          +9.1% ( 35.2%)     86.7%
 EFF. MASS   3.9638

 VIBRATION   49   49A         ATOM PAIR      ENERGY CONTRIBUTION    RADIAL
 FREQ.      1414.23         C  6 -- C  9         +15.2% ( 57.2%)     99.1%
 T-DIPOLE    0.4462         C  5 -- C  6          +7.6% ( 40.4%)      0.3%
 TRAVEL      0.0782         C  5 -- C  7          +7.1% ( 38.9%)     77.1%
 RED. MASS   0.9812         C  9 -- H 20          +6.9% ( 38.5%)      1.8%
 EFF. MASS   7.7901

 VIBRATION   50   50A         ATOM PAIR      ENERGY CONTRIBUTION    RADIAL
 FREQ.      1420.03         C 11 -- H 15         +26.5% ( 58.2%)      4.5%
 T-DIPOLE    0.0553         C 11 -- H 16         +23.1% ( 54.3%)      6.9%
 TRAVEL      0.1114         C  9 -- C 11         +13.1% ( 41.0%)     57.4%
 RED. MASS   0.5591         C 10 -- C 11         +10.5% ( 36.6%)     53.2%
 EFF. MASS   3.8231

 VIBRATION   51   51A         ATOM PAIR      ENERGY CONTRIBUTION    RADIAL
 FREQ.      1604.80         C  5 -- C  6         +20.0% ( 74.4%)     99.6%
 T-DIPOLE    0.3561         C  6 -- C  8         +18.0% ( 70.6%)     96.4%
 TRAVEL      0.0598         C  5 -- C  8         +16.1% ( 66.8%)     98.1%
 RED. MASS   3.4350         C  6 -- C  9         +10.2% ( 53.3%)     69.8%
 EFF. MASS  11.7406

 VIBRATION   52   52A         ATOM PAIR      ENERGY CONTRIBUTION    RADIAL
 FREQ.      2818.76         C  7 -- H 14         +96.4% ( 99.9%)    100.0%
 T-DIPOLE    0.0709         O  1 -- C  7          +1.1% ( 10.9%)     11.5%
 TRAVEL      0.1278         C  7 -- C 10          +1.1% ( 10.8%)     10.1%
 RED. MASS   0.9266         C  5 -- C  7          +1.1% ( 10.8%)      9.8%
 EFF. MASS   1.4648

 VIBRATION   53   53A         ATOM PAIR      ENERGY CONTRIBUTION    RADIAL
 FREQ.      2949.10         C  9 -- H 19         +30.8% ( 57.8%)     97.4%
 T-DIPOLE    0.0201         C 11 -- H 15         +28.6% ( 55.7%)     97.7%
 TRAVEL      0.1213         C  9 -- H 20         +20.0% ( 46.6%)     94.9%
 RED. MASS   0.2649         C 11 -- H 16         +16.3% ( 42.1%)     94.4%
 EFF. MASS   1.5530

 VIBRATION   54   54A         ATOM PAIR      ENERGY CONTRIBUTION    RADIAL
 FREQ.      2958.82         C 11 -- H 15         +24.7% ( 51.5%)     97.6%
 T-DIPOLE    0.0302         C  9 -- H 19         +24.1% ( 50.8%)     97.1%
 TRAVEL      0.1219         C  9 -- H 20         +20.0% ( 46.4%)     95.9%
 RED. MASS   0.2102         C 11 -- H 16         +16.4% ( 42.0%)     95.3%
 EFF. MASS   1.5347

 VIBRATION   55   55A         ATOM PAIR      ENERGY CONTRIBUTION    RADIAL
 FREQ.      2966.21         C 10 -- H 17         +45.7% ( 70.1%)     97.1%
 T-DIPOLE    0.0896         C 10 -- H 18         +37.9% ( 63.9%)     96.0%
 TRAVEL      0.1215         C 11 -- H 16          +6.0% ( 25.4%)     96.8%
 RED. MASS   0.3902         C 11 -- H 15          +5.6% ( 24.4%)     96.7%
 EFF. MASS   1.5405

 VIBRATION   56   56A         ATOM PAIR      ENERGY CONTRIBUTION    RADIAL
 FREQ.      2997.09         C  6 -- H 12         +80.8% ( 91.5%)    100.0%
 T-DIPOLE    0.1796         C  5 -- H 13         +14.6% ( 38.9%)    100.0%
 TRAVEL      0.1247         C  9 -- H 20          +1.1% ( 10.7%)    100.0%
 RED. MASS   0.6715         C  5 -- C  6          +1.1% ( 10.5%)      4.7%
 EFF. MASS   1.4471

 VIBRATION   57   57A         ATOM PAIR      ENERGY CONTRIBUTION    RADIAL
 FREQ.      3008.04         C  5 -- H 13         +81.4% ( 91.8%)    100.0%
 T-DIPOLE    0.3130         C  6 -- H 12         +13.6% ( 37.6%)     99.9%
 TRAVEL      0.1238         C  5 -- C  6          +1.2% ( 11.0%)     64.4%
 RED. MASS   0.6806         C  5 -- C  8          +1.0% ( 10.2%)     22.1%
 EFF. MASS   1.4629

 VIBRATION   58   58A         ATOM PAIR      ENERGY CONTRIBUTION    RADIAL
 FREQ.      3029.63         C  9 -- H 20         +44.6% ( 65.9%)     98.3%
 T-DIPOLE    0.0640         C  9 -- H 19         +33.9% ( 57.5%)     96.7%
 TRAVEL      0.1318         C 11 -- H 16          +9.5% ( 30.4%)     98.2%
 RED. MASS   0.3271         C 11 -- H 15          +8.2% ( 28.2%)     97.0%
 EFF. MASS   1.2808

 VIBRATION   59   59A         ATOM PAIR      ENERGY CONTRIBUTION    RADIAL
 FREQ.      3037.04         C 11 -- H 16         +33.8% ( 57.3%)     98.7%
 T-DIPOLE    0.0692         C 11 -- H 15         +22.0% ( 46.2%)     96.0%
 TRAVEL      0.1320         C 10 -- H 17         +13.1% ( 35.7%)     97.6%
 RED. MASS   0.2085         C 10 -- H 18         +12.8% ( 35.3%)     97.7%
 EFF. MASS   1.2745         C  9 -- H 20         +10.4% ( 31.9%)     98.7%

 VIBRATION   60   60A         ATOM PAIR      ENERGY CONTRIBUTION    RADIAL
 FREQ.      3042.46         C 10 -- H 18         +42.4% ( 64.2%)     98.5%
 T-DIPOLE    0.0945         C 10 -- H 17         +29.3% ( 53.4%)     96.3%
 TRAVEL      0.1318         C 11 -- H 16         +17.1% ( 40.8%)     99.0%
 RED. MASS   0.2980         C 11 -- H 15          +8.0% ( 27.9%)     94.6%
 EFF. MASS   1.2767

 VIBRATION   61   61A         ATOM PAIR      ENERGY CONTRIBUTION    RADIAL
 FREQ.      3083.43         C  8 -- H 22         +68.3% ( 85.2%)     98.8%
 T-DIPOLE    0.2048         C  8 -- H 21         +28.6% ( 55.1%)     93.6%
 TRAVEL      0.1193         C  6 -- C  8          +1.1% ( 10.9%)      1.4%
 RED. MASS   0.5877         C  5 -- C  8          +1.1% ( 10.9%)      1.3%
 EFF. MASS   1.5377

 VIBRATION   62   62A         ATOM PAIR      ENERGY CONTRIBUTION    RADIAL
 FREQ.      3129.43         C  8 -- H 21         +70.5% ( 83.6%)     98.6%
 T-DIPOLE    0.2050         C  8 -- H 22         +27.8% ( 52.5%)     90.6%
 TRAVEL      0.1281         C  6 -- C  8          +0.9% (  9.3%)     71.1%
 RED. MASS   0.5640         C  5 -- C  8          +0.9% (  9.3%)     70.8%
 EFF. MASS   1.3139

 VIBRATION   63   63A         ATOM PAIR      ENERGY CONTRIBUTION    RADIAL
 FREQ.      3981.29         O  4 -- H 23         +99.3% (100.0%)     99.9%
 T-DIPOLE    0.3878         O  3 -- O  4          +0.4% (  6.0%)      0.5%
 TRAVEL      0.1108         O  2 -- O  4          +0.4% (  6.0%)     38.1%
 RED. MASS   0.9480
 EFF. MASS   1.3807

      SYMMETRY NUMBER FOR POINT-GROUP C1  =  1


          SYSTEM IS A GROUND STATE



 InChI=1S/C7H12O4/c8-10-11-9-7-3-1-2-5-4-6(5)7/h5-8H,1-4H2


          MOLECULE IS NOT LINEAR

          THERE ARE 63 GENUINE VIBRATIONS IN THIS SYSTEM
          THIS THERMODYNAMICS CALCULATION IS LIMITED TO
          MOLECULES WHICH HAVE NO INTERNAL ROTATIONS




                    CALCULATED THERMODYNAMIC PROPERTIES
                                          *
   TEMP. (K)   PARTITION FUNCTION   H.O.F.    ENTHALPY  HEAT CAPACITY ENTROPY
                                   KCAL/MOL   CAL/MOLE    CAL/K/MOL  CAL/K/MOL


 298.00  VIB.     0.1678D+05                  5407.2885    36.1651    37.4770
         ROT.     0.1042D+07                   888.2813     2.9808    30.5171
         INT.     0.1749D+11                  6295.5698    39.1459    67.9941
         TRA.     0.1960D+28                  1480.4688     4.9680    41.1199
         TOT.                        3.178    7776.0386    44.1139   109.1140

 200.00  VIB.     0.8169D+03                  2484.6461    23.7520    25.7486
         ROT.     0.5730D+06                   596.1620     2.9808    29.3284
         INT.     0.4681D+09                  3080.8080    26.7328    55.0770
         TRA.     0.1077D+28                   993.6033     4.9680    39.1388
         TOT.                       -0.524    4074.4113    31.7008    94.2158

 210.00  VIB.     0.1116D+04                  2728.0509    24.9328    26.9359
         ROT.     0.6165D+06                   625.9700     2.9808    29.4739
         INT.     0.6880D+09                  3354.0209    27.9136    56.4098
         TRA.     0.1159D+28                  1043.2834     4.9680    39.3812
         TOT.                       -0.201    4397.3043    32.8816    95.7910

 220.00  VIB.     0.1523D+04                  2983.3785    26.1366    28.1235
         ROT.     0.6611D+06                   655.7781     2.9808    29.6125
         INT.     0.1007D+10                  3639.1567    29.1174    57.7360
         TRA.     0.1243D+28                  1092.9636     4.9680    39.6123
         TOT.                        0.134    4732.1203    34.0854    97.3483

 230.00  VIB.     0.2075D+04                  3250.8593    27.3633    29.3123
         ROT.     0.7066D+06                   685.5862     2.9808    29.7450
         INT.     0.1467D+10                  3936.4455    30.3441    59.0573
         TRA.     0.1329D+28                  1142.6437     4.9680    39.8331
         TOT.                        0.481    5079.0893    35.3121    98.8905

 240.00  VIB.     0.2826D+04                  3530.7176    28.6119    30.5032
         ROT.     0.7532D+06                   715.3943     2.9808    29.8719
         INT.     0.2129D+10                  4246.1119    31.5927    60.3751
         TRA.     0.1416D+28                  1192.3239     4.9680    40.0446
         TOT.                        0.840    5438.4358    36.5607   100.4196

 250.00  VIB.     0.3846D+04                  3823.1640    29.8806    31.6968
         ROT.     0.8008D+06                   745.2024     2.9808    29.9936
         INT.     0.3080D+10                  4568.3664    32.8614    61.6904
         TRA.     0.1506D+28                  1242.0041     4.9680    40.2474
         TOT.                        1.212    5810.3705    37.8294   101.9378

 260.00  VIB.     0.5231D+04                  4128.3881    31.1670    32.8938
         ROT.     0.8493D+06                   775.0105     2.9808    30.1105
         INT.     0.4443D+10                  4903.3987    34.1478    63.0043
         TRA.     0.1597D+28                  1291.6842     4.9680    40.4422
         TOT.                        1.597    6195.0829    39.1158   103.4465

 270.00  VIB.     0.7112D+04                  4446.5539    32.4684    34.0944
         ROT.     0.8988D+06                   804.8186     2.9808    30.2230
         INT.     0.6392D+10                  5251.3725    35.4492    64.3174
         TRA.     0.1690D+28                  1341.3644     4.9680    40.6297
         TOT.                        1.995    6592.7369    40.4172   104.9471

 280.00  VIB.     0.9666D+04                  4777.7955    33.7816    35.2989
         ROT.     0.9492D+06                   834.6267     2.9808    30.3314
         INT.     0.9175D+10                  5612.4222    36.7625    65.6303
         TRA.     0.1785D+28                  1391.0445     4.9680    40.8104
         TOT.                        2.405    7003.4668    41.7305   106.4407

 290.00  VIB.     0.1313D+05                  5122.2156    35.1036    36.5074
         ROT.     0.1000D+07                   864.4348     2.9808    30.4360
         INT.     0.1314D+11                  5986.6505    38.0844    66.9434
         TRA.     0.1881D+28                  1440.7247     4.9680    40.9847
         TOT.                        2.829    7427.3752    43.0524   107.9281

 300.00  VIB.     0.1784D+05                  5479.8843    36.4308    37.7198
         ROT.     0.1053D+07                   894.2429     2.9808    30.5370
         INT.     0.1878D+11                  6374.1273    39.4116    68.2568
         TRA.     0.1979D+28                  1490.4049     4.9680    41.1532
         TOT.                        3.266    7864.5321    44.3796   109.4100

 310.00  VIB.     0.2424D+05                  5850.8389    37.7602    38.9360
         ROT.     0.1106D+07                   924.0510     2.9808    30.6348
         INT.     0.2680D+11                  6774.8899    40.7410    69.5708
         TRA.     0.2079D+28                  1540.0850     4.9680    41.3161
         TOT.                        3.717    8314.9750    45.7090   110.8869

 320.00  VIB.     0.3293D+05                  6235.0848    39.0886    40.1559
         ROT.     0.1160D+07                   953.8591     2.9808    30.7294
         INT.     0.3819D+11                  7188.9439    42.0694    70.8853
         TRA.     0.2181D+28                  1589.7652     4.9680    41.4738
         TOT.                        4.181    8778.7091    47.0374   112.3591

 330.00  VIB.     0.4474D+05                  6632.5971    40.4130    41.3790
         ROT.     0.1214D+07                   983.6672     2.9808    30.8211
         INT.     0.5433D+11                  7616.2643    43.3938    72.2001
         TRA.     0.2284D+28                  1639.4454     4.9680    41.6267
         TOT.                        4.658    9255.7097    48.3618   113.8268

 340.00  VIB.     0.6079D+05                  7043.3222    41.7307    42.6050
         ROT.     0.1270D+07                  1013.4753     2.9808    30.9101
         INT.     0.7720D+11                  8056.7975    44.7115    73.5151
         TRA.     0.2388D+28                  1689.1255     4.9680    41.7750
         TOT.                        5.148    9745.9231    49.6795   115.2901

 350.00  VIB.     0.8260D+05                  7467.1804    43.0392    43.8336
         ROT.     0.1326D+07                  1043.2834     2.9808    30.9965
         INT.     0.1096D+12                  8510.4638    46.0200    74.8301
         TRA.     0.2494D+28                  1738.8057     4.9680    41.9190
         TOT.                        5.651   10249.2695    50.9880   116.7491

 360.00  VIB.     0.1123D+06                  7904.0678    44.3362    45.0642
         ROT.     0.1384D+07                  1073.0915     2.9808    31.0805
         INT.     0.1553D+12                  8977.1593    47.3170    76.1447
         TRA.     0.2602D+28                  1788.4859     4.9680    42.0589
         TOT.                        6.168   10765.6452    52.2850   118.2037

 370.00  VIB.     0.1526D+06                  8353.8593    45.6197    46.2965
         ROT.     0.1442D+07                  1102.8996     2.9808    31.1622
         INT.     0.2200D+12                  9456.7590    48.6005    77.4587
         TRA.     0.2711D+28                  1838.1660     4.9680    42.1951
         TOT.                        6.697   11294.9250    53.5685   119.6538

 380.00  VIB.     0.2075D+06                  8816.4108    46.8879    47.5300
         ROT.     0.1501D+07                  1132.7077     2.9808    31.2417
         INT.     0.3113D+12                  9949.1185    49.8687    78.7717
         TRA.     0.2822D+28                  1887.8462     4.9680    42.3275
         TOT.                        7.239   11836.9647    54.8367   121.0992

 390.00  VIB.     0.2821D+06                  9291.5618    48.1394    48.7642
         ROT.     0.1560D+07                  1162.5158     2.9808    31.3191
         INT.     0.4402D+12                 10454.0776    51.1202    80.0833
         TRA.     0.2934D+28                  1937.5263     4.9680    42.4566
         TOT.                        7.794   12391.6039    56.0882   122.5399

 400.00  VIB.     0.3837D+06                  9779.1377    49.3727    49.9985
         ROT.     0.1621D+07                  1192.3239     2.9808    31.3946
         INT.     0.6218D+12                 10971.4616    52.3535    81.3931
         TRA.     0.3048D+28                  1987.2065     4.9680    42.5824
         TOT.                        8.361   12958.6681    57.3215   123.9755

   *: NOTE: HEATS OF FORMATION ARE RELATIVE TO THE
            ELEMENTS IN THEIR STANDARD STATE AT 298K
              (=  Standard Enthalpy of Formation).

            Hvib:  Zero-point energy is not included.
                   frequencies of less than zero cm-1 are not included.
            Hrot = (3/2)RT
            Htra = (3/2)RT + pV = (5/2)RT

            Heat capacity is Cp, not Cv

          For more information, see: HTTP://OpenMOPAC.net/Manual/thermochemistry.html


           FORCE CONSTANT IN CARTESIAN COORDINATES (Millidynes/A)

    ATOM   CHEMICAL       X               Y               Z
   NUMBER   SYMBOL  FORCE CONSTANT  FORCE CONSTANT  FORCE CONSTANT

      1       O        3.894327        6.229028        1.105088
      2       O        2.897316        6.047855        0.759004
      3       O        0.822713        5.437493        2.975832
      4       O        1.181023        8.557650        2.434271
      5       C        6.049905       10.644448        8.476146
      6       C       11.445350        4.993309        9.053412
      7       C        8.179610        8.878226        7.815065
      8       C        7.205692        8.958163        8.889622
      9       C        8.582201        8.389341        8.278155
     10       C        7.732245        8.531199        8.278315
     11       C        8.456273        8.046234        8.405390
     12       H        1.346707        0.651079        4.321585
     13       H        1.170771        1.549002        3.666433
     14       H        2.279800        1.290972        2.257166
     15       H        2.364187        2.169399        1.864036
     16       H        3.648887        0.798031        1.987173
     17       H        2.288948        2.034778        2.120534
     18       H        0.818220        1.690379        3.953691
     19       H        3.229920        1.677866        1.433130
     20       H        0.987493        4.516623        0.857241
     21       H        1.800995        2.006808        2.854687
     22       H        0.748480        1.302171        4.566008
     23       H        0.955444        7.952026        1.028959

 **********************
 *                    *
 * JOB ENDED NORMALLY *
 *                    *
 **********************



 TOTAL JOB TIME:             3.32 SECONDS

 == MOPAC DONE ==
