 *******************************************************************************
 ** Site#: 14399        For non-commercial use only    Version 18.184L 64BITS **
 *******************************************************************************
 ** Cite this program as: MOPAC2016, Version: 18.184L, James J. P. Stewart,   **
 ** Stewart Computational Chemistry, web: HTTP://OpenMOPAC.net. Days left:  18**
 *******************************************************************************
 **                                                                           **
 **                                MOPAC2016                                  **
 **                                                                           **
 *******************************************************************************

                              PM3 CALCULATION RESULTS

 *******************************************************************************
 *  CALCULATION DONE:                                Sat Jun 15 11:11:22 2019  *
 *  PM3        - The PM3 Hamiltonian to be used
 *  PRECISE    - CRITERIA TO BE INCREASED BY 100 TIMES
 *  NOSYM      - POINT-GROUP SYMMETRY SET TO C1
 *  THREADS=1  - MULTI-THREADING NOT USED
 *  T=         - A TIME OF 172800.0 SECONDS REQUESTED
 *  DUMP=N     - RESTART FILE WRITTEN EVERY  7200.000 SECONDS
 *******************************************************************************
pm3  precise nosym THREADS=1
 InChI=1S/C7H12O2/c8-5-2-1-3-7-4-6-9-7/h4,6-8H,1-3,5H2

   ATOM   CHEMICAL          X               Y               Z
  NUMBER   SYMBOL      (ANGSTROMS)     (ANGSTROMS)     (ANGSTROMS)
 
     1       O          2.27370000  *  -1.49820000  *  -0.02870000  *
     2       O         -4.05190000  *   0.56120000  *   0.31310000  *
     3       C          2.09660000  *  -0.20140000  *  -0.44100000  *
     4       C          0.86500000  *   0.44750000  *   0.21020000  *
     5       C         -0.43100000  *  -0.13900000  *  -0.36140000  *
     6       C         -1.66080000  *   0.51880000  *   0.27570000  *
     7       C         -2.95450000  *  -0.06340000  *  -0.29180000  *
     8       C          3.32240000  *   0.24060000  *   0.13810000  *
     9       C          3.51750000  *  -1.05770000  *   0.53780000  *
    10       H          0.88980000  *   1.54200000  *   0.01280000  *
    11       H          0.88880000  *   0.29020000  *   1.31230000  *
    12       H          2.10430000  *  -0.11230000  *  -1.55150000  *
    13       H         -0.45450000  *   0.02460000  *  -1.46150000  *
    14       H         -0.45740000  *  -1.23380000  *  -0.16620000  *
    15       H         -1.64190000  *   0.35590000  *   1.37580000  *
    16       H         -1.64000000  *   1.61370000  *   0.08090000  *
    17       H         -2.98870000  *   0.10580000  *  -1.39170000  *
    18       H         -2.99070000  *  -1.15790000  *  -0.09060000  *
    19       H          3.86420000  *   1.17340000  *   0.21810000  *
    20       H          4.30870000  *  -1.55800000  *   1.08010000  *
    21       H         -4.85970000  *   0.14810000  *  -0.08930000  *
 


          CARTESIAN COORDINATES 

    NO.       ATOM           X           Y           Z

     1         O          2.2737     -1.4982     -0.0287
     2         O         -4.0519      0.5612      0.3131
     3         C          2.0966     -0.2014     -0.4410
     4         C          0.8650      0.4475      0.2102
     5         C         -0.4310     -0.1390     -0.3614
     6         C         -1.6608      0.5188      0.2757
     7         C         -2.9545     -0.0634     -0.2918
     8         C          3.3224      0.2406      0.1381
     9         C          3.5175     -1.0577      0.5378
    10         H          0.8898      1.5420      0.0128
    11         H          0.8888      0.2902      1.3123
    12         H          2.1043     -0.1123     -1.5515
    13         H         -0.4545      0.0246     -1.4615
    14         H         -0.4574     -1.2338     -0.1662
    15         H         -1.6419      0.3559      1.3758
    16         H         -1.6400      1.6137      0.0809
    17         H         -2.9887      0.1058     -1.3917
    18         H         -2.9907     -1.1579     -0.0906
    19         H          3.8642      1.1734      0.2181
    20         H          4.3087     -1.5580      1.0801
    21         H         -4.8597      0.1481     -0.0893

  H: (PM3): J. J. P. STEWART, J. COMP. CHEM. 10, 209 (1989).
  C: (PM3): J. J. P. STEWART, J. COMP. CHEM. 10, 209 (1989).
  O: (PM3): J. J. P. STEWART, J. COMP. CHEM. 10, 209 (1989).

           Empirical Formula: C7 H12 O2  =    21 atoms



      MOLECULAR POINT GROUP   :   C1  


      RHF CALCULATION, NO. OF DOUBLY OCCUPIED LEVELS = 26


          Geometry optimization using EF

          DIAGONAL MATRIX USED AS START HESSIAN

 CYCLE:     1 TIME:   0.008 TIME LEFT:  2.00D  GRAD.:   244.915 HEAT: -30.23888
 CYCLE:     2 TIME:   0.004 TIME LEFT:  2.00D  GRAD.:   183.612 HEAT: -36.17950
 CYCLE:     3 TIME:   0.008 TIME LEFT:  2.00D  GRAD.:    98.917 HEAT: -42.66260
 CYCLE:     4 TIME:   0.008 TIME LEFT:  2.00D  GRAD.:    64.974 HEAT: -44.77454
 CYCLE:     5 TIME:   0.008 TIME LEFT:  2.00D  GRAD.:    46.952 HEAT: -45.71944
 CYCLE:     6 TIME:   0.008 TIME LEFT:  2.00D  GRAD.:    25.918 HEAT: -46.16506
 CYCLE:     7 TIME:   0.004 TIME LEFT:  2.00D  GRAD.:    24.959 HEAT: -46.51236
 CYCLE:     8 TIME:   0.004 TIME LEFT:  2.00D  GRAD.:    31.676 HEAT: -46.76221
 CYCLE:     9 TIME:   0.004 TIME LEFT:  2.00D  GRAD.:    34.027 HEAT: -46.90991
 CYCLE:    10 TIME:   0.008 TIME LEFT:  2.00D  GRAD.:    20.080 HEAT: -47.12901
 CYCLE:    11 TIME:   0.004 TIME LEFT:  2.00D  GRAD.:    21.967 HEAT: -47.18119
 CYCLE:    12 TIME:   0.004 TIME LEFT:  2.00D  GRAD.:    22.126 HEAT: -47.21711
 CYCLE:    13 TIME:   0.008 TIME LEFT:  2.00D  GRAD.:     9.475 HEAT: -47.33333
 CYCLE:    14 TIME:   0.008 TIME LEFT:  2.00D  GRAD.:     6.637 HEAT: -47.35587
 CYCLE:    15 TIME:   0.004 TIME LEFT:  2.00D  GRAD.:     5.632 HEAT: -47.37456
 CYCLE:    16 TIME:   0.004 TIME LEFT:  2.00D  GRAD.:     5.973 HEAT: -47.38944
 CYCLE:    17 TIME:   0.008 TIME LEFT:  2.00D  GRAD.:     5.293 HEAT: -47.39844
 CYCLE:    18 TIME:   0.004 TIME LEFT:  2.00D  GRAD.:     6.601 HEAT: -47.40155
 CYCLE:    19 TIME:   0.004 TIME LEFT:  2.00D  GRAD.:     5.179 HEAT: -47.41281
 CYCLE:    20 TIME:   0.004 TIME LEFT:  2.00D  GRAD.:     3.327 HEAT: -47.42098
 CYCLE:    21 TIME:   0.008 TIME LEFT:  2.00D  GRAD.:     3.734 HEAT: -47.42710
 CYCLE:    22 TIME:   0.004 TIME LEFT:  2.00D  GRAD.:     3.839 HEAT: -47.43453
 CYCLE:    23 TIME:   0.004 TIME LEFT:  2.00D  GRAD.:     3.444 HEAT: -47.44310
 CYCLE:    24 TIME:   0.004 TIME LEFT:  2.00D  GRAD.:     3.995 HEAT: -47.44548
 CYCLE:    25 TIME:   0.004 TIME LEFT:  2.00D  GRAD.:     2.380 HEAT: -47.45068
 CYCLE:    26 TIME:   0.004 TIME LEFT:  2.00D  GRAD.:     2.288 HEAT: -47.45247
 CYCLE:    27 TIME:   0.004 TIME LEFT:  2.00D  GRAD.:     1.266 HEAT: -47.45556
 CYCLE:    28 TIME:   0.004 TIME LEFT:  2.00D  GRAD.:     1.442 HEAT: -47.45847
 CYCLE:    29 TIME:   0.004 TIME LEFT:  2.00D  GRAD.:     1.366 HEAT: -47.45990
 CYCLE:    30 TIME:   0.004 TIME LEFT:  2.00D  GRAD.:     0.625 HEAT: -47.46097
 CYCLE:    31 TIME:   0.004 TIME LEFT:  2.00D  GRAD.:     0.752 HEAT: -47.46176
 CYCLE:    32 TIME:   0.008 TIME LEFT:  2.00D  GRAD.:     0.827 HEAT: -47.46247
 CYCLE:    33 TIME:   0.004 TIME LEFT:  2.00D  GRAD.:     0.652 HEAT: -47.46333
 CYCLE:    34 TIME:   0.004 TIME LEFT:  2.00D  GRAD.:     0.759 HEAT: -47.46454
 CYCLE:    35 TIME:   0.004 TIME LEFT:  2.00D  GRAD.:     0.763 HEAT: -47.46553
 CYCLE:    36 TIME:   0.004 TIME LEFT:  2.00D  GRAD.:     0.680 HEAT: -47.46628
 CYCLE:    37 TIME:   0.004 TIME LEFT:  2.00D  GRAD.:     0.550 HEAT: -47.46681
 CYCLE:    38 TIME:   0.004 TIME LEFT:  2.00D  GRAD.:     0.594 HEAT: -47.46743
 CYCLE:    39 TIME:   0.004 TIME LEFT:  2.00D  GRAD.:     0.655 HEAT: -47.46839
 CYCLE:    40 TIME:   0.004 TIME LEFT:  2.00D  GRAD.:     0.555 HEAT: -47.46898
 CYCLE:    41 TIME:   0.004 TIME LEFT:  2.00D  GRAD.:     0.566 HEAT: -47.46974
 CYCLE:    42 TIME:   0.008 TIME LEFT:  2.00D  GRAD.:     0.636 HEAT: -47.47041
 CYCLE:    43 TIME:   0.004 TIME LEFT:  2.00D  GRAD.:     0.698 HEAT: -47.47149
 CYCLE:    44 TIME:   0.004 TIME LEFT:  2.00D  GRAD.:     0.512 HEAT: -47.47202
 CYCLE:    45 TIME:   0.004 TIME LEFT:  2.00D  GRAD.:     0.388 HEAT: -47.47258
 CYCLE:    46 TIME:   0.004 TIME LEFT:  2.00D  GRAD.:     0.401 HEAT: -47.47286
 CYCLE:    47 TIME:   0.004 TIME LEFT:  2.00D  GRAD.:     0.351 HEAT: -47.47318
 CYCLE:    48 TIME:   0.004 TIME LEFT:  2.00D  GRAD.:     0.267 HEAT: -47.47338
 CYCLE:    49 TIME:   0.004 TIME LEFT:  2.00D  GRAD.:     0.264 HEAT: -47.47355
 CYCLE:    50 TIME:   0.004 TIME LEFT:  2.00D  GRAD.:     0.329 HEAT: -47.47372
 CYCLE:    51 TIME:   0.004 TIME LEFT:  2.00D  GRAD.:     0.337 HEAT: -47.47391
 CYCLE:    52 TIME:   0.004 TIME LEFT:  2.00D  GRAD.:     0.302 HEAT: -47.47410
 CYCLE:    53 TIME:   0.008 TIME LEFT:  2.00D  GRAD.:     0.327 HEAT: -47.47430
 CYCLE:    54 TIME:   0.004 TIME LEFT:  2.00D  GRAD.:     0.408 HEAT: -47.47456
 CYCLE:    55 TIME:   0.004 TIME LEFT:  2.00D  GRAD.:     0.445 HEAT: -47.47489
 CYCLE:    56 TIME:   0.004 TIME LEFT:  2.00D  GRAD.:     0.369 HEAT: -47.47533
 CYCLE:    57 TIME:   0.004 TIME LEFT:  2.00D  GRAD.:     0.274 HEAT: -47.47554
 CYCLE:    58 TIME:   0.004 TIME LEFT:  2.00D  GRAD.:     0.306 HEAT: -47.47579
 CYCLE:    59 TIME:   0.004 TIME LEFT:  2.00D  GRAD.:     0.306 HEAT: -47.47590
 CYCLE:    60 TIME:   0.004 TIME LEFT:  2.00D  GRAD.:     0.385 HEAT: -47.47627
 CYCLE:    61 TIME:   0.004 TIME LEFT:  2.00D  GRAD.:     0.295 HEAT: -47.47647
 CYCLE:    62 TIME:   0.004 TIME LEFT:  2.00D  GRAD.:     0.236 HEAT: -47.47670
 CYCLE:    63 TIME:   0.008 TIME LEFT:  2.00D  GRAD.:     0.160 HEAT: -47.47679
 CYCLE:    64 TIME:   0.004 TIME LEFT:  2.00D  GRAD.:     0.116 HEAT: -47.47686
 CYCLE:    65 TIME:   0.004 TIME LEFT:  2.00D  GRAD.:     0.101 HEAT: -47.47692
 CYCLE:    66 TIME:   0.004 TIME LEFT:  2.00D  GRAD.:     0.123 HEAT: -47.47700
 CYCLE:    67 TIME:   0.004 TIME LEFT:  2.00D  GRAD.:     0.156 HEAT: -47.47706
 CYCLE:    68 TIME:   0.004 TIME LEFT:  2.00D  GRAD.:     0.163 HEAT: -47.47712
 CYCLE:    69 TIME:   0.004 TIME LEFT:  2.00D  GRAD.:     0.155 HEAT: -47.47718
 CYCLE:    70 TIME:   0.004 TIME LEFT:  2.00D  GRAD.:     0.285 HEAT: -47.47738
 CYCLE:    71 TIME:   0.004 TIME LEFT:  2.00D  GRAD.:     0.258 HEAT: -47.47752
 CYCLE:    72 TIME:   0.004 TIME LEFT:  2.00D  GRAD.:     0.390 HEAT: -47.47793
 CYCLE:    73 TIME:   0.004 TIME LEFT:  2.00D  GRAD.:     0.260 HEAT: -47.47811
 CYCLE:    74 TIME:   0.004 TIME LEFT:  2.00D  GRAD.:     0.197 HEAT: -47.47825
 CYCLE:    75 TIME:   0.008 TIME LEFT:  2.00D  GRAD.:     0.227 HEAT: -47.47853
 CYCLE:    76 TIME:   0.004 TIME LEFT:  2.00D  GRAD.:     0.241 HEAT: -47.47870
 CYCLE:    77 TIME:   0.004 TIME LEFT:  2.00D  GRAD.:     0.348 HEAT: -47.47892
 CYCLE:    78 TIME:   0.004 TIME LEFT:  2.00D  GRAD.:     0.196 HEAT: -47.47905
 CYCLE:    79 TIME:   0.004 TIME LEFT:  2.00D  GRAD.:     0.149 HEAT: -47.47918
 CYCLE:    80 TIME:   0.004 TIME LEFT:  2.00D  GRAD.:     0.155 HEAT: -47.47929
 CYCLE:    81 TIME:   0.004 TIME LEFT:  2.00D  GRAD.:     0.151 HEAT: -47.47936
 CYCLE:    82 TIME:   0.004 TIME LEFT:  2.00D  GRAD.:     0.115 HEAT: -47.47939
 CYCLE:    83 TIME:   0.004 TIME LEFT:  2.00D  GRAD.:     0.183 HEAT: -47.47940
 CYCLE:    84 TIME:   0.004 TIME LEFT:  2.00D  GRAD.:     0.080 HEAT: -47.47944
 CYCLE:    85 TIME:   0.004 TIME LEFT:  2.00D  GRAD.:     0.046 HEAT: -47.47945

     GRADIENT =  0.04596  IS LESS THAN CUTOFF =  0.05000



 -------------------------------------------------------------------------------
 pm3  precise nosym THREADS=1
 InChI=1S/C7H12O2/c8-5-2-1-3-7-4-6-9-7/h4,6-8H,1-3,5H2



     GEOMETRY OPTIMISED USING EIGENVECTOR FOLLOWING (EF).     
     SCF FIELD WAS ACHIEVED                                   


                              PM3 CALCULATION
                                                       MOPAC2016 (Version: 18.184L)
                                                       Sat Jun 15 11:11:22 2019
                                                       No. of days remaining =  18




          FINAL HEAT OF FORMATION =        -47.47945 KCAL/MOL =    -198.65403 KJ/MOL


          TOTAL ENERGY            =      -1600.38382 EV
          ELECTRONIC ENERGY       =      -7354.18323 EV  POINT GROUP:     C1  
          CORE-CORE REPULSION     =       5753.79941 EV
          COSMO AREA              =        179.77 SQUARE ANGSTROMS
          COSMO VOLUME            =        173.18 CUBIC ANGSTROMS

          GRADIENT NORM           =          0.04596 = 0.01003 PER ATOM
          IONIZATION POTENTIAL    =          9.692691 EV
          HOMO LUMO ENERGIES (EV) =         -9.693  0.847
          NO. OF FILLED LEVELS    =         26
          MOLECULAR WEIGHT        =        128.1706

          MOLECULAR DIMENSIONS (Angstroms)

            Atom       Atom       Distance
            H    21    H    20     9.44043
            H    19    H    18     3.68972
            H    15    H    12     3.27461


          SCF CALCULATIONS        =         94
 
          WALL-CLOCK TIME         =          0.402 SECONDS
          COMPUTATION TIME        =          0.368 SECONDS




   ATOM   CHEMICAL          X               Y               Z
  NUMBER   SYMBOL      (ANGSTROMS)     (ANGSTROMS)     (ANGSTROMS)
 
     1       O          2.38498509  *  -1.54690240  *   0.06036017  *
     2       O         -4.05649520  *   0.58708640  *   0.30790004  *
     3       C          2.03814029  *  -0.17024494  *  -0.44192906  *
     4       C          0.81571761  *   0.42388615  *   0.22050037  *
     5       C         -0.47084726  *  -0.12764792  *  -0.37280758  *
     6       C         -1.68790680  *   0.51443956  *   0.27229162  *
     7       C         -2.97302732  *  -0.05815085  *  -0.32150103  *
     8       C          3.39181774  *   0.24851907  *   0.12515246  *
     9       C          3.60741440  *  -1.02705402  *   0.52639252  *
    10       H          0.85725291  *   1.52434410  *   0.09423939  *
    11       H          0.83788067  *   0.24440514  *   1.31412454  *
    12       H          1.96766042  *  -0.18604923  *  -1.54929394  *
    13       H         -0.48861930  *   0.04225245  *  -1.46860211  *
    14       H         -0.50556315  *  -1.22758683  *  -0.24053879  *
    15       H         -1.66874686  *   0.35362891  *   1.36901318  *
    16       H         -1.65845741  *   1.61408037  *   0.13434252  *
    17       H         -3.01135604  *   0.11160059  *  -1.41615963  *
    18       H         -3.02831198  *  -1.15290249  *  -0.15776793  *
    19       H          3.90471471  *   1.19669731  *   0.15724597  *
    20       H          4.35245531  *  -1.64226265  *   1.01586049  *
    21       H         -4.84408951  *   0.20297758  *  -0.05197984  *

                             CARTESIAN COORDINATES

   1    O        2.384985090    -1.546902403     0.060360166
   2    O       -4.056495198     0.587086397     0.307900038
   3    C        2.038140293    -0.170244939    -0.441929064
   4    C        0.815717609     0.423886149     0.220500368
   5    C       -0.470847256    -0.127647920    -0.372807581
   6    C       -1.687906796     0.514439561     0.272291624
   7    C       -2.973027324    -0.058150848    -0.321501033
   8    C        3.391817743     0.248519073     0.125152456
   9    C        3.607414395    -1.027054024     0.526392524
  10    H        0.857252914     1.524344095     0.094239392
  11    H        0.837880667     0.244405143     1.314124536
  12    H        1.967660421    -0.186049225    -1.549293937
  13    H       -0.488619303     0.042252450    -1.468602114
  14    H       -0.505563148    -1.227586832    -0.240538785
  15    H       -1.668746856     0.353628911     1.369013182
  16    H       -1.658457413     1.614080373     0.134342516
  17    H       -3.011356035     0.111600587    -1.416159633
  18    H       -3.028311983    -1.152902489    -0.157767933
  19    H        3.904714714     1.196697311     0.157245969
  20    H        4.352455314    -1.642262652     1.015860495
  21    H       -4.844089508     0.202977584    -0.051979843


           Empirical Formula: C7 H12 O2  =    21 atoms



      MOLECULAR POINT GROUP   :   C1  


                  EIGENVALUES  
 -41.04969 -39.00291 -35.42104 -30.05459 -28.19739 -24.26410 -21.59661 -21.29435
 -18.80229 -18.22390 -17.69616 -17.11516 -16.49583 -16.15903 -15.02130 -14.84593
 -14.05364 -13.50524 -13.21813 -12.58350 -12.49834 -12.19372 -12.10044 -11.56107
 -10.91767  -9.69269   0.84679   2.57353   2.75644   3.04615   3.23537   3.48962
   3.66683   3.74214   3.79601   3.94207   4.04529   4.09351   4.10343   4.27367
   4.44747   4.62625   4.87051   4.90367   4.97934   5.06879   5.65500   5.80668


              NET ATOMIC CHARGES AND DIPOLE CONTRIBUTIONS

  ATOM NO.   TYPE          CHARGE      No. of ELECS.   s-Pop       p-Pop       
    1          O          -0.230902        6.2309     1.88373     4.34717
    2          O          -0.311137        6.3111     1.80808     4.50306
    3          C           0.098844        3.9012     1.18733     2.71382
    4          C          -0.104951        4.1050     1.15966     2.94529
    5          C          -0.098303        4.0983     1.16051     2.93779
    6          C          -0.117595        4.1176     1.16347     2.95413
    7          C           0.074745        3.9253     1.15153     2.77372
    8          C          -0.308097        4.3081     1.22891     3.07918
    9          C           0.034692        3.9653     1.20390     2.76140
   10          H           0.061638        0.9384     0.93836
   11          H           0.069210        0.9308     0.93079
   12          H           0.082454        0.9175     0.91755
   13          H           0.048828        0.9512     0.95117
   14          H           0.060353        0.9396     0.93965
   15          H           0.063763        0.9362     0.93624
   16          H           0.061433        0.9386     0.93857
   17          H           0.020508        0.9795     0.97949
   18          H           0.022283        0.9777     0.97772
   19          H           0.146506        0.8535     0.85349
   20          H           0.140900        0.8591     0.85910
   21          H           0.184827        0.8152     0.81517
 DIPOLE           X         Y         Z       TOTAL
 POINT-CHG.     0.486     0.250    -0.547     0.773
 HYBRID        -0.163    -0.270    -0.375     0.490
 SUM            0.322    -0.020    -0.922     0.977


          ATOMIC ORBITAL ELECTRON POPULATIONS

     Atom    s        px        py        pz   
    1  O   1.88373   1.31864   1.28117   1.74735
    2  O   1.80808   1.16894   1.65378   1.68033
    3  C   1.18733   0.92668   0.81256   0.97458
    4  C   1.15966   0.93582   1.00031   1.00916
    5  C   1.16051   0.93905   1.00620   0.99255
    6  C   1.16347   0.93849   1.00711   1.00854
    7  C   1.15153   0.88174   0.94600   0.94598
    8  C   1.22891   0.99891   0.98804   1.09223
    9  C   1.20390   0.89051   0.92311   0.94778
   10  H   0.93836
   11  H   0.93079
   12  H   0.91755
   13  H   0.95117
   14  H   0.93965
   15  H   0.93624
   16  H   0.93857
   17  H   0.97949
   18  H   0.97772
   19  H   0.85349
   20  H   0.85910
   21  H   0.81517
 *******************************************************************************
 ** Site#: 14399        For non-commercial use only    Version 18.184L 64BITS **
 *******************************************************************************
 ** Cite this program as: MOPAC2016, Version: 18.184L, James J. P. Stewart,   **
 ** Stewart Computational Chemistry, web: HTTP://OpenMOPAC.net. Days left:  18**
 *******************************************************************************
 **                                                                           **
 **                                MOPAC2016                                  **
 **                                                                           **
 *******************************************************************************

                              PM3 CALCULATION RESULTS

 *******************************************************************************
 *  CALCULATION DONE:                                Sat Jun 15 11:11:22 2019  *
 *  PM3        - The PM3 Hamiltonian to be used
 *  OLDGEO     - PREVIOUS GEOMETRY TO BE USED
 *  PRECISE    - CRITERIA TO BE INCREASED BY 100 TIMES
 *  NOSYM      - POINT-GROUP SYMMETRY SET TO C1
 *  THREADS=1  - MULTI-THREADING NOT USED
 *  T=         - A TIME OF 172800.0 SECONDS REQUESTED
 *  DUMP=N     - RESTART FILE WRITTEN EVERY  7200.000 SECONDS
 *  THERMO     - THERMODYNAMIC QUANTITIES TO BE CALCULATED
 *******************************************************************************
oldgeo thermo nosym precise THREADS=1  pm3
 InChI=1S/C7H12O2/c8-5-2-1-3-7-4-6-9-7/h4,6-8H,1-3,5H2

   ATOM   CHEMICAL          X               Y               Z
  NUMBER   SYMBOL      (ANGSTROMS)     (ANGSTROMS)     (ANGSTROMS)
 
     1       O          2.38498509  *  -1.54690240  *   0.06036017  *
     2       O         -4.05649520  *   0.58708640  *   0.30790004  *
     3       C          2.03814029  *  -0.17024494  *  -0.44192906  *
     4       C          0.81571761  *   0.42388615  *   0.22050037  *
     5       C         -0.47084726  *  -0.12764792  *  -0.37280758  *
     6       C         -1.68790680  *   0.51443956  *   0.27229162  *
     7       C         -2.97302732  *  -0.05815085  *  -0.32150103  *
     8       C          3.39181774  *   0.24851907  *   0.12515246  *
     9       C          3.60741440  *  -1.02705402  *   0.52639252  *
    10       H          0.85725291  *   1.52434410  *   0.09423939  *
    11       H          0.83788067  *   0.24440514  *   1.31412454  *
    12       H          1.96766042  *  -0.18604923  *  -1.54929394  *
    13       H         -0.48861930  *   0.04225245  *  -1.46860211  *
    14       H         -0.50556315  *  -1.22758683  *  -0.24053879  *
    15       H         -1.66874686  *   0.35362891  *   1.36901318  *
    16       H         -1.65845741  *   1.61408037  *   0.13434252  *
    17       H         -3.01135604  *   0.11160059  *  -1.41615963  *
    18       H         -3.02831198  *  -1.15290249  *  -0.15776793  *
    19       H          3.90471471  *   1.19669731  *   0.15724597  *
    20       H          4.35245531  *  -1.64226265  *   1.01586049  *
    21       H         -4.84408951  *   0.20297758  *  -0.05197984  *
 


          CARTESIAN COORDINATES 

    NO.       ATOM           X           Y           Z

     1         O          2.3850     -1.5469      0.0604
     2         O         -4.0565      0.5871      0.3079
     3         C          2.0381     -0.1702     -0.4419
     4         C          0.8157      0.4239      0.2205
     5         C         -0.4708     -0.1276     -0.3728
     6         C         -1.6879      0.5144      0.2723
     7         C         -2.9730     -0.0582     -0.3215
     8         C          3.3918      0.2485      0.1252
     9         C          3.6074     -1.0271      0.5264
    10         H          0.8573      1.5243      0.0942
    11         H          0.8379      0.2444      1.3141
    12         H          1.9677     -0.1860     -1.5493
    13         H         -0.4886      0.0423     -1.4686
    14         H         -0.5056     -1.2276     -0.2405
    15         H         -1.6687      0.3536      1.3690
    16         H         -1.6585      1.6141      0.1343
    17         H         -3.0114      0.1116     -1.4162
    18         H         -3.0283     -1.1529     -0.1578
    19         H          3.9047      1.1967      0.1572
    20         H          4.3525     -1.6423      1.0159
    21         H         -4.8441      0.2030     -0.0520

  H: (PM3): J. J. P. STEWART, J. COMP. CHEM. 10, 209 (1989).
  C: (PM3): J. J. P. STEWART, J. COMP. CHEM. 10, 209 (1989).
  O: (PM3): J. J. P. STEWART, J. COMP. CHEM. 10, 209 (1989).

           Empirical Formula: C7 H12 O2  =    21 atoms



      MOLECULAR POINT GROUP   :   C1  


      RHF CALCULATION, NO. OF DOUBLY OCCUPIED LEVELS = 26



          HEAT OF FORMATION =     -47.479453 KCALS/MOLE


          CARTESIAN COORDINATE DERIVATIVES

   NUMBER  ATOM         X            Y            Z

     1       O     -0.001737     0.000527    -0.001863
     2       O     -0.011483    -0.005328    -0.001454
     3       C      0.002210    -0.003616    -0.001874
     4       C     -0.001700    -0.003232    -0.002130
     5       C     -0.011207    -0.004208     0.000415
     6       C     -0.008113     0.004292     0.000043
     7       C     -0.003389     0.002159    -0.000027
     8       C      0.003337    -0.001960    -0.000970
     9       C     -0.001982    -0.002818    -0.000866
    10       H     -0.006361     0.003268    -0.006895
    11       H      0.003350     0.000935    -0.001641
    12       H      0.002242     0.007920    -0.005493
    13       H      0.009646    -0.006144     0.002622
    14       H     -0.000469     0.002690     0.002732
    15       H      0.009157     0.005010    -0.000962
    16       H     -0.011061     0.007327    -0.000149
    17       H      0.018299    -0.007189     0.006332
    18       H     -0.009364     0.003906    -0.002735
    19       H      0.013157    -0.001729     0.006337
    20       H     -0.004861    -0.002818     0.003484
    21       H      0.010329     0.001008     0.005092
 


          GRADIENT NORM =   0.04540


          TIME FOR SCF CALCULATION =    0.00

          TIME FOR DERIVATIVES     =    0.00

          MOLECULAR WEIGHT =  128.17



          ROTATIONAL CONSTANTS IN CM(-1)

          A =    0.22611505   B =    0.01726703   C =    0.01675941



           PRINCIPAL MOMENTS OF INERTIA IN UNITS OF 10**(-40)*GRAM-CM**2

          A =      123.7988   B =     1621.1691   C =     1670.2719


          ORIENTATION OF MOLECULE IN FORCE CALCULATION

    NO.       ATOM         X         Y         Z

     1          O      -2.5099   -0.6493    0.1653
     2          O       4.2804   -0.6493    0.1653
     3          C      -1.7665    0.6604    0.1653
     4          C      -0.3960    0.5767   -0.4679
     5          C       0.6295   -0.0169    0.4847
     6          C       2.0094   -0.0502   -0.1513
     7          C       3.0269   -0.6616    0.8094
     8          C      -2.8984    1.1670   -0.7244
     9          C      -3.4891   -0.0495   -0.6490
    10          H      -0.0942    1.5995   -0.7701
    11          H      -0.4336   -0.0160   -1.4039
    12          H      -1.7450    1.0749    1.1944
    13          H       0.6598    0.5695    1.4256
    14          H       0.3216   -1.0399    0.7802
    15          H       1.9806   -0.6287   -1.0966
    16          H       2.3220    0.9733   -0.4406
    17          H       3.0767   -0.0814    1.7525
    18          H       2.7412   -1.6984    1.0774
    19          H      -3.0858    2.1219   -1.1894
    20          H      -4.3714   -0.5804   -0.9849
    21          H       4.8937   -1.0546    0.7627


    FIRST DERIVATIVES WILL BE USED IN THE CALCULATION OF SECOND DERIVATIVES

          ESTIMATED TIME TO COMPLETE CALCULATION =        1.97 SECONDS

    FOR POINT-GROUP C1   THERE ARE   1 UNIQUE SYMMETRY FUNCTIONS.

 STEP:   1 TIME =     0.02 SECS, INTEGRAL =      0.02 TIME LEFT: 172799.97
 STEP:   2 TIME =     0.02 SECS, INTEGRAL =      0.04 TIME LEFT: 172799.96
 STEP:   3 TIME =     0.02 SECS, INTEGRAL =      0.05 TIME LEFT: 172799.94
 STEP:   4 TIME =     0.02 SECS, INTEGRAL =      0.07 TIME LEFT: 172799.92
 STEP:   5 TIME =     0.02 SECS, INTEGRAL =      0.09 TIME LEFT: 172799.90
 STEP:   6 TIME =     0.02 SECS, INTEGRAL =      0.11 TIME LEFT: 172799.88
 STEP:   7 TIME =     0.02 SECS, INTEGRAL =      0.12 TIME LEFT: 172799.87
 STEP:   8 TIME =     0.02 SECS, INTEGRAL =      0.14 TIME LEFT: 172799.85
 STEP:   9 TIME =     0.02 SECS, INTEGRAL =      0.16 TIME LEFT: 172799.83
 STEP:  10 TIME =     0.02 SECS, INTEGRAL =      0.18 TIME LEFT: 172799.81
 STEP:  11 TIME =     0.02 SECS, INTEGRAL =      0.20 TIME LEFT: 172799.79
 STEP:  12 TIME =     0.02 SECS, INTEGRAL =      0.22 TIME LEFT: 172799.77
 STEP:  13 TIME =     0.02 SECS, INTEGRAL =      0.24 TIME LEFT: 172799.75
 STEP:  14 TIME =     0.02 SECS, INTEGRAL =      0.25 TIME LEFT: 172799.74
 STEP:  15 TIME =     0.02 SECS, INTEGRAL =      0.27 TIME LEFT: 172799.72
 STEP:  16 TIME =     0.02 SECS, INTEGRAL =      0.29 TIME LEFT: 172799.70
 STEP:  17 TIME =     0.02 SECS, INTEGRAL =      0.31 TIME LEFT: 172799.68
 STEP:  18 TIME =     0.02 SECS, INTEGRAL =      0.33 TIME LEFT: 172799.66
 STEP:  19 TIME =     0.02 SECS, INTEGRAL =      0.34 TIME LEFT: 172799.65
 STEP:  20 TIME =     0.02 SECS, INTEGRAL =      0.36 TIME LEFT: 172799.63
 STEP:  21 TIME =     0.02 SECS, INTEGRAL =      0.38 TIME LEFT: 172799.61
 STEP:  22 TIME =     0.02 SECS, INTEGRAL =      0.40 TIME LEFT: 172799.59
 STEP:  23 TIME =     0.02 SECS, INTEGRAL =      0.41 TIME LEFT: 172799.58
 STEP:  24 TIME =     0.02 SECS, INTEGRAL =      0.43 TIME LEFT: 172799.56
 STEP:  25 TIME =     0.02 SECS, INTEGRAL =      0.45 TIME LEFT: 172799.54
 STEP:  26 TIME =     0.02 SECS, INTEGRAL =      0.47 TIME LEFT: 172799.52
 STEP:  27 TIME =     0.02 SECS, INTEGRAL =      0.49 TIME LEFT: 172799.50
 STEP:  28 TIME =     0.02 SECS, INTEGRAL =      0.51 TIME LEFT: 172799.48
 STEP:  29 TIME =     0.02 SECS, INTEGRAL =      0.52 TIME LEFT: 172799.47
 STEP:  30 TIME =     0.02 SECS, INTEGRAL =      0.54 TIME LEFT: 172799.45
 STEP:  31 TIME =     0.02 SECS, INTEGRAL =      0.56 TIME LEFT: 172799.43
 STEP:  32 TIME =     0.02 SECS, INTEGRAL =      0.58 TIME LEFT: 172799.41
 STEP:  33 TIME =     0.02 SECS, INTEGRAL =      0.59 TIME LEFT: 172799.40
 STEP:  34 TIME =     0.02 SECS, INTEGRAL =      0.61 TIME LEFT: 172799.38
 STEP:  35 TIME =     0.02 SECS, INTEGRAL =      0.63 TIME LEFT: 172799.36
 STEP:  36 TIME =     0.02 SECS, INTEGRAL =      0.65 TIME LEFT: 172799.34
 STEP:  37 TIME =     0.02 SECS, INTEGRAL =      0.67 TIME LEFT: 172799.32
 STEP:  38 TIME =     0.02 SECS, INTEGRAL =      0.69 TIME LEFT: 172799.30
 STEP:  39 TIME =     0.02 SECS, INTEGRAL =      0.70 TIME LEFT: 172799.29
 STEP:  40 TIME =     0.02 SECS, INTEGRAL =      0.72 TIME LEFT: 172799.27
 STEP:  41 TIME =     0.02 SECS, INTEGRAL =      0.73 TIME LEFT: 172799.26
 STEP:  42 TIME =     0.02 SECS, INTEGRAL =      0.75 TIME LEFT: 172799.24
 STEP:  43 TIME =     0.02 SECS, INTEGRAL =      0.77 TIME LEFT: 172799.22
 STEP:  44 TIME =     0.02 SECS, INTEGRAL =      0.79 TIME LEFT: 172799.20
 STEP:  45 TIME =     0.02 SECS, INTEGRAL =      0.80 TIME LEFT: 172799.19
 STEP:  46 TIME =     0.02 SECS, INTEGRAL =      0.82 TIME LEFT: 172799.17
 STEP:  47 TIME =     0.02 SECS, INTEGRAL =      0.84 TIME LEFT: 172799.15
 STEP:  48 TIME =     0.02 SECS, INTEGRAL =      0.86 TIME LEFT: 172799.13
 STEP:  49 TIME =     0.02 SECS, INTEGRAL =      0.88 TIME LEFT: 172799.11
 STEP:  50 TIME =     0.02 SECS, INTEGRAL =      0.90 TIME LEFT: 172799.09
 STEP:  51 TIME =     0.02 SECS, INTEGRAL =      0.91 TIME LEFT: 172799.08
 STEP:  52 TIME =     0.02 SECS, INTEGRAL =      0.93 TIME LEFT: 172799.06
 STEP:  53 TIME =     0.02 SECS, INTEGRAL =      0.95 TIME LEFT: 172799.04
 STEP:  54 TIME =     0.02 SECS, INTEGRAL =      0.96 TIME LEFT: 172799.03
 STEP:  55 TIME =     0.02 SECS, INTEGRAL =      0.98 TIME LEFT: 172799.01
 STEP:  56 TIME =     0.02 SECS, INTEGRAL =      1.00 TIME LEFT: 172798.99
 STEP:  57 TIME =     0.02 SECS, INTEGRAL =      1.02 TIME LEFT: 172798.97
 STEP:  58 TIME =     0.02 SECS, INTEGRAL =      1.04 TIME LEFT: 172798.95
 STEP:  59 TIME =     0.02 SECS, INTEGRAL =      1.05 TIME LEFT: 172798.94
 STEP:  60 TIME =     0.02 SECS, INTEGRAL =      1.07 TIME LEFT: 172798.92
 STEP:  61 TIME =     0.02 SECS, INTEGRAL =      1.09 TIME LEFT: 172798.90
 STEP:  62 TIME =     0.02 SECS, INTEGRAL =      1.11 TIME LEFT: 172798.88
 STEP:  63 TIME =     0.02 SECS, INTEGRAL =      1.13 TIME LEFT: 172798.86

(To convert to Hartree/Bohr^2, multiply by (10^(-21) x N x a0^2)/(4.184 x 627.51) =  0.0642)


           FORCE MATRIX IN MILLIDYNES/ANGSTROM


                  O  1       O  2       C  3       C  4       C  5       C  6
 ------------------------------------------------------------------------------
     O    1   9.269922
     O    2   0.004380  11.961183
     C    3   2.952212   0.004387  14.212273
     C    4   0.654697   0.012797   4.319110  14.494171
     C    5   0.016189   0.067919   0.655448   4.186008  14.360729
     C    6   0.003364   0.870095   0.055354   0.655011   4.204039  14.328293
     C    7   0.005111   5.456231   0.011504   0.054003   0.650197   4.014061
     C    8   3.059981   0.002592   3.835742   0.509051   0.046708   0.011013
     C    9   5.002446   0.002469   2.705914   0.096774   0.014255   0.002604
     H   10   0.059526   0.001323   0.411163   4.451430   0.447848   0.028542
     H   11   0.032059   0.001305   0.464384   4.463814   0.442083   0.029002
     H   12   0.344917   0.000584   4.413264   0.431500   0.033108   0.001965
     H   13   0.002007   0.003211   0.034119   0.445232   4.422290   0.442282
     H   14   0.006544   0.003576   0.024710   0.441862   4.459246   0.441505
     H   15   0.001017   0.057571   0.001913   0.029815   0.444741   4.459487
     H   16   0.001135   0.060151   0.002160   0.028929   0.444853   4.455443
     H   17   0.000789   0.430409   0.000734   0.000811   0.026746   0.439894
     H   18   0.000725   0.430735   0.000704   0.000749   0.025684   0.439256
     H   19   0.106071   0.000829   0.304107   0.010356   0.002369   0.000944
     H   20   0.323120   0.000939   0.134218   0.020839   0.002668   0.000888
     H   21   0.001201   8.360345   0.000846   0.003151   0.017736   0.111269


                  C  7       C  8       C  9       H 10       H 11       H 12
 ------------------------------------------------------------------------------
     C    7  14.657631
     C    8   0.003276  18.583179
     C    9   0.003111   9.927861  18.752543
     H   10   0.002174   0.013062   0.019330   5.050728
     H   11   0.001938   0.010173   0.011774   0.562544   5.075472
     H   12   0.000988   0.399316   0.081909   0.017080   0.040546   4.827463
     H   13   0.034310   0.001581   0.001264   0.023350   0.045135   0.026428
     H   14   0.035739   0.002637   0.004885   0.046411   0.025234   0.002225
     H   15   0.458008   0.001148   0.000542   0.001705   0.023123   0.000528
     H   16   0.459112   0.000991   0.000896   0.022270   0.001696   0.000413
     H   17   4.362614   0.000534   0.000335   0.000304   0.000551   0.000255
     H   18   4.371091   0.000662   0.000313   0.000548   0.000320   0.000132
     H   19   0.000807   5.385780   0.391263   0.003181   0.002481   0.006828
     H   20   0.000924   0.368120   5.226218   0.002396   0.001889   0.017710
     H   21   0.811162   0.000595   0.000901   0.000203   0.000293   0.000252


                  H 13       H 14       H 15       H 16       H 17       H 18
 ------------------------------------------------------------------------------
     H   13   5.045660
     H   14   0.567167   5.069094
     H   15   0.045700   0.023669   5.088919
     H   16   0.024154   0.045495   0.572992   5.086582
     H   17   0.021467   0.001205   0.045678   0.021185   4.873754
     H   18   0.001117   0.021288   0.022307   0.045879   0.519140   4.874608
     H   19   0.000637   0.000621   0.000258   0.000267   0.000168   0.000196
     H   20   0.000252   0.000600   0.000242   0.000189   0.000141   0.000135
     H   21   0.000564   0.000597   0.003302   0.003425   0.040506   0.036217


                  H 19       H 20       H 21
 ------------------------------------------
     H   19   5.772607
     H   20   0.011163   5.494437
     H   21   0.000123   0.000191   8.605005


          HEAT OF FORMATION =     -47.479453 KCALS/MOLE

          ZERO POINT ENERGY     111.415 KCAL/MOL


           NORMAL COORDINATE ANALYSIS (Total motion = 1 Angstrom)


   Root No.       1         2         3         4         5         6         7         8

                 1 A       2 A       3 A       4 A       5 A       6 A       7 A       8 A   

                  42.1      49.3      96.0     104.3     111.9     175.5     235.3     262.7
  
           1   -0.0339   -0.0123   -0.0264   -0.0050    0.0160   -0.0012   -0.0221   -0.0436
           2    0.0091   -0.0155   -0.0011   -0.0035   -0.0167   -0.0008    0.0018   -0.0028
           3    0.0006   -0.0309    0.0037   -0.0053   -0.0208   -0.0015    0.0329    0.0018
           4    0.0219   -0.0017    0.0024    0.0043    0.0048   -0.0095    0.0047    0.0488
           5    0.0573   -0.0231   -0.0170    0.0293   -0.0166   -0.0408   -0.0127   -0.0169
           6    0.0209   -0.0177   -0.0176   -0.0007    0.0434   -0.0191    0.0289    0.0176
           7    0.0068   -0.0023   -0.0016   -0.0041    0.0103    0.0001   -0.0078   -0.0271
           8   -0.0142   -0.0210   -0.0151   -0.0037   -0.0129   -0.0016   -0.0061   -0.0095
           9   -0.0038    0.0090   -0.0062    0.0053   -0.0130    0.0009    0.0464   -0.0060
          10   -0.0017   -0.0022   -0.0025   -0.0012   -0.0007   -0.0001   -0.0227   -0.0014
          11   -0.0527   -0.0134   -0.0398   -0.0039    0.0017   -0.0017   -0.0118    0.0363
          12   -0.0170    0.0080   -0.0048    0.0118   -0.0408    0.0007    0.0096    0.0330
          13    0.0009    0.0076    0.0092    0.0107    0.0117    0.0019    0.0108    0.0223
          14   -0.0452    0.0158    0.0157    0.0515    0.0361    0.0061    0.0042    0.0082
          15   -0.0150    0.0157    0.0175    0.0336   -0.0326    0.0034   -0.0253   -0.0041
          16    0.0038   -0.0017    0.0162   -0.0085    0.0161    0.0029    0.0041    0.0255
          17   -0.0279   -0.0154    0.0578   -0.0263    0.0161    0.0133    0.0184   -0.0033
          18   -0.0100   -0.0029    0.0295   -0.0041   -0.0206    0.0052   -0.0444   -0.0165
          19    0.0115    0.0154    0.0094   -0.0045   -0.0165   -0.0031   -0.0192    0.0305
          20    0.0001    0.0441   -0.0046   -0.0421   -0.0082   -0.0146    0.0134   -0.0018
          21   -0.0003    0.0169   -0.0032   -0.0188    0.0005   -0.0064   -0.0217   -0.0134
          22    0.0134    0.0031    0.0094    0.0042   -0.0226    0.0010    0.0259   -0.0169
          23    0.0233    0.0138   -0.0016   -0.0008    0.0049    0.0011    0.0013   -0.0143
          24    0.0090    0.0221   -0.0128   -0.0039    0.0404    0.0013    0.0090   -0.0286
          25   -0.0243   -0.0063   -0.0146    0.0040   -0.0192   -0.0001    0.0337   -0.0452
          26    0.0419    0.0161    0.0108   -0.0013    0.0028    0.0014   -0.0053    0.0021
          27    0.0132   -0.0150   -0.0021   -0.0146    0.0362   -0.0011   -0.0409    0.0070
          28    0.0104   -0.0153   -0.0110   -0.0173   -0.0190   -0.0027   -0.0374   -0.0222
          29   -0.0641   -0.0147   -0.0524   -0.0112   -0.0006   -0.0027   -0.0137    0.0632
          30   -0.0441   -0.0093   -0.0563   -0.0289   -0.0654   -0.0053   -0.0120    0.1010
          31   -0.0207    0.0036   -0.0022    0.0081   -0.0035    0.0009   -0.0521    0.0259
          32   -0.0737   -0.0292   -0.0859   -0.0415   -0.0188   -0.0072   -0.0215    0.0939
          33   -0.0028    0.0177    0.0242    0.0349   -0.0274    0.0041    0.0165   -0.0039
          34    0.0284   -0.0010    0.0029   -0.0107    0.0343   -0.0000   -0.0000   -0.0559
          35   -0.0169   -0.0510   -0.0068   -0.0065   -0.0361   -0.0033   -0.0082   -0.0060
          36   -0.0030    0.0210   -0.0096    0.0064   -0.0035    0.0016    0.0453   -0.0064
          37   -0.0079    0.0237   -0.0192    0.0470    0.0109   -0.0030    0.0229    0.0418
          38   -0.0468    0.0507    0.0315    0.1257    0.0639    0.0078    0.0034   -0.0112
          39   -0.0136   -0.0065    0.0084   -0.0139   -0.0494    0.0025   -0.0247    0.0070
          40    0.0108    0.0065    0.0426   -0.0012    0.0141    0.0075    0.0306    0.0182
          41   -0.0489    0.0284    0.0095    0.0810    0.0439    0.0047   -0.0005    0.0050
          42   -0.0181    0.0579    0.0311    0.1229   -0.0016    0.0044   -0.0195   -0.0202
          43    0.0172   -0.0142    0.0254   -0.0579    0.0197    0.0021    0.0075    0.0170
          44   -0.0373   -0.0699    0.1180   -0.0534    0.0185    0.0353    0.0202   -0.0120
          45   -0.0045    0.0308   -0.0079    0.0140   -0.0218   -0.0082   -0.0447   -0.0102
          46   -0.0132   -0.0095    0.0176    0.0233    0.0387    0.0089    0.0039    0.0288
          47   -0.0250   -0.0311    0.0764   -0.0470    0.0108    0.0184    0.0188   -0.0081
          48   -0.0187   -0.0665    0.0976   -0.0438   -0.0132    0.0298   -0.0404   -0.0272
          49   -0.0260    0.0491    0.0346   -0.0342   -0.0390   -0.0194   -0.0413    0.0207
          50   -0.0088    0.1161   -0.0406   -0.0860   -0.0210   -0.0414    0.0188    0.0022
          51    0.0072   -0.0292    0.0174    0.0098    0.0097    0.0106   -0.0233   -0.0153
          52    0.0469    0.0078   -0.0153    0.0223   -0.0374    0.0032   -0.0415    0.0234
          53   -0.0138    0.0689   -0.0070   -0.0633   -0.0083   -0.0256    0.0186    0.0003
          54   -0.0169    0.1045   -0.0383   -0.0724   -0.0217   -0.0390   -0.0237   -0.0128
          55    0.0388    0.0113    0.0291    0.0091   -0.0434    0.0021    0.0495    0.0030
          56    0.0302    0.0290   -0.0023    0.0007    0.0162    0.0020    0.0037   -0.0241
          57    0.0129    0.0500   -0.0223   -0.0027    0.0719    0.0027    0.0043   -0.0569
          58   -0.0451   -0.0098   -0.0250    0.0082   -0.0338   -0.0003    0.0670   -0.0655
          59    0.0708    0.0328    0.0253   -0.0006    0.0110    0.0027   -0.0138    0.0167
          60    0.0221   -0.0323    0.0025   -0.0266    0.0618   -0.0027   -0.1147    0.0367
          61    0.0266    0.0066   -0.0019    0.0067   -0.0216    0.1383   -0.0290    0.0262
          62    0.0684    0.0052   -0.0553    0.0091   -0.0336    0.6217   -0.0215   -0.0171
          63    0.0237   -0.0070   -0.0392   -0.0169    0.0590    0.2787    0.0579    0.0410


   Root No.       9        10        11        12        13        14        15        16

                 9 A      10 A      11 A      12 A      13 A      14 A      15 A      16 A   

                 337.1     415.1     511.1     570.0     757.5     782.6     797.0     855.6
  
           1   -0.0055    0.0293   -0.0050   -0.0330    0.0122    0.0026   -0.0218   -0.0207
           2   -0.0217    0.0074    0.0125    0.0081    0.0098   -0.0011   -0.0196   -0.0284
           3   -0.0010   -0.0246   -0.0038    0.0333    0.0020    0.0138   -0.0048   -0.0095
           4   -0.0397    0.0152   -0.0509    0.0016    0.0008    0.0011    0.0009   -0.0015
           5    0.0083   -0.0110    0.0139   -0.0020    0.0031   -0.0009    0.0052   -0.0053
           6    0.0007    0.0192   -0.0080    0.0040    0.0011   -0.0008    0.0023   -0.0023
           7    0.0256   -0.0019   -0.0067    0.0250   -0.0062   -0.0070    0.0099    0.0075
           8   -0.0377    0.0197    0.0122   -0.0210   -0.0102   -0.0080    0.0258    0.0394
           9   -0.0025   -0.0101   -0.0056   -0.0446   -0.0009   -0.0041    0.0051    0.0067
          10    0.0243    0.0081    0.0189    0.0457   -0.0112   -0.0171    0.0163    0.0047
          11    0.0156   -0.0281   -0.0165    0.0035   -0.0158   -0.0053    0.0255    0.0003
          12    0.0110    0.0352    0.0331   -0.0182   -0.0001    0.0095    0.0018   -0.0038
          13    0.0074    0.0026    0.0589    0.0018   -0.0039   -0.0042    0.0014   -0.0037
          14    0.0047   -0.0225   -0.0102   -0.0058   -0.0153    0.0045    0.0021   -0.0211
          15    0.0062    0.0418   -0.0075    0.0273   -0.0081   -0.0075    0.0030   -0.0074
          16   -0.0125   -0.0220    0.0455   -0.0131   -0.0020    0.0007   -0.0043    0.0026
          17    0.0098    0.0153    0.0006    0.0044   -0.0134    0.0033   -0.0185    0.0076
          18   -0.0191   -0.0278   -0.0258   -0.0012   -0.0062    0.0011   -0.0069    0.0028
          19   -0.0366   -0.0142   -0.0180   -0.0079   -0.0003    0.0021   -0.0038    0.0035
          20    0.0091    0.0202   -0.0087    0.0087   -0.0059    0.0002   -0.0123    0.0188
          21   -0.0043   -0.0412    0.0300   -0.0169   -0.0007    0.0039   -0.0076    0.0071
          22    0.0601   -0.0136   -0.0310   -0.0184   -0.0030    0.0293    0.0095    0.0099
          23   -0.0159    0.0044    0.0022    0.0028    0.0062   -0.0067   -0.0120   -0.0072
          24   -0.0228   -0.0111   -0.0014    0.0249   -0.0047   -0.0387    0.0041    0.0071
          25   -0.0075   -0.0037   -0.0109    0.0009    0.0027    0.0237   -0.0007    0.0048
          26    0.0204    0.0006   -0.0078   -0.0090    0.0034   -0.0030   -0.0069   -0.0042
          27    0.0296    0.0126   -0.0084   -0.0221    0.0008   -0.0213   -0.0020    0.0070
          28    0.0025    0.0396    0.0269    0.0489   -0.0145   -0.0404    0.0501    0.0764
          29    0.0395   -0.0466   -0.0210    0.0262    0.0185    0.0053   -0.0178   -0.0075
          30    0.0664    0.0038    0.0259    0.0566    0.1053    0.0217   -0.1058    0.0340
          31    0.0551    0.0079    0.0170    0.1157    0.0045   -0.0221   -0.0229   -0.0410
          32    0.0605   -0.0605   -0.0242    0.0530    0.0750    0.0078   -0.0620    0.0439
          33   -0.0183    0.0542    0.0378   -0.0499   -0.0551    0.0011    0.0560   -0.0280
          34    0.0082   -0.0241   -0.0177    0.0718   -0.0036   -0.0507    0.0007    0.0075
          35   -0.0478    0.0327    0.0256   -0.0101   -0.0114    0.0319    0.0407    0.1023
          36    0.0028   -0.0143   -0.0109   -0.0484   -0.0003   -0.0188   -0.0007   -0.0174
          37    0.0176    0.0168    0.0834   -0.0018    0.0411   -0.0117    0.0333    0.0145
          38   -0.0032   -0.0245   -0.0193   -0.0002    0.1111    0.0006   -0.0144    0.0736
          39    0.0113    0.0421   -0.0025    0.0240   -0.0839   -0.0052    0.0123   -0.0641
          40    0.0038    0.0259    0.0880   -0.0078   -0.0059    0.0066   -0.0440    0.0012
          41    0.0036   -0.0276   -0.0191   -0.0011    0.0315   -0.0007    0.0117    0.0109
          42   -0.0001    0.0472   -0.0067    0.0317    0.1383   -0.0134   -0.0116    0.0989
          43   -0.0180   -0.0452    0.0670   -0.0306    0.0483   -0.0017    0.0147    0.0364
          44    0.0053    0.0231   -0.0047    0.0051    0.0930   -0.0181    0.0895   -0.0360
          45   -0.0165   -0.0313   -0.0235   -0.0014   -0.0689    0.0137   -0.0701    0.0273
          46   -0.0105   -0.0488    0.0669   -0.0264   -0.0173    0.0045    0.0040   -0.0396
          47    0.0077    0.0225   -0.0051    0.0070    0.0300   -0.0052    0.0167    0.0075
          48   -0.0253   -0.0289   -0.0238   -0.0073    0.1188   -0.0219    0.1142   -0.0400
          49   -0.0446   -0.0322   -0.0237   -0.0130   -0.0008    0.0039   -0.0045   -0.0011
          50    0.0110    0.0259   -0.0077    0.0091    0.0484   -0.0149    0.0781   -0.0711
          51   -0.0046   -0.0430    0.0301   -0.0166   -0.0326    0.0126   -0.0608    0.0608
          52   -0.0447   -0.0315   -0.0237   -0.0140    0.0150    0.0005    0.0180   -0.0169
          53    0.0109    0.0239   -0.0068    0.0093    0.0068   -0.0036    0.0094   -0.0034
          54   -0.0045   -0.0426    0.0326   -0.0197    0.0595   -0.0114    0.0915   -0.0937
          55    0.1206   -0.0376   -0.0683   -0.0687    0.0012   -0.1694   -0.0244   -0.0224
          56   -0.0246    0.0011    0.0057    0.0338    0.0076    0.1224   -0.0047   -0.0169
          57   -0.0652   -0.0080    0.0209    0.1090   -0.0034    0.3066    0.0326   -0.0002
          58   -0.0579   -0.0139    0.0030    0.0356    0.0076   -0.1106   -0.0279   -0.0108
          59    0.0701   -0.0067   -0.0284   -0.0266   -0.0097    0.0842    0.0314    0.0381
          60    0.0839    0.0510   -0.0133   -0.0859    0.0099    0.1948    0.0062   -0.0208
          61   -0.0384   -0.0319   -0.0050   -0.0170    0.0028    0.0042   -0.0008   -0.0028
          62    0.0073   -0.0202    0.0217   -0.0056    0.0034   -0.0003    0.0052   -0.0059
          63   -0.0015    0.0621   -0.0508    0.0211   -0.0007   -0.0036    0.0041   -0.0013


   Root No.      17        18        19        20        21        22        23        24

                17 A      18 A      19 A      20 A      21 A      22 A      23 A      24 A   

                 894.5     922.8     944.2     969.5    1006.9    1026.0    1040.6    1069.5
  
           1   -0.0055   -0.0073    0.0013    0.0267    0.0300    0.0032   -0.0018    0.0021
           2    0.0336   -0.0238   -0.0229    0.0043   -0.0018   -0.0062    0.0021   -0.0041
           3   -0.0043    0.0061    0.0178    0.0105    0.0216    0.0109   -0.0041    0.0009
           4   -0.0011    0.0004   -0.0012   -0.0001   -0.0002    0.0013    0.0030    0.0010
           5   -0.0027    0.0040   -0.0045   -0.0021    0.0020    0.0047    0.0112    0.0047
           6   -0.0010    0.0019   -0.0019   -0.0010    0.0007    0.0017    0.0051   -0.0090
           7    0.0103   -0.0055   -0.0131   -0.0110   -0.0048   -0.0159    0.0059   -0.0086
           8   -0.0021    0.0124   -0.0150   -0.0071   -0.0063   -0.0046   -0.0003   -0.0089
           9    0.0248   -0.0124   -0.0276   -0.0158    0.0070   -0.0209    0.0046    0.0149
          10    0.0184   -0.0087   -0.0032   -0.0072    0.0081    0.0051   -0.0026    0.0157
          11    0.0110   -0.0166    0.0156    0.0014    0.0069    0.0177   -0.0017   -0.0070
          12   -0.0094   -0.0044    0.0108    0.0075   -0.0047    0.0041    0.0020    0.0017
          13    0.0013    0.0020   -0.0015   -0.0021    0.0007   -0.0070   -0.0011    0.0118
          14   -0.0116    0.0086   -0.0051    0.0025   -0.0079   -0.0153   -0.0066    0.0035
          15   -0.0008    0.0062   -0.0001    0.0005   -0.0011   -0.0034   -0.0029   -0.0150
          16   -0.0020    0.0035   -0.0002    0.0001    0.0027    0.0074    0.0002    0.0240
          17   -0.0024    0.0080   -0.0120   -0.0066    0.0063    0.0147    0.0110   -0.0259
          18    0.0034    0.0002   -0.0086   -0.0069    0.0053    0.0010    0.0031    0.0508
          19    0.0004   -0.0025    0.0048    0.0028   -0.0024   -0.0025   -0.0039   -0.0265
          20    0.0127   -0.0170    0.0177    0.0069   -0.0052   -0.0138   -0.0233    0.0210
          21    0.0004   -0.0051    0.0096    0.0061   -0.0053   -0.0040   -0.0075   -0.0423
          22   -0.0152   -0.0149   -0.0157    0.0001   -0.0068   -0.0040    0.0014   -0.0072
          23   -0.0112    0.0222    0.0331   -0.0174   -0.0108    0.0079   -0.0017    0.0073
          24    0.0199    0.0202   -0.0044    0.0294   -0.0072    0.0016    0.0002   -0.0038
          25   -0.0014    0.0352    0.0331   -0.0260   -0.0165    0.0011    0.0004    0.0012
          26   -0.0233   -0.0042    0.0103   -0.0056    0.0080   -0.0010    0.0005    0.0055
          27   -0.0459   -0.0154    0.0051   -0.0269   -0.0086   -0.0002   -0.0001   -0.0010
          28    0.0489   -0.0040   -0.0414   -0.0532    0.0741    0.1289   -0.0718   -0.0000
          29   -0.0083    0.0038    0.0038    0.0102   -0.0169   -0.0310    0.0166   -0.0020
          30   -0.0421    0.0644   -0.0603   -0.0069   -0.0179   -0.0365   -0.0036    0.0041
          31   -0.0085    0.0142    0.0311    0.0414   -0.0409   -0.0698    0.0402    0.0352
          32   -0.0112    0.0382   -0.0576   -0.0237    0.0047   -0.0085   -0.0136   -0.0063
          33    0.0053   -0.0382    0.0537    0.0210   -0.0018    0.0223    0.0078    0.0008
          34    0.0379    0.0100   -0.0412   -0.0068   -0.0309   -0.1043    0.0469   -0.0680
          35   -0.1176    0.0594   -0.0623    0.1791   -0.0942   -0.0546    0.0282    0.0595
          36    0.0685   -0.0306   -0.0097   -0.0866    0.0409   -0.0012   -0.0067   -0.0106
          37    0.0258   -0.0505    0.0761    0.0330   -0.0244   -0.0300    0.0727   -0.0390
          38    0.0218   -0.0136   -0.0113   -0.0141    0.0201    0.0366   -0.0080    0.0209
          39   -0.0209    0.0206    0.0013    0.0091   -0.0172   -0.0345   -0.0044   -0.0240
          40   -0.0284    0.0584   -0.0676   -0.0325    0.0242    0.0213   -0.0685   -0.0425
          41    0.0096   -0.0179    0.0172    0.0081   -0.0068   -0.0069    0.0165    0.0154
          42    0.0385   -0.0240    0.0069   -0.0113    0.0257    0.0514    0.0075   -0.0285
          43    0.0256   -0.0545    0.0782    0.0399   -0.0217   -0.0112    0.0490    0.0799
          44   -0.0057   -0.0026    0.0121    0.0091   -0.0111   -0.0217   -0.0358   -0.0548
          45    0.0044    0.0080   -0.0248   -0.0172    0.0162    0.0228    0.0289    0.0655
          46   -0.0377    0.0570   -0.0611   -0.0250    0.0191    0.0281   -0.0659    0.0719
          47    0.0090   -0.0150    0.0183    0.0079   -0.0053   -0.0049    0.0170   -0.0344
          48    0.0038   -0.0210    0.0301    0.0164   -0.0172   -0.0432   -0.0419    0.0695
          49   -0.0044    0.0067   -0.0111   -0.0078    0.0126    0.0508    0.1899   -0.0419
          50   -0.0316    0.0455   -0.0503   -0.0211    0.0133    0.0135   -0.0084    0.0408
          51    0.0273   -0.0432    0.0515    0.0237   -0.0176   -0.0248   -0.0322   -0.0524
          52   -0.0085    0.0040    0.0017    0.0056   -0.0153   -0.0577   -0.1878   -0.0671
          53    0.0010    0.0006   -0.0023   -0.0022    0.0038    0.0108    0.0369    0.0277
          54   -0.0512    0.0666   -0.0684   -0.0260    0.0167    0.0376    0.0489   -0.0528
          55    0.0403    0.0161   -0.0279    0.1816   -0.1332    0.1341   -0.0374   -0.0034
          56   -0.0436   -0.0320    0.0018    0.0259   -0.0548    0.0601   -0.0175    0.0066
          57   -0.0671   -0.1054   -0.0665    0.0453   -0.0472    0.0518   -0.0161   -0.0075
          58   -0.1178   -0.0618    0.0109   -0.0855   -0.1062    0.0202   -0.0021    0.0077
          59    0.0109    0.0819    0.0394    0.0961    0.2499   -0.0448    0.0041   -0.0136
          60    0.2034    0.1044    0.0213   -0.0394   -0.1677    0.0206    0.0008    0.0132
          61   -0.0077    0.0048    0.0013    0.0040   -0.0039    0.0081    0.0121   -0.1056
          62   -0.0042    0.0054   -0.0047   -0.0016    0.0018    0.0078    0.0188   -0.0156
          63    0.0050   -0.0018   -0.0048   -0.0051    0.0045   -0.0035    0.0008    0.0893


   Root No.      25        26        27        28        29        30        31        32

                25 A      26 A      27 A      28 A      29 A      30 A      31 A      32 A   

                1095.9    1115.9    1123.9    1130.1    1133.6    1143.8    1156.9    1161.9
  
           1    0.0016   -0.0007    0.0026   -0.0091   -0.0033   -0.0030    0.0032    0.0033
           2   -0.0043   -0.0032   -0.0021    0.0138    0.0011    0.0031   -0.0104   -0.0018
           3    0.0024    0.0010    0.0020   -0.0043   -0.0017   -0.0009    0.0038    0.0018
           4   -0.0215   -0.0004   -0.0061    0.0054   -0.0179    0.0216    0.0131   -0.0038
           5   -0.0002    0.0022    0.0007    0.0004   -0.0005    0.0013   -0.0013    0.0003
           6    0.0120   -0.0032    0.0061   -0.0035    0.0108   -0.0106   -0.0065    0.0013
           7   -0.0006   -0.0083   -0.0032    0.0229   -0.0116    0.0037   -0.0111    0.0056
           8   -0.0027    0.0345   -0.0077    0.0261    0.0258    0.0049    0.0125   -0.0173
           9   -0.0032   -0.0153    0.0082   -0.0530    0.0063   -0.0043    0.0136   -0.0035
          10   -0.0078   -0.0287    0.0109   -0.0136    0.0097    0.0064    0.0092   -0.0116
          11    0.0152   -0.0060   -0.0224   -0.0155   -0.0109    0.0056   -0.0177    0.0050
          12   -0.0125   -0.0234    0.0003    0.0530   -0.0114   -0.0036   -0.0094    0.0095
          13    0.0339    0.0059    0.0057   -0.0072   -0.0066    0.0224    0.0178   -0.0089
          14   -0.0128    0.0035    0.0317    0.0157    0.0084    0.0083    0.0122    0.0211
          15   -0.0008    0.0378   -0.0091   -0.0442    0.0034   -0.0035   -0.0122    0.0114
          16   -0.0122    0.0238   -0.0203   -0.0203    0.0040   -0.0223   -0.0175    0.0053
          17   -0.0029   -0.0195   -0.0231    0.0009   -0.0017   -0.0231    0.0145   -0.0054
          18    0.0229   -0.0032   -0.0099    0.0205   -0.0100    0.0034    0.0156   -0.0055
          19    0.0107   -0.0041    0.0102   -0.0091    0.0123   -0.0126   -0.0102   -0.0015
          20    0.0033    0.0128    0.0158    0.0017   -0.0052    0.0014   -0.0134   -0.0080
          21   -0.0194   -0.0055    0.0067   -0.0049   -0.0108    0.0147    0.0047   -0.0082
          22   -0.0054    0.0043   -0.0052    0.0165    0.0056    0.0025   -0.0148   -0.0022
          23    0.0032   -0.0074    0.0040   -0.0138   -0.0050   -0.0019    0.0046    0.0027
          24   -0.0051   -0.0050   -0.0021    0.0228    0.0033    0.0062   -0.0157   -0.0036
          25    0.0000    0.0017   -0.0013    0.0057    0.0027    0.0017   -0.0004   -0.0035
          26    0.0014   -0.0125    0.0037   -0.0190   -0.0083   -0.0032   -0.0012    0.0066
          27   -0.0008    0.0080   -0.0021    0.0064    0.0069    0.0015    0.0023   -0.0054
          28   -0.0646   -0.0230    0.1441   -0.0115   -0.0239   -0.0590    0.0657    0.0969
          29    0.0223    0.0063   -0.0431   -0.0093    0.0071    0.0204   -0.0204   -0.0238
          30   -0.0446    0.0245    0.0600    0.0786    0.0130   -0.0222    0.0349    0.0179
          31   -0.0829   -0.0560   -0.0438   -0.0286    0.1487   -0.0107    0.0305   -0.1015
          32    0.0214    0.0502    0.0326   -0.0432   -0.0154    0.0045    0.0189    0.0176
          33   -0.0137   -0.0566   -0.0329    0.0717   -0.0135   -0.0019   -0.0337    0.0065
          34    0.0263    0.0698   -0.0515    0.0414   -0.1167   -0.0818    0.0074    0.1135
          35    0.0110   -0.1246    0.0215   -0.1235   -0.0588   -0.0086   -0.0262    0.0274
          36   -0.0099    0.0443   -0.0029    0.0054    0.0413    0.0023    0.0274   -0.0225
          37    0.0849    0.0448    0.0168    0.0396   -0.0844   -0.0866    0.1320   -0.0667
          38   -0.0109   -0.0611   -0.0249    0.0286    0.0097    0.0167   -0.0279   -0.0058
          39   -0.0036    0.0769    0.0244   -0.0536    0.0041   -0.0054    0.0095    0.0319
          40    0.1025   -0.0115   -0.0295    0.0136    0.0226    0.1965   -0.0479    0.0575
          41   -0.0267   -0.0020    0.0192    0.0075   -0.0044   -0.0466    0.0218   -0.0070
          42    0.0218    0.0027   -0.0888   -0.0520   -0.0117   -0.0094   -0.0507   -0.0204
          43   -0.0714    0.0462   -0.0652    0.0064    0.0950    0.0053    0.0084    0.1918
          44   -0.0033    0.0093    0.0531   -0.0244   -0.0149    0.0102   -0.0275   -0.0412
          45    0.0249   -0.0208   -0.0546    0.0352   -0.0060   -0.0179    0.0413    0.0103
          46   -0.0643    0.0610    0.0128    0.0206   -0.0734   -0.1211   -0.1219   -0.1005
          47    0.0106   -0.0192   -0.0107   -0.0104    0.0202    0.0184    0.0353    0.0259
          48    0.0152    0.0372    0.0659    0.0244   -0.0161    0.0496   -0.0241   -0.0090
          49    0.0981   -0.0069    0.1556    0.0294    0.0835   -0.0473   -0.1017    0.0077
          50    0.0040   -0.0082   -0.0606    0.0004    0.0027   -0.0234    0.0261    0.0132
          51   -0.0272    0.0082    0.0415   -0.0068   -0.0237    0.0338   -0.0108   -0.0236
          52    0.0998   -0.0931   -0.0390    0.0460    0.0905   -0.1460    0.0210    0.0404
          53   -0.0195    0.0267    0.0133   -0.0103   -0.0230    0.0303   -0.0104   -0.0140
          54   -0.0235   -0.0369   -0.0550    0.0026   -0.0071    0.0087    0.0523    0.0120
          55    0.0254    0.0802   -0.0020    0.0179    0.0294    0.0021    0.0606   -0.0210
          56    0.0165    0.0350    0.0034   -0.0234    0.0086   -0.0059    0.0428   -0.0050
          57    0.0090    0.0512   -0.0052    0.0057    0.0224   -0.0010    0.0301   -0.0125
          58    0.0006   -0.0164    0.0029   -0.0144   -0.0073   -0.0010   -0.0079    0.0050
          59   -0.0012    0.0377   -0.0077    0.0372    0.0214    0.0054    0.0162   -0.0178
          60    0.0014   -0.0273    0.0052   -0.0319   -0.0149   -0.0051   -0.0083    0.0114
          61   -0.0581   -0.0137   -0.0077   -0.0398   -0.0193    0.0317    0.0167   -0.0141
          62   -0.0078    0.0008    0.0026   -0.0085   -0.0012    0.0047   -0.0016   -0.0021
          63    0.0477    0.0094    0.0102    0.0384    0.0132   -0.0206   -0.0114    0.0109


   Root No.      33        34        35        36        37        38        39        40

                33 A      34 A      35 A      36 A      37 A      38 A      39 A      40 A   

                1170.7    1208.5    1256.9    1301.0    1318.4    1362.1    1378.9    1384.6
  
           1    0.0054    0.0001    0.0036   -0.0104   -0.0192    0.0024   -0.0002   -0.0007
           2   -0.0159    0.0065    0.0016    0.0128    0.0339   -0.0096    0.0013    0.0004
           3    0.0049   -0.0019    0.0009   -0.0103   -0.0244    0.0063   -0.0008   -0.0006
           4    0.0049    0.0118   -0.0177   -0.0111    0.0022   -0.0116   -0.0110    0.0087
           5    0.0007    0.0010   -0.0019   -0.0051    0.0042    0.0041   -0.0039   -0.0009
           6   -0.0023   -0.0079    0.0126    0.0165   -0.0103   -0.0034    0.0141   -0.0024
           7   -0.0113   -0.0118   -0.0244    0.0212   -0.0096    0.0384   -0.0067    0.0033
           8    0.0068   -0.0062    0.0005   -0.0139   -0.0300    0.0041   -0.0004   -0.0015
           9    0.0185   -0.0013   -0.0107    0.0099    0.0046    0.0070   -0.0012    0.0023
          10    0.0005   -0.0167   -0.0252    0.0055   -0.0194    0.0003    0.0008   -0.0046
          11    0.0104    0.0075    0.0072   -0.0004    0.0113   -0.0010    0.0006    0.0093
          12    0.0082   -0.0173   -0.0003    0.0005   -0.0015   -0.0055   -0.0007   -0.0209
          13   -0.0120   -0.0124    0.0026   -0.0201    0.0037   -0.0382    0.0104    0.0135
          14   -0.0032    0.0001    0.0025    0.0055   -0.0017    0.0112   -0.0002    0.0036
          15   -0.0150    0.0055   -0.0084   -0.0034    0.0011   -0.0075   -0.0050   -0.0162
          16   -0.0130   -0.0161    0.0185   -0.0138    0.0206    0.0204   -0.0094    0.0064
          17   -0.0055    0.0063   -0.0101    0.0005   -0.0034   -0.0047    0.0076    0.0014
          18   -0.0018   -0.0004    0.0147    0.0067   -0.0019    0.0015   -0.0139   -0.0066
          19   -0.0047   -0.0170    0.0272    0.0137    0.0019    0.0350    0.0129   -0.0240
          20    0.0063    0.0008   -0.0001    0.0015   -0.0020   -0.0039    0.0144   -0.0001
          21    0.0044    0.0047   -0.0121   -0.0091    0.0026   -0.0087   -0.0399    0.0122
          22   -0.0204    0.0212    0.0260   -0.0215   -0.0080   -0.0160    0.0027   -0.0016
          23    0.0067   -0.0041   -0.0036    0.0002   -0.0035    0.0008   -0.0000   -0.0004
          24   -0.0272    0.0151    0.0145   -0.0106   -0.0036   -0.0076    0.0013   -0.0012
          25   -0.0030   -0.0019   -0.0054    0.0194    0.0417   -0.0096    0.0013    0.0009
          26    0.0031    0.0037    0.0051   -0.0151   -0.0326    0.0090   -0.0013   -0.0000
          27   -0.0002   -0.0022   -0.0045    0.0166    0.0373   -0.0100    0.0014    0.0006
          28    0.0348    0.0675    0.0965   -0.0058    0.0832   -0.0131    0.0017    0.0158
          29   -0.0039   -0.0153   -0.0246    0.0027   -0.0232    0.0231    0.0008    0.0384
          30   -0.0078   -0.0118    0.0131   -0.0001   -0.0201    0.0802    0.0029    0.1377
          31    0.1533    0.0701    0.0933   -0.0192    0.0445   -0.0141   -0.0023   -0.0221
          32   -0.0522   -0.0037   -0.0273   -0.0004   -0.0040   -0.0626   -0.0032   -0.1223
          33    0.0431   -0.0148    0.0170    0.0013    0.0043    0.0394    0.0025    0.0754
          34    0.1957   -0.0644    0.0424   -0.0403    0.0186   -0.0601    0.0098   -0.0110
          35   -0.0160    0.0201   -0.0062    0.0287    0.0511   -0.0030    0.0003    0.0053
          36    0.0246   -0.0108   -0.0088   -0.0061   -0.0281    0.0120   -0.0018   -0.0000
          37   -0.0313    0.1485    0.0198    0.0720   -0.0205    0.0690   -0.0287   -0.0548
          38    0.0257   -0.0469    0.0008   -0.0140   -0.0055   -0.0440   -0.0240   -0.1168
          39   -0.0326    0.0295   -0.0086    0.0057    0.0047    0.0255    0.0146    0.0742
          40    0.1111    0.1025    0.0221    0.0617   -0.0134    0.0665   -0.0191   -0.0222
          41   -0.0309   -0.0287   -0.0025   -0.0175    0.0068   -0.0099    0.0160    0.0477
          42    0.0193    0.0269   -0.0082    0.0029    0.0129    0.0364    0.0310    0.1394
          43   -0.0142    0.0732   -0.0795    0.0616   -0.0628   -0.0309   -0.0025   -0.0371
          44    0.0079   -0.0218    0.0103   -0.0223    0.0226    0.0281   -0.1375   -0.0431
          45   -0.0108    0.0142    0.0059    0.0189   -0.0156   -0.0179    0.0875    0.0270
          46    0.0707    0.0831   -0.0772    0.0641   -0.0661   -0.0340    0.0340   -0.0235
          47   -0.0236   -0.0215    0.0170   -0.0200    0.0187    0.0045    0.0307    0.0229
          48    0.0258    0.0078    0.0092    0.0193   -0.0184   -0.0279    0.1571    0.0535
          49    0.0510    0.0232   -0.0672   -0.0204   -0.0110   -0.0669   -0.0378    0.0455
          50   -0.0246   -0.0198    0.0561    0.0739   -0.0483   -0.0473   -0.1560    0.0477
          51    0.0193    0.0162   -0.0430   -0.0588    0.0383    0.0335    0.0835   -0.0284
          52   -0.0123    0.0322   -0.0726   -0.0316   -0.0014   -0.0515    0.0069    0.0303
          53    0.0043   -0.0077    0.0160   -0.0007    0.0086    0.0303    0.0562   -0.0268
          54   -0.0098    0.0259   -0.0609   -0.0909    0.0635    0.0668    0.1708   -0.0597
          55    0.0585   -0.0551   -0.0484    0.0404    0.0333    0.0112   -0.0020    0.0013
          56    0.0532   -0.0373   -0.0328    0.0230    0.0108    0.0111   -0.0017    0.0011
          57    0.0326   -0.0201   -0.0146    0.0139    0.0170    0.0002   -0.0001    0.0009
          58   -0.0077    0.0104    0.0098   -0.0097   -0.0099   -0.0012    0.0002    0.0001
          59    0.0096   -0.0248   -0.0324    0.0625    0.1102   -0.0163    0.0019    0.0024
          60   -0.0011    0.0143    0.0179   -0.0295   -0.0464    0.0040   -0.0003   -0.0008
          61   -0.0109   -0.0290    0.0542    0.1177   -0.0935   -0.0898    0.0760    0.0229
          62   -0.0016   -0.0068    0.0117    0.0202   -0.0150   -0.0122    0.0133    0.0024
          63    0.0128    0.0295   -0.0537   -0.1036    0.0794    0.0709   -0.0671   -0.0164


   Root No.      41        42        43        44        45        46        47        48

                41 A      42 A      43 A      44 A      45 A      46 A      47 A      48 A   

                1404.3    1418.1    1424.4    1438.6    1751.1    2908.2    2929.2    2943.7
  
           1   -0.0011    0.0001   -0.0005   -0.0001    0.0087   -0.0000   -0.0002   -0.0001
           2    0.0034    0.0024    0.0043    0.0044   -0.0104    0.0000    0.0003   -0.0001
           3   -0.0027   -0.0016   -0.0033   -0.0034    0.0091    0.0000    0.0003    0.0000
           4   -0.0017   -0.0064   -0.0078    0.0054   -0.0000    0.0001    0.0000   -0.0000
           5   -0.0018   -0.0003    0.0055   -0.0017    0.0000    0.0002    0.0000    0.0000
           6    0.0049    0.0039   -0.0085    0.0012   -0.0000    0.0000    0.0000    0.0000
           7   -0.0178   -0.0253   -0.0380   -0.0516    0.0339   -0.0000   -0.0017    0.0002
           8   -0.0024    0.0009   -0.0008    0.0005   -0.0089   -0.0001   -0.0191    0.0019
           9    0.0012   -0.0037   -0.0012   -0.0017    0.0155   -0.0002   -0.0492    0.0049
          10    0.0075    0.0196    0.0316    0.0615   -0.0092    0.0001    0.0020    0.0029
          11    0.0101   -0.0067   -0.0013   -0.0126    0.0033    0.0004    0.0093    0.0136
          12   -0.0266    0.0091   -0.0092    0.0041   -0.0007    0.0001    0.0039    0.0049
          13    0.0111    0.0105    0.0009   -0.0558   -0.0003   -0.0004   -0.0008   -0.0050
          14   -0.0087    0.0092   -0.0018    0.0143   -0.0004   -0.0021   -0.0055   -0.0243
          15    0.0160   -0.0287    0.0037   -0.0066    0.0011   -0.0009   -0.0027   -0.0107
          16   -0.0114   -0.0259   -0.0296    0.0458    0.0004    0.0014    0.0003    0.0024
          17   -0.0037   -0.0035    0.0167   -0.0097    0.0000    0.0067    0.0014    0.0113
          18    0.0146    0.0221   -0.0254    0.0000   -0.0002    0.0027    0.0006    0.0046
          19   -0.0016    0.0194    0.0486   -0.0300   -0.0000   -0.0099    0.0002    0.0006
          20    0.0059    0.0005   -0.0201    0.0087   -0.0000   -0.0475    0.0007    0.0028
          21   -0.0130   -0.0109    0.0230   -0.0056    0.0000   -0.0200    0.0003    0.0012
          22    0.0058    0.0088    0.0121    0.0152    0.0848    0.0000   -0.0004    0.0000
          23   -0.0000    0.0011    0.0014    0.0029    0.1931   -0.0000   -0.0005    0.0001
          24    0.0019    0.0041    0.0048    0.0063   -0.0176    0.0000   -0.0003    0.0000
          25    0.0041    0.0024    0.0047    0.0049   -0.0978    0.0000    0.0007   -0.0001
          26   -0.0034   -0.0038   -0.0059   -0.0077   -0.1844   -0.0000    0.0001   -0.0000
          27    0.0043    0.0034    0.0060    0.0070    0.0064    0.0000   -0.0001    0.0000
          28   -0.0013   -0.0184   -0.0324   -0.0693    0.0071   -0.0009   -0.0190   -0.0326
          29    0.0492   -0.0071    0.0264    0.0219   -0.0003   -0.0030   -0.0673   -0.1068
          30    0.1422   -0.0406    0.0374   -0.0070    0.0008    0.0008    0.0195    0.0318
          31   -0.0507   -0.0170   -0.0594   -0.0889    0.0090   -0.0001   -0.0058   -0.0017
          32   -0.1277    0.0382   -0.0322    0.0128   -0.0027   -0.0017   -0.0449   -0.0572
          33    0.0772   -0.0210    0.0191   -0.0053    0.0023   -0.0026   -0.0712   -0.0915
          34    0.0139    0.0342    0.0426    0.0597   -0.0157    0.0000    0.0093   -0.0007
          35    0.0065   -0.0025    0.0020   -0.0007    0.0379    0.0008    0.2276   -0.0223
          36   -0.0033   -0.0038   -0.0045   -0.0043    0.0059    0.0020    0.5911   -0.0592
          37    0.0119   -0.0479    0.0003    0.0843   -0.0005   -0.0001    0.0026    0.0055
          38    0.0818   -0.1300    0.0187   -0.0166    0.0011    0.0095    0.0272    0.1136
          39   -0.0492    0.0756   -0.0104    0.0077    0.0001    0.0147    0.0438    0.1841
          40   -0.0089   -0.0088   -0.0033    0.0814   -0.0011    0.0052    0.0123    0.0549
          41   -0.0261    0.0525   -0.0059   -0.0232   -0.0006    0.0149    0.0385    0.1799
          42   -0.0924    0.1492   -0.0196    0.0051   -0.0003   -0.0044   -0.0118   -0.0548
          43    0.0494    0.0732    0.0271   -0.0768    0.0002    0.0008   -0.0006   -0.0039
          44    0.0738    0.1070   -0.0909   -0.0040   -0.0002   -0.0313   -0.0058   -0.0484
          45   -0.0438   -0.0617    0.0480    0.0034   -0.0000   -0.0473   -0.0096   -0.0810
          46    0.0255    0.0397    0.0495   -0.0707    0.0003   -0.0185   -0.0030   -0.0253
          47   -0.0355   -0.0536    0.0171    0.0276    0.0001   -0.0519   -0.0107   -0.0883
          48   -0.0881   -0.1272    0.0919    0.0159    0.0000    0.0132    0.0030    0.0255
          49   -0.0062   -0.0349   -0.0558    0.0394    0.0001    0.0260   -0.0003   -0.0016
          50   -0.0455   -0.0293    0.0708   -0.0170    0.0001    0.2022   -0.0028   -0.0117
          51    0.0230    0.0152   -0.0297    0.0056   -0.0000    0.3358   -0.0049   -0.0204
          52    0.0070   -0.0242   -0.0732    0.0418   -0.0000    0.0910   -0.0015   -0.0052
          53    0.0157    0.0203   -0.0063   -0.0063   -0.0001    0.3639   -0.0060   -0.0218
          54    0.0484    0.0361   -0.0609    0.0097   -0.0000   -0.0964    0.0016    0.0063
          55   -0.0040   -0.0060   -0.0083   -0.0101   -0.0741   -0.0000    0.0006   -0.0000
          56   -0.0030   -0.0044   -0.0055   -0.0060    0.1723    0.0000   -0.0003    0.0001
          57    0.0007   -0.0010   -0.0004   -0.0015   -0.1076   -0.0000   -0.0003    0.0000
          58    0.0008    0.0002    0.0006    0.0001   -0.2015    0.0000    0.0059   -0.0007
          59    0.0068    0.0026    0.0066    0.0064   -0.0729    0.0000    0.0031   -0.0004
          60   -0.0011    0.0000   -0.0004   -0.0003   -0.0981    0.0000    0.0017   -0.0002
          61    0.0353   -0.0002   -0.1180    0.0429   -0.0001    0.0002   -0.0000   -0.0000
          62    0.0056    0.0006   -0.0176    0.0063   -0.0001    0.0009   -0.0000   -0.0000
          63   -0.0298   -0.0013    0.0967   -0.0351    0.0000    0.0004   -0.0000   -0.0000


   Root No.      49        50        51        52        53        54        55        56

                49 A      50 A      51 A      52 A      53 A      54 A      55 A      56 A   

                2957.5    2962.5    2968.8    3028.4    3032.4    3038.8    3161.8    3239.2
  
           1    0.0002    0.0001    0.0000   -0.0000    0.0001    0.0000    0.0010   -0.0010
           2    0.0001    0.0000    0.0000   -0.0000    0.0000   -0.0000   -0.0006    0.0020
           3   -0.0000   -0.0000    0.0000   -0.0000    0.0000    0.0000    0.0008   -0.0013
           4    0.0000   -0.0000    0.0002   -0.0000    0.0000    0.0002    0.0000   -0.0000
           5    0.0000   -0.0000    0.0004    0.0000   -0.0000   -0.0001   -0.0000   -0.0000
           6    0.0000   -0.0000   -0.0010   -0.0000    0.0000    0.0001   -0.0000    0.0000
           7   -0.0002   -0.0001   -0.0000    0.0003   -0.0003    0.0001    0.0022   -0.0015
           8   -0.0013   -0.0004   -0.0000   -0.0002    0.0001   -0.0000    0.0009   -0.0004
           9   -0.0032   -0.0009   -0.0001   -0.0004    0.0007   -0.0001    0.0015   -0.0008
          10   -0.0056   -0.0028   -0.0001    0.0024   -0.0055    0.0003   -0.0001   -0.0000
          11   -0.0262   -0.0130   -0.0003    0.0027   -0.0083    0.0007    0.0000   -0.0001
          12   -0.0095   -0.0047   -0.0001   -0.0106    0.0278   -0.0024    0.0000    0.0000
          13   -0.0011   -0.0035    0.0000   -0.0060   -0.0025   -0.0015   -0.0000    0.0000
          14   -0.0055   -0.0174   -0.0008   -0.0106   -0.0051   -0.0017    0.0000   -0.0000
          15   -0.0025   -0.0079    0.0003    0.0237    0.0116    0.0042    0.0000   -0.0000
          16    0.0041   -0.0047    0.0004    0.0004   -0.0002   -0.0074    0.0000   -0.0000
          17    0.0190   -0.0221   -0.0007    0.0013   -0.0003   -0.0114   -0.0000   -0.0000
          18    0.0077   -0.0090   -0.0009   -0.0038    0.0007    0.0323   -0.0000    0.0000
          19    0.0006   -0.0005   -0.0064   -0.0002   -0.0001    0.0003   -0.0000    0.0000
          20    0.0028   -0.0024   -0.0150    0.0002    0.0001   -0.0005    0.0000    0.0000
          21    0.0013   -0.0015    0.0377   -0.0004   -0.0001    0.0012   -0.0000    0.0000
          22   -0.0000   -0.0000    0.0000    0.0000   -0.0001    0.0000    0.0043    0.0091
          23   -0.0001   -0.0000   -0.0000   -0.0000    0.0000    0.0000   -0.0024   -0.0676
          24   -0.0000   -0.0000   -0.0000   -0.0000    0.0000   -0.0000    0.0035    0.0303
          25    0.0001    0.0000    0.0000    0.0000   -0.0000   -0.0000   -0.0593    0.0127
          26    0.0000    0.0000   -0.0000    0.0000    0.0000   -0.0000   -0.0396    0.0111
          27   -0.0000   -0.0000    0.0000   -0.0000   -0.0000   -0.0000   -0.0213    0.0037
          28    0.0606    0.0287    0.0005   -0.0325    0.0837   -0.0085   -0.0003    0.0002
          29    0.2066    0.1029    0.0022   -0.1127    0.2976   -0.0266   -0.0007    0.0001
          30   -0.0639   -0.0326   -0.0007    0.0246   -0.0657    0.0059    0.0002   -0.0000
          31    0.0057    0.0041    0.0001    0.0063   -0.0174    0.0006    0.0001   -0.0001
          32    0.1078    0.0522    0.0011    0.0770   -0.1959    0.0179    0.0001   -0.0000
          33    0.1779    0.0883    0.0019    0.1077   -0.2722    0.0247    0.0000   -0.0001
          34   -0.0010   -0.0010   -0.0000    0.0003    0.0015    0.0001    0.0000   -0.0007
          35    0.0141    0.0040    0.0003    0.0019   -0.0029    0.0004   -0.0019   -0.0003
          36    0.0384    0.0111    0.0007    0.0054   -0.0064    0.0012   -0.0055    0.0001
          37    0.0041    0.0030    0.0008   -0.0131   -0.0071   -0.0014   -0.0000    0.0000
          38    0.0257    0.0814   -0.0010   -0.1640   -0.0775   -0.0277   -0.0001    0.0001
          39    0.0439    0.1353   -0.0000   -0.2271   -0.1078   -0.0376   -0.0001    0.0001
          40    0.0095    0.0393    0.0039    0.0864    0.0396    0.0150    0.0000    0.0000
          41    0.0403    0.1257    0.0092    0.2942    0.1371    0.0482    0.0001   -0.0001
          42   -0.0131   -0.0409   -0.0023   -0.0648   -0.0297   -0.0103   -0.0000    0.0000
          43   -0.0048    0.0030   -0.0004    0.0024    0.0006   -0.0184    0.0000    0.0000
          44   -0.0813    0.0937    0.0101    0.0276   -0.0042   -0.2243    0.0001   -0.0001
          45   -0.1378    0.1596    0.0153    0.0400   -0.0051   -0.3196    0.0001   -0.0001
          46   -0.0442    0.0538   -0.0024   -0.0122    0.0030    0.1067   -0.0000    0.0000
          47   -0.1488    0.1723   -0.0044   -0.0433    0.0067    0.3645   -0.0000    0.0001
          48    0.0444   -0.0523    0.0004    0.0091   -0.0012   -0.0761    0.0000   -0.0000
          49   -0.0024    0.0032   -0.0374   -0.0000   -0.0002   -0.0018    0.0000   -0.0000
          50   -0.0118    0.0126   -0.2584    0.0029    0.0010   -0.0051   -0.0000    0.0000
          51   -0.0215    0.0231   -0.3664    0.0039    0.0012   -0.0076   -0.0000   -0.0000
          52   -0.0043    0.0023    0.1067   -0.0017   -0.0007    0.0011    0.0000   -0.0000
          53   -0.0211    0.0151    0.4374   -0.0047   -0.0015    0.0086   -0.0000   -0.0001
          54    0.0066   -0.0055   -0.0809    0.0009    0.0002   -0.0015    0.0000    0.0000
          55   -0.0000   -0.0000   -0.0000    0.0000   -0.0002    0.0000   -0.0214   -0.1375
          56   -0.0001   -0.0000    0.0001    0.0001   -0.0000   -0.0001    0.1090    0.7018
          57   -0.0000    0.0000   -0.0000   -0.0001    0.0000    0.0000   -0.0529   -0.3413
          58    0.0006    0.0002    0.0000   -0.0002    0.0002    0.0000    0.6363   -0.0887
          59    0.0003    0.0001    0.0000   -0.0001    0.0001    0.0000    0.3922   -0.0547
          60    0.0002    0.0001    0.0000   -0.0000    0.0001    0.0000    0.2391   -0.0333
          61   -0.0000    0.0001   -0.0032   -0.0001    0.0000    0.0008    0.0000   -0.0000
          62   -0.0000    0.0000   -0.0021    0.0001    0.0000   -0.0003   -0.0000    0.0000
          63   -0.0000   -0.0001    0.0067   -0.0001   -0.0000    0.0003    0.0000   -0.0000


   Root No.      57

                57 A   

                3908.8
  
           1    0.0000
           2    0.0000
           3   -0.0000
           4   -0.0375
           5    0.0246
           6   -0.0362
           7   -0.0000
           8    0.0000
           9    0.0000
          10   -0.0000
          11   -0.0000
          12    0.0000
          13    0.0000
          14   -0.0000
          15    0.0000
          16    0.0003
          17   -0.0001
          18    0.0001
          19   -0.0019
          20    0.0006
          21   -0.0005
          22    0.0000
          23    0.0000
          24   -0.0000
          25   -0.0000
          26   -0.0000
          27    0.0000
          28    0.0000
          29    0.0000
          30   -0.0000
          31    0.0000
          32   -0.0000
[...]
 T-DIPOLE    0.6277         O  1 -- C  9          +7.7% ( 35.7%)     96.9%
 TRAVEL      0.0968         C  3 -- C  8          +7.1% ( 34.3%)     95.5%
 RED. MASS   0.3686         C  3 -- C  9          +6.1% ( 31.8%)      1.1%
 EFF. MASS   5.5291

 VIBRATION   37   37A         ATOM PAIR      ENERGY CONTRIBUTION    RADIAL
 FREQ.      1318.39         O  1 -- C  9         +22.2% ( 66.6%)     94.3%
 T-DIPOLE    0.7270         C  9 -- H 20         +13.6% ( 52.0%)      4.8%
 TRAVEL      0.0777         C  3 -- C  9         +12.8% ( 50.5%)     83.5%
 RED. MASS   1.6950         C  8 -- C  9          +9.8% ( 44.2%)      0.9%
 EFF. MASS   8.4636

 VIBRATION   38   38A         ATOM PAIR      ENERGY CONTRIBUTION    RADIAL
 FREQ.      1362.06         C  5 -- H 13          +7.9% ( 39.7%)      0.1%
 T-DIPOLE    0.3413         C  5 -- C  6          +7.5% ( 38.8%)     65.7%
 TRAVEL      0.0870         C  3 -- C  8          +7.3% ( 38.1%)     71.6%
 RED. MASS   0.7133         C  5 -- H 14          +7.3% ( 38.1%)      0.1%
 EFF. MASS   6.5376

 VIBRATION   39   39A         ATOM PAIR      ENERGY CONTRIBUTION    RADIAL
 FREQ.      1378.89         C  7 -- H 17         +21.5% ( 48.7%)      6.0%
 T-DIPOLE    0.2896         C  7 -- H 18         +21.3% ( 48.4%)      6.3%
 TRAVEL      0.1271         O  2 -- C  7         +12.5% ( 37.1%)     56.7%
 RED. MASS   0.3905         C  6 -- H 16         +11.7% ( 35.9%)      2.0%
 EFF. MASS   3.0266         C  6 -- H 15         +11.6% ( 35.8%)      2.1%

 VIBRATION   40   40A         ATOM PAIR      ENERGY CONTRIBUTION    RADIAL
 FREQ.      1384.63         C  5 -- H 14         +14.4% ( 38.8%)      3.4%
 T-DIPOLE    0.2318         C  4 -- H 11         +14.4% ( 38.8%)      3.9%
 TRAVEL      0.1353         C  5 -- H 13         +14.3% ( 38.7%)      3.5%
 RED. MASS   0.2274         C  4 -- H 10         +14.0% ( 38.3%)      4.0%
 EFF. MASS   2.6601

 VIBRATION   41   41A         ATOM PAIR      ENERGY CONTRIBUTION    RADIAL
 FREQ.      1404.35         C  4 -- H 11         +16.8% ( 44.7%)      4.6%
 T-DIPOLE    0.0636         C  4 -- H 10         +15.2% ( 42.5%)      6.1%
 TRAVEL      0.1199         C  4 -- C  5          +8.2% ( 31.3%)     60.9%
 RED. MASS   0.2467         C  3 -- C  4          +7.3% ( 29.5%)     73.1%
 EFF. MASS   3.3401

 VIBRATION   42   42A         ATOM PAIR      ENERGY CONTRIBUTION    RADIAL
 FREQ.      1418.05         C  5 -- H 14         +11.8% ( 40.9%)      5.5%
 T-DIPOLE    0.1195         C  5 -- H 13         +11.7% ( 40.8%)      5.7%
 TRAVEL      0.1039         C  6 -- H 16         +11.2% ( 39.7%)      4.4%
 RED. MASS   0.3511         C  6 -- H 15         +11.2% ( 39.7%)      4.4%
 EFF. MASS   4.4051

 VIBRATION   43   43A         ATOM PAIR      ENERGY CONTRIBUTION    RADIAL
 FREQ.      1424.38         C  6 -- C  7         +14.5% ( 53.2%)     96.4%
 T-DIPOLE    0.3633         C  7 -- H 18          +9.7% ( 43.6%)      1.1%
 TRAVEL      0.0832         C  7 -- H 17          +9.7% ( 43.6%)      1.1%
 RED. MASS   1.0364         C  3 -- C  4          +7.9% ( 39.4%)     90.0%
 EFF. MASS   6.8314

 VIBRATION   44   44A         ATOM PAIR      ENERGY CONTRIBUTION    RADIAL
 FREQ.      1438.62         C  4 -- C  5         +12.6% ( 55.8%)     63.5%
 T-DIPOLE    0.4840         C  3 -- C  4         +12.4% ( 55.4%)     78.2%
 TRAVEL      0.0723         C  5 -- C  6          +9.7% ( 49.0%)     74.1%
 RED. MASS   1.5005         C  4 -- H 11          +7.2% ( 42.1%)      0.0%
 EFF. MASS   8.9695

 VIBRATION   45   45A         ATOM PAIR      ENERGY CONTRIBUTION    RADIAL
 FREQ.      1751.12         C  8 -- C  9         +35.6% (102.5%)    100.0%
 T-DIPOLE    0.6752         C  3 -- C  9         +11.5% ( 58.3%)     64.6%
 TRAVEL      0.0565         C  3 -- C  8         +11.3% ( 57.9%)      5.3%
 RED. MASS   4.7901         O  1 -- C  8         +11.3% ( 57.8%)     66.1%
 EFF. MASS  12.0718         O  1 -- C  9         +10.8% ( 56.5%)      0.0%

 VIBRATION   46   46A         ATOM PAIR      ENERGY CONTRIBUTION    RADIAL
 FREQ.      2908.22         C  7 -- H 17         +48.2% ( 72.2%)     96.3%
 T-DIPOLE    0.2055         C  7 -- H 18         +47.0% ( 71.2%)     96.2%
 TRAVEL      0.1214         C  6 -- C  7          +1.3% ( 11.6%)      0.0%
 RED. MASS   0.5017         O  2 -- C  7          +1.2% ( 11.3%)      0.0%
 EFF. MASS   1.5721

 VIBRATION   47   47A         ATOM PAIR      ENERGY CONTRIBUTION    RADIAL
 FREQ.      2929.15         C  3 -- H 12         +91.5% ( 97.9%)    100.0%
 T-DIPOLE    0.1093         C  4 -- H 11          +1.8% ( 13.6%)     96.4%
 TRAVEL      0.1255         C  4 -- H 10          +1.3% ( 11.8%)     95.3%
 RED. MASS   0.8543         C  3 -- C  4          +1.1% ( 10.7%)     11.5%
 EFF. MASS   1.4613

 VIBRATION   48   48A         ATOM PAIR      ENERGY CONTRIBUTION    RADIAL
 FREQ.      2943.74         C  5 -- H 13         +34.0% ( 60.7%)     96.8%
 T-DIPOLE    0.0724         C  5 -- H 14         +28.3% ( 55.4%)     95.8%
 TRAVEL      0.1215         C  4 -- H 10          +9.8% ( 32.7%)     96.6%
 RED. MASS   0.2418         C  4 -- H 11          +8.6% ( 30.6%)     95.9%
 EFF. MASS   1.5512

 VIBRATION   49   49A         ATOM PAIR      ENERGY CONTRIBUTION    RADIAL
 FREQ.      2957.51         C  4 -- H 10         +32.1% ( 58.8%)     96.9%
 T-DIPOLE    0.0622         C  4 -- H 11         +27.9% ( 54.8%)     96.2%
 TRAVEL      0.1218         C  6 -- H 16         +16.7% ( 42.4%)     96.5%
 RED. MASS   0.2563         C  6 -- H 15         +16.5% ( 42.1%)     96.5%
 EFF. MASS   1.5367

 VIBRATION   50   50A         ATOM PAIR      ENERGY CONTRIBUTION    RADIAL
 FREQ.      2962.46         C  6 -- H 16         +25.2% ( 51.9%)     96.7%
 T-DIPOLE    0.0928         C  6 -- H 15         +24.5% ( 51.1%)     96.6%
 TRAVEL      0.1222         C  5 -- H 13         +17.5% ( 43.3%)     97.3%
 RED. MASS   0.2004         C  5 -- H 14         +13.6% ( 38.2%)     96.1%
 EFF. MASS   1.5247

 VIBRATION   51   51A         ATOM PAIR      ENERGY CONTRIBUTION    RADIAL
 FREQ.      2968.78         C  7 -- H 18         +50.1% ( 69.9%)     97.7%
 T-DIPOLE    0.1097         C  7 -- H 17         +48.4% ( 68.7%)     97.5%
 TRAVEL      0.1333         O  2 -- C  7          +0.7% (  8.1%)     31.7%
 RED. MASS   0.4830         C  6 -- C  7          +0.7% (  8.1%)     37.1%
 EFF. MASS   1.2789

 VIBRATION   52   52A         ATOM PAIR      ENERGY CONTRIBUTION    RADIAL
 FREQ.      3028.36         C  5 -- H 14         +45.7% ( 66.6%)     98.3%
 T-DIPOLE    0.0434         C  5 -- H 13         +36.1% ( 59.2%)     97.0%
 TRAVEL      0.1321         C  4 -- H 11          +8.2% ( 28.2%)     98.2%
 RED. MASS   0.3478         C  4 -- H 10          +6.6% ( 25.3%)     97.2%
 EFF. MASS   1.2759

 VIBRATION   53   53A         ATOM PAIR      ENERGY CONTRIBUTION    RADIAL
 FREQ.      3032.38         C  4 -- H 11         +44.5% ( 65.6%)     98.0%
 T-DIPOLE    0.1115         C  4 -- H 10         +39.1% ( 61.5%)     97.3%
 TRAVEL      0.1324         C  5 -- H 14          +8.4% ( 28.5%)     98.1%
 RED. MASS   0.3582         C  5 -- H 13          +6.9% ( 25.8%)     96.9%
 EFF. MASS   1.2690

 VIBRATION   54   54A         ATOM PAIR      ENERGY CONTRIBUTION    RADIAL
 FREQ.      3038.83         C  6 -- H 15         +48.8% ( 68.8%)     97.8%
 T-DIPOLE    0.0735         C  6 -- H 16         +47.9% ( 68.1%)     97.7%
 TRAVEL      0.1322         C  5 -- H 14          +0.9% (  9.1%)     97.8%
 RED. MASS   0.4633         C  5 -- H 13          +0.7% (  8.2%)     96.5%
 EFF. MASS   1.2687

 VIBRATION   55   55A         ATOM PAIR      ENERGY CONTRIBUTION    RADIAL
 FREQ.      3161.76         C  9 -- H 20         +91.6% ( 98.9%)    100.0%
 T-DIPOLE    0.5674         C  8 -- H 19          +2.1% ( 15.0%)     98.9%
 TRAVEL      0.1149         C  3 -- C  9          +2.1% ( 14.9%)     95.6%
 RED. MASS   0.8936         O  1 -- C  9          +2.1% ( 14.9%)     25.9%
 EFF. MASS   1.6164

 VIBRATION   56   56A         ATOM PAIR      ENERGY CONTRIBUTION    RADIAL
 FREQ.      3239.17         C  8 -- H 19         +91.6% ( 98.8%)    100.0%
 T-DIPOLE    0.5649         C  8 -- C  9          +2.4% ( 16.0%)     78.5%
 TRAVEL      0.1121         O  1 -- C  8          +2.0% ( 14.5%)     99.6%
 RED. MASS   0.8941         C  3 -- C  8          +1.9% ( 14.4%)     41.7%
 EFF. MASS   1.6553

 VIBRATION   57   57A         ATOM PAIR      ENERGY CONTRIBUTION    RADIAL
 FREQ.      3908.81         O  2 -- H 21         +99.6% (100.0%)    100.0%
 T-DIPOLE    0.1996         O  2 -- C  7          +0.4% (  6.3%)      7.5%
 TRAVEL      0.1115
 RED. MASS   0.9481
 EFF. MASS   1.3888

      SYMMETRY NUMBER FOR POINT-GROUP C1  =  1


          SYSTEM IS A GROUND STATE



 InChI=1S/C7H12O2/c8-5-2-1-3-7-4-6-9-7/h4,6-8H,1-3,5H2


          MOLECULE IS NOT LINEAR

          THERE ARE 57 GENUINE VIBRATIONS IN THIS SYSTEM
          THIS THERMODYNAMICS CALCULATION IS LIMITED TO
          MOLECULES WHICH HAVE NO INTERNAL ROTATIONS




                    CALCULATED THERMODYNAMIC PROPERTIES
                                          *
   TEMP. (K)   PARTITION FUNCTION   H.O.F.    ENTHALPY  HEAT CAPACITY ENTROPY
                                   KCAL/MOL   CAL/MOLE    CAL/K/MOL  CAL/K/MOL


 298.00  VIB.     0.3124D+04                  4668.8286    30.0365    31.6580
         ROT.     0.6531D+06                   888.2813     2.9808    29.5886
         INT.     0.2040D+10                  5557.1099    33.0173    61.2466
         TRA.     0.1403D+28                  1480.4688     4.9680    40.4556
         TOT.                      -47.479    7037.5787    37.9853   101.7022

 200.00  VIB.     0.2189D+03                  2239.5515    19.9857    21.9059
         ROT.     0.3591D+06                   596.1620     2.9808    28.3999
         INT.     0.7860D+08                  2835.7134    22.9665    50.3058
         TRA.     0.7713D+27                   993.6033     4.9680    38.4745
         TOT.                      -50.688    3829.3167    27.9345    88.7803

 210.00  VIB.     0.2897D+03                  2443.8201    20.8740    22.9024
         ROT.     0.3864D+06                   625.9700     2.9808    28.5454
         INT.     0.1119D+09                  3069.7902    23.8549    51.4477
         TRA.     0.8299D+27                  1043.2834     4.9680    38.7168
         TOT.                      -50.404    4113.0736    28.8229    90.1646

 220.00  VIB.     0.3824D+03                  2657.1535    21.7987    23.8946
         ROT.     0.4143D+06                   655.7781     2.9808    28.6840
         INT.     0.1584D+09                  3312.9316    24.7795    52.5787
         TRA.     0.8899D+27                  1092.9636     4.9680    38.9480
         TOT.                      -50.111    4405.8952    29.7475    91.5266

 230.00  VIB.     0.5034D+03                  2879.9121    22.7589    24.8847
         ROT.     0.4429D+06                   685.5862     2.9808    28.8165
         INT.     0.2230D+09                  3565.4983    25.7397    53.7012
         TRA.     0.9512D+27                  1142.6437     4.9680    39.1688
         TOT.                      -49.809    4708.1421    30.7077    92.8700

 240.00  VIB.     0.6614D+03                  3112.4451    23.7532    25.8742
         ROT.     0.4721D+06                   715.3943     2.9808    28.9434
         INT.     0.3122D+09                  3827.8394    26.7340    54.8176
         TRA.     0.1014D+28                  1192.3239     4.9680    39.3802
         TOT.                      -49.497    5020.1633    31.7020    94.1978

 250.00  VIB.     0.8673D+03                  3355.0809    24.7790    26.8645
         ROT.     0.5019D+06                   745.2024     2.9808    29.0651
         INT.     0.4353D+09                  4100.2833    27.7598    55.9296
         TRA.     0.1078D+28                  1242.0041     4.9680    39.5830
         TOT.                      -49.175    5342.2874    32.7278    95.5126

 260.00  VIB.     0.1135D+04                  3608.1204    25.8334    27.8568
         ROT.     0.5323D+06                   775.0105     2.9808    29.1820
         INT.     0.6043D+09                  4383.1309    28.8142    57.0388
         TRA.     0.1143D+28                  1291.6842     4.9680    39.7779
         TOT.                      -48.842    5674.8152    33.7822    96.8167

 270.00  VIB.     0.1484D+04                  3871.8318    26.9128    28.8519
         ROT.     0.5633D+06                   804.8186     2.9808    29.2945
         INT.     0.8360D+09                  4676.6504    29.8936    58.1464
         TRA.     0.1210D+28                  1341.3644     4.9680    39.9654
         TOT.                      -48.499    6018.0148    34.8616    98.1118

 280.00  VIB.     0.1938D+04                  4146.4471    28.0135    29.8505
         ROT.     0.5949D+06                   834.6267     2.9808    29.4029
         INT.     0.1153D+10                  4981.0738    30.9943    59.2534
         TRA.     0.1278D+28                  1391.0445     4.9680    40.1461
         TOT.                      -48.145    6372.1184    35.9624    99.3995

 290.00  VIB.     0.2527D+04                  4432.1607    29.1318    30.8530
         ROT.     0.6270D+06                   864.4348     2.9808    29.5075
         INT.     0.1585D+10                  5296.5956    32.1126    60.3605
         TRA.     0.1347D+28                  1440.7247     4.9680    40.3204
         TOT.                      -47.780    6737.3203    37.0806   100.6809

 300.00  VIB.     0.3294D+04                  4729.1287    30.2638    31.8597
         ROT.     0.6597D+06                   894.2429     2.9808    29.6085
         INT.     0.2173D+10                  5623.3717    33.2446    61.4682
         TRA.     0.1417D+28                  1490.4049     4.9680    40.4888
         TOT.                      -47.403    7113.7765    38.2126   101.9570

 310.00  VIB.     0.4289D+04                  5037.4693    31.4057    32.8706
         ROT.     0.6930D+06                   924.0510     2.9808    29.7063
         INT.     0.2972D+10                  5961.5203    34.3865    62.5769
         TRA.     0.1488D+28                  1540.0850     4.9680    40.6517
         TOT.                      -47.015    7501.6053    39.3545   103.2286

 320.00  VIB.     0.5582D+04                  5357.2640    32.5540    33.8858
         ROT.     0.7268D+06                   953.8591     2.9808    29.8009
         INT.     0.4057D+10                  6311.1231    35.5348    63.6868
         TRA.     0.1561D+28                  1589.7652     4.9680    40.8094
         TOT.                      -46.616    7900.8883    40.5029   104.4962

 330.00  VIB.     0.7262D+04                  5688.5599    33.7054    34.9052
         ROT.     0.7611D+06                   983.6672     2.9808    29.8926
         INT.     0.5527D+10                  6672.2272    36.6862    64.7978
         TRA.     0.1635D+28                  1639.4454     4.9680    40.9623
         TOT.                      -46.205    8311.6725    41.6542   105.7602

 340.00  VIB.     0.9444D+04                  6031.3717    34.8567    35.9285
         ROT.     0.7960D+06                  1013.4753     2.9808    29.9816
         INT.     0.7517D+10                  7044.8470    37.8375    65.9101
         TRA.     0.1710D+28                  1689.1255     4.9680    41.1106
         TOT.                      -45.783    8733.9725    42.8055   107.0208

 350.00  VIB.     0.1228D+05                  6385.6841    36.0051    36.9555
         ROT.     0.8314D+06                  1043.2834     2.9808    30.0680
         INT.     0.1021D+11                  7428.9675    38.9859    67.0235
         TRA.     0.1786D+28                  1738.8057     4.9680    41.2546
         TOT.                      -45.349    9167.7732    43.9539   108.2782

 360.00  VIB.     0.1596D+05                  6751.4548    37.1480    37.9858
         ROT.     0.8672D+06                  1073.0915     2.9808    30.1520
         INT.     0.1384D+11                  7824.5463    40.1288    68.1378
         TRA.     0.1863D+28                  1788.4859     4.9680    41.3946
         TOT.                      -44.904    9613.0321    45.0968   109.5324

 370.00  VIB.     0.2074D+05                  7128.6173    38.2831    39.0191
         ROT.     0.9036D+06                  1102.8996     2.9808    30.2337
         INT.     0.1874D+11                  8231.5169    41.2639    69.2528
         TRA.     0.1941D+28                  1838.1660     4.9680    41.5307
         TOT.                      -44.447   10069.6829    46.2319   110.7835

 380.00  VIB.     0.2695D+05                  7517.0834    39.4084    40.0550
         ROT.     0.9405D+06                  1132.7077     2.9808    30.3132
         INT.     0.2535D+11                  8649.7911    42.3892    70.3682
         TRA.     0.2020D+28                  1887.8462     4.9680    41.6632
         TOT.                      -43.979   10537.6373    47.3572   112.0314

 390.00  VIB.     0.3503D+05                  7916.7462    40.5221    41.0931
         ROT.     0.9779D+06                  1162.5158     2.9808    30.3906
         INT.     0.3425D+11                  9079.2620    43.5029    71.4837
         TRA.     0.2100D+28                  1937.5263     4.9680    41.7923
         TOT.                      -43.500   11016.7884    48.4710   113.2760

 400.00  VIB.     0.4551D+05                  8327.4825    41.6228    42.1330
         ROT.     0.1016D+07                  1192.3239     2.9808    30.4661
         INT.     0.4623D+11                  9519.8064    44.6036    72.5990
         TRA.     0.2182D+28                  1987.2065     4.9680    41.9180
         TOT.                      -43.010   11507.0129    49.5717   114.5171

   *: NOTE: HEATS OF FORMATION ARE RELATIVE TO THE
            ELEMENTS IN THEIR STANDARD STATE AT 298K
              (=  Standard Enthalpy of Formation).

            Hvib:  Zero-point energy is not included.
                   frequencies of less than zero cm-1 are not included.
            Hrot = (3/2)RT
            Htra = (3/2)RT + pV = (5/2)RT

            Heat capacity is Cp, not Cv

          For more information, see: HTTP://OpenMOPAC.net/Manual/thermochemistry.html


           FORCE CONSTANT IN CARTESIAN COORDINATES (Millidynes/A)

    ATOM   CHEMICAL       X               Y               Z
   NUMBER   SYMBOL  FORCE CONSTANT  FORCE CONSTANT  FORCE CONSTANT

      1       O        3.878260        6.438654        3.024962
      2       O        8.612853        2.161334        6.016237
      3       C        9.687030        5.696612        8.487096
      4       C        8.520460        8.268251        8.312549
      5       C        8.364971        8.202512        8.304523
      6       C        8.386740        8.156916        8.270645
      7       C        8.687721        8.091404        8.572755
      8       C        6.155283       15.575319        4.596661
      9       C       10.759436       11.781185        4.118408
     10       H        1.010751        4.379636        0.947362
     11       H        0.748092        1.997940        3.662898
     12       H        0.746097        1.097931        4.195715
     13       H        0.763829        1.973281        3.661546
     14       H        1.066769        4.385447        0.952066
     15       H        0.760305        1.952605        3.729870
     16       H        1.088494        4.409696        0.942638
     17       H        0.729942        1.879967        3.549945
     18       H        0.933504        4.359076        0.864267
     19       H        0.683948        4.602431        1.360088
     20       H        3.725955        1.788370        0.872313
     21       H        4.267386        1.574544        3.628452

 **********************
 *                    *
 * JOB ENDED NORMALLY *
 *                    *
 **********************



 TOTAL JOB TIME:             1.98 SECONDS

 == MOPAC DONE ==
