 *******************************************************************************
 ** Site#: 14399        For non-commercial use only    Version 18.184L 64BITS **
 *******************************************************************************
 ** Cite this program as: MOPAC2016, Version: 18.184L, James J. P. Stewart,   **
 ** Stewart Computational Chemistry, web: HTTP://OpenMOPAC.net. Days left:  18**
 *******************************************************************************
 **                                                                           **
 **                                MOPAC2016                                  **
 **                                                                           **
 *******************************************************************************

                              PM3 CALCULATION RESULTS

 *******************************************************************************
 *  CALCULATION DONE:                                Sat Jun 15 10:12:58 2019  *
 *  PM3        - The PM3 Hamiltonian to be used
 *  PRECISE    - CRITERIA TO BE INCREASED BY 100 TIMES
 *  NOSYM      - POINT-GROUP SYMMETRY SET TO C1
 *  THREADS=1  - MULTI-THREADING NOT USED
 *  T=         - A TIME OF 172800.0 SECONDS REQUESTED
 *  DUMP=N     - RESTART FILE WRITTEN EVERY  7200.000 SECONDS
 *******************************************************************************
pm3  precise nosym THREADS=1
 InChI=1S/C10H10/c1-2-3-7-10-8-5-4-6-9-10/h3-8H,1,9H2

   ATOM   CHEMICAL          X               Y               Z
  NUMBER   SYMBOL      (ANGSTROMS)     (ANGSTROMS)     (ANGSTROMS)
 
     1       C         -0.94490000  *  -1.11320000  *   0.02730000  *
     2       C         -0.39090000  *   0.30060000  *  -0.01230000  *
     3       C         -2.45110000  *  -1.17880000  *   0.01790000  *
     4       C         -1.32440000  *   1.44870000  *  -0.05480000  *
     5       C          0.93320000  *   0.54260000  *  -0.00970000  *
     6       C         -3.22270000  *  -0.08960000  *  -0.02170000  *
     7       C         -2.64370000  *   1.26090000  *  -0.05900000  *
     8       C          1.96000000  *  -0.51600000  *   0.03080000  *
     9       C          4.48960000  *   0.11440000  *   0.03050000  *
    10       C          3.22580000  *  -0.20080000  *   0.03070000  *
    11       H         -0.58710000  *  -1.61940000  *   0.94920000  *
    12       H         -0.57340000  *  -1.67520000  *  -0.85610000  *
    13       H         -2.92220000  *  -2.15350000  *   0.04440000  *
    14       H          1.27820000  *   1.57160000  *  -0.03890000  *
    15       H         -0.94140000  *   2.46240000  *  -0.08330000  *
    16       H         -3.30580000  *   2.11690000  *  -0.09050000  *
    17       H         -4.29970000  *  -0.19890000  *  -0.02650000  *
    18       H          1.69270000  *  -1.56330000  *   0.06120000  *
    19       H          5.24070000  *  -0.66290000  *   0.06030000  *
    20       H          4.78720000  *   1.15360000  *   0.00060000  *
 


          CARTESIAN COORDINATES 

    NO.       ATOM           X           Y           Z

     1         C         -0.9449     -1.1132      0.0273
     2         C         -0.3909      0.3006     -0.0123
     3         C         -2.4511     -1.1788      0.0179
     4         C         -1.3244      1.4487     -0.0548
     5         C          0.9332      0.5426     -0.0097
     6         C         -3.2227     -0.0896     -0.0217
     7         C         -2.6437      1.2609     -0.0590
     8         C          1.9600     -0.5160      0.0308
     9         C          4.4896      0.1144      0.0305
    10         C          3.2258     -0.2008      0.0307
    11         H         -0.5871     -1.6194      0.9492
    12         H         -0.5734     -1.6752     -0.8561
    13         H         -2.9222     -2.1535      0.0444
    14         H          1.2782      1.5716     -0.0389
    15         H         -0.9414      2.4624     -0.0833
    16         H         -3.3058      2.1169     -0.0905
    17         H         -4.2997     -0.1989     -0.0265
    18         H          1.6927     -1.5633      0.0612
    19         H          5.2407     -0.6629      0.0603
    20         H          4.7872      1.1536      0.0006

  H: (PM3): J. J. P. STEWART, J. COMP. CHEM. 10, 209 (1989).
  C: (PM3): J. J. P. STEWART, J. COMP. CHEM. 10, 209 (1989).

           Empirical Formula: C10 H10  =    20 atoms



      MOLECULAR POINT GROUP   :   C1  


      RHF CALCULATION, NO. OF DOUBLY OCCUPIED LEVELS = 25


          Geometry optimization using EF

          DIAGONAL MATRIX USED AS START HESSIAN

 CYCLE:     1 TIME:   0.008 TIME LEFT:  2.00D  GRAD.:   103.195 HEAT:  141.5614
 CYCLE:     2 TIME:   0.008 TIME LEFT:  2.00D  GRAD.:   131.492 HEAT:  135.6751
 CYCLE:     3 TIME:   0.004 TIME LEFT:  2.00D  GRAD.:   144.455 HEAT:  129.9112
 CYCLE:     4 TIME:   0.004 TIME LEFT:  2.00D  GRAD.:    88.037 HEAT:  120.7718
 CYCLE:     5 TIME:   0.004 TIME LEFT:  2.00D  GRAD.:   128.093 HEAT:  113.4350
 CYCLE:     6 TIME:   0.004 TIME LEFT:  2.00D  GRAD.:   155.008 HEAT:  107.1202
 CYCLE:     7 TIME:   0.008 TIME LEFT:  2.00D  GRAD.:   188.350 HEAT:  102.7135
 CYCLE:     8 TIME:   0.004 TIME LEFT:  2.00D  GRAD.:   197.369 HEAT:  99.38180
 CYCLE:     9 TIME:   0.004 TIME LEFT:  2.00D  GRAD.:   141.518 HEAT:  95.68114
 CYCLE:    10 TIME:   0.004 TIME LEFT:  2.00D  GRAD.:   109.710 HEAT:  94.63528
 CYCLE:    11 TIME:   0.008 TIME LEFT:  2.00D  GRAD.:    77.610 HEAT:  91.14508
 CYCLE:    12 TIME:   0.008 TIME LEFT:  2.00D  GRAD.:    61.066 HEAT:  90.32689
 CYCLE:    13 TIME:   0.004 TIME LEFT:  2.00D  GRAD.:    42.999 HEAT:  89.80368
 CYCLE:    14 TIME:   0.008 TIME LEFT:  2.00D  GRAD.:    33.185 HEAT:  89.35898
 CYCLE:    15 TIME:   0.004 TIME LEFT:  2.00D  GRAD.:    25.387 HEAT:  89.12101
 CYCLE:    16 TIME:   0.004 TIME LEFT:  2.00D  GRAD.:    23.509 HEAT:  88.78561
 CYCLE:    17 TIME:   0.008 TIME LEFT:  2.00D  GRAD.:    31.550 HEAT:  88.59785
 CYCLE:    18 TIME:   0.004 TIME LEFT:  2.00D  GRAD.:    25.111 HEAT:  88.16804
 CYCLE:    19 TIME:   0.004 TIME LEFT:  2.00D  GRAD.:    51.019 HEAT:  88.15577
 CYCLE:    20 TIME:   0.004 TIME LEFT:  2.00D  GRAD.:    26.314 HEAT:  87.59791
 CYCLE:    21 TIME:   0.012 TIME LEFT:  2.00D  GRAD.:    21.010 HEAT:  87.37398
 CYCLE:    22 TIME:   0.004 TIME LEFT:  2.00D  GRAD.:    12.485 HEAT:  87.20240
 CYCLE:    23 TIME:   0.004 TIME LEFT:  2.00D  GRAD.:    16.504 HEAT:  86.99437
 CYCLE:    24 TIME:   0.004 TIME LEFT:  2.00D  GRAD.:    16.812 HEAT:  86.72234
 CYCLE:    25 TIME:   0.004 TIME LEFT:  2.00D  GRAD.:    16.035 HEAT:  86.34651
 CYCLE:    26 TIME:   0.004 TIME LEFT:  2.00D  GRAD.:    29.300 HEAT:  86.28346
 CYCLE:    27 TIME:   0.004 TIME LEFT:  2.00D  GRAD.:    14.735 HEAT:  86.09097
 CYCLE:    28 TIME:   0.004 TIME LEFT:  2.00D  GRAD.:    11.341 HEAT:  86.01906
 CYCLE:    29 TIME:   0.008 TIME LEFT:  2.00D  GRAD.:     6.797 HEAT:  85.94532
 CYCLE:    30 TIME:   0.004 TIME LEFT:  2.00D  GRAD.:     6.430 HEAT:  85.88074
 CYCLE:    31 TIME:   0.004 TIME LEFT:  2.00D  GRAD.:     5.760 HEAT:  85.84334
 CYCLE:    32 TIME:   0.004 TIME LEFT:  2.00D  GRAD.:     4.556 HEAT:  85.81699
 CYCLE:    33 TIME:   0.004 TIME LEFT:  2.00D  GRAD.:     4.831 HEAT:  85.79769
 CYCLE:    34 TIME:   0.004 TIME LEFT:  2.00D  GRAD.:     3.936 HEAT:  85.76547
 CYCLE:    35 TIME:   0.004 TIME LEFT:  2.00D  GRAD.:     4.309 HEAT:  85.74087
 CYCLE:    36 TIME:   0.004 TIME LEFT:  2.00D  GRAD.:     5.175 HEAT:  85.73653
 CYCLE:    37 TIME:   0.004 TIME LEFT:  2.00D  GRAD.:     2.124 HEAT:  85.72117
 CYCLE:    38 TIME:   0.004 TIME LEFT:  2.00D  GRAD.:     1.535 HEAT:  85.71640
 CYCLE:    39 TIME:   0.004 TIME LEFT:  2.00D  GRAD.:     1.562 HEAT:  85.71130
 CYCLE:    40 TIME:   0.004 TIME LEFT:  2.00D  GRAD.:     1.008 HEAT:  85.70894
 CYCLE:    41 TIME:   0.008 TIME LEFT:  2.00D  GRAD.:     0.938 HEAT:  85.70732
 CYCLE:    42 TIME:   0.004 TIME LEFT:  2.00D  GRAD.:     0.857 HEAT:  85.70615
 CYCLE:    43 TIME:   0.004 TIME LEFT:  2.00D  GRAD.:     0.760 HEAT:  85.70493
 CYCLE:    44 TIME:   0.004 TIME LEFT:  2.00D  GRAD.:     0.705 HEAT:  85.70344
 CYCLE:    45 TIME:   0.004 TIME LEFT:  2.00D  GRAD.:     0.867 HEAT:  85.70209
 CYCLE:    46 TIME:   0.004 TIME LEFT:  2.00D  GRAD.:     1.081 HEAT:  85.69954
 CYCLE:    47 TIME:   0.004 TIME LEFT:  2.00D  GRAD.:     1.395 HEAT:  85.69502
 CYCLE:    48 TIME:   0.004 TIME LEFT:  2.00D  GRAD.:     1.831 HEAT:  85.68915
 CYCLE:    49 TIME:   0.004 TIME LEFT:  2.00D  GRAD.:     1.491 HEAT:  85.68453
 CYCLE:    50 TIME:   0.004 TIME LEFT:  2.00D  GRAD.:     1.361 HEAT:  85.67821
 CYCLE:    51 TIME:   0.008 TIME LEFT:  2.00D  GRAD.:     1.435 HEAT:  85.67545
 CYCLE:    52 TIME:   0.004 TIME LEFT:  2.00D  GRAD.:     1.138 HEAT:  85.67258
 CYCLE:    53 TIME:   0.004 TIME LEFT:  2.00D  GRAD.:     0.802 HEAT:  85.67096
 CYCLE:    54 TIME:   0.004 TIME LEFT:  2.00D  GRAD.:     0.691 HEAT:  85.66970
 CYCLE:    55 TIME:   0.004 TIME LEFT:  2.00D  GRAD.:     0.711 HEAT:  85.66874
 CYCLE:    56 TIME:   0.004 TIME LEFT:  2.00D  GRAD.:     0.611 HEAT:  85.66779
 CYCLE:    57 TIME:   0.004 TIME LEFT:  2.00D  GRAD.:     0.481 HEAT:  85.66718
 CYCLE:    58 TIME:   0.004 TIME LEFT:  2.00D  GRAD.:     0.413 HEAT:  85.66683
 CYCLE:    59 TIME:   0.004 TIME LEFT:  2.00D  GRAD.:     0.426 HEAT:  85.66651
 CYCLE:    60 TIME:   0.004 TIME LEFT:  2.00D  GRAD.:     0.453 HEAT:  85.66608
 CYCLE:    61 TIME:   0.004 TIME LEFT:  2.00D  GRAD.:     0.422 HEAT:  85.66569
 CYCLE:    62 TIME:   0.004 TIME LEFT:  2.00D  GRAD.:     0.373 HEAT:  85.66537
 CYCLE:    63 TIME:   0.008 TIME LEFT:  2.00D  GRAD.:     0.345 HEAT:  85.66507
 CYCLE:    64 TIME:   0.004 TIME LEFT:  2.00D  GRAD.:     0.322 HEAT:  85.66480
 CYCLE:    65 TIME:   0.004 TIME LEFT:  2.00D  GRAD.:     0.279 HEAT:  85.66457
 CYCLE:    66 TIME:   0.004 TIME LEFT:  2.00D  GRAD.:     0.235 HEAT:  85.66437
 CYCLE:    67 TIME:   0.004 TIME LEFT:  2.00D  GRAD.:     0.220 HEAT:  85.66422
 CYCLE:    68 TIME:   0.004 TIME LEFT:  2.00D  GRAD.:     0.240 HEAT:  85.66408
 CYCLE:    69 TIME:   0.004 TIME LEFT:  2.00D  GRAD.:     0.271 HEAT:  85.66393
 CYCLE:    70 TIME:   0.004 TIME LEFT:  2.00D  GRAD.:     0.300 HEAT:  85.66371
 CYCLE:    71 TIME:   0.004 TIME LEFT:  2.00D  GRAD.:     0.303 HEAT:  85.66349
 CYCLE:    72 TIME:   0.004 TIME LEFT:  2.00D  GRAD.:     0.296 HEAT:  85.66325
 CYCLE:    73 TIME:   0.008 TIME LEFT:  2.00D  GRAD.:     0.309 HEAT:  85.66306
 CYCLE:    74 TIME:   0.004 TIME LEFT:  2.00D  GRAD.:     0.359 HEAT:  85.66280
 CYCLE:    75 TIME:   0.004 TIME LEFT:  2.00D  GRAD.:     0.351 HEAT:  85.66254
 CYCLE:    76 TIME:   0.004 TIME LEFT:  2.00D  GRAD.:     0.289 HEAT:  85.66225
 CYCLE:    77 TIME:   0.004 TIME LEFT:  2.00D  GRAD.:     0.154 HEAT:  85.66217
 CYCLE:    78 TIME:   0.004 TIME LEFT:  2.00D  GRAD.:     0.101 HEAT:  85.66211
 CYCLE:    79 TIME:   0.004 TIME LEFT:  2.00D  GRAD.:     0.097 HEAT:  85.66209
 CYCLE:    80 TIME:   0.004 TIME LEFT:  2.00D  GRAD.:     0.317 HEAT:  85.66203
 CYCLE:    81 TIME:   0.004 TIME LEFT:  2.00D  GRAD.:     0.132 HEAT:  85.66197
 CYCLE:    82 TIME:   0.004 TIME LEFT:  2.00D  GRAD.:     0.139 HEAT:  85.66192
 CYCLE:    83 TIME:   0.008 TIME LEFT:  2.00D  GRAD.:     0.176 HEAT:  85.66185
 CYCLE:    84 TIME:   0.004 TIME LEFT:  2.00D  GRAD.:     0.256 HEAT:  85.66172
 CYCLE:    85 TIME:   0.004 TIME LEFT:  2.00D  GRAD.:     0.229 HEAT:  85.66155
 CYCLE:    86 TIME:   0.004 TIME LEFT:  2.00D  GRAD.:     0.246 HEAT:  85.66135
 CYCLE:    87 TIME:   0.004 TIME LEFT:  2.00D  GRAD.:     0.268 HEAT:  85.66115
 CYCLE:    88 TIME:   0.004 TIME LEFT:  2.00D  GRAD.:     0.332 HEAT:  85.66076
 CYCLE:    89 TIME:   0.004 TIME LEFT:  2.00D  GRAD.:     0.350 HEAT:  85.66040
 CYCLE:    90 TIME:   0.004 TIME LEFT:  2.00D  GRAD.:     0.375 HEAT:  85.65961
 CYCLE:    91 TIME:   0.004 TIME LEFT:  2.00D  GRAD.:     0.505 HEAT:  85.65907
 CYCLE:    92 TIME:   0.008 TIME LEFT:  2.00D  GRAD.:     0.355 HEAT:  85.65870
 CYCLE:    93 TIME:   0.004 TIME LEFT:  2.00D  GRAD.:     0.322 HEAT:  85.65832
 CYCLE:    94 TIME:   0.004 TIME LEFT:  2.00D  GRAD.:     0.222 HEAT:  85.65820
 CYCLE:    95 TIME:   0.004 TIME LEFT:  2.00D  GRAD.:     0.233 HEAT:  85.65804
 CYCLE:    96 TIME:   0.004 TIME LEFT:  2.00D  GRAD.:     0.116 HEAT:  85.65797
 CYCLE:    97 TIME:   0.004 TIME LEFT:  2.00D  GRAD.:     0.081 HEAT:  85.65793
 CYCLE:    98 TIME:   0.004 TIME LEFT:  2.00D  GRAD.:     0.064 HEAT:  85.65792
 CYCLE:    99 TIME:   0.004 TIME LEFT:  2.00D  GRAD.:     0.240 HEAT:  85.65798
 CYCLE:   100 TIME:   0.004 TIME LEFT:  2.00D  GRAD.:     0.037 HEAT:  85.65790

     GRADIENT =  0.03745  IS LESS THAN CUTOFF =  0.05000



 -------------------------------------------------------------------------------
 pm3  precise nosym THREADS=1
 InChI=1S/C10H10/c1-2-3-7-10-8-5-4-6-9-10/h3-8H,1,9H2



     GEOMETRY OPTIMISED USING EIGENVECTOR FOLLOWING (EF).     
     SCF FIELD WAS ACHIEVED                                   


                              PM3 CALCULATION
                                                       MOPAC2016 (Version: 18.184L)
                                                       Sat Jun 15 10:12:59 2019
                                                       No. of days remaining =  18




          FINAL HEAT OF FORMATION =         85.65790 KCAL/MOL =     358.39266 KJ/MOL


          TOTAL ENERGY            =      -1336.01646 EV
          ELECTRONIC ENERGY       =      -6657.29313 EV  POINT GROUP:     C1  
          CORE-CORE REPULSION     =       5321.27667 EV
          COSMO AREA              =        186.89 SQUARE ANGSTROMS
          COSMO VOLUME            =        181.94 CUBIC ANGSTROMS

          GRADIENT NORM           =          0.03745 = 0.00837 PER ATOM
          IONIZATION POTENTIAL    =          8.233244 EV
          HOMO LUMO ENERGIES (EV) =         -8.233 -0.520
          NO. OF FILLED LEVELS    =         25
          MOLECULAR WEIGHT        =        130.1890

          MOLECULAR DIMENSIONS (Angstroms)

            Atom       Atom       Distance
            H    20    H    17     9.43782
            H    15    H    13     4.52549
            H    12    H    19     2.28123


          SCF CALCULATIONS        =        107
 
          WALL-CLOCK TIME         =          0.461 SECONDS
          COMPUTATION TIME        =          0.427 SECONDS




   ATOM   CHEMICAL          X               Y               Z
  NUMBER   SYMBOL      (ANGSTROMS)     (ANGSTROMS)     (ANGSTROMS)
 
     1       C         -0.95887896  *  -1.08588136  *  -0.02951181  *
     2       C         -0.39607491  *   0.29838393  *   0.00044256  *
     3       C         -2.44081841  *  -1.16870935  *  -0.03815320  *
     4       C         -1.32596538  *   1.41960796  *   0.01796937  *
     5       C          0.93197453  *   0.54482156  *   0.01182251  *
     6       C         -3.23014104  *  -0.08634377  *  -0.02066041  *
     7       C         -2.65823193  *   1.24188765  *   0.00808624  *
     8       C          1.95490422  *  -0.48345992  *  -0.00358189  *
     9       C          4.49334662  *   0.09268385  *   0.03137449  *
    10       C          3.22993690  *  -0.18908635  *   0.01404123  *
    11       H         -0.58359514  *  -1.65488969  *   0.84763497  *
    12       H         -0.57521571  *  -1.61989749  *  -0.92486265  *
    13       H         -2.86567490  *  -2.17848588  *  -0.05998198  *
    14       H          1.28936379  *   1.58319135  *   0.03427971  *
    15       H         -0.89630167  *   2.42862082  *   0.03986071  *
    16       H         -3.34523033  *   2.09419557  *   0.02152082  *
    17       H         -4.32136535  *  -0.17347845  *  -0.02746265  *
    18       H          1.65163121  *  -1.53833651  *  -0.03084077  *
    19       H          5.05321262  *   0.19754275  *   0.95703172  *
    20       H          5.06886645  *   0.24069666  *  -0.87865050  *

                             CARTESIAN COORDINATES

   1    C       -0.958878958    -1.085881357    -0.029511811
   2    C       -0.396074907     0.298383927     0.000442562
   3    C       -2.440818409    -1.168709354    -0.038153202
   4    C       -1.325965375     1.419607963     0.017969375
   5    C        0.931974527     0.544821561     0.011822509
   6    C       -3.230141036    -0.086343771    -0.020660410
   7    C       -2.658231931     1.241887645     0.008086240
   8    C        1.954904219    -0.483459921    -0.003581886
   9    C        4.493346622     0.092683850     0.031374493
  10    C        3.229936898    -0.189086351     0.014041225
  11    H       -0.583595135    -1.654889694     0.847634966
  12    H       -0.575215711    -1.619897491    -0.924862651
  13    H       -2.865674900    -2.178485883    -0.059981976
  14    H        1.289363789     1.583191347     0.034279711
  15    H       -0.896301670     2.428620824     0.039860713
  16    H       -3.345230326     2.094195571     0.021520824
  17    H       -4.321365346    -0.173478451    -0.027462650
  18    H        1.651631205    -1.538336514    -0.030840772
  19    H        5.053212617     0.197542755     0.957031723
  20    H        5.068866449     0.240696658    -0.878650501


           Empirical Formula: C10 H10  =    20 atoms



      MOLECULAR POINT GROUP   :   C1  


                  EIGENVALUES  
 -40.02082 -35.11893 -31.36503 -30.34675 -27.29585 -24.05561 -21.61875 -19.82885
 -17.94021 -17.78025 -16.69881 -15.90051 -15.38962 -15.26692 -14.98466 -14.83534
 -14.40335 -13.37106 -12.62182 -11.98849 -11.84780 -11.43936 -10.37416  -9.93857
  -8.23324  -0.51961   0.71332   1.07255   1.81345   2.44463   2.91632   3.16767
   3.34122   3.38263   3.62464   3.73370   3.83342   4.12578   4.16538   4.36684
   4.42468   4.72351   4.82362   4.88641   5.24013   5.37272   5.73053   6.11105
   6.25919   6.50772


              NET ATOMIC CHARGES AND DIPOLE CONTRIBUTIONS

  ATOM NO.   TYPE          CHARGE      No. of ELECS.   s-Pop       p-Pop       
    1          C          -0.020082        4.0201     1.13114     2.88894
    2          C          -0.070738        4.0707     1.18253     2.88821
    3          C          -0.128311        4.1283     1.19571     2.93260
    4          C          -0.095679        4.0957     1.18185     2.91383
    5          C          -0.110771        4.1108     1.17752     2.93325
    6          C          -0.116228        4.1162     1.17793     2.93830
    7          C          -0.095490        4.0955     1.17974     2.91575
    8          C          -0.051377        4.0514     1.14424     2.90714
    9          C          -0.095555        4.0956     1.14696     2.94859
   10          C          -0.167019        4.1670     1.21644     2.95058
   11          H           0.067681        0.9323     0.93232
   12          H           0.067654        0.9323     0.93235
   13          H           0.098760        0.9012     0.90124
   14          H           0.105309        0.8947     0.89469
   15          H           0.102398        0.8976     0.89760
   16          H           0.101530        0.8985     0.89847
   17          H           0.102861        0.8971     0.89714
   18          H           0.112295        0.8877     0.88770
   19          H           0.096378        0.9036     0.90362
   20          H           0.096383        0.9036     0.90362
 DIPOLE           X         Y         Z       TOTAL
 POINT-CHG.     0.017    -0.305    -0.005     0.306
 HYBRID         0.072    -0.030    -0.000     0.078
 SUM            0.089    -0.335    -0.005     0.347


          ATOMIC ORBITAL ELECTRON POPULATIONS

     Atom    s        px        py        pz   
    1  C   1.13114   0.93602   0.94437   1.00854
    2  C   1.18253   0.94178   0.94648   0.99995
    3  C   1.19571   0.95683   0.97974   0.99603
    4  C   1.18185   0.94516   0.96494   1.00373
    5  C   1.17752   0.92466   0.97831   1.03028
    6  C   1.17793   0.98128   0.93899   1.01803
    7  C   1.17974   0.95625   0.96190   0.99759
    8  C   1.14424   0.89561   0.97637   1.03516
    9  C   1.14696   0.91945   1.02233   1.00681
   10  C   1.21644   0.96754   0.99037   0.99266
   11  H   0.93232
   12  H   0.93235
   13  H   0.90124
   14  H   0.89469
   15  H   0.89760
   16  H   0.89847
   17  H   0.89714
   18  H   0.88770
   19  H   0.90362
   20  H   0.90362
 *******************************************************************************
 ** Site#: 14399        For non-commercial use only    Version 18.184L 64BITS **
 *******************************************************************************
 ** Cite this program as: MOPAC2016, Version: 18.184L, James J. P. Stewart,   **
 ** Stewart Computational Chemistry, web: HTTP://OpenMOPAC.net. Days left:  18**
 *******************************************************************************
 **                                                                           **
 **                                MOPAC2016                                  **
 **                                                                           **
 *******************************************************************************

                              PM3 CALCULATION RESULTS

 *******************************************************************************
 *  CALCULATION DONE:                                Sat Jun 15 10:12:59 2019  *
 *  PM3        - The PM3 Hamiltonian to be used
 *  OLDGEO     - PREVIOUS GEOMETRY TO BE USED
 *  PRECISE    - CRITERIA TO BE INCREASED BY 100 TIMES
 *  NOSYM      - POINT-GROUP SYMMETRY SET TO C1
 *  THREADS=1  - MULTI-THREADING NOT USED
 *  T=         - A TIME OF 172800.0 SECONDS REQUESTED
 *  DUMP=N     - RESTART FILE WRITTEN EVERY  7200.000 SECONDS
 *  THERMO     - THERMODYNAMIC QUANTITIES TO BE CALCULATED
 *******************************************************************************
oldgeo thermo nosym precise THREADS=1  pm3
 InChI=1S/C10H10/c1-2-3-7-10-8-5-4-6-9-10/h3-8H,1,9H2

   ATOM   CHEMICAL          X               Y               Z
  NUMBER   SYMBOL      (ANGSTROMS)     (ANGSTROMS)     (ANGSTROMS)
 
     1       C         -0.95887896  *  -1.08588136  *  -0.02951181  *
     2       C         -0.39607491  *   0.29838393  *   0.00044256  *
     3       C         -2.44081841  *  -1.16870935  *  -0.03815320  *
     4       C         -1.32596538  *   1.41960796  *   0.01796937  *
     5       C          0.93197453  *   0.54482156  *   0.01182251  *
     6       C         -3.23014104  *  -0.08634377  *  -0.02066041  *
     7       C         -2.65823193  *   1.24188765  *   0.00808624  *
     8       C          1.95490422  *  -0.48345992  *  -0.00358189  *
     9       C          4.49334662  *   0.09268385  *   0.03137449  *
    10       C          3.22993690  *  -0.18908635  *   0.01404123  *
    11       H         -0.58359514  *  -1.65488969  *   0.84763497  *
    12       H         -0.57521571  *  -1.61989749  *  -0.92486265  *
    13       H         -2.86567490  *  -2.17848588  *  -0.05998198  *
    14       H          1.28936379  *   1.58319135  *   0.03427971  *
    15       H         -0.89630167  *   2.42862082  *   0.03986071  *
    16       H         -3.34523033  *   2.09419557  *   0.02152082  *
    17       H         -4.32136535  *  -0.17347845  *  -0.02746265  *
    18       H          1.65163121  *  -1.53833651  *  -0.03084077  *
    19       H          5.05321262  *   0.19754275  *   0.95703172  *
    20       H          5.06886645  *   0.24069666  *  -0.87865050  *
 


          CARTESIAN COORDINATES 

    NO.       ATOM           X           Y           Z

     1         C         -0.9589     -1.0859     -0.0295
     2         C         -0.3961      0.2984      0.0004
     3         C         -2.4408     -1.1687     -0.0382
     4         C         -1.3260      1.4196      0.0180
     5         C          0.9320      0.5448      0.0118
     6         C         -3.2301     -0.0863     -0.0207
     7         C         -2.6582      1.2419      0.0081
     8         C          1.9549     -0.4835     -0.0036
     9         C          4.4933      0.0927      0.0314
    10         C          3.2299     -0.1891      0.0140
    11         H         -0.5836     -1.6549      0.8476
    12         H         -0.5752     -1.6199     -0.9249
    13         H         -2.8657     -2.1785     -0.0600
    14         H          1.2894      1.5832      0.0343
    15         H         -0.8963      2.4286      0.0399
    16         H         -3.3452      2.0942      0.0215
    17         H         -4.3214     -0.1735     -0.0275
    18         H          1.6516     -1.5383     -0.0308
    19         H          5.0532      0.1975      0.9570
    20         H          5.0689      0.2407     -0.8787

  H: (PM3): J. J. P. STEWART, J. COMP. CHEM. 10, 209 (1989).
  C: (PM3): J. J. P. STEWART, J. COMP. CHEM. 10, 209 (1989).

           Empirical Formula: C10 H10  =    20 atoms



      MOLECULAR POINT GROUP   :   C1  


      RHF CALCULATION, NO. OF DOUBLY OCCUPIED LEVELS = 25



          HEAT OF FORMATION =      85.657902 KCALS/MOLE


          CARTESIAN COORDINATE DERIVATIVES

   NUMBER  ATOM         X            Y            Z

     1       C      0.002568     0.003565     0.004036
     2       C     -0.002443     0.009057     0.000411
     3       C     -0.010030    -0.002343     0.004097
     4       C      0.006656    -0.014142    -0.003050
     5       C      0.007496    -0.012416    -0.005322
     6       C      0.003348     0.001807    -0.003987
     7       C     -0.013818     0.007082    -0.003299
     8       C     -0.000277     0.014352     0.001992
     9       C      0.009826    -0.002823    -0.003403
    10       C     -0.005620     0.011328    -0.000187
    11       H     -0.006958     0.002253     0.004360
    12       H     -0.001844     0.001721    -0.003365
    13       H     -0.004775     0.001974    -0.001675
    14       H      0.010660    -0.012911     0.000675
    15       H      0.002914    -0.001460     0.002059
    16       H      0.001213    -0.002017     0.001234
    17       H     -0.001385     0.003353     0.003490
    18       H      0.002586     0.000125    -0.001492
    19       H     -0.000670    -0.003122     0.003931
    20       H      0.000555    -0.005381    -0.000504
 


          GRADIENT NORM =   0.04493


          TIME FOR SCF CALCULATION =    0.00

          TIME FOR DERIVATIVES     =    0.00

          MOLECULAR WEIGHT =  130.19



          ROTATIONAL CONSTANTS IN CM(-1)

          A =    0.15402696   B =    0.02007946   C =    0.01788752



           PRINCIPAL MOMENTS OF INERTIA IN UNITS OF 10**(-40)*GRAM-CM**2

          A =      181.7395   B =     1394.0998   C =     1564.9329


          ORIENTATION OF MOLECULE IN FORCE CALCULATION

    NO.       ATOM         X         Y         Z

     1          C      -1.4003    0.4300   -0.0018
     2          C       0.0943    0.4300   -0.0018
     3          C      -2.0352    1.7717   -0.0018
     4          C       0.7829    1.7137   -0.0020
     5          C       0.8229   -0.7074   -0.0016
     6          C      -1.3296    2.9105   -0.0020
     7          C       0.1165    2.8810   -0.0021
     8          C       0.2554   -2.0423   -0.0016
     9          C       1.7456   -4.1768    0.0100
    10          C       1.0085   -3.1126    0.0042
    11          H      -1.7684   -0.1292    0.8846
    12          H      -1.7684   -0.1292   -0.8883
    13          H      -3.1309    1.7849   -0.0017
    14          H       1.9196   -0.6474   -0.0013
    15          H       1.8797    1.6958   -0.0021
    16          H       0.6474    3.8384   -0.0022
    17          H      -1.8214    3.8886   -0.0019
    18          H      -0.8364   -2.1587   -0.0066
    19          H       2.0721   -4.6531    0.9308
    20          H       2.0811   -4.6570   -0.9055


    FIRST DERIVATIVES WILL BE USED IN THE CALCULATION OF SECOND DERIVATIVES

          ESTIMATED TIME TO COMPLETE CALCULATION =        1.88 SECONDS

    FOR POINT-GROUP C1   THERE ARE   1 UNIQUE SYMMETRY FUNCTIONS.

 STEP:   1 TIME =     0.02 SECS, INTEGRAL =      0.02 TIME LEFT: 172799.97
 STEP:   2 TIME =     0.02 SECS, INTEGRAL =      0.04 TIME LEFT: 172799.95
 STEP:   3 TIME =     0.02 SECS, INTEGRAL =      0.05 TIME LEFT: 172799.94
 STEP:   4 TIME =     0.02 SECS, INTEGRAL =      0.07 TIME LEFT: 172799.92
 STEP:   5 TIME =     0.02 SECS, INTEGRAL =      0.09 TIME LEFT: 172799.90
 STEP:   6 TIME =     0.02 SECS, INTEGRAL =      0.11 TIME LEFT: 172799.88
 STEP:   7 TIME =     0.02 SECS, INTEGRAL =      0.13 TIME LEFT: 172799.86
 STEP:   8 TIME =     0.02 SECS, INTEGRAL =      0.15 TIME LEFT: 172799.84
 STEP:   9 TIME =     0.02 SECS, INTEGRAL =      0.17 TIME LEFT: 172799.82
 STEP:  10 TIME =     0.02 SECS, INTEGRAL =      0.19 TIME LEFT: 172799.80
 STEP:  11 TIME =     0.02 SECS, INTEGRAL =      0.21 TIME LEFT: 172799.79
 STEP:  12 TIME =     0.02 SECS, INTEGRAL =      0.23 TIME LEFT: 172799.77
 STEP:  13 TIME =     0.02 SECS, INTEGRAL =      0.25 TIME LEFT: 172799.75
 STEP:  14 TIME =     0.02 SECS, INTEGRAL =      0.26 TIME LEFT: 172799.73
 STEP:  15 TIME =     0.02 SECS, INTEGRAL =      0.28 TIME LEFT: 172799.71
 STEP:  16 TIME =     0.02 SECS, INTEGRAL =      0.29 TIME LEFT: 172799.70
 STEP:  17 TIME =     0.02 SECS, INTEGRAL =      0.31 TIME LEFT: 172799.68
 STEP:  18 TIME =     0.02 SECS, INTEGRAL =      0.33 TIME LEFT: 172799.66
 STEP:  19 TIME =     0.02 SECS, INTEGRAL =      0.35 TIME LEFT: 172799.64
 STEP:  20 TIME =     0.02 SECS, INTEGRAL =      0.37 TIME LEFT: 172799.62
 STEP:  21 TIME =     0.02 SECS, INTEGRAL =      0.39 TIME LEFT: 172799.60
 STEP:  22 TIME =     0.02 SECS, INTEGRAL =      0.41 TIME LEFT: 172799.58
 STEP:  23 TIME =     0.02 SECS, INTEGRAL =      0.43 TIME LEFT: 172799.57
 STEP:  24 TIME =     0.02 SECS, INTEGRAL =      0.45 TIME LEFT: 172799.55
 STEP:  25 TIME =     0.02 SECS, INTEGRAL =      0.46 TIME LEFT: 172799.53
 STEP:  26 TIME =     0.02 SECS, INTEGRAL =      0.48 TIME LEFT: 172799.51
 STEP:  27 TIME =     0.02 SECS, INTEGRAL =      0.50 TIME LEFT: 172799.49
 STEP:  28 TIME =     0.02 SECS, INTEGRAL =      0.52 TIME LEFT: 172799.48
 STEP:  29 TIME =     0.02 SECS, INTEGRAL =      0.54 TIME LEFT: 172799.46
 STEP:  30 TIME =     0.02 SECS, INTEGRAL =      0.55 TIME LEFT: 172799.44
 STEP:  31 TIME =     0.02 SECS, INTEGRAL =      0.57 TIME LEFT: 172799.42
 STEP:  32 TIME =     0.02 SECS, INTEGRAL =      0.59 TIME LEFT: 172799.40
 STEP:  33 TIME =     0.02 SECS, INTEGRAL =      0.61 TIME LEFT: 172799.38
 STEP:  34 TIME =     0.02 SECS, INTEGRAL =      0.63 TIME LEFT: 172799.36
 STEP:  35 TIME =     0.02 SECS, INTEGRAL =      0.65 TIME LEFT: 172799.34
 STEP:  36 TIME =     0.02 SECS, INTEGRAL =      0.67 TIME LEFT: 172799.32
 STEP:  37 TIME =     0.02 SECS, INTEGRAL =      0.69 TIME LEFT: 172799.30
 STEP:  38 TIME =     0.02 SECS, INTEGRAL =      0.71 TIME LEFT: 172799.29
 STEP:  39 TIME =     0.02 SECS, INTEGRAL =      0.73 TIME LEFT: 172799.27
 STEP:  40 TIME =     0.02 SECS, INTEGRAL =      0.74 TIME LEFT: 172799.25
 STEP:  41 TIME =     0.02 SECS, INTEGRAL =      0.76 TIME LEFT: 172799.23
 STEP:  42 TIME =     0.02 SECS, INTEGRAL =      0.78 TIME LEFT: 172799.21
 STEP:  43 TIME =     0.02 SECS, INTEGRAL =      0.80 TIME LEFT: 172799.19
 STEP:  44 TIME =     0.02 SECS, INTEGRAL =      0.82 TIME LEFT: 172799.17
 STEP:  45 TIME =     0.02 SECS, INTEGRAL =      0.84 TIME LEFT: 172799.16
 STEP:  46 TIME =     0.02 SECS, INTEGRAL =      0.85 TIME LEFT: 172799.14
 STEP:  47 TIME =     0.02 SECS, INTEGRAL =      0.87 TIME LEFT: 172799.12
 STEP:  48 TIME =     0.02 SECS, INTEGRAL =      0.89 TIME LEFT: 172799.10
 STEP:  49 TIME =     0.02 SECS, INTEGRAL =      0.91 TIME LEFT: 172799.08
 STEP:  50 TIME =     0.02 SECS, INTEGRAL =      0.93 TIME LEFT: 172799.07
 STEP:  51 TIME =     0.02 SECS, INTEGRAL =      0.95 TIME LEFT: 172799.05
 STEP:  52 TIME =     0.02 SECS, INTEGRAL =      0.96 TIME LEFT: 172799.03
 STEP:  53 TIME =     0.02 SECS, INTEGRAL =      0.98 TIME LEFT: 172799.01
 STEP:  54 TIME =     0.02 SECS, INTEGRAL =      1.00 TIME LEFT: 172798.99
 STEP:  55 TIME =     0.02 SECS, INTEGRAL =      1.02 TIME LEFT: 172798.97
 STEP:  56 TIME =     0.02 SECS, INTEGRAL =      1.04 TIME LEFT: 172798.95
 STEP:  57 TIME =     0.02 SECS, INTEGRAL =      1.06 TIME LEFT: 172798.93
 STEP:  58 TIME =     0.02 SECS, INTEGRAL =      1.08 TIME LEFT: 172798.91
 STEP:  59 TIME =     0.02 SECS, INTEGRAL =      1.10 TIME LEFT: 172798.89
 STEP:  60 TIME =     0.02 SECS, INTEGRAL =      1.12 TIME LEFT: 172798.88

(To convert to Hartree/Bohr^2, multiply by (10^(-21) x N x a0^2)/(4.184 x 627.51) =  0.0642)


           FORCE MATRIX IN MILLIDYNES/ANGSTROM


                  C  1       C  2       C  3       C  4       C  5       C  6
 ------------------------------------------------------------------------------
     C    1  14.989319
     C    2   4.697340  18.386414
     C    3   5.017552   0.692533  18.020408
     C    4   0.617527   5.358648   0.228799  18.313603
     C    5   0.762870   9.451277   0.074556   1.222646  18.195146
     C    6   0.866051   0.188194  10.201971   1.191465   0.080731  18.388106
     C    7   0.142887   1.115646   1.212342   9.892450   0.185285   5.732557
     C    8   0.103401   1.081345   0.014613   0.161772   5.552656   0.025439
     C    9   0.002594   0.031889   0.000997   0.011386   0.110026   0.001372
     C   10   0.015093   0.159940   0.005424   0.055543   1.284644   0.009140
     H   11   4.338955   0.420448   0.414205   0.027540   0.033079   0.041060
     H   12   4.338504   0.420334   0.414222   0.027577   0.033032   0.041196
     H   13   0.422027   0.049301   4.829981   0.010890   0.008569   0.444290
     H   14   0.103210   0.448697   0.007192   0.092215   4.748191   0.006359
     H   15   0.041685   0.446919   0.011311   4.790811   0.056647   0.123089
     H   16   0.003994   0.118725   0.048255   0.438902   0.007045   0.434635
     H   17   0.120328   0.002626   0.443970   0.048705   0.001229   4.861400
     H   18   0.038661   0.020598   0.003342   0.005873   0.455153   0.002319
     H   19   0.004403   0.005036   0.000459   0.006006   0.078366   0.000578
     H   20   0.004491   0.004918   0.000423   0.006169   0.078898   0.000444


                  C  7       C  8       C  9       C 10       H 11       H 12
 ------------------------------------------------------------------------------
     C    7  18.262795
     C    8   0.057158  18.472276
     C    9   0.004757   0.790612  18.126822
     C   10   0.023360  11.026873  11.881004  24.630239
     H   11   0.015240   0.017270   0.001103   0.002340   4.926681
     H   12   0.015254   0.017532   0.001128   0.002334   0.562118   4.926170
     H   13   0.123474   0.002611   0.000646   0.000610   0.030732   0.030735
     H   14   0.006315   0.441845   0.004947   0.036546   0.011736   0.011742
     H   15   0.439105   0.003423   0.000836   0.001415   0.004152   0.004158
     H   16   4.861091   0.009997   0.000863   0.000988   0.000913   0.000924
     H   17   0.435547   0.000921   0.000948   0.000707   0.015370   0.015354
     H   18   0.001867   4.703408   0.043599   0.441108   0.028934   0.028827
     H   19   0.000682   0.045983   5.013767   0.479017   0.001128   0.000981
     H   20   0.000714   0.046215   5.013946   0.478930   0.000983   0.001179


                  H 13       H 14       H 15       H 16       H 17       H 18
 ------------------------------------------------------------------------------
     H   13   5.205827
     H   14   0.003374   5.118883
     H   15   0.009225   0.028322   5.163935
     H   16   0.007522   0.004946   0.063885   5.223411
     H   17   0.064728   0.000535   0.006990   0.031428   5.227019
     H   18   0.000672   0.035450   0.000838   0.000494   0.000459   5.090798
     H   19   0.000245   0.001612   0.000333   0.000656   0.000188   0.066713
     H   20   0.000239   0.001614   0.000325   0.000627   0.000172   0.067403


                  H 19       H 20
 ------------------------------
     H   19   5.394280
     H   20   0.406151   5.394114


          HEAT OF FORMATION =      85.657902 KCALS/MOLE

          ZERO POINT ENERGY     102.803 KCAL/MOL


           NORMAL COORDINATE ANALYSIS (Total motion = 1 Angstrom)


   Root No.       1         2         3         4         5         6         7         8

                 1 A       2 A       3 A       4 A       5 A       6 A       7 A       8 A   

                  38.9      88.3     117.9     195.0     241.5     295.5     350.2     401.3
  
           1   -0.0000    0.0000   -0.0290    0.0005   -0.0355    0.0001   -0.0000   -0.0413
           2   -0.0001   -0.0001    0.0150   -0.0003    0.0270   -0.0001   -0.0000   -0.0329
           3   -0.0180    0.0678   -0.0002   -0.0096   -0.0001   -0.0194    0.0014    0.0000
           4   -0.0000    0.0000   -0.0297    0.0005   -0.0345    0.0001   -0.0000   -0.0407
           5   -0.0001   -0.0000   -0.0155    0.0001   -0.0038   -0.0000    0.0000   -0.0049
           6   -0.0312    0.0248    0.0003    0.0320    0.0006    0.0053   -0.0104    0.0001
           7    0.0000    0.0000    0.0019    0.0001   -0.0125    0.0001   -0.0000   -0.0035
           8   -0.0000   -0.0001    0.0305   -0.0005    0.0430   -0.0002    0.0000   -0.0180
           9    0.0247   -0.0098    0.0000    0.0353    0.0008    0.0345    0.0091   -0.0001
          10    0.0000    0.0001   -0.0013    0.0002   -0.0234    0.0001   -0.0000    0.0091
          11   -0.0001   -0.0001   -0.0302    0.0002   -0.0072   -0.0000    0.0000   -0.0393
          12   -0.0161    0.0350    0.0001    0.0034    0.0006    0.0483    0.0028   -0.0000
          13   -0.0001   -0.0000   -0.0421    0.0004   -0.0113   -0.0000    0.0001    0.0070
          14   -0.0001   -0.0001   -0.0225    0.0001    0.0077   -0.0001    0.0001    0.0347
          15   -0.0518   -0.0248    0.0007    0.0514    0.0002   -0.0414   -0.0167    0.0001
          16    0.0001    0.0000    0.0266   -0.0002    0.0023    0.0000   -0.0000    0.0336
          17   -0.0000   -0.0001    0.0154   -0.0004    0.0343   -0.0002    0.0000   -0.0399
          18    0.0436   -0.0464   -0.0001   -0.0047   -0.0004   -0.0266   -0.0074    0.0001
          19    0.0001    0.0000    0.0258   -0.0002    0.0010    0.0000   -0.0000    0.0333
          20   -0.0001   -0.0001   -0.0152    0.0000    0.0064   -0.0001    0.0000   -0.0330
          21    0.0210   -0.0030   -0.0002   -0.0494   -0.0009   -0.0178   -0.0005   -0.0001
          22   -0.0000   -0.0001   -0.0331   -0.0002    0.0585   -0.0004    0.0003    0.0153
          23   -0.0001   -0.0000   -0.0263    0.0003   -0.0201    0.0001   -0.0000    0.0484
          24   -0.0565   -0.0469   -0.0002   -0.0338   -0.0007    0.0100   -0.0291    0.0000
          25   -0.0001   -0.0000    0.0674   -0.0004   -0.0035    0.0001   -0.0002   -0.0326
          26    0.0005    0.0004    0.0427    0.0004   -0.0677    0.0004   -0.0004    0.0269
          27    0.0713    0.0148   -0.0002    0.0044    0.0004    0.0008   -0.0308   -0.0002
          28   -0.0000   -0.0002    0.0019   -0.0007    0.0680   -0.0002   -0.0002    0.0280
          29    0.0001    0.0001   -0.0026    0.0000   -0.0161    0.0002    0.0003    0.0642
          30    0.0059   -0.0192   -0.0001   -0.0216   -0.0003    0.0074    0.1184   -0.0000
          31    0.0074    0.0290   -0.0405   -0.0256   -0.0462   -0.0259    0.0088   -0.0441
          32   -0.0246    0.0624    0.0213   -0.0494    0.0312   -0.0639   -0.0054   -0.0319
          33   -0.0305    0.1191   -0.0012   -0.0519   -0.0023   -0.0713    0.0013   -0.0005
          34   -0.0075   -0.0289   -0.0399    0.0269   -0.0452    0.0262   -0.0088   -0.0439
          35    0.0245   -0.0626    0.0220    0.0486    0.0334    0.0637    0.0053   -0.0322
          36   -0.0305    0.1191    0.0000   -0.0520    0.0002   -0.0714    0.0014    0.0006
          37    0.0000    0.0000    0.0022    0.0001   -0.0123    0.0001   -0.0000   -0.0029
          38    0.0000   -0.0001    0.0556   -0.0008    0.0608   -0.0002    0.0000    0.0222
          39    0.0398   -0.0335    0.0002    0.0896    0.0020    0.0996    0.0228   -0.0003
          40   -0.0000    0.0000   -0.0412    0.0004   -0.0125   -0.0000    0.0001    0.0058
          41   -0.0001   -0.0001   -0.0249   -0.0002    0.0477   -0.0004    0.0003    0.0610
          42   -0.0599   -0.0485    0.0013    0.1071    0.0005   -0.0880   -0.0124    0.0003
          43    0.0000    0.0001   -0.0015    0.0002   -0.0231    0.0001   -0.0000    0.0089
          44   -0.0002   -0.0000   -0.0544    0.0005   -0.0204    0.0000    0.0000   -0.0774
          45   -0.0340    0.0673    0.0001    0.0052    0.0012    0.1229    0.0176   -0.0002
          46    0.0001    0.0000    0.0473   -0.0005    0.0217   -0.0001   -0.0000    0.0401
          47   -0.0001   -0.0001   -0.0271    0.0002   -0.0051   -0.0000    0.0000   -0.0375
          48    0.0344   -0.0019   -0.0005   -0.1093   -0.0019   -0.0284    0.0089   -0.0004
          49    0.0001    0.0000    0.0478   -0.0004    0.0188   -0.0000   -0.0000    0.0486
          50   -0.0000   -0.0001    0.0260   -0.0005    0.0426   -0.0002    0.0000   -0.0321
          51    0.0753   -0.1057    0.0000    0.0090   -0.0005   -0.0446   -0.0173    0.0004
          52    0.0002    0.0001   -0.0309    0.0001    0.0607   -0.0007    0.0011    0.0168
          53   -0.0003    0.0000   -0.0397    0.0008   -0.0504    0.0001   -0.0003    0.0346
          54   -0.1093   -0.0831   -0.0012   -0.1218   -0.0012    0.0753   -0.1961    0.0004
          55   -0.0467   -0.0338    0.0956   -0.0740   -0.0357    0.0572   -0.0091   -0.0629
          56    0.0250    0.0074    0.0618   -0.0243   -0.0905    0.0324   -0.1985    0.0093
          57    0.1005    0.0305   -0.0003    0.0178    0.0002   -0.0029   -0.1324    0.0010
          58    0.0467    0.0340    0.0975    0.0738   -0.0347   -0.0570    0.0098   -0.0635
          59   -0.0236   -0.0063    0.0639    0.0259   -0.0918   -0.0318    0.1976    0.0086
          60    0.1011    0.0308   -0.0003    0.0183    0.0014   -0.0033   -0.1333   -0.0015


   Root No.       9        10        11        12        13        14        15        16

                 9 A      10 A      11 A      12 A      13 A      14 A      15 A      16 A   

                 435.7     526.3     532.8     580.8     581.3     620.4     752.5     804.8
  
           1    0.0001   -0.0000   -0.0121   -0.0036   -0.0271   -0.0287    0.0000    0.0000
           2    0.0000    0.0000    0.0127   -0.0080   -0.0624    0.0175    0.0000   -0.0000
           3    0.0000    0.0112   -0.0001   -0.0008    0.0001   -0.0000   -0.0073    0.0314
           4    0.0001    0.0000   -0.0023   -0.0045   -0.0343   -0.0127    0.0000   -0.0000
           5    0.0000   -0.0001   -0.0385    0.0005    0.0023    0.0534    0.0000    0.0000
           6    0.0551    0.0662   -0.0003   -0.0037    0.0007    0.0001    0.0266   -0.0112
           7    0.0000    0.0000   -0.0110    0.0081    0.0648   -0.0626    0.0000    0.0000
           8    0.0000    0.0001    0.0275   -0.0030   -0.0233   -0.0078    0.0000   -0.0000
           9   -0.0444    0.0045   -0.0001   -0.0040    0.0007    0.0000   -0.0208    0.0071
          10    0.0000   -0.0001   -0.0286   -0.0064   -0.0515    0.0663   -0.0000    0.0000
          11    0.0001   -0.0001   -0.0373    0.0037    0.0285    0.0244   -0.0000   -0.0000
          12    0.0200   -0.0376    0.0002    0.0069   -0.0012   -0.0000   -0.0208   -0.0278
          13   -0.0001    0.0002    0.0806   -0.0004   -0.0033   -0.0227   -0.0000   -0.0000
          14   -0.0001    0.0000    0.0086    0.0026    0.0181    0.0406   -0.0000    0.0000
          15   -0.0251   -0.0085   -0.0001   -0.0215    0.0038   -0.0000    0.0093    0.0096
          16   -0.0000   -0.0000   -0.0103    0.0040    0.0305    0.0148   -0.0000   -0.0000
          17    0.0001    0.0001    0.0267    0.0003    0.0037   -0.0576    0.0000    0.0000
          18    0.0508   -0.0194    0.0001    0.0042   -0.0007   -0.0000   -0.0236    0.0179
          19   -0.0001   -0.0000   -0.0141    0.0033    0.0249    0.0241   -0.0000   -0.0000
          20    0.0000   -0.0001   -0.0315    0.0094    0.0736   -0.0040   -0.0000   -0.0000
          21   -0.0389    0.0323   -0.0001   -0.0072    0.0013    0.0001   -0.0087   -0.0311
          22   -0.0001    0.0001    0.0402    0.0022    0.0162    0.0342    0.0000   -0.0000
          23   -0.0001    0.0001    0.0304    0.0004    0.0016    0.0045   -0.0000    0.0000
          24   -0.0096   -0.0037    0.0001    0.0534   -0.0095   -0.0002   -0.0032    0.0033
          25    0.0001   -0.0000    0.0076    0.0014    0.0115    0.0225   -0.0000    0.0000
          26    0.0000    0.0001    0.0130   -0.0013   -0.0075   -0.0215    0.0000    0.0000
          27   -0.0006   -0.0000    0.0000   -0.0038    0.0008    0.0002    0.0002   -0.0012
          28   -0.0000   -0.0001   -0.0615   -0.0043   -0.0334   -0.0466    0.0000   -0.0000
          29    0.0000   -0.0000   -0.0359   -0.0048   -0.0354   -0.0607    0.0000   -0.0000
          30    0.0124    0.0011   -0.0000   -0.0220    0.0039    0.0001    0.0002   -0.0010
          31   -0.0435   -0.0876   -0.0301   -0.0127   -0.0399   -0.0067   -0.0154   -0.0421
          32    0.0280   -0.0846    0.0277   -0.0070   -0.0594    0.0029    0.0500   -0.0775
          33   -0.0003   -0.0817    0.0013   -0.0042   -0.0021   -0.0004    0.0190   -0.0376
          34    0.0437    0.0875   -0.0307    0.0020   -0.0425   -0.0066    0.0154    0.0422
          35   -0.0280    0.0847    0.0271   -0.0082   -0.0592    0.0031   -0.0500    0.0775
          36   -0.0003   -0.0817   -0.0008   -0.0034    0.0034    0.0002    0.0190   -0.0376
          37    0.0000   -0.0000   -0.0110    0.0080    0.0644   -0.0619    0.0000    0.0000
          38   -0.0001    0.0000    0.0282    0.0015    0.0105    0.0266   -0.0000   -0.0000
          39   -0.1043   -0.0428    0.0001    0.0006   -0.0001    0.0000    0.1950   -0.1783
          40   -0.0000    0.0003    0.0783   -0.0007   -0.0056   -0.0241    0.0000   -0.0000
          41   -0.0002    0.0000    0.0387    0.0064    0.0470    0.0706   -0.0001    0.0000
          42   -0.0913   -0.1169   -0.0001   -0.1418    0.0250   -0.0000   -0.0762   -0.0292
          43    0.0000   -0.0001   -0.0276   -0.0064   -0.0518    0.0658    0.0000    0.0000
          44    0.0001   -0.0001   -0.0281   -0.0009   -0.0066    0.0085   -0.0000   -0.0000
          45   -0.0157   -0.1650    0.0008    0.0385   -0.0069   -0.0003    0.0651    0.2222
          46   -0.0001    0.0001    0.0212    0.0046    0.0366   -0.0337    0.0000    0.0000
          47    0.0000   -0.0001   -0.0511    0.0086    0.0665    0.0283   -0.0000   -0.0001
          48   -0.1696    0.0635   -0.0003   -0.0109    0.0019   -0.0000    0.1847    0.1360
          49   -0.0001    0.0000    0.0173   -0.0037   -0.0300    0.0388    0.0000   -0.0000
          50    0.0000    0.0001    0.0404   -0.0035   -0.0265   -0.0448    0.0000    0.0000
          51    0.1554   -0.1163    0.0006    0.0284   -0.0050   -0.0002    0.1904    0.0054
          52   -0.0002    0.0001    0.0291    0.0019    0.0132    0.0294    0.0001    0.0002
          53   -0.0002    0.0003    0.1242    0.0027    0.0190    0.0307   -0.0000   -0.0000
          54    0.0138   -0.0064    0.0004    0.0277   -0.0050   -0.0006   -0.0221   -0.0497
          55    0.0423   -0.0031    0.0459   -0.2451    0.0842    0.0700    0.0147    0.0156
          56    0.0089   -0.0043    0.0402   -0.1222    0.0313    0.0039    0.0089    0.0166
          57   -0.0113   -0.0012    0.0004    0.0219   -0.0048   -0.0027   -0.0005    0.0020
          58   -0.0422    0.0033    0.0443    0.2558   -0.0065    0.0662   -0.0148   -0.0156
          59   -0.0090    0.0046    0.0399    0.1253   -0.0133    0.0024   -0.0089   -0.0166
          60   -0.0116   -0.0012   -0.0004    0.0239   -0.0032    0.0029   -0.0006    0.0019


   Root No.      17        18        19        20        21        22        23        24

                17 A      18 A      19 A      20 A      21 A      22 A      23 A      24 A   

                 858.5     870.8     898.9     924.4     947.3     954.9     973.2     988.3
  
           1   -0.0003    0.0285    0.0000    0.0001   -0.0562    0.0001    0.0000   -0.0042
           2    0.0001   -0.0078    0.0000    0.0001   -0.0537    0.0001   -0.0000   -0.0053
           3    0.0142    0.0002    0.0350    0.0257    0.0001    0.0161    0.0131   -0.0001
           4    0.0002   -0.0259   -0.0000    0.0000    0.0173   -0.0001    0.0000    0.0052
           5   -0.0003    0.0320   -0.0000   -0.0000    0.0001    0.0000   -0.0000   -0.0039
           6    0.0102    0.0001   -0.0135   -0.0268   -0.0001   -0.0243    0.0048   -0.0000
           7   -0.0006    0.0636   -0.0000   -0.0001    0.0165    0.0000   -0.0000   -0.0047
           8    0.0001   -0.0105    0.0000   -0.0000    0.0146   -0.0001    0.0000    0.0034
           9   -0.0023   -0.0001   -0.0140   -0.0101   -0.0001   -0.0070   -0.0322    0.0001
          10   -0.0002    0.0222   -0.0000   -0.0001    0.0644   -0.0001   -0.0000    0.0018
          11    0.0003   -0.0239   -0.0000   -0.0000    0.0232   -0.0000   -0.0000    0.0023
          12   -0.0061   -0.0000    0.0115    0.0083   -0.0000   -0.0052   -0.0370    0.0001
          13    0.0005   -0.0547    0.0000   -0.0000    0.0197   -0.0001    0.0000    0.0033
          14   -0.0003    0.0362    0.0000   -0.0000   -0.0077    0.0000   -0.0000   -0.0053
          15   -0.0247   -0.0005   -0.0259    0.0187    0.0002    0.0415   -0.0136    0.0002
          16    0.0002   -0.0269    0.0000    0.0000   -0.0186    0.0000    0.0000    0.0003
          17   -0.0004    0.0433   -0.0000   -0.0001    0.0383   -0.0001   -0.0000    0.0017
          18   -0.0047   -0.0001   -0.0215   -0.0180   -0.0001   -0.0126    0.0221   -0.0002
          19    0.0003   -0.0305    0.0000    0.0000   -0.0204    0.0000    0.0000    0.0002
          20    0.0005   -0.0587    0.0000    0.0001   -0.0178    0.0000    0.0000    0.0021
          21   -0.0084   -0.0001    0.0070    0.0152    0.0001    0.0219    0.0284    0.0000
          22   -0.0001    0.0240   -0.0001   -0.0000   -0.0111    0.0002   -0.0000    0.0014
          23   -0.0002    0.0153    0.0001   -0.0000   -0.0065   -0.0001    0.0000   -0.0013
          24   -0.0355   -0.0004    0.0210    0.0069   -0.0001   -0.0414    0.0073   -0.0001
          25   -0.0001   -0.0003    0.0001   -0.0002    0.0042    0.0002   -0.0001   -0.0750
          26    0.0000   -0.0053   -0.0000    0.0001    0.0006    0.0000   -0.0001   -0.0441
          27    0.0149    0.0003   -0.0197    0.0394    0.0000   -0.0214    0.0024   -0.0004
          28    0.0001   -0.0148   -0.0001    0.0002    0.0040   -0.0002    0.0001    0.0239
          29    0.0001   -0.0129   -0.0000   -0.0000    0.0018    0.0000    0.0000    0.0194
          30    0.0004   -0.0001    0.0110   -0.0363    0.0000    0.0292   -0.0039    0.0002
          31   -0.0311    0.0457   -0.0408   -0.0165   -0.1117   -0.0049   -0.0646   -0.0035
          32   -0.0221   -0.0206   -0.0755   -0.0638   -0.0465   -0.0425    0.0082   -0.0101
          33   -0.0129    0.0011   -0.0317   -0.0232   -0.0161   -0.0139   -0.0091   -0.0027
          34    0.0301    0.0467    0.0409    0.0167   -0.1115    0.0053    0.0648   -0.0041
          35    0.0226   -0.0198    0.0755    0.0639   -0.0458    0.0430   -0.0083   -0.0099
          36   -0.0129   -0.0016   -0.0317   -0.0233    0.0159   -0.0140   -0.0090    0.0027
          37   -0.0006    0.0638   -0.0000   -0.0001    0.0170    0.0000   -0.0000   -0.0045
          38    0.0008   -0.0907    0.0000   -0.0000    0.0914   -0.0003    0.0001    0.0185
          39   -0.0104    0.0001    0.0179    0.0093    0.0001    0.0120    0.1652   -0.0008
          40    0.0005   -0.0596   -0.0000    0.0000    0.0229   -0.0001    0.0000    0.0045
          41   -0.0006    0.1040    0.0000   -0.0002   -0.0566    0.0003   -0.0001   -0.0220
          42    0.1960    0.0031    0.1331   -0.0771   -0.0005   -0.1458    0.0677   -0.0005
          43   -0.0002    0.0224   -0.0000   -0.0001    0.0667   -0.0001   -0.0000    0.0020
          44    0.0003   -0.0288   -0.0000   -0.0001    0.1044   -0.0002   -0.0000    0.0125
          45    0.0066   -0.0002   -0.0655   -0.0269    0.0001    0.0385    0.1724   -0.0003
          46   -0.0001    0.0064    0.0000    0.0001   -0.0763    0.0001    0.0000   -0.0039
          47    0.0008   -0.0813    0.0000    0.0000    0.0145   -0.0000   -0.0000    0.0047
          48    0.0665    0.0007   -0.0240   -0.0790   -0.0005   -0.1084   -0.1395    0.0001
          49    0.0003   -0.0337    0.0000    0.0000   -0.0021   -0.0001    0.0001    0.0089
          50   -0.0004    0.0392   -0.0000   -0.0001    0.0493   -0.0002    0.0000    0.0064
          51    0.0499    0.0008    0.1354    0.1001    0.0004    0.0591   -0.1161    0.0007
          52   -0.0014    0.0264    0.0004    0.0001   -0.0116   -0.0007    0.0001    0.0076
          53    0.0002   -0.0170   -0.0001    0.0000    0.0022    0.0002   -0.0002   -0.0516
          54    0.2669    0.0039   -0.0896   -0.0295    0.0003    0.1460   -0.0230    0.0007
          55   -0.0288    0.0291   -0.0343    0.0953   -0.0152   -0.0589    0.0068    0.2818
          56   -0.0936    0.0107    0.0718   -0.1217   -0.0145    0.0591   -0.0063    0.2117
          57   -0.0248   -0.0016    0.0316   -0.0613   -0.0008    0.0322   -0.0035    0.0048
          58    0.0288    0.0291    0.0341   -0.0948   -0.0150    0.0581   -0.0059    0.2807
          59    0.0935    0.0139   -0.0717    0.1218   -0.0144   -0.0594    0.0070    0.2097
          60   -0.0250    0.0008    0.0323   -0.0629    0.0007    0.0331   -0.0036   -0.0025


   Root No.      25        26        27        28        29        30        31        32

                25 A      26 A      27 A      28 A      29 A      30 A      31 A      32 A   

                1017.4    1041.0    1074.9    1085.9    1110.4    1151.3    1157.2    1185.1
  
           1   -0.0000   -0.0050    0.0000    0.0107    0.0024   -0.0051   -0.0027   -0.0004
           2    0.0000    0.0377    0.0000    0.0036   -0.0089    0.0012    0.0041   -0.0022
           3    0.0273   -0.0000    0.0009   -0.0000   -0.0000    0.0000   -0.0000   -0.0000
           4    0.0000   -0.0056    0.0000    0.0036   -0.0001    0.0082    0.0118   -0.0077
           5   -0.0000   -0.0102   -0.0000    0.0018    0.0158    0.0013    0.0133   -0.0267
           6   -0.0289    0.0000   -0.0362    0.0000    0.0000   -0.0000   -0.0000    0.0000
           7    0.0000    0.0390    0.0000    0.0170   -0.0015   -0.0041    0.0033   -0.0097
           8   -0.0000   -0.0186    0.0000    0.0019   -0.0027   -0.0105   -0.0020    0.0100
           9   -0.0421    0.0000    0.0378   -0.0000    0.0000    0.0000    0.0000   -0.0000
          10    0.0000    0.0079   -0.0000   -0.0287   -0.0107   -0.0060   -0.0065    0.0139
          11    0.0000   -0.0005    0.0000    0.0022    0.0005    0.0089   -0.0039   -0.0036
          12    0.0360   -0.0000    0.0116   -0.0000   -0.0000   -0.0000    0.0000    0.0000
          13   -0.0000   -0.0004   -0.0000   -0.0088    0.0050   -0.0022    0.0003   -0.0025
          14   -0.0000   -0.0050   -0.0000    0.0024    0.0163   -0.0006    0.0072   -0.0192
          15    0.0153   -0.0000    0.0080   -0.0000   -0.0000    0.0000    0.0000   -0.0000
          16    0.0000    0.0055    0.0001    0.0364    0.0021    0.0006   -0.0004   -0.0002
          17   -0.0000   -0.0238   -0.0000   -0.0276   -0.0002   -0.0044   -0.0080    0.0087
          18    0.0425   -0.0000   -0.0110    0.0000   -0.0000   -0.0000   -0.0000    0.0000
          19   -0.0000   -0.0088   -0.0001   -0.0359   -0.0057    0.0015   -0.0060    0.0153
          20   -0.0000   -0.0048   -0.0000   -0.0240   -0.0073   -0.0007   -0.0090    0.0062
          21   -0.0394    0.0000    0.0001    0.0000    0.0000    0.0000    0.0000    0.0000
          22    0.0000   -0.0020    0.0000    0.0038   -0.0492    0.0037   -0.0034   -0.0043
          23   -0.0000    0.0004   -0.0000   -0.0003    0.0075   -0.0037    0.0032   -0.0180
          24   -0.0075    0.0000   -0.0024    0.0000   -0.0002    0.0000   -0.0000    0.0001
          25   -0.0000   -0.0008   -0.0000   -0.0007    0.0169   -0.0019    0.0020   -0.0044
          26   -0.0000   -0.0050    0.0000    0.0033   -0.0365    0.0039   -0.0024    0.0040
          27   -0.0012    0.0000   -0.0003   -0.0000    0.0002   -0.0000    0.0000   -0.0000
          28    0.0000    0.0056   -0.0000   -0.0032    0.0197   -0.0018   -0.0014    0.0061
          29    0.0000    0.0026    0.0000   -0.0015    0.0077   -0.0015   -0.0006    0.0016
          30    0.0027   -0.0000    0.0005   -0.0000    0.0000   -0.0000   -0.0000    0.0000
          31   -0.0451   -0.1311   -0.3158    0.0258    0.0161   -0.0782    0.0251    0.0572
          32   -0.0437    0.1391    0.2022    0.0032   -0.0078    0.0407   -0.0069   -0.0374
          33   -0.0202    0.0104   -0.0029    0.0042    0.0064   -0.0041    0.0024    0.0020
          34    0.0449   -0.1311    0.3160    0.0252    0.0162   -0.0780    0.0252    0.0571
          35    0.0438    0.1390   -0.2023    0.0036   -0.0079    0.0407   -0.0069   -0.0373
          36   -0.0202   -0.0104   -0.0029   -0.0041   -0.0064    0.0041   -0.0024   -0.0020
          37    0.0000    0.0380    0.0000    0.0231   -0.0010   -0.0076    0.0071   -0.0105
          38    0.0000   -0.0326    0.0003    0.1810   -0.0027   -0.1470    0.2422   -0.0120
          39    0.1441   -0.0000   -0.0567    0.0000   -0.0000   -0.0000   -0.0000    0.0000
          40    0.0000   -0.0017   -0.0000   -0.0122    0.0040   -0.0042    0.0022   -0.0195
          41   -0.0000    0.0152    0.0001    0.0463    0.0154    0.0275   -0.0266    0.2687
          42   -0.0461    0.0001   -0.0115   -0.0000    0.0000    0.0000    0.0000   -0.0001
          43    0.0000    0.0076   -0.0000   -0.0300   -0.0110   -0.0039   -0.0052    0.0168
          44    0.0001    0.0228    0.0003    0.1807    0.0149    0.1923    0.0721    0.1211
          45   -0.1251    0.0001   -0.0399    0.0000    0.0000   -0.0000   -0.0000    0.0000
          46   -0.0000   -0.1004   -0.0003   -0.1264    0.0598    0.1910    0.1846   -0.0228
          47    0.0000    0.0451    0.0001    0.0251   -0.0443   -0.1052   -0.1172    0.0291
          48    0.1328   -0.0000   -0.0037    0.0000   -0.0001   -0.0000   -0.0000    0.0000
          49    0.0000   -0.1201    0.0002    0.1725    0.0761    0.0846   -0.2202   -0.0848
          50   -0.0000   -0.0895    0.0000    0.0398    0.0367    0.0361   -0.1198   -0.0330
          51   -0.1463   -0.0000    0.0163   -0.0000    0.0001    0.0000    0.0000   -0.0000
          52   -0.0001   -0.0116    0.0000    0.0079   -0.0839    0.0087    0.0006   -0.0175
          53    0.0001    0.0845    0.0000   -0.0369    0.2905   -0.0450   -0.0330    0.0931
          54    0.0212   -0.0004   -0.0053    0.0001   -0.0006    0.0000    0.0000   -0.0002
          55   -0.0022    0.0143    0.0022   -0.0083    0.0873   -0.0127    0.0083   -0.0244
          56    0.0038   -0.0005    0.0029    0.0054   -0.1004    0.0160   -0.0133    0.0374
          57    0.0017   -0.0026    0.0004    0.0033   -0.0507    0.0090   -0.0070    0.0220
          58    0.0026    0.0142   -0.0023   -0.0082    0.0870   -0.0127    0.0083   -0.0242
          59   -0.0036   -0.0005   -0.0028    0.0053   -0.1000    0.0159   -0.0132    0.0373
          60    0.0017    0.0027    0.0003   -0.0034    0.0519   -0.0091    0.0072   -0.0224


   Root No.      33        34        35        36        37        38        39        40

                33 A      34 A      35 A      36 A      37 A      38 A      39 A      40 A   

                1200.5    1232.7    1288.7    1337.3    1379.4    1410.9    1510.9    1528.3
  
           1    0.0045   -0.0166   -0.0233   -0.0318   -0.0463   -0.0271   -0.0895   -0.0175
           2   -0.0092    0.0104    0.0145   -0.0190    0.0565   -0.0360    0.0388    0.0061
           3   -0.0000    0.0000   -0.0000   -0.0000   -0.0000    0.0000   -0.0000   -0.0000
           4    0.0080   -0.0140   -0.0122   -0.0236   -0.0081    0.0525    0.1109    0.0247
           5   -0.0024   -0.0051    0.0254   -0.0164   -0.0145    0.0256    0.0620   -0.0514
           6    0.0000   -0.0000   -0.0000    0.0000   -0.0000    0.0000    0.0000    0.0000
           7   -0.0044    0.0008    0.0137    0.0096    0.0322   -0.0092    0.0242    0.0028
           8   -0.0027    0.0146    0.0029   -0.0181   -0.0151    0.0419   -0.0528    0.0062
           9   -0.0000   -0.0000   -0.0000    0.0000   -0.0000   -0.0000    0.0000   -0.0000
          10    0.0002   -0.0033   -0.0064    0.0189    0.0173   -0.0202   -0.0470    0.0129
          11    0.0039   -0.0135    0.0018    0.0083    0.0332    0.0144   -0.0676    0.0146
          12   -0.0000   -0.0000    0.0000   -0.0000   -0.0000   -0.0000    0.0000    0.0000
          13   -0.0461   -0.0029    0.0335    0.0082    0.0094   -0.0117   -0.0147   -0.0309
          14   -0.0321    0.0021    0.0328   -0.0022   -0.0278   -0.0149   -0.0152   -0.0416
          15   -0.0001    0.0000    0.0000    0.0000   -0.0000   -0.0000    0.0000    0.0000
          16   -0.0040    0.0174    0.0141   -0.0212    0.0040    0.0548   -0.0566    0.0095
          17    0.0007    0.0044   -0.0048    0.0022   -0.0193   -0.0023    0.0115   -0.0071
          18    0.0000    0.0000   -0.0000   -0.0000   -0.0000   -0.0000    0.0000   -0.0000
          19   -0.0020    0.0107   -0.0113    0.0039   -0.0381   -0.0352    0.0685   -0.0232
          20    0.0060   -0.0070   -0.0136    0.0100    0.0068   -0.0190   -0.0031    0.0141
          21    0.0000   -0.0000    0.0000   -0.0000    0.0000    0.0000   -0.0000   -0.0000
          22    0.0500    0.0069   -0.0322    0.0017    0.0128    0.0109    0.0037   -0.0236
          23    0.0019    0.0155   -0.0263   -0.0019   -0.0121   -0.0080    0.0087    0.1350
          24    0.0001   -0.0000   -0.0001    0.0000    0.0001    0.0001   -0.0000   -0.0003
          25   -0.0059    0.0004    0.0168   -0.0031   -0.0139   -0.0086    0.0019    0.0578
          26    0.0089    0.0003   -0.0267    0.0045    0.0198    0.0126   -0.0022   -0.0816
          27   -0.0001    0.0000    0.0001   -0.0000   -0.0001   -0.0001    0.0000    0.0004
          28    0.0064   -0.0038    0.0155   -0.0012   -0.0012   -0.0012   -0.0009   -0.0127
          29   -0.0046    0.0026   -0.0134    0.0015    0.0044    0.0008   -0.0007    0.0107
          30    0.0001   -0.0000    0.0001   -0.0000   -0.0000   -0.0000    0.0000   -0.0001
          31    0.0059    0.0659    0.0511    0.1580    0.0643    0.0204    0.0326    0.0219
          32   -0.0019   -0.0489   -0.0190    0.1764   -0.0991    0.0522   -0.0233   -0.0092
          33    0.0050   -0.0020    0.0087    0.1735   -0.0441    0.0639    0.0084    0.0057
          34    0.0058    0.0659    0.0511    0.1580    0.0642    0.0204    0.0327    0.0219
          35   -0.0018   -0.0489   -0.0190    0.1764   -0.0991    0.0522   -0.0233   -0.0092
          36   -0.0051    0.0020   -0.0087   -0.1735    0.0440   -0.0639   -0.0084   -0.0057
          37   -0.0037   -0.0011    0.0140    0.0103    0.0353   -0.0123    0.0242    0.0029
          38    0.0492   -0.1161   -0.0615    0.0333   -0.0233   -0.1246    0.0286   -0.0184
          39   -0.0000    0.0000   -0.0000   -0.0000    0.0000    0.0000   -0.0000   -0.0000
          40   -0.0415    0.0044    0.0403    0.0101    0.0081   -0.0160   -0.0189   -0.0408
          41   -0.1623   -0.1462   -0.0503   -0.0296    0.0240    0.0705    0.0873    0.0579
          42    0.0002    0.0000    0.0000    0.0000   -0.0000    0.0000    0.0000   -0.0002
          43   -0.0002   -0.0028   -0.0077    0.0206    0.0170   -0.0234   -0.0470    0.0145
          44    0.0132    0.1639   -0.0131    0.0247   -0.0864   -0.1046    0.0302   -0.0396
          45    0.0000   -0.0000   -0.0000   -0.0000    0.0000    0.0000    0.0000    0.0000
          46    0.0364   -0.0637   -0.0042    0.0321    0.0780   -0.0099   -0.0783    0.0295
          47   -0.0147    0.0347   -0.0199   -0.0037   -0.0590   -0.0383    0.0812   -0.0139
          48    0.0000   -0.0000    0.0000   -0.0000   -0.0000    0.0000   -0.0000    0.0000
          49    0.0223   -0.0815   -0.0149    0.0505    0.0586   -0.0708    0.0456    0.0096
          50    0.0145   -0.0461   -0.0211    0.0396    0.0047   -0.0687    0.0672   -0.0084
          51   -0.0000    0.0000    0.0000   -0.0000    0.0000   -0.0000   -0.0000    0.0000
          52    0.0224    0.0091   -0.0386    0.0044    0.0105    0.0098    0.0055   -0.0036
          53    0.2658    0.0001    0.0173   -0.0232    0.0245    0.0110   -0.0057   -0.1025
          54    0.0000    0.0001   -0.0001   -0.0001    0.0000    0.0000    0.0001    0.0001
          55   -0.0633    0.0285   -0.0956    0.0081    0.0229    0.0108   -0.0011   -0.0279
          56    0.0959   -0.0407    0.1374   -0.0115   -0.0324   -0.0155    0.0015    0.0418
          57    0.0595   -0.0287    0.1177   -0.0119   -0.0395   -0.0214    0.0032    0.1008
          58   -0.0628    0.0282   -0.0946    0.0080    0.0226    0.0106   -0.0011   -0.0269
          59    0.0954   -0.0405    0.1366   -0.0114   -0.0322   -0.0153    0.0015    0.0411
          60   -0.0604    0.0291   -0.1191    0.0120    0.0399    0.0216   -0.0033   -0.1012


   Root No.      41        42        43        44        45        46        47        48

                41 A      42 A      43 A      44 A      45 A      46 A      47 A      48 A   

                1825.4    1846.1    1867.7    2246.4    2916.2    2995.1    3020.9    3031.2
  
           1   -0.0014   -0.0117    0.0191    0.0004   -0.0000    0.0211    0.0013    0.0009
           2   -0.0100   -0.0077   -0.0267   -0.0001   -0.0000    0.0322    0.0023    0.0006
           3    0.0000   -0.0000   -0.0000    0.0000   -0.0610   -0.0001    0.0000    0.0000
           4    0.0139    0.0671   -0.0618   -0.0025   -0.0000    0.0010   -0.0008    0.0014
           5   -0.0505   -0.0805    0.1187    0.0107    0.0000   -0.0003    0.0011   -0.0029
           6    0.0000    0.0000   -0.0000   -0.0000   -0.0000    0.0000   -0.0000    0.0000
           7    0.0487    0.0308    0.0434    0.0002    0.0000   -0.0037   -0.0004   -0.0003
           8    0.1031    0.0801    0.1045   -0.0000   -0.0000    0.0007    0.0001   -0.0000
           9   -0.0000   -0.0000   -0.0000    0.0000   -0.0001   -0.0000    0.0000    0.0000
          10   -0.0566    0.0323    0.0140   -0.0004    0.0000    0.0003    0.0013   -0.0044
          11    0.1452   -0.0809   -0.0657   -0.0034   -0.0000   -0.0000   -0.0003    0.0006
          12   -0.0000    0.0000    0.0000   -0.0000   -0.0002   -0.0000   -0.0000   -0.0000
          13   -0.0154   -0.0400    0.0433    0.0035    0.0000   -0.0005    0.0254   -0.0466
          14    0.0229    0.1130   -0.1116   -0.0009   -0.0000    0.0003    0.0011   -0.0000
          15   -0.0000   -0.0000    0.0000    0.0000   -0.0001   -0.0000    0.0000   -0.0000
          16   -0.1034   -0.0416   -0.0663    0.0002    0.0000   -0.0003   -0.0000    0.0000
          17   -0.0811   -0.0691   -0.0850   -0.0001    0.0000   -0.0002   -0.0000    0.0001
          18    0.0000    0.0000    0.0000    0.0000   -0.0003   -0.0000    0.0000    0.0000
          19    0.1166   -0.0471   -0.0151   -0.0009    0.0000    0.0002   -0.0002    0.0007
          20   -0.1122    0.0788    0.0412    0.0010    0.0000   -0.0001   -0.0003    0.0009
          21    0.0000   -0.0000    0.0000   -0.0000    0.0001    0.0000   -0.0000   -0.0000
          22    0.0010   -0.0024    0.0016    0.0750   -0.0000    0.0038   -0.0471   -0.0251
          23   -0.0017   -0.0290    0.0242   -0.1333   -0.0000   -0.0000   -0.0026   -0.0004
          24   -0.0000    0.0000   -0.0000    0.0006    0.0000    0.0000   -0.0002   -0.0001
          25    0.0012   -0.0043    0.0021    0.0827    0.0000    0.0000   -0.0004   -0.0003
          26   -0.0016    0.0061   -0.0031   -0.1199   -0.0000   -0.0000    0.0004    0.0003
          27    0.0000   -0.0000    0.0000    0.0006    0.0000    0.0000   -0.0000   -0.0000
          28   -0.0019    0.0013    0.0007   -0.1739    0.0000   -0.0003    0.0025    0.0014
          29    0.0016   -0.0051    0.0023    0.2539   -0.0000    0.0004   -0.0037   -0.0028
          30   -0.0000    0.0000    0.0000   -0.0013   -0.0000   -0.0000    0.0000    0.0000
          31    0.0140    0.0108   -0.0094   -0.0008   -0.1570   -0.1276   -0.0090   -0.0030
          32   -0.0191   -0.0176    0.0012    0.0009   -0.2387   -0.1928   -0.0134   -0.0055
          33   -0.0037   -0.0011    0.0047   -0.0009    0.3684    0.3571    0.0251    0.0095
          34    0.0140    0.0108   -0.0094   -0.0008    0.1573   -0.1273   -0.0091   -0.0030
          35   -0.0191   -0.0176    0.0012    0.0010    0.2391   -0.1923   -0.0134   -0.0055
          36    0.0037    0.0011   -0.0047    0.0009    0.3691   -0.3565   -0.0252   -0.0096
          37    0.0643    0.0418    0.0610    0.0003   -0.0000    0.0406    0.0040    0.0023
          38   -0.0152   -0.0291   -0.0307   -0.0002   -0.0000    0.0026    0.0002    0.0001
          39   -0.0000    0.0000   -0.0000    0.0000   -0.0016   -0.0000   -0.0000   -0.0000
          40   -0.0194   -0.0448    0.0511    0.0110   -0.0000    0.0060   -0.2929    0.5332
          41   -0.0141   -0.0323    0.0397   -0.0096    0.0000    0.0000   -0.0131    0.0304
          42    0.0000    0.0001   -0.0001    0.0001   -0.0011    0.0000   -0.0001    0.0001
          43   -0.0803    0.0502    0.0211   -0.0003   -0.0000   -0.0072   -0.0142    0.0495
          44   -0.0354    0.0053    0.0464    0.0013   -0.0000   -0.0002   -0.0009    0.0013
          45    0.0000   -0.0000   -0.0000   -0.0000   -0.0003    0.0000   -0.0000   -0.0000
          46   -0.0401    0.0652    0.0462    0.0003   -0.0000    0.0005    0.0020   -0.0071
          47   -0.0493    0.0334    0.0138    0.0008   -0.0000    0.0008    0.0035   -0.0123
          48    0.0000   -0.0000   -0.0000    0.0000    0.0000    0.0000   -0.0000   -0.0000
          49    0.0147    0.0614    0.0593    0.0002   -0.0000    0.0012    0.0000    0.0004
          50   -0.0408   -0.0313   -0.0404   -0.0000    0.0000   -0.0036   -0.0002   -0.0006
          51   -0.0000   -0.0000    0.0000   -0.0000   -0.0008    0.0000   -0.0000   -0.0000
          52   -0.0000   -0.0093    0.0075    0.1044    0.0002   -0.0418    0.5372    0.2875
          53    0.0055    0.0194   -0.0171    0.0181    0.0000   -0.0067    0.0591    0.0353
          54    0.0000    0.0000   -0.0000    0.0005   -0.0009   -0.0002    0.0024    0.0013
          55    0.0003   -0.0004    0.0002    0.0359   -0.0001    0.0000   -0.0002   -0.0002
          56   -0.0005    0.0001    0.0002   -0.0525   -0.0001   -0.0000   -0.0000    0.0003
          57    0.0011   -0.0063    0.0037    0.1058    0.0000    0.0000    0.0001   -0.0004
          58    0.0003   -0.0005    0.0002    0.0370    0.0001    0.0000   -0.0002   -0.0003
          59   -0.0005    0.0002    0.0002   -0.0530    0.0001   -0.0000    0.0000    0.0003
          60   -0.0011    0.0063   -0.0037   -0.1052    0.0000   -0.0000   -0.0000    0.0005


   Root No.      49        50        51        52        53        54

                49 A      50 A      51 A      52 A      53 A      54 A   

                3040.8    3051.3    3064.7    3076.1    3117.1    3121.4
  
           1    0.0004   -0.0011   -0.0005    0.0008   -0.0000    0.0000
           2    0.0006   -0.0015   -0.0008    0.0012    0.0000    0.0000
           3   -0.0000    0.0000   -0.0000   -0.0000   -0.0000    0.0000
           4   -0.0002    0.0003   -0.0000   -0.0002    0.0000   -0.0000
           5    0.0008   -0.0004    0.0004    0.0006   -0.0002    0.0000
           6    0.0000   -0.0000   -0.0000   -0.0000    0.0000    0.0000
           7   -0.0015   -0.0378   -0.0181    0.0186    0.0001   -0.0000
           8   -0.0001   -0.0002   -0.0019    0.0029    0.0000    0.0000
           9   -0.0000    0.0000    0.0000   -0.0000    0.0000    0.0000
          10   -0.0493    0.0046   -0.0136   -0.0093   -0.0000   -0.0000
          11    0.0022   -0.0004    0.0028    0.0022    0.0000    0.0000
          12    0.0000   -0.0000    0.0000   -0.0000   -0.0000   -0.0000
          13    0.0045   -0.0003    0.0004    0.0001   -0.0000    0.0000
          14   -0.0004    0.0001   -0.0002   -0.0002    0.0004   -0.0000
          15    0.0000   -0.0000    0.0000    0.0000   -0.0000   -0.0000
          16    0.0014    0.0129   -0.0057    0.0118    0.0000    0.0000
          17   -0.0026   -0.0233    0.0168   -0.0286   -0.0001   -0.0000
          18   -0.0000   -0.0000    0.0000   -0.0000   -0.0000    0.0000
          19    0.0108    0.0021   -0.0129   -0.0107   -0.0000    0.0000
          20    0.0150    0.0049   -0.0284   -0.0215   -0.0001    0.0000
          21   -0.0000   -0.0000    0.0000    0.0000    0.0000   -0.0000
          22    0.0011    0.0000    0.0001   -0.0000   -0.0004    0.0000
          23   -0.0000    0.0000    0.0000    0.0000    0.0005    0.0000
          24    0.0000   -0.0000    0.0000    0.0000   -0.0000   -0.0002
          25    0.0000   -0.0000    0.0000    0.0000   -0.0272    0.0004
          26   -0.0000    0.0000   -0.0000   -0.0001    0.0393   -0.0003
          27    0.0000    0.0000   -0.0000    0.0000   -0.0005   -0.0649
          28   -0.0001   -0.0000    0.0000    0.0000    0.0048   -0.0000
          29    0.0002   -0.0000    0.0000    0.0000   -0.0071    0.0000
          30   -0.0000   -0.0000   -0.0000   -0.0000    0.0000   -0.0004
          31   -0.0012    0.0046    0.0023   -0.0028   -0.0000    0.0000
          32   -0.0017    0.0112    0.0052   -0.0059   -0.0000    0.0000
          33    0.0033   -0.0176   -0.0083    0.0096    0.0001   -0.0000
          34   -0.0012    0.0046    0.0023   -0.0028    0.0000   -0.0000
          35   -0.0017    0.0112    0.0052   -0.0059    0.0000   -0.0000
          36   -0.0033    0.0176    0.0083   -0.0096   -0.0001   -0.0000
          37    0.0168    0.4443    0.2024   -0.1956   -0.0006    0.0000
          38   -0.0005   -0.0099   -0.0024    0.0017   -0.0000   -0.0000
          39   -0.0000   -0.0000   -0.0000    0.0000   -0.0000    0.0000
          40   -0.0523    0.0029   -0.0041   -0.0009    0.0006   -0.0000
          41   -0.0049    0.0003   -0.0008   -0.0004    0.0000    0.0000
          42   -0.0000    0.0000   -0.0000   -0.0000    0.0000    0.0000
          43    0.5692   -0.0534    0.1442    0.0920    0.0006    0.0000
          44   -0.0042    0.0009   -0.0035   -0.0023   -0.0000    0.0000
          45   -0.0000    0.0000   -0.0000   -0.0000   -0.0000    0.0000
          46   -0.1149   -0.0261    0.1684    0.1295    0.0006   -0.0000
          47   -0.2000   -0.0514    0.3065    0.2294    0.0010   -0.0000
          48    0.0000    0.0000   -0.0000   -0.0000   -0.0000   -0.0000
          49   -0.0129   -0.1467    0.0847   -0.1524   -0.0005   -0.0000
          50    0.0284    0.2857   -0.1748    0.3006    0.0009    0.0000
          51    0.0000    0.0000   -0.0000    0.0000    0.0000   -0.0000
          52   -0.0121   -0.0004   -0.0015    0.0003   -0.0015   -0.0000
          53   -0.0016    0.0000   -0.0001   -0.0000   -0.0001   -0.0000
          54   -0.0001   -0.0000   -0.0000    0.0000   -0.0000   -0.0002
          55   -0.0000    0.0000   -0.0000   -0.0003    0.1344    0.1430
          56    0.0000   -0.0000    0.0001    0.0004   -0.1963   -0.2087
          57   -0.0000    0.0000   -0.0002   -0.0008    0.4054    0.3904
          58    0.0000    0.0000   -0.0001   -0.0003    0.1373   -0.1479
          59   -0.0000   -0.0000    0.0001    0.0004   -0.1964    0.2118
          60   -0.0000   -0.0000    0.0002    0.0008   -0.4003    0.3912


           MASS-WEIGHTED COORDINATE ANALYSIS (NORMAL COORDINATES)


   Root No.       1         2         3         4         5         6         7         8

                 1 A       2 A       3 A       4 A       5 A       6 A       7 A       8 A   

                  38.9      88.3     117.9     195.0     241.5     295.5     350.2     401.3
  
           1   -0.0002    0.0003   -0.2032    0.0038   -0.2294    0.0013   -0.0002   -0.2634
           2   -0.0004   -0.0005    0.1049   -0.0026    0.1742   -0.0011   -0.0001   -0.2097
           3   -0.1274    0.5078   -0.0016   -0.0780   -0.0007   -0.1728    0.0083    0.0000
           4   -0.0002    0.0003   -0.2083    0.0037   -0.2225    0.0012   -0.0002   -0.2596
           5   -0.0007   -0.0002   -0.1085    0.0008   -0.0243   -0.0001    0.0001   -0.0313
           6   -0.2206    0.1854    0.0019    0.2608    0.0038    0.0471   -0.0609    0.0009
           7    0.0003    0.0002    0.0131    0.0008   -0.0807    0.0006   -0.0001   -0.0222
           8   -0.0001   -0.0006    0.2141   -0.0043    0.2774   -0.0017    0.0000   -0.1146
           9    0.1743   -0.0738    0.0002    0.2876    0.0051    0.3071    0.0533   -0.0007
          10    0.0002    0.0004   -0.0089    0.0015   -0.1509    0.0012   -0.0003    0.0581
          11   -0.0009   -0.0004   -0.2117    0.0018   -0.0462   -0.0001    0.0002   -0.2507
          12   -0.1137    0.2620    0.0005    0.0278    0.0036    0.4290    0.0163   -0.0001
          13   -0.0004   -0.0000   -0.2954    0.0032   -0.0728   -0.0003    0.0006    0.0446
          14   -0.0008   -0.0004   -0.1581    0.0006    0.0495   -0.0008    0.0006    0.2215
          15   -0.3661   -0.1862    0.0046    0.4190    0.0011   -0.3679   -0.0974    0.0009
          16    0.0005    0.0003    0.1869   -0.0014    0.0148    0.0003   -0.0002    0.2146
          17   -0.0003   -0.0007    0.1080   -0.0030    0.2216   -0.0015    0.0001   -0.2543
          18    0.3081   -0.3479   -0.0004   -0.0379   -0.0026   -0.2366   -0.0432    0.0009
          19    0.0005    0.0003    0.1813   -0.0013    0.0062    0.0003   -0.0002    0.2127
          20   -0.0007   -0.0004   -0.1067    0.0002    0.0412   -0.0006    0.0002   -0.2101
          21    0.1480   -0.0224   -0.0015   -0.4030   -0.0059   -0.1584   -0.0028   -0.0006
          22   -0.0000   -0.0007   -0.2322   -0.0017    0.3777   -0.0037    0.0020    0.0973
          23   -0.0010   -0.0002   -0.1846    0.0025   -0.1298    0.0006   -0.0001    0.3088
          24   -0.3989   -0.3512   -0.0011   -0.2756   -0.0044    0.0891   -0.1700    0.0001
          25   -0.0006   -0.0002    0.4731   -0.0034   -0.0224    0.0011   -0.0010   -0.2082
          26    0.0033    0.0026    0.2996    0.0033   -0.4369    0.0037   -0.0025    0.1716
          27    0.5034    0.1109   -0.0012    0.0356    0.0024    0.0070   -0.1802   -0.0013
          28   -0.0003   -0.0013    0.0133   -0.0059    0.4390   -0.0020   -0.0013    0.1783
          29    0.0010    0.0005   -0.0185    0.0003   -0.1037    0.0018    0.0020    0.4093
          30    0.0414   -0.1437   -0.0004   -0.1760   -0.0022    0.0654    0.6922   -0.0001
          31    0.0151    0.0629   -0.0823   -0.0605   -0.0865   -0.0667    0.0148   -0.0814
          32   -0.0502    0.1354    0.0433   -0.1166    0.0584   -0.1646   -0.0092   -0.0590
          33   -0.0624    0.2585   -0.0024   -0.1227   -0.0043   -0.1837    0.0022   -0.0008
          34   -0.0153   -0.0627   -0.0811    0.0634   -0.0845    0.0676   -0.0148   -0.0812
          35    0.0500   -0.1358    0.0447    0.1147    0.0625    0.1640    0.0090   -0.0595
          36   -0.0624    0.2585    0.0001   -0.1227    0.0004   -0.1838    0.0023    0.0010
          37    0.0001    0.0001    0.0044    0.0002   -0.0231    0.0002   -0.0000   -0.0053
          38    0.0001   -0.0001    0.1129   -0.0020    0.1137   -0.0006    0.0000    0.0411
          39    0.0813   -0.0727    0.0004    0.2116    0.0038    0.2565    0.0386   -0.0005
[...]
 EFF. MASS   2.8379

 VIBRATION   33   33A         ATOM PAIR      ENERGY CONTRIBUTION    RADIAL
 FREQ.      1200.50         C  5 -- C  8         +27.1% ( 64.8%)     45.6%
 T-DIPOLE    0.0729         C  8 -- H 18         +24.9% ( 62.1%)     16.5%
 TRAVEL      0.1021         C  5 -- H 14         +13.4% ( 45.6%)     79.6%
 RED. MASS   0.7716         C  2 -- C  5         +12.0% ( 43.2%)      0.5%
 EFF. MASS   5.3880

 VIBRATION   34   34A         ATOM PAIR      ENERGY CONTRIBUTION    RADIAL
 FREQ.      1232.67         C  4 -- H 15         +19.0% ( 49.9%)      0.1%
 T-DIPOLE    0.0280         C  5 -- H 14         +12.8% ( 41.0%)      0.2%
 TRAVEL      0.1528         C  3 -- H 13         +11.0% ( 38.0%)      0.0%
 RED. MASS   0.1760         C  6 -- H 17          +9.1% ( 34.6%)      0.3%
 EFF. MASS   2.3440

 VIBRATION   35   35A         ATOM PAIR      ENERGY CONTRIBUTION    RADIAL
 FREQ.      1288.73         C  5 -- C  8         +17.3% ( 55.6%)     82.1%
 T-DIPOLE    0.0532         C  9 -- H 19         +13.5% ( 49.0%)      2.5%
 TRAVEL      0.0903         C  9 -- H 20         +13.4% ( 48.9%)      2.5%
 RED. MASS   0.5749         C  2 -- C  5          +9.0% ( 40.0%)     15.9%
 EFF. MASS   6.4148

 VIBRATION   36   36A         ATOM PAIR      ENERGY CONTRIBUTION    RADIAL
 FREQ.      1337.30         C  1 -- H 11         +29.5% ( 55.4%)      3.2%
 T-DIPOLE    0.1746         C  1 -- H 12         +29.5% ( 55.4%)      3.2%
 TRAVEL      0.1317         C  2 -- C  4          +7.2% ( 27.3%)     72.6%
 RED. MASS   0.3972         C  1 -- C  3          +6.4% ( 25.8%)     16.5%
 EFF. MASS   2.9071

 VIBRATION   37   37A         ATOM PAIR      ENERGY CONTRIBUTION    RADIAL
 FREQ.      1379.39         C  1 -- C  3         +15.8% ( 60.0%)     85.6%
 T-DIPOLE    0.0246         C  1 -- H 11         +13.5% ( 55.5%)      1.1%
 TRAVEL      0.0759         C  1 -- H 12         +13.5% ( 55.5%)      1.1%
 RED. MASS   1.4742         C  1 -- C  2         +10.0% ( 47.9%)     22.4%
 EFF. MASS   8.4863

 VIBRATION   38   38A         ATOM PAIR      ENERGY CONTRIBUTION    RADIAL
 FREQ.      1410.91         C  6 -- C  7         +13.6% ( 53.2%)     95.9%
 T-DIPOLE    0.1316         C  1 -- C  2         +12.6% ( 51.2%)     62.6%
 TRAVEL      0.0731         C  1 -- C  3          +9.1% ( 43.4%)     61.6%
 RED. MASS   1.1356         C  3 -- C  6          +8.5% ( 42.0%)      0.2%
 EFF. MASS   8.9460

 VIBRATION   39   39A         ATOM PAIR      ENERGY CONTRIBUTION    RADIAL
 FREQ.      1510.89         C  1 -- C  2         +19.2% ( 66.4%)     98.7%
 T-DIPOLE    0.0727         C  2 -- C  4         +19.0% ( 66.2%)     85.4%
 TRAVEL      0.0627         C  2 -- C  5         +10.0% ( 48.0%)      0.0%
 RED. MASS   2.3689         C  1 -- C  3          +9.5% ( 46.9%)     81.0%
 EFF. MASS  11.3587

 VIBRATION   40   40A         ATOM PAIR      ENERGY CONTRIBUTION    RADIAL
 FREQ.      1528.26         C  5 -- C  8         +21.5% ( 74.0%)     87.6%
 T-DIPOLE    0.1100         C  8 -- H 18         +17.7% ( 67.2%)      0.1%
 TRAVEL      0.0629         C  8 -- C 10         +14.3% ( 60.3%)     74.8%
 RED. MASS   3.4636         C  9 -- C 10         +12.0% ( 55.2%)     99.8%
 EFF. MASS  11.1536

 VIBRATION   41   41A         ATOM PAIR      ENERGY CONTRIBUTION    RADIAL
 FREQ.      1825.37         C  4 -- C  7         +26.1% ( 76.7%)     99.5%
 T-DIPOLE    0.4355         C  3 -- C  6         +15.6% ( 59.4%)     98.2%
 TRAVEL      0.0556         C  6 -- C  7         +15.6% ( 59.3%)     98.6%
 RED. MASS   2.8425         C  2 -- C  4          +9.7% ( 46.9%)     44.7%
 EFF. MASS  11.9462

 VIBRATION   42   42A         ATOM PAIR      ENERGY CONTRIBUTION    RADIAL
 FREQ.      1846.08         C  2 -- C  5         +20.0% ( 65.6%)     99.6%
 T-DIPOLE    0.4475         C  4 -- C  7         +12.9% ( 52.8%)     99.7%
 TRAVEL      0.0555         C  3 -- C  6         +11.3% ( 49.4%)     98.9%
 RED. MASS   1.9737         C  5 -- C  8          +8.3% ( 42.4%)     62.4%
 EFF. MASS  11.8429

 VIBRATION   43   43A         ATOM PAIR      ENERGY CONTRIBUTION    RADIAL
 FREQ.      1867.70         C  2 -- C  5         +21.6% ( 68.7%)     98.0%
 T-DIPOLE    0.3114         C  3 -- C  6         +16.8% ( 60.5%)     99.9%
 TRAVEL      0.0552         C  2 -- C  4         +10.6% ( 48.0%)     40.3%
 RED. MASS   2.3156         C  1 -- C  2          +8.3% ( 42.6%)     23.7%
 EFF. MASS  11.8442

 VIBRATION   44   44A         ATOM PAIR      ENERGY CONTRIBUTION    RADIAL
 FREQ.      2246.37         C  9 -- C 10         +42.1% ( 85.3%)    100.0%
 T-DIPOLE    0.9416         C  8 -- C 10         +42.0% ( 85.2%)     99.8%
 TRAVEL      0.0503         C  5 -- C  8          +4.2% ( 26.8%)     39.0%
 RED. MASS   5.8552         C  8 -- H 18          +4.2% ( 26.8%)      4.2%
 EFF. MASS  11.8579

 VIBRATION   45   45A         ATOM PAIR      ENERGY CONTRIBUTION    RADIAL
 FREQ.      2916.23         C  1 -- H 12         +49.0% ( 72.6%)     96.5%
 T-DIPOLE    0.0789         C  1 -- H 11         +48.8% ( 72.5%)     96.5%
 TRAVEL      0.1228         C  1 -- C  2          +1.1% ( 10.8%)      0.0%
 RED. MASS   0.5175         C  1 -- C  3          +1.1% ( 10.8%)      0.0%
 EFF. MASS   1.5344

 VIBRATION   46   46A         ATOM PAIR      ENERGY CONTRIBUTION    RADIAL
 FREQ.      2995.11         C  1 -- H 11         +48.9% ( 68.9%)     97.8%
 T-DIPOLE    0.1385         C  1 -- H 12         +48.7% ( 68.8%)     97.8%
 TRAVEL      0.1327         C  1 -- C  3          +0.7% (  8.0%)     19.9%
 RED. MASS   0.4744         C  1 -- C  2          +0.6% (  7.9%)     27.7%
 EFF. MASS   1.2793

 VIBRATION   47   47A         ATOM PAIR      ENERGY CONTRIBUTION    RADIAL
 FREQ.      3020.91         C  8 -- H 18         +74.5% ( 87.7%)    100.0%
 T-DIPOLE    0.0906         C  5 -- H 14         +22.0% ( 47.6%)    100.0%
 TRAVEL      0.1209         C  5 -- C  8          +1.6% ( 12.8%)     19.1%
 RED. MASS   0.5967         C  8 -- C 10          +1.2% ( 11.0%)     35.2%
 EFF. MASS   1.5282

 VIBRATION   48   48A         ATOM PAIR      ENERGY CONTRIBUTION    RADIAL
 FREQ.      3031.19         C  5 -- H 14         +74.7% ( 87.5%)    100.0%
 T-DIPOLE    0.4256         C  8 -- H 18         +21.9% ( 47.3%)    100.0%
 TRAVEL      0.1218         C  5 -- C  8          +1.1% ( 10.8%)     14.0%
 RED. MASS   0.5935         C  2 -- C  5          +1.1% ( 10.7%)     34.7%
 EFF. MASS   1.5004

 VIBRATION   49   49A         ATOM PAIR      ENERGY CONTRIBUTION    RADIAL
 FREQ.      3040.81         C  4 -- H 15         +82.7% ( 92.3%)    100.0%
 T-DIPOLE    0.2497         C  7 -- H 16         +13.6% ( 37.4%)     99.9%
 TRAVEL      0.1221         C  4 -- C  7          +1.3% ( 11.5%)      9.2%
 RED. MASS   0.6912         C  2 -- C  4          +1.2% ( 11.2%)     19.9%
 EFF. MASS   1.4879

 VIBRATION   50   50A         ATOM PAIR      ENERGY CONTRIBUTION    RADIAL
 FREQ.      3051.27         C  3 -- H 13         +62.6% ( 80.3%)    100.0%
 T-DIPOLE    0.2461         C  6 -- H 17         +32.7% ( 58.1%)    100.0%
 TRAVEL      0.1227         C  3 -- C  6          +1.1% ( 10.7%)      1.6%
 RED. MASS   0.4880         C  7 -- H 16          +1.1% ( 10.5%)     99.7%
 EFF. MASS   1.4677

 VIBRATION   51   51A         ATOM PAIR      ENERGY CONTRIBUTION    RADIAL
 FREQ.      3064.69         C  7 -- H 16         +53.2% ( 74.1%)    100.0%
 T-DIPOLE    0.3461         C  3 -- H 13         +17.7% ( 42.8%)     99.9%
 TRAVEL      0.1187         C  6 -- H 17         +16.5% ( 41.3%)     99.8%
 RED. MASS   0.3483         C  4 -- H 15          +9.0% ( 30.6%)     99.7%
 EFF. MASS   1.5618

 VIBRATION   52   52A         ATOM PAIR      ENERGY CONTRIBUTION    RADIAL
 FREQ.      3076.14         C  6 -- H 17         +47.6% ( 69.9%)    100.0%
 T-DIPOLE    0.4638         C  7 -- H 16         +29.0% ( 54.6%)    100.0%
 TRAVEL      0.1171         C  3 -- H 13         +16.1% ( 40.6%)     99.8%
 RED. MASS   0.3384         C  4 -- H 15          +3.6% ( 19.2%)     99.6%
 EFF. MASS   1.5989

 VIBRATION   53   53A         ATOM PAIR      ENERGY CONTRIBUTION    RADIAL
 FREQ.      3117.11         C  9 -- H 19         +49.5% ( 70.4%)     95.2%
 T-DIPOLE    0.4290         C  9 -- H 20         +48.7% ( 69.9%)     95.1%
 TRAVEL      0.1237         C  9 -- C 10          +1.8% ( 13.3%)    100.0%
 RED. MASS   0.4860
 EFF. MASS   1.4131

 VIBRATION   54   54A         ATOM PAIR      ENERGY CONTRIBUTION    RADIAL
 FREQ.      3121.42         C  9 -- H 20         +49.8% ( 72.2%)     97.2%
 T-DIPOLE    0.2477         C  9 -- H 19         +49.0% ( 71.7%)     97.1%
 TRAVEL      0.1164         C  9 -- C 10          +1.2% ( 11.2%)      0.0%
 RED. MASS   0.5332
 EFF. MASS   1.5939

      SYMMETRY NUMBER FOR POINT-GROUP C1  =  1


          SYSTEM IS A GROUND STATE



 InChI=1S/C10H10/c1-2-3-7-10-8-5-4-6-9-10/h3-8H,1,9H2


          MOLECULE IS NOT LINEAR

          THERE ARE 54 GENUINE VIBRATIONS IN THIS SYSTEM
          THIS THERMODYNAMICS CALCULATION IS LIMITED TO
          MOLECULES WHICH HAVE NO INTERNAL ROTATIONS




                    CALCULATED THERMODYNAMIC PROPERTIES
                                          *
   TEMP. (K)   PARTITION FUNCTION   H.O.F.    ENTHALPY  HEAT CAPACITY ENTROPY
                                   KCAL/MOL   CAL/MOLE    CAL/K/MOL  CAL/K/MOL


 298.00  VIB.     0.3377D+03                  4074.0677    29.5550    25.2413
         ROT.     0.7103D+06                   888.2813     2.9808    29.7554
         INT.     0.2399D+09                  4962.3490    32.5358    54.9967
         TRA.     0.1436D+28                  1480.4688     4.9680    40.5022
         TOT.                       85.658    6442.8178    37.5038    95.4989

 200.00  VIB.     0.3741D+02                  1734.6419    18.3271    15.8707
         ROT.     0.3906D+06                   596.1620     2.9808    28.5667
         INT.     0.1461D+08                  2330.8039    21.3079    44.4374
         TRA.     0.7896D+27                   993.6033     4.9680    38.5210
         TOT.                       82.539    3324.4071    26.2760    82.9584

 210.00  VIB.     0.4656D+02                  1923.3581    19.4194    16.7912
         ROT.     0.4202D+06                   625.9700     2.9808    28.7122
         INT.     0.1956D+08                  2549.3281    22.4002    45.5034
         TRA.     0.8496D+27                  1043.2834     4.9680    38.7634
         TOT.                       82.808    3592.6115    27.3682    84.2668

 220.00  VIB.     0.5802D+02                  2123.0919    20.5303    17.7202
         ROT.     0.4506D+06                   655.7781     2.9808    28.8508
         INT.     0.2614D+08                  2778.8701    23.5112    46.5710
         TRA.     0.9110D+27                  1092.9636     4.9680    38.9945
         TOT.                       83.087    3871.8336    28.4792    85.5655

 230.00  VIB.     0.7240D+02                  2334.0202    21.6579    18.6576
         ROT.     0.4816D+06                   685.5862     2.9808    28.9833
         INT.     0.3487D+08                  3019.6065    24.6387    47.6409
         TRA.     0.9738D+27                  1142.6437     4.9680    39.2154
         TOT.                       83.377    4162.2502    29.6067    86.8563

 240.00  VIB.     0.9046D+02                  2556.2964    22.7995    19.6034
         ROT.     0.5134D+06                   715.3943     2.9808    29.1102
         INT.     0.4644D+08                  3271.6908    25.7803    48.7136
         TRA.     0.1038D+28                  1192.3239     4.9680    39.4268
         TOT.                       83.679    4464.0147    30.7483    88.1404

 250.00  VIB.     0.1132D+03                  2790.0478    23.9525    20.5575
         ROT.     0.5458D+06                   745.2024     2.9808    29.2319
         INT.     0.6177D+08                  3535.2503    26.9333    49.7893
         TRA.     0.1103D+28                  1242.0041     4.9680    39.6296
         TOT.                       83.992    4777.2543    31.9013    89.4190

 260.00  VIB.     0.1418D+03                  3035.3738    25.1139    21.5195
         ROT.     0.5789D+06                   775.0105     2.9808    29.3488
         INT.     0.8207D+08                  3810.3844    28.0947    50.8683
         TRA.     0.1170D+28                  1291.6842     4.9680    39.8245
         TOT.                       84.317    5102.0686    33.0627    90.6928

 270.00  VIB.     0.1778D+03                  3292.3450    26.2810    22.4892
         ROT.     0.6126D+06                   804.8186     2.9808    29.4613
         INT.     0.1089D+09                  4097.1636    29.2618    51.9505
         TRA.     0.1239D+28                  1341.3644     4.9680    40.0120
         TOT.                       84.654    5438.5280    34.2298    91.9624

 280.00  VIB.     0.2233D+03                  3561.0034    27.4509    23.4661
         ROT.     0.6470D+06                   834.6267     2.9808    29.5697
         INT.     0.1445D+09                  4395.6301    30.4317    53.0358
         TRA.     0.1308D+28                  1391.0445     4.9680    40.1926
         TOT.                       85.002    5786.6746    35.3997    93.2284

 290.00  VIB.     0.2809D+03                  3841.3629    28.6208    24.4498
         ROT.     0.6819D+06                   864.4348     2.9808    29.6743
         INT.     0.1915D+09                  4705.7977    31.6016    54.1241
         TRA.     0.1379D+28                  1440.7247     4.9680    40.3670
         TOT.                       85.362    6146.5224    36.5696    94.4911

 300.00  VIB.     0.3537D+03                  4133.4109    29.7882    25.4398
         ROT.     0.7175D+06                   894.2429     2.9808    29.7753
         INT.     0.2538D+09                  5027.6538    32.7690    55.2151
         TRA.     0.1451D+28                  1490.4049     4.9680    40.5354
         TOT.                       85.733    6518.0587    37.7370    95.7505

 310.00  VIB.     0.4459D+03                  4437.1096    30.9506    26.4355
         ROT.     0.7537D+06                   924.0510     2.9808    29.8731
         INT.     0.3361D+09                  5361.1606    33.9314    56.3086
         TRA.     0.1524D+28                  1540.0850     4.9680    40.6983
         TOT.                       86.116    6901.2456    38.8994    97.0069

 320.00  VIB.     0.5629D+03                  4752.3982    32.1058    27.4364
         ROT.     0.7904D+06                   953.8591     2.9808    29.9677
         INT.     0.4449D+09                  5706.2573    35.0866    57.4041
         TRA.     0.1598D+28                  1589.7652     4.9680    40.8560
         TOT.                       86.511    7296.0225    40.0546    98.2601

 330.00  VIB.     0.7114D+03                  5079.1948    33.2519    28.4419
         ROT.     0.8278D+06                   983.6672     2.9808    30.0594
         INT.     0.5889D+09                  6062.8620    36.2327    58.5014
         TRA.     0.1674D+28                  1639.4454     4.9680    41.0089
         TOT.                       86.917    7702.3074    41.2007    99.5103

 340.00  VIB.     0.9001D+03                  5417.3987    34.3870    29.4515
         ROT.     0.8657D+06                  1013.4753     2.9808    30.1484
         INT.     0.7792D+09                  6430.8741    37.3678    59.5999
         TRA.     0.1750D+28                  1689.1255     4.9680    41.1572
         TOT.                       87.335    8119.9996    42.3358   100.7571

 350.00  VIB.     0.1140D+04                  5766.8928    35.5096    30.4645
         ROT.     0.9041D+06                  1043.2834     2.9808    30.2348
         INT.     0.1031D+10                  6810.1762    38.4904    60.6993
         TRA.     0.1828D+28                  1738.8057     4.9680    41.3012
         TOT.                       87.764    8548.9819    43.4585   102.0005

 360.00  VIB.     0.1446D+04                  6127.5453    36.6185    31.4804
         ROT.     0.9432D+06                  1073.0915     2.9808    30.3188
         INT.     0.1363D+10                  7200.6368    39.5993    61.7992
         TRA.     0.1907D+28                  1788.4859     4.9680    41.4412
         TOT.                       88.204    8989.1226    44.5673   103.2404

 370.00  VIB.     0.1835D+04                  6499.2120    37.7123    32.4987
         ROT.     0.9827D+06                  1102.8996     2.9808    30.4005
         INT.     0.1803D+10                  7602.1116    40.6931    62.8991
         TRA.     0.1987D+28                  1838.1660     4.9680    41.5773
         TOT.                       88.655    9440.2776    45.6611   104.4764

 380.00  VIB.     0.2331D+04                  6881.7386    38.7903    33.5187
         ROT.     0.1023D+07                  1132.7077     2.9808    30.4800
         INT.     0.2384D+10                  8014.4463    41.7711    63.9987
         TRA.     0.2068D+28                  1887.8462     4.9680    41.7098
         TOT.                       89.117    9902.2925    46.7391   105.7085

 390.00  VIB.     0.2964D+04                  7274.9620    39.8516    34.5401
         ROT.     0.1063D+07                  1162.5158     2.9808    30.5574
         INT.     0.3152D+10                  8437.4778    42.8324    65.0975
         TRA.     0.2150D+28                  1937.5263     4.9680    41.8388
         TOT.                       89.590   10375.0041    47.8004   106.9363

 400.00  VIB.     0.3772D+04                  7678.7123    40.8956    35.5622
         ROT.     0.1105D+07                  1192.3239     2.9808    30.6329
         INT.     0.4167D+10                  8871.0362    43.8764    66.1951
         TRA.     0.2233D+28                  1987.2065     4.9680    41.9646
         TOT.                       90.073   10858.2427    48.8444   108.1597

   *: NOTE: HEATS OF FORMATION ARE RELATIVE TO THE
            ELEMENTS IN THEIR STANDARD STATE AT 298K
              (=  Standard Enthalpy of Formation).

            Hvib:  Zero-point energy is not included.
                   frequencies of less than zero cm-1 are not included.
            Hrot = (3/2)RT
            Htra = (3/2)RT + pV = (5/2)RT

            Heat capacity is Cp, not Cv

          For more information, see: HTTP://OpenMOPAC.net/Manual/thermochemistry.html


           FORCE CONSTANT IN CARTESIAN COORDINATES (Millidynes/A)

    ATOM   CHEMICAL       X               Y               Z
   NUMBER   SYMBOL  FORCE CONSTANT  FORCE CONSTANT  FORCE CONSTANT

      1       C        9.097074        9.183929        7.561824
      2       C       11.391351       13.887959        2.627432
      3       C       11.389476       13.262343        2.376029
      4       C       11.431262       13.783248        2.210682
      5       C       10.986414       14.063991        2.146329
      6       C       11.636624       13.820512        2.203478
      7       C       11.489010       13.817847        2.202628
      8       C       11.198524       13.993675        2.059013
      9       C        6.434775       11.403386        8.395187
     10       C        9.048969       17.362162        1.620155
     11       H        1.095260        1.625166        3.418352
     12       H        1.095065        1.624793        3.418215
     13       H        5.135404        0.771014        0.348662
     14       H        5.030242        0.824002        0.336793
     15       H        5.090284        0.795830        0.344781
     16       H        1.802960        4.115098        0.344853
     17       H        1.655955        4.264790        0.347919
     18       H        4.971521        0.797561        0.314564
     19       H        0.823630        1.407071        4.035682
     20       H        0.846556        1.419964        3.997032

 **********************
 *                    *
 * JOB ENDED NORMALLY *
 *                    *
 **********************



 TOTAL JOB TIME:             2.08 SECONDS

 == MOPAC DONE ==
