 *******************************************************************************
 ** Site#: 14399        For non-commercial use only    Version 18.184L 64BITS **
 *******************************************************************************
 ** Cite this program as: MOPAC2016, Version: 18.184L, James J. P. Stewart,   **
 ** Stewart Computational Chemistry, web: HTTP://OpenMOPAC.net. Days left:  18**
 *******************************************************************************
 **                                                                           **
 **                                MOPAC2016                                  **
 **                                                                           **
 *******************************************************************************

                              PM3 CALCULATION RESULTS

 *******************************************************************************
 *  CALCULATION DONE:                                Sat Jun 15 11:11:24 2019  *
 *  PM3        - The PM3 Hamiltonian to be used
 *  PRECISE    - CRITERIA TO BE INCREASED BY 100 TIMES
 *  NOSYM      - POINT-GROUP SYMMETRY SET TO C1
 *  THREADS=1  - MULTI-THREADING NOT USED
 *  T=         - A TIME OF 172800.0 SECONDS REQUESTED
 *  DUMP=N     - RESTART FILE WRITTEN EVERY  7200.000 SECONDS
 *******************************************************************************
pm3  precise nosym THREADS=1
 InChI=1S/C7H12O2/c8-5-2-1-3-7-4-6-9-7/h2,5,7-8H,1,3-4,6H2

   ATOM   CHEMICAL          X               Y               Z
  NUMBER   SYMBOL      (ANGSTROMS)     (ANGSTROMS)     (ANGSTROMS)
 
     1       O         -1.85740000  *   0.59680000  *   0.90440000  *
     2       O          4.47520000  *   0.12690000  *   0.03290000  *
     3       C         -1.58680000  *   0.12770000  *  -0.39580000  *
     4       C         -0.13110000  *  -0.34290000  *  -0.53620000  *
     5       C         -2.58370000  *  -1.00340000  *  -0.27330000  *
     6       C          0.83320000  *   0.84640000  *  -0.53580000  *
     7       C         -2.80900000  *  -0.42230000  *   1.10010000  *
     8       C          2.24830000  *   0.37030000  *  -0.69930000  *
     9       C          3.17780000  *   0.58520000  *   0.23010000  *
    10       H         -1.88210000  *   0.87500000  *  -1.16680000  *
    11       H          0.12750000  *  -1.02880000  *   0.30160000  *
    12       H         -0.02810000  *  -0.90170000  *  -1.49240000  *
    13       H         -3.46240000  *  -0.88250000  *  -0.94330000  *
    14       H         -2.13550000  *  -2.02100000  *  -0.24430000  *
    15       H          0.59150000  *   1.52370000  *  -1.38290000  *
    16       H          0.71240000  *   1.42120000  *   0.40930000  *
    17       H         -3.82970000  *  -0.00020000  *   1.23100000  *
    18       H         -2.49870000  *  -1.10960000  *   1.91780000  *
    19       H          2.51630000  *  -0.16160000  *  -1.60460000  *
    20       H          2.93580000  *   1.11460000  *   1.14400000  *
    21       H          5.18660000  *   0.28640000  *   0.73550000  *
 


          CARTESIAN COORDINATES 

    NO.       ATOM           X           Y           Z

     1         O         -1.8574      0.5968      0.9044
     2         O          4.4752      0.1269      0.0329
     3         C         -1.5868      0.1277     -0.3958
     4         C         -0.1311     -0.3429     -0.5362
     5         C         -2.5837     -1.0034     -0.2733
     6         C          0.8332      0.8464     -0.5358
     7         C         -2.8090     -0.4223      1.1001
     8         C          2.2483      0.3703     -0.6993
     9         C          3.1778      0.5852      0.2301
    10         H         -1.8821      0.8750     -1.1668
    11         H          0.1275     -1.0288      0.3016
    12         H         -0.0281     -0.9017     -1.4924
    13         H         -3.4624     -0.8825     -0.9433
    14         H         -2.1355     -2.0210     -0.2443
    15         H          0.5915      1.5237     -1.3829
    16         H          0.7124      1.4212      0.4093
    17         H         -3.8297     -0.0002      1.2310
    18         H         -2.4987     -1.1096      1.9178
    19         H          2.5163     -0.1616     -1.6046
    20         H          2.9358      1.1146      1.1440
    21         H          5.1866      0.2864      0.7355

  H: (PM3): J. J. P. STEWART, J. COMP. CHEM. 10, 209 (1989).
  C: (PM3): J. J. P. STEWART, J. COMP. CHEM. 10, 209 (1989).
  O: (PM3): J. J. P. STEWART, J. COMP. CHEM. 10, 209 (1989).

           Empirical Formula: C7 H12 O2  =    21 atoms



      MOLECULAR POINT GROUP   :   C1  


      RHF CALCULATION, NO. OF DOUBLY OCCUPIED LEVELS = 26


          Geometry optimization using EF

          DIAGONAL MATRIX USED AS START HESSIAN

 CYCLE:     1 TIME:   0.004 TIME LEFT:  2.00D  GRAD.:   167.515 HEAT: -50.19820
 CYCLE:     2 TIME:   0.008 TIME LEFT:  2.00D  GRAD.:    88.984 HEAT: -56.44147
 CYCLE:     3 TIME:   0.004 TIME LEFT:  2.00D  GRAD.:    94.156 HEAT: -59.11701
 CYCLE:     4 TIME:   0.008 TIME LEFT:  2.00D  GRAD.:    74.851 HEAT: -61.21063
 CYCLE:     5 TIME:   0.004 TIME LEFT:  2.00D  GRAD.:    80.670 HEAT: -61.68607
 CYCLE:     6 TIME:   0.008 TIME LEFT:  2.00D  GRAD.:    63.466 HEAT: -62.74834
 CYCLE:     7 TIME:   0.004 TIME LEFT:  2.00D  GRAD.:    62.595 HEAT: -62.94317
 CYCLE:     8 TIME:   0.004 TIME LEFT:  2.00D  GRAD.:    63.637 HEAT: -63.12694
 CYCLE:     9 TIME:   0.008 TIME LEFT:  2.00D  GRAD.:    23.778 HEAT: -64.16064
 CYCLE:    10 TIME:   0.008 TIME LEFT:  2.00D  GRAD.:    20.687 HEAT: -64.28381
 CYCLE:    11 TIME:   0.004 TIME LEFT:  2.00D  GRAD.:    23.722 HEAT: -64.34427
 CYCLE:    12 TIME:   0.004 TIME LEFT:  2.00D  GRAD.:    20.908 HEAT: -64.42830
 CYCLE:    13 TIME:   0.008 TIME LEFT:  2.00D  GRAD.:     9.832 HEAT: -64.54852
 CYCLE:    14 TIME:   0.004 TIME LEFT:  2.00D  GRAD.:    13.747 HEAT: -64.55618
 CYCLE:    15 TIME:   0.004 TIME LEFT:  2.00D  GRAD.:     8.145 HEAT: -64.62249
 CYCLE:    16 TIME:   0.012 TIME LEFT:  2.00D  GRAD.:     4.138 HEAT: -64.64019
 CYCLE:    17 TIME:   0.004 TIME LEFT:  2.00D  GRAD.:     5.133 HEAT: -64.64653
 CYCLE:    18 TIME:   0.004 TIME LEFT:  2.00D  GRAD.:     6.632 HEAT: -64.64899
 CYCLE:    19 TIME:   0.004 TIME LEFT:  2.00D  GRAD.:     4.499 HEAT: -64.65664
 CYCLE:    20 TIME:   0.004 TIME LEFT:  2.00D  GRAD.:     4.207 HEAT: -64.66025
 CYCLE:    21 TIME:   0.004 TIME LEFT:  2.00D  GRAD.:     3.723 HEAT: -64.66386
 CYCLE:    22 TIME:   0.004 TIME LEFT:  2.00D  GRAD.:     4.208 HEAT: -64.66406
 CYCLE:    23 TIME:   0.004 TIME LEFT:  2.00D  GRAD.:     2.601 HEAT: -64.67031
 CYCLE:    24 TIME:   0.004 TIME LEFT:  2.00D  GRAD.:     2.395 HEAT: -64.67300
 CYCLE:    25 TIME:   0.004 TIME LEFT:  2.00D  GRAD.:     1.825 HEAT: -64.67646
 CYCLE:    26 TIME:   0.004 TIME LEFT:  2.00D  GRAD.:     2.180 HEAT: -64.68064
 CYCLE:    27 TIME:   0.008 TIME LEFT:  2.00D  GRAD.:     2.602 HEAT: -64.68320
 CYCLE:    28 TIME:   0.004 TIME LEFT:  2.00D  GRAD.:     1.892 HEAT: -64.68514
 CYCLE:    29 TIME:   0.004 TIME LEFT:  2.00D  GRAD.:     1.691 HEAT: -64.68678
 CYCLE:    30 TIME:   0.004 TIME LEFT:  2.00D  GRAD.:     1.110 HEAT: -64.68882
 CYCLE:    31 TIME:   0.004 TIME LEFT:  2.00D  GRAD.:     1.419 HEAT: -64.69272
 CYCLE:    32 TIME:   0.004 TIME LEFT:  2.00D  GRAD.:     1.716 HEAT: -64.69529
 CYCLE:    33 TIME:   0.004 TIME LEFT:  2.00D  GRAD.:     1.459 HEAT: -64.69786
 CYCLE:    34 TIME:   0.004 TIME LEFT:  2.00D  GRAD.:     1.243 HEAT: -64.70106
 CYCLE:    35 TIME:   0.004 TIME LEFT:  2.00D  GRAD.:     1.429 HEAT: -64.70557
 CYCLE:    36 TIME:   0.004 TIME LEFT:  2.00D  GRAD.:     1.137 HEAT: -64.70754
 CYCLE:    37 TIME:   0.008 TIME LEFT:  2.00D  GRAD.:     0.971 HEAT: -64.70972
 CYCLE:    38 TIME:   0.004 TIME LEFT:  2.00D  GRAD.:     1.160 HEAT: -64.71169
 CYCLE:    39 TIME:   0.004 TIME LEFT:  2.00D  GRAD.:     1.019 HEAT: -64.71325
 CYCLE:    40 TIME:   0.004 TIME LEFT:  2.00D  GRAD.:     0.699 HEAT: -64.71439
 CYCLE:    41 TIME:   0.004 TIME LEFT:  2.00D  GRAD.:     0.776 HEAT: -64.71550
 CYCLE:    42 TIME:   0.004 TIME LEFT:  2.00D  GRAD.:     0.997 HEAT: -64.71683
 CYCLE:    43 TIME:   0.004 TIME LEFT:  2.00D  GRAD.:     0.995 HEAT: -64.71849
 CYCLE:    44 TIME:   0.004 TIME LEFT:  2.00D  GRAD.:     0.884 HEAT: -64.72033
 CYCLE:    45 TIME:   0.004 TIME LEFT:  2.00D  GRAD.:     0.696 HEAT: -64.72130
 CYCLE:    46 TIME:   0.008 TIME LEFT:  2.00D  GRAD.:     0.854 HEAT: -64.72297
 CYCLE:    47 TIME:   0.004 TIME LEFT:  2.00D  GRAD.:     0.821 HEAT: -64.72389
 CYCLE:    48 TIME:   0.004 TIME LEFT:  2.00D  GRAD.:     1.047 HEAT: -64.72615
 CYCLE:    49 TIME:   0.004 TIME LEFT:  2.00D  GRAD.:     0.854 HEAT: -64.72724
 CYCLE:    50 TIME:   0.004 TIME LEFT:  2.00D  GRAD.:     1.035 HEAT: -64.72981
 CYCLE:    51 TIME:   0.004 TIME LEFT:  2.00D  GRAD.:     0.782 HEAT: -64.73085
 CYCLE:    52 TIME:   0.004 TIME LEFT:  2.00D  GRAD.:     0.906 HEAT: -64.73348
 CYCLE:    53 TIME:   0.004 TIME LEFT:  2.00D  GRAD.:     0.743 HEAT: -64.73451
 CYCLE:    54 TIME:   0.004 TIME LEFT:  2.00D  GRAD.:     0.705 HEAT: -64.73587
 CYCLE:    55 TIME:   0.004 TIME LEFT:  2.00D  GRAD.:     0.494 HEAT: -64.73640
 CYCLE:    56 TIME:   0.004 TIME LEFT:  2.00D  GRAD.:     0.415 HEAT: -64.73718
 CYCLE:    57 TIME:   0.008 TIME LEFT:  2.00D  GRAD.:     0.499 HEAT: -64.73803
 CYCLE:    58 TIME:   0.004 TIME LEFT:  2.00D  GRAD.:     0.569 HEAT: -64.73911
 CYCLE:    59 TIME:   0.004 TIME LEFT:  2.00D  GRAD.:     0.493 HEAT: -64.73979
 CYCLE:    60 TIME:   0.004 TIME LEFT:  2.00D  GRAD.:     0.424 HEAT: -64.74034
 CYCLE:    61 TIME:   0.004 TIME LEFT:  2.00D  GRAD.:     0.405 HEAT: -64.74073
 CYCLE:    62 TIME:   0.004 TIME LEFT:  2.00D  GRAD.:     0.405 HEAT: -64.74123
 CYCLE:    63 TIME:   0.004 TIME LEFT:  2.00D  GRAD.:     0.425 HEAT: -64.74175
 CYCLE:    64 TIME:   0.004 TIME LEFT:  2.00D  GRAD.:     0.456 HEAT: -64.74228
 CYCLE:    65 TIME:   0.004 TIME LEFT:  2.00D  GRAD.:     0.497 HEAT: -64.74283
 CYCLE:    66 TIME:   0.008 TIME LEFT:  2.00D  GRAD.:     0.548 HEAT: -64.74357
 CYCLE:    67 TIME:   0.004 TIME LEFT:  2.00D  GRAD.:     0.623 HEAT: -64.74464
 CYCLE:    68 TIME:   0.004 TIME LEFT:  2.00D  GRAD.:     0.638 HEAT: -64.74587
 CYCLE:    69 TIME:   0.004 TIME LEFT:  2.00D  GRAD.:     0.614 HEAT: -64.74729
 CYCLE:    70 TIME:   0.004 TIME LEFT:  2.00D  GRAD.:     0.504 HEAT: -64.74794
 CYCLE:    71 TIME:   0.004 TIME LEFT:  2.00D  GRAD.:     0.413 HEAT: -64.74891
 CYCLE:    72 TIME:   0.004 TIME LEFT:  2.00D  GRAD.:     0.449 HEAT: -64.74937
 CYCLE:    73 TIME:   0.004 TIME LEFT:  2.00D  GRAD.:     0.540 HEAT: -64.75007
 CYCLE:    74 TIME:   0.004 TIME LEFT:  2.00D  GRAD.:     0.537 HEAT: -64.75065
 CYCLE:    75 TIME:   0.004 TIME LEFT:  2.00D  GRAD.:     0.541 HEAT: -64.75134
 CYCLE:    76 TIME:   0.004 TIME LEFT:  2.00D  GRAD.:     0.508 HEAT: -64.75207
 CYCLE:    77 TIME:   0.008 TIME LEFT:  2.00D  GRAD.:     0.465 HEAT: -64.75267
 CYCLE:    78 TIME:   0.004 TIME LEFT:  2.00D  GRAD.:     0.397 HEAT: -64.75319
 CYCLE:    79 TIME:   0.004 TIME LEFT:  2.00D  GRAD.:     0.349 HEAT: -64.75360
 CYCLE:    80 TIME:   0.004 TIME LEFT:  2.00D  GRAD.:     0.321 HEAT: -64.75387
 CYCLE:    81 TIME:   0.004 TIME LEFT:  2.00D  GRAD.:     0.327 HEAT: -64.75405
 CYCLE:    82 TIME:   0.004 TIME LEFT:  2.00D  GRAD.:     0.330 HEAT: -64.75425
 CYCLE:    83 TIME:   0.004 TIME LEFT:  2.00D  GRAD.:     0.462 HEAT: -64.75479
 CYCLE:    84 TIME:   0.004 TIME LEFT:  2.00D  GRAD.:     0.488 HEAT: -64.75535
 CYCLE:    85 TIME:   0.004 TIME LEFT:  2.00D  GRAD.:     0.642 HEAT: -64.75646
 CYCLE:    86 TIME:   0.004 TIME LEFT:  2.00D  GRAD.:     0.430 HEAT: -64.75685
 CYCLE:    87 TIME:   0.008 TIME LEFT:  2.00D  GRAD.:     0.377 HEAT: -64.75735
 CYCLE:    88 TIME:   0.004 TIME LEFT:  2.00D  GRAD.:     0.311 HEAT: -64.75755
 CYCLE:    89 TIME:   0.004 TIME LEFT:  2.00D  GRAD.:     0.429 HEAT: -64.75747
 CYCLE:    90 TIME:   0.004 TIME LEFT:  2.00D  GRAD.:     0.162 HEAT: -64.75796
 CYCLE:    91 TIME:   0.004 TIME LEFT:  2.00D  GRAD.:     0.099 HEAT: -64.75798
 CYCLE:    92 TIME:   0.004 TIME LEFT:  2.00D  GRAD.:     0.092 HEAT: -64.75800
 CYCLE:    93 TIME:   0.004 TIME LEFT:  2.00D  GRAD.:     0.085 HEAT: -64.75802
 CYCLE:    94 TIME:   0.004 TIME LEFT:  2.00D  GRAD.:     0.083 HEAT: -64.75806
 CYCLE:    95 TIME:   0.004 TIME LEFT:  2.00D  GRAD.:     0.092 HEAT: -64.75807
 CYCLE:    96 TIME:   0.004 TIME LEFT:  2.00D  GRAD.:     0.173 HEAT: -64.75812
 CYCLE:    97 TIME:   0.004 TIME LEFT:  2.00D  GRAD.:     0.138 HEAT: -64.75815
 CYCLE:    98 TIME:   0.008 TIME LEFT:  2.00D  GRAD.:     0.312 HEAT: -64.75814
 CYCLE:    99 TIME:   0.004 TIME LEFT:  2.00D  GRAD.:     0.119 HEAT: -64.75824
 CYCLE:   100 TIME:   0.004 TIME LEFT:  2.00D  GRAD.:     0.086 HEAT: -64.75826
 CYCLE:   101 TIME:   0.004 TIME LEFT:  2.00D  GRAD.:     0.109 HEAT: -64.75829
 CYCLE:   102 TIME:   0.004 TIME LEFT:  2.00D  GRAD.:     0.064 HEAT: -64.75831
 CYCLE:   103 TIME:   0.004 TIME LEFT:  2.00D  GRAD.:     0.052 HEAT: -64.75832
 CYCLE:   104 TIME:   0.004 TIME LEFT:  2.00D  GRAD.:     0.043 HEAT: -64.75833

     GRADIENT =  0.04252  IS LESS THAN CUTOFF =  0.05000



 -------------------------------------------------------------------------------
 pm3  precise nosym THREADS=1
 InChI=1S/C7H12O2/c8-5-2-1-3-7-4-6-9-7/h2,5,7-8H,1,3-4,6H2



     GEOMETRY OPTIMISED USING EIGENVECTOR FOLLOWING (EF).     
     SCF FIELD WAS ACHIEVED                                   


                              PM3 CALCULATION
                                                       MOPAC2016 (Version: 18.184L)
                                                       Sat Jun 15 11:11:24 2019
                                                       No. of days remaining =  18




          FINAL HEAT OF FORMATION =        -64.75833 KCAL/MOL =    -270.94886 KJ/MOL


          TOTAL ENERGY            =      -1601.13311 EV
          ELECTRONIC ENERGY       =      -7375.43760 EV  POINT GROUP:     C1  
          CORE-CORE REPULSION     =       5774.30449 EV
          COSMO AREA              =        179.71 SQUARE ANGSTROMS
          COSMO VOLUME            =        172.53 CUBIC ANGSTROMS

          GRADIENT NORM           =          0.04252 = 0.00928 PER ATOM
          IONIZATION POTENTIAL    =          9.278154 EV
          HOMO LUMO ENERGIES (EV) =         -9.278  1.214
          NO. OF FILLED LEVELS    =         26
          MOLECULAR WEIGHT        =        128.1706

          MOLECULAR DIMENSIONS (Angstroms)

            Atom       Atom       Distance
            H    21    H    17     9.01579
            H    18    H    15     3.90848
            H    20    H    14     3.45724


          SCF CALCULATIONS        =        112
 
          WALL-CLOCK TIME         =          0.477 SECONDS
          COMPUTATION TIME        =          0.441 SECONDS




   ATOM   CHEMICAL          X               Y               Z
  NUMBER   SYMBOL      (ANGSTROMS)     (ANGSTROMS)     (ANGSTROMS)
 
     1       O         -1.91230620  *   0.56669387  *   0.97479157  *
     2       O          4.50397193  *   0.14544424  *  -0.04844932  *
     3       C         -1.53771307  *   0.13847668  *  -0.37386716  *
     4       C         -0.10267754  *  -0.34605053  *  -0.47598093  *
     5       C         -2.61425258  *  -0.97692004  *  -0.32426831  *
     6       C          0.88315248  *   0.81306176  *  -0.50657568  *
     7       C         -2.93973865  *  -0.45035244  *   1.08767992  *
     8       C          2.27363922  *   0.31585755  *  -0.67552136  *
     9       C          3.24781756  *   0.63329159  *   0.18887593  *
    10       H         -1.74370831  *   0.96117688  *  -1.09065649  *
    11       H          0.14052913  *  -1.02546432  *   0.36483457  *
    12       H         -0.00526110  *  -0.95692440  *  -1.39571789  *
    13       H         -3.42084553  *  -0.89065979  *  -1.06574902  *
    14       H         -2.23054331  *  -2.00682275  *  -0.37277193  *
    15       H          0.64686459  *   1.49682347  *  -1.34752544  *
    16       H          0.77842308  *   1.42161153  *   0.41422290  *
    17       H         -3.93068689  *   0.00509342  *   1.22770796  *
    18       H         -2.73330254  *  -1.13081862  *   1.92641794  *
    19       H          2.46590356  *  -0.32261111  *  -1.54638555  *
    20       H          3.10285749  *   1.26260998  *   1.07539174  *
    21       H          5.05509694  *   0.46366297  *   0.65335444  *

                             CARTESIAN COORDINATES

   1    O       -1.912306200     0.566693865     0.974791573
   2    O        4.503971932     0.145444245    -0.048449317
   3    C       -1.537713072     0.138476681    -0.373867157
   4    C       -0.102677545    -0.346050527    -0.475980931
   5    C       -2.614252585    -0.976920044    -0.324268309
   6    C        0.883152476     0.813061764    -0.506575682
   7    C       -2.939738648    -0.450352439     1.087679918
   8    C        2.273639222     0.315857551    -0.675521362
   9    C        3.247817560     0.633291594     0.188875925
  10    H       -1.743708309     0.961176876    -1.090656493
  11    H        0.140529135    -1.025464323     0.364834569
  12    H       -0.005261102    -0.956924401    -1.395717892
  13    H       -3.420845531    -0.890659788    -1.065749016
  14    H       -2.230543312    -2.006822749    -0.372771927
  15    H        0.646864587     1.496823468    -1.347525440
  16    H        0.778423077     1.421611526     0.414222902
  17    H       -3.930686890     0.005093425     1.227707957
  18    H       -2.733302543    -1.130818615     1.926417938
  19    H        2.465903556    -0.322611111    -1.546385550
  20    H        3.102857486     1.262609983     1.075391742
  21    H        5.055096938     0.463662970     0.653354437


           Empirical Formula: C7 H12 O2  =    21 atoms



      MOLECULAR POINT GROUP   :   C1  


                  EIGENVALUES  
 -41.02553 -38.74726 -35.25542 -30.00938 -28.58453 -24.68885 -21.96012 -20.23208
 -19.65862 -18.45326 -17.61333 -17.00468 -16.38528 -16.15225 -14.38935 -14.30489
 -14.15666 -13.77686 -13.20071 -13.08178 -12.59812 -12.42784 -12.10872 -11.64550
 -10.56809  -9.27815   1.21360   2.73557   2.89965   3.05018   3.24030   3.48040
   3.55158   3.78199   3.87090   3.93866   4.02951   4.08502   4.19918   4.53042
   4.62565   4.63387   4.89951   4.99249   5.04481   5.23483   5.80422   6.05458


              NET ATOMIC CHARGES AND DIPOLE CONTRIBUTIONS

  ATOM NO.   TYPE          CHARGE      No. of ELECS.   s-Pop       p-Pop       
    1          O          -0.276741        6.2767     1.88409     4.39265
    2          O          -0.236279        6.2363     1.79356     4.44272
    3          C           0.066897        3.9331     1.18939     2.74371
    4          C          -0.113332        4.1133     1.16446     2.94887
    5          C          -0.168034        4.1680     1.18615     2.98188
    6          C          -0.042385        4.0424     1.14395     2.89844
    7          C           0.058576        3.9414     1.16459     2.77683
    8          C          -0.228034        4.2280     1.19440     3.03363
    9          C           0.003740        3.9963     1.18087     2.81539
   10          H           0.068659        0.9313     0.93134
   11          H           0.065067        0.9349     0.93493
   12          H           0.056872        0.9431     0.94313
   13          H           0.066704        0.9333     0.93330
   14          H           0.070033        0.9300     0.92997
   15          H           0.051318        0.9487     0.94868
   16          H           0.057897        0.9421     0.94210
   17          H           0.047651        0.9523     0.95235
   18          H           0.047491        0.9525     0.95251
   19          H           0.118772        0.8812     0.88123
   20          H           0.096009        0.9040     0.90399
   21          H           0.189119        0.8109     0.81088
 DIPOLE           X         Y         Z       TOTAL
 POINT-CHG.    -0.433    -0.422    -0.071     0.609
 HYBRID         0.110     0.074     0.382     0.404
 SUM           -0.324    -0.349     0.311     0.568


          ATOMIC ORBITAL ELECTRON POPULATIONS

     Atom    s        px        py        pz   
    1  O   1.88409   1.53385   1.53251   1.32629
    2  O   1.79356   1.18536   1.73302   1.52434
    3  C   1.18939   0.93349   0.94153   0.86869
    4  C   1.16446   0.94073   0.98219   1.02596
    5  C   1.18615   0.99954   0.99833   0.98402
    6  C   1.14395   0.91950   0.96232   1.01662
    7  C   1.16459   0.92425   0.90577   0.94680
    8  C   1.19440   0.95521   1.05961   1.01881
    9  C   1.18087   0.86590   0.97705   0.97244
   10  H   0.93134
   11  H   0.93493
   12  H   0.94313
   13  H   0.93330
   14  H   0.92997
   15  H   0.94868
   16  H   0.94210
   17  H   0.95235
   18  H   0.95251
   19  H   0.88123
   20  H   0.90399
   21  H   0.81088
 *******************************************************************************
 ** Site#: 14399        For non-commercial use only    Version 18.184L 64BITS **
 *******************************************************************************
 ** Cite this program as: MOPAC2016, Version: 18.184L, James J. P. Stewart,   **
 ** Stewart Computational Chemistry, web: HTTP://OpenMOPAC.net. Days left:  18**
 *******************************************************************************
 **                                                                           **
 **                                MOPAC2016                                  **
 **                                                                           **
 *******************************************************************************

                              PM3 CALCULATION RESULTS

 *******************************************************************************
 *  CALCULATION DONE:                                Sat Jun 15 11:11:24 2019  *
 *  PM3        - The PM3 Hamiltonian to be used
 *  OLDGEO     - PREVIOUS GEOMETRY TO BE USED
 *  PRECISE    - CRITERIA TO BE INCREASED BY 100 TIMES
 *  NOSYM      - POINT-GROUP SYMMETRY SET TO C1
 *  THREADS=1  - MULTI-THREADING NOT USED
 *  T=         - A TIME OF 172800.0 SECONDS REQUESTED
 *  DUMP=N     - RESTART FILE WRITTEN EVERY  7200.000 SECONDS
 *  THERMO     - THERMODYNAMIC QUANTITIES TO BE CALCULATED
 *******************************************************************************
oldgeo thermo nosym precise THREADS=1  pm3
 InChI=1S/C7H12O2/c8-5-2-1-3-7-4-6-9-7/h2,5,7-8H,1,3-4,6H2

   ATOM   CHEMICAL          X               Y               Z
  NUMBER   SYMBOL      (ANGSTROMS)     (ANGSTROMS)     (ANGSTROMS)
 
     1       O         -1.91230620  *   0.56669387  *   0.97479157  *
     2       O          4.50397193  *   0.14544424  *  -0.04844932  *
     3       C         -1.53771307  *   0.13847668  *  -0.37386716  *
     4       C         -0.10267754  *  -0.34605053  *  -0.47598093  *
     5       C         -2.61425258  *  -0.97692004  *  -0.32426831  *
     6       C          0.88315248  *   0.81306176  *  -0.50657568  *
     7       C         -2.93973865  *  -0.45035244  *   1.08767992  *
     8       C          2.27363922  *   0.31585755  *  -0.67552136  *
     9       C          3.24781756  *   0.63329159  *   0.18887593  *
    10       H         -1.74370831  *   0.96117688  *  -1.09065649  *
    11       H          0.14052913  *  -1.02546432  *   0.36483457  *
    12       H         -0.00526110  *  -0.95692440  *  -1.39571789  *
    13       H         -3.42084553  *  -0.89065979  *  -1.06574902  *
    14       H         -2.23054331  *  -2.00682275  *  -0.37277193  *
    15       H          0.64686459  *   1.49682347  *  -1.34752544  *
    16       H          0.77842308  *   1.42161153  *   0.41422290  *
    17       H         -3.93068689  *   0.00509342  *   1.22770796  *
    18       H         -2.73330254  *  -1.13081862  *   1.92641794  *
    19       H          2.46590356  *  -0.32261111  *  -1.54638555  *
    20       H          3.10285749  *   1.26260998  *   1.07539174  *
    21       H          5.05509694  *   0.46366297  *   0.65335444  *
 


          CARTESIAN COORDINATES 

    NO.       ATOM           X           Y           Z

     1         O         -1.9123      0.5667      0.9748
     2         O          4.5040      0.1454     -0.0484
     3         C         -1.5377      0.1385     -0.3739
     4         C         -0.1027     -0.3461     -0.4760
     5         C         -2.6143     -0.9769     -0.3243
     6         C          0.8832      0.8131     -0.5066
     7         C         -2.9397     -0.4504      1.0877
     8         C          2.2736      0.3159     -0.6755
     9         C          3.2478      0.6333      0.1889
    10         H         -1.7437      0.9612     -1.0907
    11         H          0.1405     -1.0255      0.3648
    12         H         -0.0053     -0.9569     -1.3957
    13         H         -3.4208     -0.8907     -1.0657
    14         H         -2.2305     -2.0068     -0.3728
    15         H          0.6469      1.4968     -1.3475
    16         H          0.7784      1.4216      0.4142
    17         H         -3.9307      0.0051      1.2277
    18         H         -2.7333     -1.1308      1.9264
    19         H          2.4659     -0.3226     -1.5464
    20         H          3.1029      1.2626      1.0754
    21         H          5.0551      0.4637      0.6534

  H: (PM3): J. J. P. STEWART, J. COMP. CHEM. 10, 209 (1989).
  C: (PM3): J. J. P. STEWART, J. COMP. CHEM. 10, 209 (1989).
  O: (PM3): J. J. P. STEWART, J. COMP. CHEM. 10, 209 (1989).

           Empirical Formula: C7 H12 O2  =    21 atoms



      MOLECULAR POINT GROUP   :   C1  


      RHF CALCULATION, NO. OF DOUBLY OCCUPIED LEVELS = 26



          HEAT OF FORMATION =     -64.758332 KCALS/MOLE


          CARTESIAN COORDINATE DERIVATIVES

   NUMBER  ATOM         X            Y            Z

     1       O     -0.004312     0.004174    -0.008642
     2       O      0.006143    -0.003500     0.008284
     3       C     -0.001020    -0.000770    -0.001693
     4       C      0.002604    -0.001896     0.000363
     5       C     -0.001096    -0.003840     0.005110
     6       C      0.003944    -0.004071     0.000075
     7       C      0.008129     0.003452     0.004199
     8       C      0.004027    -0.004556    -0.003547
     9       C     -0.009530     0.010471    -0.004785
    10       H     -0.007146    -0.001453    -0.004507
    11       H     -0.001514    -0.003618     0.002284
    12       H      0.013743    -0.006118     0.004997
    13       H      0.001676     0.000009    -0.008084
    14       H     -0.002436    -0.000559    -0.001818
    15       H      0.003188     0.000823     0.001973
    16       H     -0.004920    -0.003137     0.006456
    17       H      0.005500    -0.001023     0.007757
    18       H     -0.002048     0.006875     0.002222
    19       H     -0.012494    -0.006250     0.000250
    20       H      0.000513     0.009225    -0.009816
    21       H     -0.002953     0.005762    -0.001075
 


          GRADIENT NORM =   0.04205


          TIME FOR SCF CALCULATION =    0.00

          TIME FOR DERIVATIVES     =    0.00

          MOLECULAR WEIGHT =  128.17



          ROTATIONAL CONSTANTS IN CM(-1)

          A =    0.18212574   B =    0.01823458   C =    0.01775454



           PRINCIPAL MOMENTS OF INERTIA IN UNITS OF 10**(-40)*GRAM-CM**2

          A =      153.7003   B =     1535.1481   C =     1576.6543


          ORIENTATION OF MOLECULE IN FORCE CALCULATION

    NO.       ATOM         X         Y         Z

     1          O      -2.2987   -0.6868    0.1281
     2          O       4.2123   -0.6868    0.1281
     3          C      -1.6899    0.6444    0.1281
     4          C      -0.2283    0.6391   -0.2822
     5          C      -2.6864    1.1057   -0.9672
     6          C       0.6730    0.1624    0.8477
     7          C      -3.2631   -0.3220   -0.8915
     8          C       2.1019    0.2313    0.4446
     9          C       2.9056   -0.8400    0.5038
    10          H      -1.8335    1.1136    1.1242
    11          H      -0.0769    0.0049   -1.1781
    12          H       0.0517    1.6668   -0.5888
    13          H      -3.3703    1.9150   -0.6754
    14          H      -2.2340    1.3873   -1.9297
    15          H       0.5280    0.7943    1.7479
    16          H       0.3857   -0.8644    1.1517
    17          H      -4.2911   -0.4191   -0.5136
    18          H      -3.1475   -0.9477   -1.7883
    19          H       2.4696    1.2050    0.0985
    20          H       2.5827   -1.8338    0.8373
    21          H       4.6245   -1.5336    0.2303


    FIRST DERIVATIVES WILL BE USED IN THE CALCULATION OF SECOND DERIVATIVES

          ESTIMATED TIME TO COMPLETE CALCULATION =        1.97 SECONDS

    FOR POINT-GROUP C1   THERE ARE   1 UNIQUE SYMMETRY FUNCTIONS.

 STEP:   1 TIME =     0.02 SECS, INTEGRAL =      0.02 TIME LEFT: 172799.97
 STEP:   2 TIME =     0.02 SECS, INTEGRAL =      0.04 TIME LEFT: 172799.96
 STEP:   3 TIME =     0.02 SECS, INTEGRAL =      0.05 TIME LEFT: 172799.94
 STEP:   4 TIME =     0.02 SECS, INTEGRAL =      0.07 TIME LEFT: 172799.92
 STEP:   5 TIME =     0.02 SECS, INTEGRAL =      0.09 TIME LEFT: 172799.90
 STEP:   6 TIME =     0.02 SECS, INTEGRAL =      0.11 TIME LEFT: 172799.88
 STEP:   7 TIME =     0.02 SECS, INTEGRAL =      0.13 TIME LEFT: 172799.86
 STEP:   8 TIME =     0.02 SECS, INTEGRAL =      0.15 TIME LEFT: 172799.84
 STEP:   9 TIME =     0.02 SECS, INTEGRAL =      0.17 TIME LEFT: 172799.82
 STEP:  10 TIME =     0.02 SECS, INTEGRAL =      0.18 TIME LEFT: 172799.81
 STEP:  11 TIME =     0.02 SECS, INTEGRAL =      0.20 TIME LEFT: 172799.79
 STEP:  12 TIME =     0.02 SECS, INTEGRAL =      0.22 TIME LEFT: 172799.77
 STEP:  13 TIME =     0.02 SECS, INTEGRAL =      0.23 TIME LEFT: 172799.76
 STEP:  14 TIME =     0.02 SECS, INTEGRAL =      0.25 TIME LEFT: 172799.74
 STEP:  15 TIME =     0.02 SECS, INTEGRAL =      0.27 TIME LEFT: 172799.72
 STEP:  16 TIME =     0.02 SECS, INTEGRAL =      0.29 TIME LEFT: 172799.70
 STEP:  17 TIME =     0.02 SECS, INTEGRAL =      0.31 TIME LEFT: 172799.68
 STEP:  18 TIME =     0.02 SECS, INTEGRAL =      0.32 TIME LEFT: 172799.67
 STEP:  19 TIME =     0.02 SECS, INTEGRAL =      0.34 TIME LEFT: 172799.65
 STEP:  20 TIME =     0.02 SECS, INTEGRAL =      0.36 TIME LEFT: 172799.63
 STEP:  21 TIME =     0.02 SECS, INTEGRAL =      0.38 TIME LEFT: 172799.61
 STEP:  22 TIME =     0.02 SECS, INTEGRAL =      0.39 TIME LEFT: 172799.60
 STEP:  23 TIME =     0.02 SECS, INTEGRAL =      0.41 TIME LEFT: 172799.58
 STEP:  24 TIME =     0.02 SECS, INTEGRAL =      0.43 TIME LEFT: 172799.56
 STEP:  25 TIME =     0.02 SECS, INTEGRAL =      0.45 TIME LEFT: 172799.54
 STEP:  26 TIME =     0.02 SECS, INTEGRAL =      0.47 TIME LEFT: 172799.52
 STEP:  27 TIME =     0.02 SECS, INTEGRAL =      0.49 TIME LEFT: 172799.50
 STEP:  28 TIME =     0.02 SECS, INTEGRAL =      0.51 TIME LEFT: 172799.48
 STEP:  29 TIME =     0.02 SECS, INTEGRAL =      0.52 TIME LEFT: 172799.47
 STEP:  30 TIME =     0.02 SECS, INTEGRAL =      0.54 TIME LEFT: 172799.45
 STEP:  31 TIME =     0.02 SECS, INTEGRAL =      0.56 TIME LEFT: 172799.43
 STEP:  32 TIME =     0.02 SECS, INTEGRAL =      0.58 TIME LEFT: 172799.41
 STEP:  33 TIME =     0.02 SECS, INTEGRAL =      0.60 TIME LEFT: 172799.39
 STEP:  34 TIME =     0.02 SECS, INTEGRAL =      0.62 TIME LEFT: 172799.38
 STEP:  35 TIME =     0.02 SECS, INTEGRAL =      0.63 TIME LEFT: 172799.36
 STEP:  36 TIME =     0.02 SECS, INTEGRAL =      0.65 TIME LEFT: 172799.34
 STEP:  37 TIME =     0.02 SECS, INTEGRAL =      0.67 TIME LEFT: 172799.32
 STEP:  38 TIME =     0.02 SECS, INTEGRAL =      0.69 TIME LEFT: 172799.30
 STEP:  39 TIME =     0.02 SECS, INTEGRAL =      0.70 TIME LEFT: 172799.29
 STEP:  40 TIME =     0.02 SECS, INTEGRAL =      0.72 TIME LEFT: 172799.27
 STEP:  41 TIME =     0.02 SECS, INTEGRAL =      0.74 TIME LEFT: 172799.25
 STEP:  42 TIME =     0.02 SECS, INTEGRAL =      0.76 TIME LEFT: 172799.23
 STEP:  43 TIME =     0.02 SECS, INTEGRAL =      0.78 TIME LEFT: 172799.21
 STEP:  44 TIME =     0.02 SECS, INTEGRAL =      0.80 TIME LEFT: 172799.20
 STEP:  45 TIME =     0.02 SECS, INTEGRAL =      0.81 TIME LEFT: 172799.18
 STEP:  46 TIME =     0.02 SECS, INTEGRAL =      0.83 TIME LEFT: 172799.16
 STEP:  47 TIME =     0.02 SECS, INTEGRAL =      0.85 TIME LEFT: 172799.14
 STEP:  48 TIME =     0.02 SECS, INTEGRAL =      0.87 TIME LEFT: 172799.12
 STEP:  49 TIME =     0.02 SECS, INTEGRAL =      0.89 TIME LEFT: 172799.11
 STEP:  50 TIME =     0.02 SECS, INTEGRAL =      0.91 TIME LEFT: 172799.09
 STEP:  51 TIME =     0.02 SECS, INTEGRAL =      0.92 TIME LEFT: 172799.07
 STEP:  52 TIME =     0.02 SECS, INTEGRAL =      0.94 TIME LEFT: 172799.05
 STEP:  53 TIME =     0.02 SECS, INTEGRAL =      0.96 TIME LEFT: 172799.04
 STEP:  54 TIME =     0.02 SECS, INTEGRAL =      0.97 TIME LEFT: 172799.02
 STEP:  55 TIME =     0.02 SECS, INTEGRAL =      0.99 TIME LEFT: 172799.00
 STEP:  56 TIME =     0.02 SECS, INTEGRAL =      1.01 TIME LEFT: 172798.98
 STEP:  57 TIME =     0.02 SECS, INTEGRAL =      1.02 TIME LEFT: 172798.97
 STEP:  58 TIME =     0.02 SECS, INTEGRAL =      1.04 TIME LEFT: 172798.95
 STEP:  59 TIME =     0.02 SECS, INTEGRAL =      1.06 TIME LEFT: 172798.93
 STEP:  60 TIME =     0.02 SECS, INTEGRAL =      1.08 TIME LEFT: 172798.91
 STEP:  61 TIME =     0.02 SECS, INTEGRAL =      1.09 TIME LEFT: 172798.90
 STEP:  62 TIME =     0.02 SECS, INTEGRAL =      1.11 TIME LEFT: 172798.88
 STEP:  63 TIME =     0.02 SECS, INTEGRAL =      1.13 TIME LEFT: 172798.86

(To convert to Hartree/Bohr^2, multiply by (10^(-21) x N x a0^2)/(4.184 x 627.51) =  0.0642)


           FORCE MATRIX IN MILLIDYNES/ANGSTROM


                  O  1       O  2       C  3       C  4       C  5       C  6
 ------------------------------------------------------------------------------
     O    1   8.836280
     O    2   0.015618  12.729423
     C    3   3.886038   0.015590  14.479899
     C    4   0.697869   0.020155   4.156583  14.407730
     C    5   2.125132   0.005569   3.377796   0.513728  14.488624
     C    6   0.022276   0.131788   0.643399   4.120470   0.047735  14.695984
     C    7   4.366792   0.007706   2.315103   0.071342   3.680587   0.007891
     C    8   0.008858   1.286695   0.054558   0.709202   0.011346   5.010896
     C    9   0.014561   6.485908   0.015463   0.032305   0.004253   0.846913
     H   10   0.338725   0.001468   4.382423   0.429444   0.416150   0.035556
     H   11   0.036672   0.004180   0.465821   4.475315   0.015853   0.441787
     H   12   0.054877   0.003117   0.416050   4.448822   0.018711   0.449339
     H   13   0.050843   0.001313   0.436602   0.035936   4.747981   0.006027
     H   14   0.047465   0.001161   0.448631   0.023068   4.712003   0.002938
     H   15   0.002571   0.018142   0.031849   0.453614   0.001661   4.400057
     H   16   0.007898   0.006596   0.025449   0.441080   0.001923   4.444352
     H   17   0.358727   0.001065   0.058865   0.012741   0.432669   0.001237
     H   18   0.358065   0.000860   0.057236   0.002473   0.433889   0.000954
     H   19   0.001957   0.099263   0.002252   0.022425   0.000923   0.427630
     H   20   0.002137   0.396681   0.002391   0.006411   0.000679   0.064103
     H   21   0.002058   8.340567   0.002134   0.004565   0.000745   0.030600


                  C  7       C  8       C  9       H 10       H 11       H 12
 ------------------------------------------------------------------------------
     C    7  14.723369
     C    8   0.003610  18.089194
     C    9   0.006941  10.243218  18.739921
     H   10   0.056644   0.002630   0.001793   4.781720
     H   11   0.006092   0.020750   0.005552   0.041292   5.089048
     H   12   0.010022   0.030866   0.003069   0.018182   0.564590   5.057082
     H   13   0.439762   0.001616   0.001071   0.022208   0.001313   0.001949
     H   14   0.441131   0.001529   0.001059   0.032863   0.010130   0.010747
     H   15   0.000726   0.411630   0.028716   0.026717   0.046276   0.022917
     H   16   0.002331   0.456544   0.060885   0.002208   0.025016   0.046666
     H   17   4.672103   0.000461   0.000894   0.001969   0.000848   0.002102
     H   18   4.671262   0.000504   0.000879   0.011008   0.001608   0.000626
     H   19   0.000668   4.813799   0.493952   0.000891   0.002905   0.019458
     H   20   0.000767   0.441400   4.729880   0.000255   0.000547   0.000632
     H   21   0.001183   0.119827   0.964573   0.000217   0.000472   0.000379


                  H 13       H 14       H 15       H 16       H 17       H 18
 ------------------------------------------------------------------------------
     H   13   5.371328
     H   14   0.549501   5.340752
     H   15   0.000273   0.000452   5.002250
     H   16   0.000349   0.000442   0.562568   5.050217
     H   17   0.019075   0.034636   0.000189   0.000578   5.141135
     H   18   0.035197   0.019361   0.000174   0.000339   0.496534   5.139329
     H   19   0.000222   0.000391   0.020307   0.038570   0.000146   0.000140
     H   20   0.000111   0.000144   0.006586   0.029328   0.000120   0.000072
     H   21   0.000220   0.000240   0.004257   0.000678   0.000141   0.000180


                  H 19       H 20       H 21
 ------------------------------------------
     H   19   5.211883
     H   20   0.097464   4.989764
     H   21   0.004187   0.049563   8.643437


          HEAT OF FORMATION =     -64.758332 KCALS/MOLE

          ZERO POINT ENERGY     111.797 KCAL/MOL


           NORMAL COORDINATE ANALYSIS (Total motion = 1 Angstrom)


   Root No.       1         2         3         4         5         6         7         8

                 1 A       2 A       3 A       4 A       5 A       6 A       7 A       8 A   

                  40.1      49.1      71.1     127.8     173.7     212.0     247.1     307.0
  
           1    0.0292   -0.0104    0.0250    0.0234   -0.0196    0.0062   -0.0334   -0.0186
           2   -0.0071    0.0215    0.0112   -0.0137    0.0099    0.0066   -0.0078    0.0010
           3   -0.0013    0.0291    0.0136   -0.0208    0.0271    0.0092    0.0035    0.0086
           4   -0.0329   -0.0007    0.0069    0.0052    0.0113   -0.0102    0.0241    0.0080
           5   -0.0348    0.0248   -0.0017   -0.0095   -0.0003   -0.0073   -0.0199   -0.0470
           6   -0.0307   -0.0069    0.0248    0.0434    0.0364   -0.0158    0.0125   -0.0152
           7   -0.0012    0.0028   -0.0067    0.0121   -0.0065    0.0082   -0.0200   -0.0025
           8    0.0069    0.0153    0.0256   -0.0081    0.0037    0.0053   -0.0129   -0.0060
           9    0.0053   -0.0090    0.0004   -0.0171    0.0181   -0.0026    0.0148   -0.0025
          10    0.0038    0.0065   -0.0070    0.0098   -0.0126    0.0025   -0.0130   -0.0004
          11    0.0379   -0.0109    0.0545    0.0057   -0.0199   -0.0162    0.0186   -0.0017
          12    0.0231    0.0056   -0.0015   -0.0267   -0.0102   -0.0263    0.0309   -0.0088
          13    0.0026    0.0191   -0.0204   -0.0172   -0.0052   -0.0124    0.0124   -0.0068
          14   -0.0171   -0.0114   -0.0075   -0.0017    0.0081    0.0087   -0.0114   -0.0018
          15   -0.0082   -0.0353   -0.0010    0.0134    0.0188    0.0188   -0.0168    0.0020
          16   -0.0015   -0.0112   -0.0111    0.0026    0.0045   -0.0071    0.0201    0.0060
          17    0.0439   -0.0322   -0.0292    0.0183    0.0101   -0.0067    0.0118   -0.0278
          18    0.0299    0.0109   -0.0340   -0.0151   -0.0130   -0.0146   -0.0004   -0.0234
          19    0.0364    0.0039    0.0161   -0.0269    0.0318    0.0162   -0.0184   -0.0049
          20   -0.0312   -0.0031   -0.0218    0.0031   -0.0094   -0.0045    0.0025   -0.0027
          21   -0.0166    0.0068    0.0105    0.0331   -0.0286   -0.0038   -0.0082   -0.0061
          22   -0.0023   -0.0048   -0.0087    0.0110    0.0028    0.0013    0.0195    0.0216
          23    0.0176   -0.0024   -0.0200    0.0180    0.0044    0.0112    0.0155    0.0595
          24    0.0225    0.0385   -0.0233    0.0172   -0.0209    0.0222   -0.0178    0.0272
          25   -0.0317   -0.0050    0.0013   -0.0166   -0.0065   -0.0076    0.0078    0.0121
          26   -0.0066   -0.0065   -0.0112   -0.0057   -0.0032    0.0030    0.0048    0.0514
          27   -0.0156   -0.0344    0.0016   -0.0326   -0.0277   -0.0044   -0.0335    0.0299
          28   -0.0234   -0.0027   -0.0140    0.0213    0.0124    0.0301   -0.0416    0.0052
          29    0.0044    0.0496    0.0302   -0.0201    0.0088    0.0075   -0.0156   -0.0032
          30    0.0032   -0.0260   -0.0029   -0.0093    0.0176   -0.0004    0.0125   -0.0027
          31    0.0256    0.0034   -0.0080    0.0157   -0.0356   -0.0129   -0.0020   -0.0046
          32    0.0477   -0.0096    0.1178    0.0011   -0.0511   -0.0381    0.0500    0.0235
          33    0.0197    0.0042   -0.0464   -0.0220    0.0078   -0.0132    0.0106   -0.0268
          34   -0.0100    0.0272   -0.0065    0.0030   -0.0096    0.0151   -0.0394   -0.0040
          35    0.0451   -0.0144    0.0759    0.0055   -0.0327   -0.0273    0.0353    0.0074
          36    0.0348    0.0125    0.0712   -0.0319   -0.0501   -0.0504    0.0608    0.0182
          37   -0.0212    0.0241   -0.0408   -0.0006   -0.0328   -0.0264    0.0232   -0.0083
          38   -0.0340    0.0054   -0.0232    0.0056   -0.0222   -0.0138    0.0100   -0.0063
          39   -0.0172   -0.0701   -0.0053    0.0320    0.0390    0.0492   -0.0522    0.0114
          40    0.0089    0.0324   -0.0295   -0.0437   -0.0042   -0.0325    0.0445   -0.0116
          41   -0.0056   -0.0486   -0.0028   -0.0089    0.0540    0.0427   -0.0412    0.0075
          42   -0.0019   -0.0399   -0.0038   -0.0011    0.0329    0.0197   -0.0110    0.0026
          43    0.0077   -0.0360   -0.0055   -0.0130    0.0128   -0.0321    0.0387   -0.0577
          44    0.0595   -0.0594   -0.0865    0.0228    0.0309   -0.0115    0.0014   -0.1064
          45    0.0202    0.0259    0.0072   -0.0204   -0.0260   -0.0150    0.0098    0.0210
          46   -0.0142   -0.0048   -0.0230    0.0006    0.0101   -0.0013    0.0291    0.0467
          47    0.0522   -0.0441   -0.0461    0.0192    0.0167   -0.0112    0.0080   -0.0664
          48    0.0459   -0.0237   -0.1016   -0.0128    0.0148   -0.0232   -0.0044   -0.1106
          49    0.0328   -0.0010    0.0185   -0.0079    0.0115    0.0119   -0.0239   -0.0107
          50   -0.0564    0.0201   -0.0454    0.0126   -0.0492   -0.0338    0.0307   -0.0077
          51   -0.0327   -0.0006    0.0111    0.0882   -0.0955   -0.0240   -0.0151   -0.0235
          52    0.0659    0.0069    0.0325   -0.0827    0.1104    0.0482   -0.0267    0.0126
          53   -0.0286   -0.0345   -0.0261    0.0070    0.0059    0.0088   -0.0103   -0.0016
          54   -0.0146    0.0292    0.0156    0.0235   -0.0298   -0.0092   -0.0002   -0.0049
          55    0.0202    0.0000   -0.0134    0.0413    0.0131    0.0111    0.0281    0.0022
          56    0.0168    0.0239   -0.0201    0.0346    0.0080    0.0233    0.0225    0.0694
          57    0.0445    0.1178   -0.0286    0.0974    0.0009    0.0676    0.0133    0.0417
          58   -0.0561   -0.0080    0.0059   -0.0546   -0.0229   -0.0239   -0.0217   -0.0199
          59   -0.0064   -0.0325   -0.0108   -0.0224   -0.0078   -0.0079   -0.0013    0.0706
          60   -0.0384   -0.1149    0.0073   -0.1186   -0.0568   -0.0525   -0.0791    0.0601
          61   -0.0508    0.0001    0.0108   -0.0338   -0.0335    0.0615    0.0374   -0.0803
          62   -0.0444    0.0180    0.0009   -0.0399   -0.0392    0.0637    0.0053   -0.1006
          63   -0.0387   -0.0666    0.0309   -0.0517   -0.1054    0.2855    0.1698   -0.0997


   Root No.       9        10        11        12        13        14        15        16

                 9 A      10 A      11 A      12 A      13 A      14 A      15 A      16 A   

                 324.7     413.5     495.9     572.7     781.7     819.5     839.4     882.1
  
           1    0.0178    0.0359   -0.0267   -0.0038    0.0139    0.0033    0.0078    0.0020
           2   -0.0174    0.0148    0.0072   -0.0073   -0.0015   -0.0225   -0.0188    0.0076
           3    0.0050   -0.0239    0.0152    0.0121    0.0099    0.0178    0.0098   -0.0010
           4   -0.0364    0.0137   -0.0170    0.0526   -0.0052    0.0033    0.0017    0.0031
           5    0.0036   -0.0170    0.0062   -0.0258    0.0003    0.0003    0.0004    0.0028
           6    0.0165    0.0099    0.0093   -0.0039   -0.0015    0.0000    0.0007    0.0105
           7    0.0199   -0.0125    0.0329    0.0129   -0.0111   -0.0091   -0.0082   -0.0034
           8   -0.0186    0.0328   -0.0201   -0.0146   -0.0135   -0.0145   -0.0146   -0.0018
           9    0.0252   -0.0046   -0.0431   -0.0134   -0.0127   -0.0226   -0.0206    0.0065
          10    0.0005   -0.0055    0.0465    0.0008   -0.0214   -0.0180   -0.0080   -0.0020
          11   -0.0090   -0.0341    0.0036    0.0145   -0.0330    0.0048   -0.0017   -0.0108
          12   -0.0051    0.0361    0.0096   -0.0237    0.0034    0.0107    0.0019   -0.0092
          13    0.0624   -0.0270   -0.0142    0.0154   -0.0039    0.0084   -0.0171   -0.0031
          14   -0.0008    0.0074   -0.0026    0.0020    0.0203    0.0170    0.0266    0.0011
          15    0.0054   -0.0121    0.0050    0.0077   -0.0171   -0.0239   -0.0050   -0.0002
          16   -0.0126    0.0010    0.0158   -0.0605    0.0045   -0.0030   -0.0003    0.0010
          17   -0.0177   -0.0265   -0.0113    0.0068   -0.0198    0.0180    0.0100    0.0036
          18   -0.0147    0.0367    0.0285    0.0249   -0.0140    0.0041    0.0062    0.0032
          19    0.0209    0.0022   -0.0107    0.0062    0.0166    0.0239    0.0037    0.0015
          20    0.0160   -0.0047   -0.0039    0.0045    0.0095    0.0101    0.0170   -0.0018
          21    0.0121    0.0054   -0.0052    0.0035    0.0089    0.0049    0.0257   -0.0031
          22   -0.0287   -0.0124   -0.0041   -0.0532    0.0051    0.0030    0.0037    0.0091
          23    0.0262    0.0162    0.0087   -0.0194    0.0046   -0.0009    0.0009    0.0065
          24   -0.0392   -0.0281   -0.0232    0.0092   -0.0023    0.0013    0.0024    0.0202
          25   -0.0409   -0.0002   -0.0172    0.0255    0.0011    0.0002   -0.0007   -0.0191
          26    0.0218    0.0264    0.0029    0.0373    0.0044   -0.0075   -0.0057   -0.0227
          27   -0.0112   -0.0244   -0.0112   -0.0241    0.0102   -0.0026   -0.0043   -0.0746
          28    0.0192   -0.0321    0.0525    0.0281   -0.0209   -0.0460   -0.0256    0.0065
          29   -0.0299    0.0458   -0.0062   -0.0176    0.0020    0.0093   -0.0234   -0.0114
          30    0.0300   -0.0136   -0.0447   -0.0088   -0.0210   -0.0387   -0.0198    0.0121
          31   -0.0079   -0.0249    0.1121    0.0393    0.0040   -0.0033    0.0202    0.0065
          32   -0.0003   -0.0849    0.0536    0.0401    0.1036   -0.0433   -0.0152    0.0329
          33   -0.0135    0.0668   -0.0128   -0.0339   -0.0846    0.0454    0.0155   -0.0370
          34   -0.0037    0.0428    0.0358   -0.0082   -0.0579   -0.0492   -0.0338   -0.0183
          35   -0.0052   -0.0621    0.0282    0.0281    0.0266   -0.0054    0.0001    0.0083
          36    0.0016   -0.0118    0.0777    0.0105    0.1588   -0.0469   -0.0126    0.0375
          37    0.0843   -0.0446   -0.0052    0.0285   -0.0065   -0.0210    0.0749   -0.0213
          38    0.0298   -0.0056   -0.0223    0.0058    0.0098   -0.0400    0.1235   -0.0076
          39   -0.0311   -0.0169    0.0864    0.0290    0.0101    0.0831   -0.0718   -0.0202
          40    0.1009   -0.0377   -0.0803    0.0049   -0.0277   -0.0622   -0.0182    0.0214
          41   -0.0347    0.0066    0.0432    0.0121    0.0453    0.1322   -0.1096    0.0049
          42    0.0122   -0.0167   -0.0104    0.0056   -0.0199   -0.0192   -0.0505    0.0124
          43   -0.0213    0.0110    0.0239   -0.0561    0.0290   -0.0235   -0.0203   -0.0577
          44   -0.0466   -0.0347   -0.0246    0.0616    0.1003   -0.0615   -0.0364    0.0033
          45    0.0042    0.0431    0.0386   -0.0113   -0.0906    0.0540    0.0339   -0.0060
          46    0.0061    0.0322    0.0221   -0.1070    0.0228    0.0084    0.0130    0.0253
          47   -0.0320   -0.0338   -0.0160    0.0355    0.0208   -0.0136   -0.0099   -0.0044
          48   -0.0420    0.0410    0.0184    0.0704    0.1291   -0.0840   -0.0439   -0.0006
          49    0.0214    0.0165   -0.0200    0.0016    0.0226    0.0271   -0.0082    0.0083
          50    0.0560   -0.0232   -0.0212    0.0120    0.0192    0.1020   -0.1181    0.0052
          51    0.0241    0.0403   -0.0358   -0.0081    0.0256    0.0405   -0.0563    0.0182
          52   -0.0112   -0.0157    0.0235    0.0129    0.0132   -0.0350    0.1447   -0.0171
          53    0.0103   -0.0060    0.0002    0.0083   -0.0004   -0.0330    0.1061   -0.0126
          54    0.0125    0.0044   -0.0046    0.0018    0.0171    0.0314   -0.0219    0.0026
          55   -0.0453   -0.0495   -0.0191   -0.1101    0.0112    0.0142    0.0077    0.0337
          56    0.0238    0.0201    0.0014   -0.0028    0.0204   -0.0137   -0.0110    0.0176
          57   -0.0602   -0.0533   -0.0588   -0.0066    0.0490   -0.0222   -0.0264    0.0779
          58   -0.0577   -0.0133   -0.0238    0.0478   -0.0163    0.0103    0.0073    0.1085
          59    0.0326    0.0347    0.0113    0.0331    0.0002   -0.0073   -0.0029    0.0975
          60    0.0064   -0.0102    0.0081   -0.0152   -0.0192    0.0081    0.0122    0.4078
          61   -0.0453   -0.0225   -0.0107   -0.0249   -0.0041    0.0108    0.0080    0.0148
          62    0.0021   -0.0312    0.0106   -0.0610    0.0002    0.0039    0.0035    0.0105
          63    0.0405    0.0422    0.0203    0.0271   -0.0063   -0.0013    0.0001    0.0262


   Root No.      17        18        19        20        21        22        23        24

                17 A      18 A      19 A      20 A      21 A      22 A      23 A      24 A   

                 897.7     933.1     941.8     959.1     979.2     997.3    1032.4    1038.0
  
           1   -0.0041    0.0119    0.0153   -0.0039   -0.0235    0.0329    0.0188   -0.0083
           2   -0.0169    0.0543    0.0058   -0.0060    0.0061    0.0140    0.0018   -0.0008
           3    0.0016   -0.0090   -0.0101   -0.0167   -0.0085    0.0309    0.0162   -0.0142
           4   -0.0027    0.0030    0.0014   -0.0024   -0.0026   -0.0033   -0.0015   -0.0040
           5   -0.0010   -0.0009    0.0003    0.0003    0.0005    0.0004    0.0008    0.0003
           6   -0.0032   -0.0026    0.0008    0.0012    0.0018    0.0015    0.0006    0.0015
           7    0.0041    0.0056    0.0040    0.0008    0.0036    0.0027   -0.0282    0.0104
           8    0.0066   -0.0290    0.0119   -0.0032    0.0020   -0.0235   -0.0055   -0.0015
           9   -0.0093   -0.0010   -0.0054    0.0093   -0.0056    0.0070   -0.0403    0.0103
          10    0.0038   -0.0148   -0.0207    0.0125   -0.0023    0.0018   -0.0044   -0.0088
          11    0.0175   -0.0154   -0.0050    0.0127    0.0183    0.0137    0.0109   -0.0062
          12    0.0154    0.0074    0.0121   -0.0042    0.0098    0.0043   -0.0008    0.0009
          13    0.0055    0.0075    0.0290   -0.0115    0.0173   -0.0170    0.0112   -0.0040
          14   -0.0025    0.0029   -0.0236    0.0147    0.0110   -0.0218    0.0240   -0.0031
          15    0.0002   -0.0036    0.0121   -0.0123   -0.0088   -0.0144    0.0199   -0.0013
          16   -0.0002   -0.0059   -0.0034    0.0048    0.0041    0.0071    0.0044    0.0114
          17   -0.0097    0.0193    0.0023   -0.0130   -0.0175   -0.0162   -0.0161   -0.0053
          18   -0.0086    0.0021   -0.0079   -0.0028   -0.0130   -0.0097   -0.0037   -0.0087
          19   -0.0016   -0.0107   -0.0277    0.0013    0.0122   -0.0118   -0.0276    0.0090
          20    0.0036   -0.0156   -0.0030    0.0053   -0.0181    0.0241   -0.0287    0.0075
          21    0.0053   -0.0026    0.0015    0.0245    0.0075   -0.0243   -0.0060    0.0056
          22   -0.0145   -0.0093    0.0049    0.0014    0.0049    0.0008    0.0082   -0.0034
          23   -0.0114   -0.0076    0.0040    0.0016    0.0043    0.0007    0.0040   -0.0034
          24   -0.0381   -0.0181    0.0119    0.0089    0.0192    0.0157    0.0098    0.0189
          25    0.0030    0.0026   -0.0017   -0.0009   -0.0018   -0.0009   -0.0002    0.0001
          26    0.0096    0.0002   -0.0043    0.0027    0.0018    0.0040   -0.0002    0.0062
          27    0.0120    0.0107   -0.0060   -0.0050   -0.0093   -0.0070   -0.0041   -0.0069
          28   -0.0182    0.0120   -0.0180   -0.0210   -0.0477   -0.0315   -0.0357    0.0984
          29    0.0332   -0.1517    0.1115   -0.1195   -0.0755   -0.1142    0.0073    0.1053
          30   -0.0244    0.0558   -0.0503    0.0568    0.0215    0.0416   -0.0479   -0.0240
          31   -0.0219    0.0522   -0.0584   -0.0254   -0.0817   -0.0265    0.0469    0.0709
          32   -0.0453   -0.0130    0.0100   -0.0117   -0.0220   -0.0302   -0.0295   -0.0130
          33    0.0532    0.0169   -0.0048    0.0057    0.0232    0.0289    0.0352    0.0194
          34    0.0508   -0.1149   -0.0280    0.0529    0.0452   -0.0118   -0.0005   -0.1594
          35   -0.0154    0.0106    0.0014   -0.0078   -0.0100   -0.0022   -0.0013    0.0257
          36   -0.0480    0.0070    0.0246   -0.0333   -0.0393   -0.0543   -0.0352   -0.0280
          37    0.0317    0.0502    0.1230   -0.0435    0.0770   -0.0071    0.0258   -0.0256
          38    0.0082    0.0191    0.0091   -0.0048    0.0314   -0.0209    0.0502   -0.0156
          39    0.0357    0.0454    0.1503   -0.0320    0.0744    0.0082   -0.0200   -0.0187
          40   -0.0378   -0.0026   -0.0796   -0.0143   -0.0586   -0.0667    0.1919   -0.0156
          41   -0.0036    0.0033   -0.0085    0.0158    0.0136   -0.0322    0.0885   -0.0189
          42   -0.0202   -0.0065   -0.0319   -0.0119   -0.0421   -0.0407    0.1213   -0.0113
          43    0.0945   -0.0062   -0.0270    0.0305    0.0503    0.0805    0.0968    0.1780
          44    0.0147   -0.0424    0.0119    0.0210    0.0361    0.0200    0.0056   -0.0156
          45   -0.0098    0.0439   -0.0180   -0.0219   -0.0422   -0.0231   -0.0050    0.0234
          46   -0.0438    0.0027    0.0160   -0.0193   -0.0297   -0.0414   -0.0466   -0.0828
          47    0.0125   -0.0045   -0.0000    0.0047    0.0091    0.0082    0.0066    0.0149
          48    0.0226   -0.0633    0.0021    0.0310    0.0398    0.0240    0.0223   -0.0302
          49   -0.0149    0.0056   -0.0782   -0.0615    0.0677   -0.0338   -0.0385    0.0166
          50    0.0009   -0.0581    0.0165    0.1000   -0.1174    0.0682   -0.0196   -0.0075
          51   -0.0321    0.0268   -0.1267   -0.1148    0.1206   -0.0655   -0.0312    0.0204
          52    0.0246    0.0208    0.0619    0.1399   -0.0110   -0.0611   -0.0191    0.0266
          53    0.0216   -0.0757   -0.0230   -0.1604    0.0046    0.0914   -0.0393   -0.0121
          54   -0.0048    0.0450    0.0257    0.1643   -0.0115   -0.0820    0.0036    0.0226
          55    0.0459    0.0298   -0.0011   -0.0264   -0.0372   -0.0467   -0.0273   -0.0673
          56    0.0738    0.0148   -0.0160   -0.0007   -0.0065    0.0020    0.0057    0.0082
          57    0.2658    0.0872   -0.0508   -0.0275   -0.0567   -0.0313   -0.0234   -0.0165
          58    0.0096    0.0104    0.0054   -0.0056   -0.0075   -0.0057   -0.0396    0.0016
          59    0.0249   -0.0094   -0.0010    0.0082    0.0122    0.0121    0.0182    0.0123
          60    0.0634   -0.0111    0.0109    0.0067    0.0164    0.0123    0.0157    0.0112
          61   -0.0123    0.0011    0.0054   -0.0065   -0.0061   -0.0119    0.0085   -0.0217
          62   -0.0056   -0.0018    0.0022   -0.0017   -0.0012   -0.0038    0.0054   -0.0083
          63   -0.0012   -0.0030   -0.0001    0.0030    0.0031    0.0045   -0.0034    0.0074


   Root No.      25        26        27        28        29        30        31        32

                25 A      26 A      27 A      28 A      29 A      30 A      31 A      32 A   

                1067.4    1083.6    1109.4    1131.9    1147.3    1161.0    1180.7    1187.6
  
           1    0.0024   -0.0008   -0.0001    0.0023    0.0086    0.0116    0.0037    0.0019
           2   -0.0011   -0.0058    0.0021   -0.0028   -0.0052    0.0011   -0.0081   -0.0160
           3    0.0028    0.0076    0.0004    0.0031    0.0053    0.0066    0.0026    0.0056
           4   -0.0269   -0.0022    0.0011    0.0056   -0.0045    0.0035    0.0016    0.0023
           5   -0.0032   -0.0003    0.0008    0.0024   -0.0001    0.0005    0.0018   -0.0009
           6    0.0079    0.0006   -0.0004   -0.0020    0.0012   -0.0011   -0.0008   -0.0004
           7   -0.0023   -0.0081   -0.0058    0.0011   -0.0265    0.0148   -0.0128   -0.0020
           8   -0.0011    0.0086   -0.0064    0.0050   -0.0059   -0.0475    0.0090    0.0273
           9   -0.0061   -0.0068    0.0121   -0.0062    0.0504    0.0178    0.0200    0.0097
          10    0.0021   -0.0089    0.0295   -0.0026    0.0322    0.0011   -0.0091    0.0007
          11    0.0030    0.0037   -0.0128   -0.0317   -0.0099    0.0163    0.0096   -0.0046
          12    0.0019   -0.0144    0.0342    0.0081   -0.0395    0.0203   -0.0129    0.0105
          13    0.0019   -0.0221   -0.0130    0.0004   -0.0015   -0.0260    0.0054    0.0088
          14    0.0043    0.0171    0.0060    0.0028    0.0120    0.0112    0.0053    0.0226
          15   -0.0006    0.0262    0.0082   -0.0023   -0.0271   -0.0236   -0.0216   -0.0209
          16    0.0175    0.0051   -0.0132   -0.0084    0.0190   -0.0011   -0.0253    0.0072
          17    0.0055   -0.0032    0.0056    0.0302    0.0061    0.0021   -0.0255    0.0132
          18   -0.0101    0.0155   -0.0433   -0.0093    0.0204   -0.0075    0.0131   -0.0185
          19   -0.0064    0.0250    0.0074   -0.0023   -0.0176   -0.0157   -0.0094   -0.0117
          20   -0.0039   -0.0211   -0.0013   -0.0042   -0.0038    0.0119   -0.0054   -0.0283
          21    0.0011   -0.0328   -0.0108    0.0008   -0.0078   -0.0207    0.0020    0.0078
          22   -0.0169    0.0018   -0.0018   -0.0059   -0.0034   -0.0061    0.0174   -0.0130
          23   -0.0065    0.0009   -0.0003   -0.0015   -0.0080   -0.0031    0.0198   -0.0109
          24    0.0092   -0.0021    0.0054    0.0098   -0.0044    0.0013   -0.0083    0.0073
          25    0.0046    0.0010   -0.0019   -0.0049    0.0040   -0.0019   -0.0056    0.0008
          26    0.0205   -0.0001    0.0033    0.0062    0.0030    0.0003    0.0024   -0.0023
          27   -0.0071    0.0007   -0.0028   -0.0022    0.0002    0.0005    0.0005   -0.0000
          28   -0.0119    0.0586   -0.0913    0.0352   -0.1410    0.1686    0.1175    0.1438
          29    0.0000   -0.0024    0.0478   -0.0392    0.0728    0.1201   -0.0114   -0.0539
          30   -0.0085    0.0083   -0.0237    0.0179   -0.0017   -0.0347    0.0501    0.0696
          31   -0.0175   -0.0170    0.1719   -0.0863    0.0413   -0.1261    0.1120    0.0695
          32   -0.0006    0.0150   -0.0519    0.0348    0.0516   -0.0085   -0.0145   -0.0149
          33    0.0009   -0.0233    0.0862   -0.0537   -0.0822    0.0162    0.0256    0.0316
          34    0.0131   -0.0004    0.0337    0.1657    0.0178    0.0645    0.0007    0.0069
          35   -0.0012    0.0031   -0.0126   -0.0411    0.0003   -0.0104    0.0032    0.0005
          36   -0.0033   -0.0080    0.0388    0.1299   -0.0219   -0.0113   -0.0236    0.0304
          37   -0.0042    0.1292    0.0283   -0.0033    0.0726    0.0318    0.0286    0.0114
          38    0.0010    0.1484    0.0439    0.0002    0.0463    0.0535    0.0067    0.0188
          39   -0.0054    0.0102    0.0004   -0.0042    0.0611   -0.0080    0.0318   -0.0009
          40    0.0324   -0.0596   -0.0225    0.0014   -0.0354    0.0453   -0.0286   -0.0352
          41    0.0261   -0.1334   -0.0400    0.0053    0.0719    0.0474    0.0438    0.0526
          42    0.0199   -0.0380   -0.0090   -0.0013   -0.0235    0.0198   -0.0258   -0.0331
          43    0.0358    0.0389   -0.0790    0.1486    0.0344   -0.0522    0.0094   -0.0180
          44    0.0075   -0.0199    0.0541   -0.0377   -0.0287    0.0184   -0.0070    0.0139
          45   -0.0094    0.0324   -0.0879    0.0618    0.0459   -0.0253    0.0063   -0.0227
          46    0.1082    0.0274   -0.0853   -0.1275   -0.0334    0.0283   -0.0796    0.0998
          47   -0.0153   -0.0081    0.0225    0.0323    0.0063   -0.0027    0.0027   -0.0118
          48   -0.0007    0.0198   -0.0548   -0.1172   -0.0292    0.0037    0.0635   -0.0178
          49   -0.0081    0.0244    0.0144   -0.0096   -0.0052    0.0168   -0.0142   -0.0450
          50   -0.0145    0.1385    0.0292    0.0048   -0.0647   -0.0651   -0.0298   -0.0110
          51   -0.0061    0.0119    0.0162   -0.0151    0.0098    0.0437   -0.0153   -0.0679
          52    0.0006   -0.0926   -0.0163   -0.0107   -0.0044    0.0166   -0.0090   -0.0593
          53    0.0027   -0.1119   -0.0427    0.0096   -0.0245   -0.0737    0.0119    0.0300
          54   -0.0027    0.0165    0.0161   -0.0109    0.0079    0.0451   -0.0115   -0.0440
          55    0.0107    0.0014    0.0169    0.0626   -0.0683    0.0027    0.2193   -0.1105
          56   -0.0197    0.0042   -0.0170   -0.0377    0.0270   -0.0068   -0.0673    0.0289
          57   -0.0024    0.0068   -0.0237   -0.0230    0.0256    0.0009   -0.0414    0.0177
          58    0.3864    0.0148    0.0177   -0.0050   -0.0101   -0.0195    0.0456   -0.0331
          59   -0.1103   -0.0058   -0.0006    0.0092    0.0058    0.0061   -0.0137    0.0088
          60   -0.0705   -0.0043    0.0007    0.0040   -0.0048    0.0033   -0.0074    0.0077
          61   -0.1612   -0.0022   -0.0191   -0.0281   -0.0087    0.0001   -0.0152    0.0125
          62   -0.0671   -0.0003   -0.0087   -0.0132   -0.0022   -0.0010   -0.0056    0.0038
          63    0.0573    0.0008    0.0061    0.0098    0.0034    0.0002    0.0053   -0.0045


   Root No.      33        34        35        36        37        38        39        40

                33 A      34 A      35 A      36 A      37 A      38 A      39 A      40 A   

                1204.4    1224.1    1256.0    1293.8    1307.7    1342.0    1363.3    1385.3
  
           1   -0.0007    0.0005    0.0070   -0.0073    0.0050   -0.0002   -0.0032    0.0028
           2    0.0034    0.0027    0.0049    0.0108   -0.0297    0.0008   -0.0019   -0.0019
           3   -0.0016   -0.0018    0.0041   -0.0099    0.0188   -0.0006   -0.0006    0.0028
           4    0.0163   -0.0052    0.0011    0.0099    0.0099    0.0786   -0.0117   -0.0035
           5    0.0070   -0.0074   -0.0047   -0.0101   -0.0068    0.0337    0.0060   -0.0006
           6   -0.0060    0.0032    0.0008   -0.0002   -0.0010   -0.0285    0.0015    0.0010
           7   -0.0080   -0.0191   -0.0025    0.0257    0.0272   -0.0028    0.0344   -0.0034
           8   -0.0046   -0.0017   -0.0256   -0.0146    0.0428   -0.0013    0.0001    0.0040
           9    0.0027   -0.0013    0.0044    0.0147   -0.0058    0.0003    0.0067    0.0027
          10   -0.0038   -0.0199   -0.0092    0.0104    0.0155    0.0023   -0.0229    0.0193
          11    0.0061    0.0041    0.0069   -0.0002   -0.0120    0.0011    0.0044    0.0014
          12   -0.0096   -0.0093   -0.0052    0.0028    0.0067   -0.0012   -0.0126   -0.0100
          13   -0.0012   -0.0054    0.0380   -0.0190   -0.0053    0.0006   -0.0110    0.0062
          14   -0.0101   -0.0245    0.0350    0.0041   -0.0049    0.0000    0.0004   -0.0021
          15    0.0027   -0.0031    0.0224   -0.0119    0.0004    0.0002   -0.0053    0.0052
          16   -0.0004   -0.0129   -0.0142   -0.0262   -0.0151    0.0004   -0.0111   -0.0047
          17    0.0039    0.0049    0.0005    0.0010    0.0014   -0.0054    0.0064    0.0074
          18   -0.0129   -0.0030   -0.0020   -0.0084   -0.0074   -0.0027   -0.0086   -0.0176
          19    0.0030    0.0050   -0.0147    0.0139   -0.0209    0.0000    0.0103   -0.0222
          20    0.0110    0.0223   -0.0054   -0.0260    0.0337   -0.0015    0.0075   -0.0164
          21   -0.0019   -0.0024   -0.0118    0.0218   -0.0337    0.0008    0.0050   -0.0129
          22   -0.0297    0.0110    0.0021   -0.0107   -0.0119    0.0164    0.0221    0.0017
          23   -0.0175    0.0134    0.0107    0.0214    0.0146    0.0371   -0.0082   -0.0022
          24    0.0177   -0.0029   -0.0006    0.0009    0.0014   -0.0133   -0.0019    0.0008
          25   -0.0116    0.0035   -0.0028   -0.0162   -0.0154   -0.0882    0.0204    0.0048
          26    0.0096   -0.0116   -0.0058   -0.0069   -0.0043   -0.0648   -0.0021    0.0019
          27   -0.0004    0.0014    0.0018    0.0054    0.0047    0.0387   -0.0051   -0.0019
          28   -0.0437    0.0454   -0.0234   -0.0683   -0.0516    0.0022   -0.0622    0.0043
          29    0.0118   -0.0103    0.0525    0.0379   -0.0665    0.0020    0.0062   -0.0014
          30   -0.0103    0.0120   -0.0333   -0.0232    0.0322   -0.0005   -0.0101    0.0068
          31    0.0730    0.0996    0.0230   -0.0281   -0.0297   -0.0029    0.0194   -0.0542
          32   -0.0099   -0.0144   -0.0047   -0.0010   -0.0071    0.0001   -0.0605   -0.0868
          33    0.0144    0.0245    0.0077   -0.0042   -0.0032   -0.0015    0.0459    0.0500
          34    0.0448    0.1196    0.0629   -0.0185   -0.1010    0.0012    0.0210   -0.0440
          35   -0.0046   -0.0204   -0.0109    0.0048    0.0217    0.0010    0.0146    0.0416
          36   -0.0031    0.0342    0.0003   -0.0076    0.0165   -0.0038    0.0778    0.0973
          37    0.0090    0.0372   -0.1257    0.0303    0.0079   -0.0005    0.0093    0.0057
          38   -0.0073   -0.0102   -0.0615    0.0454    0.0083   -0.0007    0.0173    0.0250
          39    0.0187    0.0557   -0.0929   -0.0103   -0.0004   -0.0004   -0.0052   -0.0582
          40    0.0049    0.0278   -0.1287    0.0315    0.0176   -0.0021    0.0220   -0.0484
          41   -0.0099   -0.0057   -0.0639    0.0448    0.0070   -0.0002    0.0145    0.0488
          42    0.0063    0.0189   -0.0842    0.0237    0.0126   -0.0011    0.0142   -0.0090
          43    0.0977    0.0411    0.0467    0.0804    0.0502   -0.0038   -0.0155   -0.0156
          44   -0.0162   -0.0133   -0.0140   -0.0129    0.0007   -0.0320   -0.0798   -0.0952
          45    0.0148    0.0189    0.0183    0.0184    0.0028    0.0197    0.0592    0.0636
          46    0.1985    0.0315    0.0349    0.0539    0.0305   -0.0403   -0.0054   -0.0086
          47   -0.0389   -0.0010   -0.0053   -0.0111   -0.0085    0.0189    0.0272    0.0365
          48    0.0334    0.0159    0.0250    0.0278    0.0023    0.0514    0.0904    0.1080
          49    0.0162    0.0299   -0.0121   -0.0269    0.0162    0.0008   -0.0187    0.0199
          50   -0.0013    0.0023   -0.0611    0.0572   -0.1229    0.0084   -0.0702    0.0954
          51    0.0263    0.0506   -0.0150   -0.0585    0.0291    0.0042   -0.0752    0.1059
          52    0.0257    0.0573   -0.0401   -0.0395   -0.0188    0.0073   -0.0996    0.1356
          53   -0.0054    0.0016   -0.0515    0.0556   -0.1111    0.0058   -0.0379    0.0428
          54    0.0143    0.0227    0.0155   -0.0459    0.0667   -0.0029    0.0145   -0.0235
          55    0.0971   -0.1013   -0.0152    0.0199    0.0197   -0.1357   -0.0275   -0.0020
          56   -0.0774    0.0597    0.0168    0.0069    0.0005    0.1056    0.0112   -0.0016
          57   -0.0120    0.0049   -0.0040   -0.0111   -0.0070    0.0081    0.0013   -0.0010
          58   -0.0966    0.0524    0.0301    0.0584    0.0407    0.0332   -0.0305   -0.0011
          59    0.0398   -0.0289   -0.0174   -0.0337   -0.0247   -0.1209    0.0173    0.0050
          60    0.0191   -0.0049   -0.0020   -0.0042   -0.0026    0.0225    0.0045   -0.0001
          61   -0.0585    0.0820    0.0578    0.1300    0.0899   -0.2550   -0.0804    0.0010
          62   -0.0277    0.0335    0.0223    0.0477    0.0320   -0.1206   -0.0277    0.0013
          63    0.0211   -0.0294   -0.0205   -0.0454   -0.0312    0.0948    0.0273   -0.0007


   Root No.      41        42        43        44        45        46        47        48

                41 A      42 A      43 A      44 A      45 A      46 A      47 A      48 A   

                1403.1    1406.1    1432.1    1447.6    1868.1    2913.6    2940.1    2960.2
  
           1   -0.0002    0.0006   -0.0017    0.0011    0.0001   -0.0002   -0.0001    0.0003
           2    0.0030   -0.0001    0.0050   -0.0071    0.0001    0.0003   -0.0001    0.0001
           3   -0.0027   -0.0000   -0.0038    0.0052    0.0000    0.0004    0.0000   -0.0000
           4    0.0062   -0.0018    0.0100    0.0070   -0.0195    0.0000    0.0001    0.0000
           5   -0.0036   -0.0018   -0.0059   -0.0036    0.0089    0.0000    0.0000    0.0000
           6   -0.0007    0.0008   -0.0011   -0.0009    0.0028   -0.0000   -0.0000   -0.0000
           7   -0.0301   -0.0190   -0.0095    0.0456   -0.0018    0.0072   -0.0004    0.0003
           8   -0.0070    0.0002   -0.0028    0.0061   -0.0000   -0.0248    0.0015   -0.0014
           9   -0.0024   -0.0059   -0.0066    0.0094   -0.0001   -0.0546    0.0032   -0.0028
          10    0.0218    0.0187   -0.0148   -0.0450    0.0034    0.0007    0.0012   -0.0037
          11    0.0084   -0.0106    0.0029    0.0035   -0.0001    0.0060    0.0143   -0.0407
          12   -0.0224    0.0265   -0.0037   -0.0068    0.0000    0.0024    0.0045   -0.0127
          13    0.0013   -0.0001    0.0047   -0.0083    0.0002   -0.0021    0.0002   -0.0002
          14    0.0118    0.0087   -0.0260    0.0259   -0.0001    0.0006   -0.0000    0.0000
          15   -0.0076   -0.0047    0.0145   -0.0144    0.0001    0.0015   -0.0001    0.0001
          16    0.0181   -0.0013    0.0490    0.0417    0.0318    0.0002   -0.0028   -0.0009
          17   -0.0030    0.0120   -0.0022   -0.0047   -0.0059   -0.0034   -0.0388   -0.0142
          18    0.0015   -0.0314   -0.0075    0.0021   -0.0064   -0.0016   -0.0159   -0.0061
          19    0.0140    0.0058    0.0139   -0.0208    0.0000    0.0003   -0.0000   -0.0000
          20    0.0074    0.0044    0.0131   -0.0178    0.0001    0.0004   -0.0000    0.0000
          21    0.0103    0.0037    0.0072   -0.0122   -0.0000    0.0006   -0.0000    0.0001
          22   -0.0155   -0.0038   -0.0296   -0.0201   -0.1582    0.0000    0.0007    0.0002
          23    0.0020   -0.0024   -0.0005   -0.0008    0.1456    0.0001    0.0012    0.0003
          24    0.0017    0.0032    0.0065    0.0047    0.0036   -0.0000   -0.0005   -0.0002
          25   -0.0126    0.0016   -0.0215   -0.0150    0.1632   -0.0000   -0.0006   -0.0003
          26    0.0041    0.0034    0.0098    0.0067   -0.1460   -0.0000   -0.0005   -0.0003
          27    0.0025   -0.0016    0.0034    0.0024   -0.0055    0.0000    0.0002    0.0001
          28    0.0307    0.0333    0.0135   -0.0574   -0.0001   -0.0979    0.0055   -0.0074
          29    0.0098   -0.0048   -0.0044    0.0044    0.0002    0.2904   -0.0164    0.0135
          30   -0.0020    0.0036   -0.0030   -0.0036   -0.0003    0.6505   -0.0379    0.0325
          31   -0.0685    0.0029    0.0257    0.0702    0.0018    0.0041    0.0178   -0.0441
          32   -0.1261    0.1060   -0.0017    0.0098   -0.0016   -0.0323   -0.0624    0.1689
          33    0.0721   -0.0702    0.0067    0.0059    0.0004   -0.0452   -0.0879    0.2506
          34   -0.0359   -0.0059    0.0312    0.0515    0.0030   -0.0100   -0.0321    0.0866
          35    0.0569   -0.0374   -0.0073   -0.0182    0.0006   -0.0415   -0.1106    0.3195
          36    0.1331   -0.1202    0.0050    0.0008    0.0012    0.0115    0.0321   -0.0994
          37   -0.0263   -0.0207    0.0415   -0.0375    0.0002    0.0092   -0.0007    0.0008
          38   -0.0650   -0.0458    0.0631   -0.0420   -0.0001   -0.0141    0.0011   -0.0011
          39    0.1159    0.0803   -0.1159    0.0798    0.0003   -0.0081    0.0006   -0.0006
          40    0.0603    0.0460   -0.0754    0.0681   -0.0004    0.0107   -0.0007    0.0006
          41   -0.1086   -0.0784    0.1176   -0.0869    0.0000    0.0045   -0.0002   -0.0001
          42   -0.0071   -0.0033    0.0097   -0.0043   -0.0001   -0.0151    0.0012   -0.0013
          43   -0.0141   -0.0333   -0.0649   -0.0497    0.0161   -0.0025   -0.0442   -0.0147
          44   -0.0019   -0.1380   -0.0525   -0.0179    0.0026    0.0187    0.1939    0.0721
          45   -0.0037    0.0857    0.0176   -0.0002   -0.0079    0.0269    0.2798    0.1083
          46   -0.0187   -0.0220   -0.0705   -0.0584   -0.0410    0.0066    0.0786    0.0260
          47    0.0064    0.0588    0.0418    0.0237    0.0191    0.0212    0.2712    0.0965
          48    0.0004    0.1544    0.0495    0.0115    0.0047   -0.0068   -0.0862   -0.0335
          49   -0.0075   -0.0018   -0.0030    0.0015    0.0001    0.0094   -0.0007    0.0015
          50   -0.0357   -0.0150   -0.0468    0.0551   -0.0000    0.0012   -0.0001    0.0002
          51   -0.0495   -0.0184   -0.0439    0.0556    0.0002   -0.0037    0.0003   -0.0006
          52   -0.0586   -0.0223   -0.0576    0.0706    0.0001   -0.0003    0.0000    0.0000
          53   -0.0083   -0.0041   -0.0210    0.0194    0.0000   -0.0004   -0.0000    0.0000
          54    0.0079    0.0046    0.0174   -0.0216    0.0001    0.0002   -0.0001    0.0000
          55    0.0156   -0.0005    0.0216    0.0143    0.1063   -0.0004   -0.0039   -0.0002
          56   -0.0102   -0.0056   -0.0219   -0.0152    0.0658   -0.0013   -0.0163   -0.0048
          57    0.0005   -0.0019    0.0014    0.0014   -0.0431    0.0004    0.0044    0.0013
          58    0.0168    0.0043    0.0265    0.0165   -0.1054    0.0000    0.0011    0.0008
          59   -0.0068    0.0039   -0.0073   -0.0048   -0.0941    0.0002    0.0064    0.0040
          60   -0.0037   -0.0004   -0.0061   -0.0042    0.0504   -0.0000   -0.0017   -0.0011
          61    0.0452    0.0150    0.0721    0.0440   -0.1330   -0.0000   -0.0001   -0.0000
          62    0.0157    0.0061    0.0248    0.0148   -0.0573    0.0000   -0.0001   -0.0000
          63   -0.0153   -0.0057   -0.0243   -0.0148    0.0480   -0.0000   -0.0000   -0.0000


   Root No.      49        50        51        52        53        54        55        56

                49 A      50 A      51 A      52 A      53 A      54 A      55 A      56 A   

                3002.1    3003.7    3020.7    3034.9    3048.5    3051.7    3056.6    3116.3
  
           1   -0.0000    0.0003    0.0000    0.0000    0.0003    0.0001    0.0000    0.0002
           2   -0.0000   -0.0001   -0.0000    0.0001    0.0000   -0.0001   -0.0000   -0.0007
           3   -0.0000   -0.0004    0.0000    0.0001    0.0003   -0.0000    0.0000    0.0005
           4    0.0021   -0.0000   -0.0000   -0.0000    0.0000   -0.0000    0.0000    0.0000
           5    0.0014   -0.0000   -0.0000   -0.0000    0.0000   -0.0000   -0.0007    0.0000
           6   -0.0009    0.0000    0.0000    0.0000    0.0000    0.0000    0.0002   -0.0000
           7    0.0000   -0.0003    0.0003   -0.0007    0.0011    0.0004    0.0000   -0.0004
           8    0.0000    0.0002   -0.0002    0.0002    0.0008   -0.0007    0.0000    0.0007
           9   -0.0000    0.0004   -0.0002    0.0008    0.0011   -0.0018   -0.0000   -0.0004
          10    0.0000   -0.0000    0.0015   -0.0121   -0.0000   -0.0002   -0.0000   -0.0000
          11    0.0002    0.0001    0.0002   -0.0083    0.0001    0.0000    0.0003   -0.0000
          12    0.0002    0.0000   -0.0033    0.0350    0.0001   -0.0003   -0.0005    0.0002
          13    0.0001    0.0051   -0.0001    0.0000    0.0001    0.0328   -0.0001   -0.0106
          14   -0.0000   -0.0022    0.0000   -0.0002   -0.0005   -0.0131    0.0000    0.0376
          15   -0.0001   -0.0058    0.0000   -0.0001   -0.0007   -0.0382    0.0001   -0.0189
          16   -0.0004   -0.0000   -0.0124   -0.0010   -0.0000   -0.0000   -0.0008    0.0000
          17   -0.0003    0.0000   -0.0145   -0.0016    0.0000   -0.0000   -0.0036   -0.0000
          18    0.0028    0.0000    0.0313    0.0041    0.0000    0.0001    0.0009    0.0000
          19   -0.0003   -0.0348   -0.0000    0.0001   -0.0309    0.0055   -0.0000   -0.0003
          20    0.0001    0.0163   -0.0000    0.0000   -0.0252   -0.0021   -0.0000    0.0007
          21    0.0004    0.0391   -0.0000   -0.0001   -0.0169   -0.0056    0.0000   -0.0001
          22   -0.0051    0.0000    0.0005    0.0001    0.0000   -0.0000   -0.0200    0.0000
          23    0.0039   -0.0000    0.0018   -0.0005    0.0000   -0.0001   -0.0656    0.0000
          24    0.0003   -0.0000   -0.0006    0.0003   -0.0000    0.0000    0.0220   -0.0000
          25   -0.0164    0.0001    0.0006    0.0001    0.0000    0.0000   -0.0029   -0.0000
          26   -0.0686    0.0003    0.0023    0.0005    0.0000    0.0000    0.0058   -0.0000
          27    0.0215   -0.0001   -0.0007   -0.0001   -0.0000   -0.0000   -0.0007    0.0000
          28    0.0000    0.0008    0.0002    0.0029    0.0008   -0.0003    0.0000    0.0001
          29    0.0001   -0.0013    0.0016   -0.0039   -0.0018    0.0069    0.0000   -0.0003
          30    0.0004   -0.0017    0.0042   -0.0074   -0.0044    0.0208   -0.0000   -0.0019
          31    0.0004    0.0002   -0.0067    0.0533    0.0002   -0.0010   -0.0007    0.0001
          32   -0.0019   -0.0004    0.0303   -0.2746   -0.0007    0.0016    0.0036   -0.0013
          33   -0.0027   -0.0007    0.0389   -0.3435   -0.0010    0.0016    0.0049   -0.0021
          34   -0.0001   -0.0001   -0.0097    0.0933   -0.0001   -0.0005   -0.0038   -0.0000
          35   -0.0000   -0.0001   -0.0351    0.3769   -0.0002   -0.0006   -0.0076    0.0019
          36    0.0002    0.0000    0.0072   -0.0843    0.0001   -0.0003    0.0013   -0.0007
          37   -0.0005   -0.0386    0.0006   -0.0024   -0.0037   -0.2238    0.0006    0.3198
          38    0.0005    0.0411   -0.0007    0.0028    0.0038    0.2739   -0.0007   -0.3611
          39    0.0002    0.0146   -0.0003    0.0009    0.0011    0.0874   -0.0002   -0.1526
          40   -0.0002   -0.0243    0.0004   -0.0010   -0.0025   -0.1700    0.0003   -0.1904
          41   -0.0002   -0.0141    0.0002    0.0002   -0.0017   -0.1163    0.0002   -0.0915
          42    0.0006    0.0572   -0.0007   -0.0005    0.0044    0.3733   -0.0006    0.3819
          43    0.0043    0.0000    0.0386    0.0034   -0.0000    0.0001   -0.0031    0.0000
          44   -0.0230   -0.0001   -0.2338   -0.0271   -0.0000   -0.0004   -0.0029   -0.0001
          45   -0.0298   -0.0002   -0.2887   -0.0344   -0.0001   -0.0005    0.0018   -0.0001
          46    0.0086   -0.0000    0.1064    0.0107   -0.0000    0.0001    0.0160    0.0000
          47    0.0230   -0.0001    0.4099    0.0439   -0.0001    0.0005    0.0419    0.0001
          48   -0.0053    0.0000   -0.0948   -0.0097    0.0000   -0.0001   -0.0122   -0.0000
          49    0.0037    0.3731    0.0001   -0.0011    0.4308   -0.0592    0.0002    0.0025
          50    0.0004    0.0438    0.0000   -0.0001    0.0319   -0.0102    0.0000    0.0007
          51   -0.0014   -0.1388   -0.0000    0.0005   -0.1847    0.0221   -0.0001   -0.0012
          52    0.0004    0.0410   -0.0000   -0.0000   -0.0752   -0.0038   -0.0000   -0.0002
          53   -0.0022   -0.2377    0.0001    0.0000    0.2639    0.0350    0.0000   -0.0010
          54   -0.0030   -0.3259    0.0001    0.0000    0.3768    0.0427    0.0001   -0.0013
          55    0.0027    0.0000   -0.0070    0.0023   -0.0001    0.0002    0.2780   -0.0001
[...]
 T-DIPOLE    0.3039         C  3 -- C  7          +6.7% ( 36.6%)     35.2%
 TRAVEL      0.0917         C  7 -- H 17          +6.7% ( 36.5%)      0.3%
 RED. MASS   0.5044         C  3 -- H 10          +6.7% ( 36.4%)      0.2%
 EFF. MASS   6.1995

 VIBRATION   37   37A         ATOM PAIR      ENERGY CONTRIBUTION    RADIAL
 FREQ.      1307.72         C  3 -- C  7         +11.3% ( 48.8%)     90.2%
 T-DIPOLE    0.4290         O  1 -- C  3         +10.6% ( 47.3%)     87.2%
 TRAVEL      0.0828         O  1 -- C  7         +10.3% ( 46.5%)     64.9%
 RED. MASS   1.0819         C  7 -- H 18          +9.8% ( 45.4%)      0.2%
 EFF. MASS   7.5161

 VIBRATION   38   38A         ATOM PAIR      ENERGY CONTRIBUTION    RADIAL
 FREQ.      1341.97         O  2 -- C  9         +38.5% ( 81.7%)     85.3%
 T-DIPOLE    1.6557         C  8 -- C  9         +20.9% ( 60.2%)      1.8%
 TRAVEL      0.0711         O  2 -- H 21         +20.3% ( 59.3%)      0.0%
 RED. MASS   2.8804         C  9 -- H 20         +13.3% ( 48.0%)     37.4%
 EFF. MASS   9.9479

 VIBRATION   39   39A         ATOM PAIR      ENERGY CONTRIBUTION    RADIAL
 FREQ.      1363.33         C  3 -- C  4         +10.5% ( 41.9%)     67.9%
 T-DIPOLE    0.3352         C  3 -- H 10          +8.1% ( 36.9%)      0.0%
 TRAVEL      0.0989         C  3 -- C  5          +6.9% ( 33.9%)     64.5%
 RED. MASS   0.3971         C  4 -- H 12          +5.8% ( 31.1%)      0.3%
 EFF. MASS   5.0532

 VIBRATION   40   40A         ATOM PAIR      ENERGY CONTRIBUTION    RADIAL
 FREQ.      1385.28         C  7 -- H 18         +15.9% ( 43.3%)      4.8%
 T-DIPOLE    0.1698         C  7 -- H 17         +15.8% ( 43.2%)      4.9%
 TRAVEL      0.1321         C  4 -- H 11          +8.8% ( 32.2%)      3.5%
 RED. MASS   0.2328         C  4 -- H 12          +8.8% ( 32.1%)      3.0%
 EFF. MASS   2.7882

 VIBRATION   41   41A         ATOM PAIR      ENERGY CONTRIBUTION    RADIAL
 FREQ.      1403.14         C  4 -- H 11         +13.8% ( 44.6%)      4.0%
 T-DIPOLE    0.1612         C  4 -- H 12         +11.8% ( 41.3%)      6.4%
 TRAVEL      0.1078         C  3 -- C  4         +10.3% ( 38.4%)     91.9%
 RED. MASS   0.3235         C  5 -- H 13          +7.7% ( 33.2%)      1.4%
 EFF. MASS   4.1319

 VIBRATION   42   42A         ATOM PAIR      ENERGY CONTRIBUTION    RADIAL
 FREQ.      1406.09         C  6 -- H 16         +15.8% ( 44.2%)      5.2%
 T-DIPOLE    0.0277         C  6 -- H 15         +15.8% ( 44.2%)      4.9%
 TRAVEL      0.1173         C  4 -- C  6         +12.8% ( 39.8%)     89.9%
 RED. MASS   0.3481         C  4 -- H 11         +11.7% ( 38.0%)      3.3%
 EFF. MASS   3.4858         C  4 -- H 12         +11.5% ( 37.7%)      3.2%

 VIBRATION   43   43A         ATOM PAIR      ENERGY CONTRIBUTION    RADIAL
 FREQ.      1432.13         C  6 -- C  8         +14.8% ( 52.0%)     98.5%
 T-DIPOLE    0.1224         C  6 -- H 16         +10.5% ( 43.9%)      2.1%
 TRAVEL      0.0867         C  6 -- H 15          +9.6% ( 41.9%)      2.8%
 RED. MASS   0.7375         C  4 -- C  6          +8.6% ( 39.6%)     32.6%
 EFF. MASS   6.2670

 VIBRATION   44   44A         ATOM PAIR      ENERGY CONTRIBUTION    RADIAL
 FREQ.      1447.56         C  3 -- C  4         +11.1% ( 51.1%)     81.0%
 T-DIPOLE    0.1551         C  4 -- C  6          +9.0% ( 45.9%)     47.8%
 TRAVEL      0.0760         C  3 -- C  7          +7.7% ( 42.4%)     92.3%
 RED. MASS   0.9700         C  3 -- C  5          +7.5% ( 41.9%)     85.0%
 EFF. MASS   8.0721

 VIBRATION   45   45A         ATOM PAIR      ENERGY CONTRIBUTION    RADIAL
 FREQ.      1868.08         C  8 -- C  9         +43.6% ( 96.6%)     96.0%
 T-DIPOLE    1.6404         O  2 -- C  9         +14.4% ( 55.5%)     44.7%
 TRAVEL      0.0559         C  6 -- C  8         +14.1% ( 54.9%)     53.8%
 RED. MASS   5.1838         C  9 -- H 20         +13.7% ( 54.2%)      3.8%
 EFF. MASS  11.5322         C  8 -- H 19         +13.2% ( 53.1%)      3.7%

 VIBRATION   46   46A         ATOM PAIR      ENERGY CONTRIBUTION    RADIAL
 FREQ.      2913.56         C  3 -- H 10         +94.1% ( 99.3%)    100.0%
 T-DIPOLE    0.0376         C  3 -- C  4          +1.1% ( 10.9%)     11.2%
 TRAVEL      0.1257         C  3 -- C  5          +1.1% ( 10.8%)     17.6%
 RED. MASS   0.9031         C  3 -- C  7          +1.1% ( 10.7%)     29.3%
 EFF. MASS   1.4655

 VIBRATION   47   47A         ATOM PAIR      ENERGY CONTRIBUTION    RADIAL
 FREQ.      2940.06         C  6 -- H 15         +48.7% ( 72.6%)     97.1%
 T-DIPOLE    0.0360         C  6 -- H 16         +37.0% ( 63.2%)     95.6%
 TRAVEL      0.1217         C  4 -- H 12          +6.0% ( 25.5%)     96.6%
 RED. MASS   0.4142         C  4 -- H 11          +5.1% ( 23.4%)     95.6%
 EFF. MASS   1.5491

 VIBRATION   48   48A         ATOM PAIR      ENERGY CONTRIBUTION    RADIAL
 FREQ.      2960.16         C  4 -- H 12         +47.9% ( 71.7%)     97.1%
 T-DIPOLE    0.0660         C  4 -- H 11         +38.1% ( 64.0%)     95.9%
 TRAVEL      0.1218         C  6 -- H 15          +6.8% ( 26.9%)     97.6%
 RED. MASS   0.4117         C  6 -- H 16          +4.5% ( 22.0%)     95.7%
 EFF. MASS   1.5347

 VIBRATION   49   49A         ATOM PAIR      ENERGY CONTRIBUTION    RADIAL
 FREQ.      3002.11         C  9 -- H 20         +96.1% ( 99.7%)     99.8%
 T-DIPOLE    0.2911         C  8 -- C  9          +1.8% ( 13.7%)     46.5%
 TRAVEL      0.1195         O  2 -- C  9          +1.7% ( 13.2%)     17.7%
 RED. MASS   0.9235         C  6 -- H 15          +0.2% (  4.5%)     98.9%
 EFF. MASS   1.5724

 VIBRATION   50   50A         ATOM PAIR      ENERGY CONTRIBUTION    RADIAL
 FREQ.      3003.70         C  7 -- H 18         +47.6% ( 72.0%)     96.6%
 T-DIPOLE    0.0435         C  7 -- H 17         +46.5% ( 71.2%)     96.4%
 TRAVEL      0.1192         C  5 -- C  7          +1.3% ( 11.7%)      0.0%
 RED. MASS   0.5042         C  5 -- H 14          +1.2% ( 11.4%)     96.3%
 EFF. MASS   1.5812

 VIBRATION   51   51A         ATOM PAIR      ENERGY CONTRIBUTION    RADIAL
 FREQ.      3020.74         C  6 -- H 16         +56.2% ( 73.9%)     98.4%
 T-DIPOLE    0.0223         C  6 -- H 15         +40.9% ( 63.0%)     96.7%
 TRAVEL      0.1322         C  4 -- H 11          +0.7% (  8.5%)     98.9%
 RED. MASS   0.4787         C  4 -- C  6          +0.7% (  8.0%)     30.1%
 EFF. MASS   1.2776

 VIBRATION   52   52A         ATOM PAIR      ENERGY CONTRIBUTION    RADIAL
 FREQ.      3034.88         C  4 -- H 11         +54.4% ( 72.7%)     98.2%
 T-DIPOLE    0.0785         C  4 -- H 12         +43.2% ( 64.8%)     97.0%
 TRAVEL      0.1322         C  6 -- H 16          +0.6% (  7.6%)     97.5%
 RED. MASS   0.4780         C  3 -- C  4          +0.6% (  7.6%)     29.7%
 EFF. MASS   1.2707

 VIBRATION   53   53A         ATOM PAIR      ENERGY CONTRIBUTION    RADIAL
 FREQ.      3048.50         C  7 -- H 17         +49.2% ( 69.8%)     97.1%
 T-DIPOLE    0.0280         C  7 -- H 18         +48.4% ( 69.3%)     96.9%
 TRAVEL      0.1307         C  3 -- C  7          +0.8% (  8.8%)     97.8%
 RED. MASS   0.4843         O  1 -- C  7          +0.8% (  8.7%)     36.9%
 EFF. MASS   1.2948

 VIBRATION   54   54A         ATOM PAIR      ENERGY CONTRIBUTION    RADIAL
 FREQ.      3051.71         C  5 -- H 14         +54.0% ( 76.5%)     97.7%
 T-DIPOLE    0.1465         C  5 -- H 13         +40.5% ( 66.2%)     96.0%
 TRAVEL      0.1199         C  7 -- H 17          +1.2% ( 11.3%)     97.9%
 RED. MASS   0.5039         O  1 -- C  5          +1.1% ( 10.9%)      0.3%
 EFF. MASS   1.5383

 VIBRATION   55   55A         ATOM PAIR      ENERGY CONTRIBUTION    RADIAL
 FREQ.      3056.58         C  8 -- H 19         +96.8% ( 99.8%)    100.0%
 T-DIPOLE    0.3644         C  8 -- C  9          +1.5% ( 12.3%)     38.8%
 TRAVEL      0.1210         C  6 -- C  8          +1.3% ( 11.6%)     15.6%
 RED. MASS   0.9223         C  6 -- H 16          +0.3% (  5.4%)     99.6%
 EFF. MASS   1.5077

 VIBRATION   56   56A         ATOM PAIR      ENERGY CONTRIBUTION    RADIAL
 FREQ.      3116.26         C  5 -- H 13         +56.5% ( 74.6%)     97.9%
 T-DIPOLE    0.1475         C  5 -- H 14         +41.4% ( 63.8%)     95.8%
 TRAVEL      0.1297         O  1 -- C  5          +0.7% (  8.4%)     99.0%
 RED. MASS   0.4941         C  5 -- C  7          +0.7% (  8.3%)     53.5%
 EFF. MASS   1.2867

 VIBRATION   57   57A         ATOM PAIR      ENERGY CONTRIBUTION    RADIAL
 FREQ.      3916.46         O  2 -- H 21         +99.6% (100.0%)    100.0%
 T-DIPOLE    0.3914         O  2 -- C  9          +0.4% (  6.3%)      7.2%
 TRAVEL      0.1115
 RED. MASS   0.9479
 EFF. MASS   1.3858

      SYMMETRY NUMBER FOR POINT-GROUP C1  =  1


          SYSTEM IS A GROUND STATE



 InChI=1S/C7H12O2/c8-5-2-1-3-7-4-6-9-7/h2,5,7-8H,1,3-4,6H2


          MOLECULE IS NOT LINEAR

          THERE ARE 57 GENUINE VIBRATIONS IN THIS SYSTEM
          THIS THERMODYNAMICS CALCULATION IS LIMITED TO
          MOLECULES WHICH HAVE NO INTERNAL ROTATIONS




                    CALCULATED THERMODYNAMIC PROPERTIES
                                          *
   TEMP. (K)   PARTITION FUNCTION   H.O.F.    ENTHALPY  HEAT CAPACITY ENTROPY
                                   KCAL/MOL   CAL/MOLE    CAL/K/MOL  CAL/K/MOL


 298.00  VIB.     0.2161D+04                  4524.2973    29.7476    30.4408
         ROT.     0.6881D+06                   888.2813     2.9808    29.6921
         INT.     0.1487D+10                  5412.5786    32.7284    60.1328
         TRA.     0.1403D+28                  1480.4688     4.9680    40.4556
         TOT.                      -64.758    6893.0475    37.6964   100.5884

 200.00  VIB.     0.1681D+03                  2129.4734    19.5533    20.8307
         ROT.     0.3783D+06                   596.1620     2.9808    28.5034
         INT.     0.6359D+08                  2725.6353    22.5341    49.3341
         TRA.     0.7713D+27                   993.6033     4.9680    38.4745
         TOT.                      -67.932    3719.2386    27.5021    87.8086

 210.00  VIB.     0.2195D+03                  2329.5231    20.4623    21.8066
         ROT.     0.4070D+06                   625.9700     2.9808    28.6488
         INT.     0.8934D+08                  2955.4932    23.4431    50.4554
         TRA.     0.8299D+27                  1043.2834     4.9680    38.7168
         TOT.                      -67.653    3998.7766    28.4111    89.1723

 220.00  VIB.     0.2861D+03                  2538.8341    21.4056    22.7801
         ROT.     0.4364D+06                   655.7781     2.9808    28.7875
         INT.     0.1248D+09                  3194.6122    24.3864    51.5677
         TRA.     0.8899D+27                  1092.9636     4.9680    38.9480
         TOT.                      -67.364    4287.5758    29.3544    90.5156

 230.00  VIB.     0.3722D+03                  2757.7488    22.3829    23.7531
         ROT.     0.4665D+06                   685.5862     2.9808    28.9200
         INT.     0.1736D+09                  3443.3350    25.3637    52.6731
         TRA.     0.9512D+27                  1142.6437     4.9680    39.1688
         TOT.                      -67.065    4585.9787    30.3317    91.8419

 240.00  VIB.     0.4834D+03                  2986.6012    23.3929    24.7269
         ROT.     0.4973D+06                   715.3943     2.9808    29.0469
         INT.     0.2404D+09                  3701.9955    26.3737    53.7738
         TRA.     0.1014D+28                  1192.3239     4.9680    39.3802
         TOT.                      -66.757    4894.3194    31.3417    93.1540

 250.00  VIB.     0.6272D+03                  3225.7072    24.4332    25.7029
         ROT.     0.5287D+06                   745.2024     2.9808    29.1686
         INT.     0.3316D+09                  3970.9096    27.4140    54.8714
         TRA.     0.1078D+28                  1242.0041     4.9680    39.5830
         TOT.                      -66.438    5212.9137    32.3820    94.4545

 260.00  VIB.     0.8127D+03                  3475.3567    25.5010    26.6819
         ROT.     0.5607D+06                   775.0105     2.9808    29.2855
         INT.     0.4557D+09                  4250.3672    28.4818    55.9673
         TRA.     0.1143D+28                  1291.6842     4.9680    39.7779
         TOT.                      -66.109    5542.0515    33.4498    95.7452

 270.00  VIB.     0.1052D+04                  3735.8081    26.5930    27.6647
         ROT.     0.5934D+06                   804.8186     2.9808    29.3980
         INT.     0.6244D+09                  4540.6268    29.5738    57.0627
         TRA.     0.1210D+28                  1341.3644     4.9680    39.9654
         TOT.                      -65.769    5881.9912    34.5418    97.0280

 280.00  VIB.     0.1361D+04                  4007.2849    27.7055    28.6519
         ROT.     0.6267D+06                   834.6267     2.9808    29.5064
         INT.     0.8531D+09                  4841.9116    30.6863    58.1582
         TRA.     0.1278D+28                  1391.0445     4.9680    40.1461
         TOT.                      -65.418    6232.9562    35.6543    98.3043

 290.00  VIB.     0.1760D+04                  4289.9732    28.8347    29.6437
         ROT.     0.6605D+06                   864.4348     2.9808    29.6110
         INT.     0.1163D+10                  5154.4081    31.8155    59.2547
         TRA.     0.1347D+28                  1440.7247     4.9680    40.3204
         TOT.                      -65.056    6595.1328    36.7835    99.5751

 300.00  VIB.     0.2275D+04                  4584.0217    29.9769    30.6405
         ROT.     0.6950D+06                   894.2429     2.9808    29.7120
         INT.     0.1581D+10                  5478.2646    32.9577    60.3525
         TRA.     0.1417D+28                  1490.4049     4.9680    40.4888
         TOT.                      -64.683    6968.6695    37.9257   100.8413

 310.00  VIB.     0.2939D+04                  4889.5413    31.1283    31.6422
         ROT.     0.7300D+06                   924.0510     2.9808    29.8098
         INT.     0.2146D+10                  5813.5923    34.1091    61.4520
         TRA.     0.1488D+28                  1540.0850     4.9680    40.6517
         TOT.                      -64.298    7353.6773    39.0771   102.1037

 320.00  VIB.     0.3796D+04                  5206.6070    32.2855    32.6487
         ROT.     0.7656D+06                   953.8591     2.9808    29.9044
         INT.     0.2907D+10                  6160.4661    35.2663    62.5531
         TRA.     0.1561D+28                  1589.7652     4.9680    40.8094
         TOT.                      -63.901    7750.2313    40.2343   103.3626

 330.00  VIB.     0.4903D+04                  5535.2594    33.4451    33.6600
         ROT.     0.8018D+06                   983.6672     2.9808    29.9961
         INT.     0.3931D+10                  6518.9266    36.4259    63.6561
         TRA.     0.1635D+28                  1639.4454     4.9680    40.9623
         TOT.                      -63.493    8158.3719    41.3939   104.6184

 340.00  VIB.     0.6332D+04                  5875.5070    34.6041    34.6756
         ROT.     0.8385D+06                  1013.4753     2.9808    30.0851
         INT.     0.5309D+10                  6888.9823    37.5849    64.7607
         TRA.     0.1710D+28                  1689.1255     4.9680    41.1106
         TOT.                      -63.073    8578.1079    42.5529   105.8714

 350.00  VIB.     0.8177D+04                  6227.3290    35.7595    35.6954
         ROT.     0.8758D+06                  1043.2834     2.9808    30.1715
         INT.     0.7162D+10                  7270.6124    38.7403    65.8669
         TRA.     0.1786D+28                  1738.8057     4.9680    41.2546
         TOT.                      -62.642    9009.4181    43.7084   107.1215

 360.00  VIB.     0.1056D+05                  6590.6776    36.9090    36.7189
         ROT.     0.9136D+06                  1073.0915     2.9808    30.2555
         INT.     0.9649D+10                  7663.7691    39.8898    66.9744
         TRA.     0.1863D+28                  1788.4859     4.9680    41.3946
         TOT.                      -62.199    9452.2550    44.8578   108.3690

 370.00  VIB.     0.1364D+05                  6965.4812    38.0502    37.7457
         ROT.     0.9519D+06                  1102.8996     2.9808    30.3372
         INT.     0.1299D+11                  8068.3808    41.0310    68.0829
         TRA.     0.1941D+28                  1838.1660     4.9680    41.5307
         TOT.                      -61.745    9906.5468    45.9990   109.6136

 380.00  VIB.     0.1763D+05                  7351.6468    39.1811    38.7755
         ROT.     0.9908D+06                  1132.7077     2.9808    30.4167
         INT.     0.1746D+11                  8484.3545    42.1619    69.1922
         TRA.     0.2020D+28                  1887.8462     4.9680    41.6632
         TOT.                      -61.279   10372.2007    47.1299   110.8554

 390.00  VIB.     0.2277D+05                  7749.0631    40.3000    39.8078
         ROT.     0.1030D+07                  1162.5158     2.9808    30.4941
         INT.     0.2346D+11                  8911.5789    43.2808    70.3018
         TRA.     0.2100D+28                  1937.5263     4.9680    41.7923
         TOT.                      -60.802   10849.1052    48.2489   112.0941

 400.00  VIB.     0.2943D+05                  8157.6026    41.4055    40.8420
         ROT.     0.1070D+07                  1192.3239     2.9808    30.5695
         INT.     0.3149D+11                  9349.9265    44.3863    71.4116
         TRA.     0.2182D+28                  1987.2065     4.9680    41.9180
         TOT.                      -60.314   11337.1330    49.3543   113.3296

   *: NOTE: HEATS OF FORMATION ARE RELATIVE TO THE
            ELEMENTS IN THEIR STANDARD STATE AT 298K
              (=  Standard Enthalpy of Formation).

            Hvib:  Zero-point energy is not included.
                   frequencies of less than zero cm-1 are not included.
            Hrot = (3/2)RT
            Htra = (3/2)RT + pV = (5/2)RT

            Heat capacity is Cp, not Cv

          For more information, see: HTTP://OpenMOPAC.net/Manual/thermochemistry.html


           FORCE CONSTANT IN CARTESIAN COORDINATES (Millidynes/A)

    ATOM   CHEMICAL       X               Y               Z
   NUMBER   SYMBOL  FORCE CONSTANT  FORCE CONSTANT  FORCE CONSTANT

      1       O        3.643145        6.045994        3.593205
      2       O        8.475021        8.315162        0.950726
      3       C        9.128785        6.946884        8.602794
      4       C        8.391345        8.301600        8.261144
      5       C        7.120578        9.171455        8.225895
      6       C        9.070288        8.310928        8.019916
      7       C        9.286689        7.621376        8.113597
      8       C       11.516966       12.370062        3.136631
      9       C       11.967178       12.936519        2.911217
     10       H        0.836991        1.257654        3.945434
     11       H        0.805215        2.188151        3.419952
     12       H        0.968329        4.423275        0.967580
     13       H        2.456183        3.147196        1.053518
     14       H        1.460808        0.993664        4.180495
     15       H        0.745557        2.146950        3.391918
     16       H        1.036061        4.401445        0.962581
     17       H        4.420072        0.700566        1.237392
     18       H        0.746575        2.109590        3.499244
     19       H        1.249258        4.199489        0.831304
     20       H        0.974824        4.228224        0.740164
     21       H        2.482070        6.834704        0.197941

 **********************
 *                    *
 * JOB ENDED NORMALLY *
 *                    *
 **********************



 TOTAL JOB TIME:             2.13 SECONDS

 == MOPAC DONE ==
