 *******************************************************************************
 ** Site#: 14399        For non-commercial use only    Version 18.184L 64BITS **
 *******************************************************************************
 ** Cite this program as: MOPAC2016, Version: 18.184L, James J. P. Stewart,   **
 ** Stewart Computational Chemistry, web: HTTP://OpenMOPAC.net. Days left:  18**
 *******************************************************************************
 **                                                                           **
 **                                MOPAC2016                                  **
 **                                                                           **
 *******************************************************************************

                              PM3 CALCULATION RESULTS

 *******************************************************************************
 *  CALCULATION DONE:                                Sat Jun 15 11:01:55 2019  *
 *  PM3        - The PM3 Hamiltonian to be used
 *  PRECISE    - CRITERIA TO BE INCREASED BY 100 TIMES
 *  NOSYM      - POINT-GROUP SYMMETRY SET TO C1
 *  THREADS=1  - MULTI-THREADING NOT USED
 *  T=         - A TIME OF 172800.0 SECONDS REQUESTED
 *  DUMP=N     - RESTART FILE WRITTEN EVERY  7200.000 SECONDS
 *******************************************************************************
pm3  precise nosym THREADS=1
 InChI=1S/C7H12O2/c8-6-4-2-1-3-5-7(6)9/h2,4,6-9H,1,3,5H2

   ATOM   CHEMICAL          X               Y               Z
  NUMBER   SYMBOL      (ANGSTROMS)     (ANGSTROMS)     (ANGSTROMS)
 
     1       O          2.36500000  *  -1.21760000  *   0.01880000  *
     2       O          2.37320000  *   1.40750000  *   0.11250000  *
     3       C          1.13700000  *  -0.61360000  *  -0.30330000  *
     4       C         -0.00090000  *  -1.49780000  *   0.24910000  *
     5       C          1.11200000  *   0.81350000  *   0.29150000  *
     6       C         -1.40090000  *  -1.06990000  *  -0.21170000  *
     7       C         -1.84560000  *   0.26350000  *   0.40070000  *
     8       C          0.06940000  *   1.67740000  *  -0.38350000  *
     9       C         -1.24850000  *   1.43470000  *  -0.32810000  *
    10       H          1.04640000  *  -0.54340000  *  -1.41420000  *
    11       H         -1.44640000  *  -1.02620000  *  -1.32250000  *
    12       H         -2.11890000  *  -1.85410000  *   0.11380000  *
    13       H          0.04170000  *  -1.52840000  *   1.36020000  *
    14       H          0.16210000  *  -2.53880000  *  -0.10660000  *
    15       H          0.89280000  *   0.75460000  *   1.38380000  *
    16       H         -2.95180000  *   0.33500000  *   0.32010000  *
    17       H         -1.59070000  *   0.31130000  *   1.48160000  *
    18       H         -1.92220000  *   2.11910000  *  -0.83590000  *
    19       H          0.40170000  *   2.55300000  *  -0.93500000  *
    20       H          2.50330000  *  -1.95870000  *  -0.62780000  *
    21       H          2.42130000  *   2.17880000  *   0.73670000  *
 


          CARTESIAN COORDINATES 

    NO.       ATOM           X           Y           Z

     1         O          2.3650     -1.2176      0.0188
     2         O          2.3732      1.4075      0.1125
     3         C          1.1370     -0.6136     -0.3033
     4         C         -0.0009     -1.4978      0.2491
     5         C          1.1120      0.8135      0.2915
     6         C         -1.4009     -1.0699     -0.2117
     7         C         -1.8456      0.2635      0.4007
     8         C          0.0694      1.6774     -0.3835
     9         C         -1.2485      1.4347     -0.3281
    10         H          1.0464     -0.5434     -1.4142
    11         H         -1.4464     -1.0262     -1.3225
    12         H         -2.1189     -1.8541      0.1138
    13         H          0.0417     -1.5284      1.3602
    14         H          0.1621     -2.5388     -0.1066
    15         H          0.8928      0.7546      1.3838
    16         H         -2.9518      0.3350      0.3201
    17         H         -1.5907      0.3113      1.4816
    18         H         -1.9222      2.1191     -0.8359
    19         H          0.4017      2.5530     -0.9350
    20         H          2.5033     -1.9587     -0.6278
    21         H          2.4213      2.1788      0.7367

  H: (PM3): J. J. P. STEWART, J. COMP. CHEM. 10, 209 (1989).
  C: (PM3): J. J. P. STEWART, J. COMP. CHEM. 10, 209 (1989).
  O: (PM3): J. J. P. STEWART, J. COMP. CHEM. 10, 209 (1989).

           Empirical Formula: C7 H12 O2  =    21 atoms



      MOLECULAR POINT GROUP   :   C1  


      RHF CALCULATION, NO. OF DOUBLY OCCUPIED LEVELS = 26


          Geometry optimization using EF

          DIAGONAL MATRIX USED AS START HESSIAN

 CYCLE:     1 TIME:   0.004 TIME LEFT:  2.00D  GRAD.:   110.172 HEAT: -80.07162
 CYCLE:     2 TIME:   0.008 TIME LEFT:  2.00D  GRAD.:   133.336 HEAT: -80.08709
 CYCLE:     3 TIME:   0.004 TIME LEFT:  2.00D  GRAD.:    69.937 HEAT: -81.87489
 CYCLE:     4 TIME:   0.008 TIME LEFT:  2.00D  GRAD.:    42.020 HEAT: -82.98555
 CYCLE:     5 TIME:   0.004 TIME LEFT:  2.00D  GRAD.:    38.906 HEAT: -83.07044
 CYCLE:     6 TIME:   0.008 TIME LEFT:  2.00D  GRAD.:    19.264 HEAT: -83.44820
 CYCLE:     7 TIME:   0.008 TIME LEFT:  2.00D  GRAD.:    18.753 HEAT: -83.51444
 CYCLE:     8 TIME:   0.004 TIME LEFT:  2.00D  GRAD.:    17.619 HEAT: -83.52739
 CYCLE:     9 TIME:   0.004 TIME LEFT:  2.00D  GRAD.:    19.483 HEAT: -83.54763
 CYCLE:    10 TIME:   0.008 TIME LEFT:  2.00D  GRAD.:     9.128 HEAT: -83.61886
 CYCLE:    11 TIME:   0.008 TIME LEFT:  2.00D  GRAD.:     4.942 HEAT: -83.63803
 CYCLE:    12 TIME:   0.004 TIME LEFT:  2.00D  GRAD.:     6.397 HEAT: -83.64867
 CYCLE:    13 TIME:   0.004 TIME LEFT:  2.00D  GRAD.:     6.760 HEAT: -83.66186
 CYCLE:    14 TIME:   0.008 TIME LEFT:  2.00D  GRAD.:     4.696 HEAT: -83.67366
 CYCLE:    15 TIME:   0.008 TIME LEFT:  2.00D  GRAD.:     3.426 HEAT: -83.67935
 CYCLE:    16 TIME:   0.004 TIME LEFT:  2.00D  GRAD.:     4.164 HEAT: -83.68303
 CYCLE:    17 TIME:   0.004 TIME LEFT:  2.00D  GRAD.:     5.752 HEAT: -83.68224
 CYCLE:    18 TIME:   0.004 TIME LEFT:  2.00D  GRAD.:     5.467 HEAT: -83.68584
 CYCLE:    19 TIME:   0.008 TIME LEFT:  2.00D  GRAD.:     4.097 HEAT: -83.69073
 CYCLE:    20 TIME:   0.004 TIME LEFT:  2.00D  GRAD.:     3.948 HEAT: -83.69302
 CYCLE:    21 TIME:   0.004 TIME LEFT:  2.00D  GRAD.:     1.690 HEAT: -83.69740
 CYCLE:    22 TIME:   0.004 TIME LEFT:  2.00D  GRAD.:     2.567 HEAT: -83.69901
 CYCLE:    23 TIME:   0.004 TIME LEFT:  2.00D  GRAD.:     1.921 HEAT: -83.70257
 CYCLE:    24 TIME:   0.004 TIME LEFT:  2.00D  GRAD.:     4.172 HEAT: -83.70597
 CYCLE:    25 TIME:   0.004 TIME LEFT:  2.00D  GRAD.:     4.032 HEAT: -83.71015
 CYCLE:    26 TIME:   0.004 TIME LEFT:  2.00D  GRAD.:     3.192 HEAT: -83.71484
 CYCLE:    27 TIME:   0.004 TIME LEFT:  2.00D  GRAD.:     2.001 HEAT: -83.71990
 CYCLE:    28 TIME:   0.004 TIME LEFT:  2.00D  GRAD.:     1.731 HEAT: -83.72588
 CYCLE:    29 TIME:   0.008 TIME LEFT:  2.00D  GRAD.:     2.110 HEAT: -83.73354
 CYCLE:    30 TIME:   0.004 TIME LEFT:  2.00D  GRAD.:     1.557 HEAT: -83.73697
 CYCLE:    31 TIME:   0.004 TIME LEFT:  2.00D  GRAD.:     1.327 HEAT: -83.73977
 CYCLE:    32 TIME:   0.004 TIME LEFT:  2.00D  GRAD.:     1.284 HEAT: -83.74288
 CYCLE:    33 TIME:   0.004 TIME LEFT:  2.00D  GRAD.:     1.159 HEAT: -83.74576
 CYCLE:    34 TIME:   0.004 TIME LEFT:  2.00D  GRAD.:     1.025 HEAT: -83.74745
 CYCLE:    35 TIME:   0.004 TIME LEFT:  2.00D  GRAD.:     1.011 HEAT: -83.74926
 CYCLE:    36 TIME:   0.004 TIME LEFT:  2.00D  GRAD.:     1.075 HEAT: -83.75101
 CYCLE:    37 TIME:   0.004 TIME LEFT:  2.00D  GRAD.:     1.008 HEAT: -83.75241
 CYCLE:    38 TIME:   0.004 TIME LEFT:  2.00D  GRAD.:     0.934 HEAT: -83.75406
 CYCLE:    39 TIME:   0.004 TIME LEFT:  2.00D  GRAD.:     1.082 HEAT: -83.75630
 CYCLE:    40 TIME:   0.008 TIME LEFT:  2.00D  GRAD.:     0.963 HEAT: -83.75824
 CYCLE:    41 TIME:   0.004 TIME LEFT:  2.00D  GRAD.:     0.668 HEAT: -83.75946
 CYCLE:    42 TIME:   0.004 TIME LEFT:  2.00D  GRAD.:     0.630 HEAT: -83.76029
 CYCLE:    43 TIME:   0.004 TIME LEFT:  2.00D  GRAD.:     0.713 HEAT: -83.76107
 CYCLE:    44 TIME:   0.004 TIME LEFT:  2.00D  GRAD.:     0.726 HEAT: -83.76190
 CYCLE:    45 TIME:   0.004 TIME LEFT:  2.00D  GRAD.:     0.706 HEAT: -83.76292
 CYCLE:    46 TIME:   0.004 TIME LEFT:  2.00D  GRAD.:     0.887 HEAT: -83.76419
 CYCLE:    47 TIME:   0.004 TIME LEFT:  2.00D  GRAD.:     1.114 HEAT: -83.76597
 CYCLE:    48 TIME:   0.004 TIME LEFT:  2.00D  GRAD.:     1.677 HEAT: -83.76849
 CYCLE:    49 TIME:   0.004 TIME LEFT:  2.00D  GRAD.:     2.004 HEAT: -83.77330
 CYCLE:    50 TIME:   0.008 TIME LEFT:  2.00D  GRAD.:     6.282 HEAT: -83.77668
 CYCLE:    51 TIME:   0.004 TIME LEFT:  2.00D  GRAD.:     7.885 HEAT: -83.80191
 CYCLE:    52 TIME:   0.012 TIME LEFT:  2.00D  GRAD.:     7.161 HEAT: -83.82216
 CYCLE:    53 TIME:   0.004 TIME LEFT:  2.00D  GRAD.:     2.871 HEAT: -83.85405
 CYCLE:    54 TIME:   0.004 TIME LEFT:  2.00D  GRAD.:     4.156 HEAT: -83.88334
 CYCLE:    55 TIME:   0.004 TIME LEFT:  2.00D  GRAD.:    12.075 HEAT: -83.91833
 CYCLE:    56 TIME:   0.004 TIME LEFT:  2.00D  GRAD.:    19.855 HEAT: -83.96090
 CYCLE:    57 TIME:   0.004 TIME LEFT:  2.00D  GRAD.:    14.423 HEAT: -83.98210
 CYCLE:    58 TIME:   0.008 TIME LEFT:  2.00D  GRAD.:    11.645 HEAT: -84.17727
 CYCLE:    59 TIME:   0.004 TIME LEFT:  2.00D  GRAD.:    26.858 HEAT: -84.20637
 CYCLE:    60 TIME:   0.004 TIME LEFT:  2.00D  GRAD.:     7.255 HEAT: -84.34840
 CYCLE:    61 TIME:   0.004 TIME LEFT:  2.00D  GRAD.:     9.330 HEAT: -84.52301
 CYCLE:    62 TIME:   0.004 TIME LEFT:  2.00D  GRAD.:    36.071 HEAT: -84.68948
 CYCLE:    63 TIME:   0.004 TIME LEFT:  2.00D  GRAD.:    14.581 HEAT: -84.92477
 CYCLE:    64 TIME:   0.004 TIME LEFT:  2.00D  GRAD.:    17.643 HEAT: -85.14068
 CYCLE:    65 TIME:   0.004 TIME LEFT:  2.00D  GRAD.:    35.117 HEAT: -85.26702
 CYCLE:    66 TIME:   0.004 TIME LEFT:  2.00D  GRAD.:    16.346 HEAT: -85.34588
 CYCLE:    67 TIME:   0.008 TIME LEFT:  2.00D  GRAD.:     7.978 HEAT: -85.54451
 CYCLE:    68 TIME:   0.004 TIME LEFT:  2.00D  GRAD.:    17.062 HEAT: -85.68017
 CYCLE:    69 TIME:   0.004 TIME LEFT:  2.00D  GRAD.:    22.891 HEAT: -85.82813
 CYCLE:    70 TIME:   0.004 TIME LEFT:  2.00D  GRAD.:     6.874 HEAT: -86.06420
 CYCLE:    71 TIME:   0.004 TIME LEFT:  2.00D  GRAD.:    11.596 HEAT: -86.13323
 CYCLE:    72 TIME:   0.004 TIME LEFT:  2.00D  GRAD.:     7.651 HEAT: -86.22346
 CYCLE:    73 TIME:   0.004 TIME LEFT:  2.00D  GRAD.:    10.803 HEAT: -86.29939
 CYCLE:    74 TIME:   0.004 TIME LEFT:  2.00D  GRAD.:     6.400 HEAT: -86.37012
 CYCLE:    75 TIME:   0.004 TIME LEFT:  2.00D  GRAD.:     7.435 HEAT: -86.44101
 CYCLE:    76 TIME:   0.004 TIME LEFT:  2.00D  GRAD.:     5.036 HEAT: -86.50478
 CYCLE:    77 TIME:   0.004 TIME LEFT:  2.00D  GRAD.:     2.113 HEAT: -86.52906
 CYCLE:    78 TIME:   0.004 TIME LEFT:  2.00D  GRAD.:     2.598 HEAT: -86.53772
 CYCLE:    79 TIME:   0.004 TIME LEFT:  2.00D  GRAD.:     1.896 HEAT: -86.54370
 CYCLE:    80 TIME:   0.004 TIME LEFT:  2.00D  GRAD.:     1.319 HEAT: -86.54886
 CYCLE:    81 TIME:   0.004 TIME LEFT:  2.00D  GRAD.:     1.213 HEAT: -86.55474
 CYCLE:    82 TIME:   0.004 TIME LEFT:  2.00D  GRAD.:     0.951 HEAT: -86.55910
 CYCLE:    83 TIME:   0.008 TIME LEFT:  2.00D  GRAD.:     0.945 HEAT: -86.56173
 CYCLE:    84 TIME:   0.004 TIME LEFT:  2.00D  GRAD.:     1.226 HEAT: -86.56468
 CYCLE:    85 TIME:   0.004 TIME LEFT:  2.00D  GRAD.:     1.257 HEAT: -86.56787
 CYCLE:    86 TIME:   0.004 TIME LEFT:  2.00D  GRAD.:     1.241 HEAT: -86.57161
 CYCLE:    87 TIME:   0.004 TIME LEFT:  2.00D  GRAD.:     0.934 HEAT: -86.57337
 CYCLE:    88 TIME:   0.004 TIME LEFT:  2.00D  GRAD.:     0.896 HEAT: -86.57625
 CYCLE:    89 TIME:   0.004 TIME LEFT:  2.00D  GRAD.:     1.023 HEAT: -86.57809
 CYCLE:    90 TIME:   0.004 TIME LEFT:  2.00D  GRAD.:     1.155 HEAT: -86.58184
 CYCLE:    91 TIME:   0.004 TIME LEFT:  2.00D  GRAD.:     1.697 HEAT: -86.58477
 CYCLE:    92 TIME:   0.004 TIME LEFT:  2.00D  GRAD.:     1.213 HEAT: -86.58754
 CYCLE:    93 TIME:   0.004 TIME LEFT:  2.00D  GRAD.:     1.817 HEAT: -86.58921
 CYCLE:    94 TIME:   0.004 TIME LEFT:  2.00D  GRAD.:     0.875 HEAT: -86.59099
 CYCLE:    95 TIME:   0.004 TIME LEFT:  2.00D  GRAD.:     0.548 HEAT: -86.59251
 CYCLE:    96 TIME:   0.008 TIME LEFT:  2.00D  GRAD.:     0.447 HEAT: -86.59309
 CYCLE:    97 TIME:   0.004 TIME LEFT:  2.00D  GRAD.:     0.359 HEAT: -86.59332
 CYCLE:    98 TIME:   0.004 TIME LEFT:  2.00D  GRAD.:     0.374 HEAT: -86.59348
 CYCLE:    99 TIME:   0.004 TIME LEFT:  2.00D  GRAD.:     0.414 HEAT: -86.59363
 CYCLE:   100 TIME:   0.004 TIME LEFT:  2.00D  GRAD.:     0.329 HEAT: -86.59369
 CYCLE:   101 TIME:   0.004 TIME LEFT:  2.00D  GRAD.:     0.202 HEAT: -86.59380
 CYCLE:   102 TIME:   0.004 TIME LEFT:  2.00D  GRAD.:     0.153 HEAT: -86.59385
 CYCLE:   103 TIME:   0.004 TIME LEFT:  2.00D  GRAD.:     0.140 HEAT: -86.59394
 CYCLE:   104 TIME:   0.004 TIME LEFT:  2.00D  GRAD.:     0.070 HEAT: -86.59397
 CYCLE:   105 TIME:   0.004 TIME LEFT:  2.00D  GRAD.:     0.058 HEAT: -86.59398
 CYCLE:   106 TIME:   0.004 TIME LEFT:  2.00D  GRAD.:     0.058 HEAT: -86.59399
 CYCLE:   107 TIME:   0.008 TIME LEFT:  2.00D  GRAD.:     0.041 HEAT: -86.59400

     GRADIENT =  0.04083  IS LESS THAN CUTOFF =  0.05000



 -------------------------------------------------------------------------------
 pm3  precise nosym THREADS=1
 InChI=1S/C7H12O2/c8-6-4-2-1-3-5-7(6)9/h2,4,6-9H,1,3,5H2



     GEOMETRY OPTIMISED USING EIGENVECTOR FOLLOWING (EF).     
     SCF FIELD WAS ACHIEVED                                   


                              PM3 CALCULATION
                                                       MOPAC2016 (Version: 18.184L)
                                                       Sat Jun 15 11:01:56 2019
                                                       No. of days remaining =  18




          FINAL HEAT OF FORMATION =        -86.59400 KCAL/MOL =    -362.30928 KJ/MOL


          TOTAL ENERGY            =      -1602.07999 EV
          ELECTRONIC ENERGY       =      -7954.27539 EV  POINT GROUP:     C1  
          CORE-CORE REPULSION     =       6352.19540 EV
          COSMO AREA              =        160.99 SQUARE ANGSTROMS
          COSMO VOLUME            =        164.31 CUBIC ANGSTROMS

          GRADIENT NORM           =          0.04083 = 0.00891 PER ATOM
          IONIZATION POTENTIAL    =         10.043038 EV
          HOMO LUMO ENERGIES (EV) =        -10.043  0.783
          NO. OF FILLED LEVELS    =         26
          MOLECULAR WEIGHT        =        128.1706

          MOLECULAR DIMENSIONS (Angstroms)

            Atom       Atom       Distance
            H    20    H    16     6.13644
            H    14    H    19     5.14336
            H    15    H    11     3.25180


          SCF CALCULATIONS        =        120
 
          WALL-CLOCK TIME         =          0.500 SECONDS
          COMPUTATION TIME        =          0.470 SECONDS




   ATOM   CHEMICAL          X               Y               Z
  NUMBER   SYMBOL      (ANGSTROMS)     (ANGSTROMS)     (ANGSTROMS)
 
     1       O          2.29022008  *  -1.35959310  *  -0.01252284  *
     2       O          2.40697340  *   1.33030193  *   0.06066701  *
     3       C          1.10700944  *  -0.64704613  *  -0.32020856  *
     4       C         -0.03478902  *  -1.49140660  *   0.26861799  *
     5       C          1.11361953  *   0.79199862  *   0.28446505  *
     6       C         -1.41200164  *  -1.06113186  *  -0.20518530  *
     7       C         -1.86142914  *   0.26851431  *   0.38588238  *
     8       C          0.07193560  *   1.65934669  *  -0.36345037  *
     9       C         -1.23984132  *   1.42820676  *  -0.30663707  *
    10       H          1.00247455  *  -0.58100081  *  -1.43108322  *
    11       H         -1.43983329  *  -1.01241485  *  -1.31188818  *
    12       H         -2.14333614  *  -1.84391300  *   0.07871071  *
    13       H          0.01085397  *  -1.47255895  *   1.37714460  *
    14       H          0.12251749  *  -2.55331654  *  -0.01280524  *
    15       H          0.92401845  *   0.73935731  *   1.38669544  *
    16       H         -2.96403484  *   0.34707234  *   0.31891139  *
    17       H         -1.62362233  *   0.31172081  *   1.46920587  *
    18       H         -1.93037712  *   2.12266154  *  -0.79998141  *
    19       H          0.44356749  *   2.53324938  *  -0.91519461  *
    20       H          3.02012713  *  -0.84571992  *  -0.33141214  *
    21       H          2.44957394  *   2.13513936  *   0.55784264  *

                             CARTESIAN COORDINATES

   1    O        2.290220079    -1.359593097    -0.012522838
   2    O        2.406973400     1.330301926     0.060667007
   3    C        1.107009436    -0.647046131    -0.320208562
   4    C       -0.034789022    -1.491406598     0.268617987
   5    C        1.113619532     0.791998624     0.284465052
   6    C       -1.412001644    -1.061131855    -0.205185298
   7    C       -1.861429139     0.268514308     0.385882383
   8    C        0.071935595     1.659346692    -0.363450367
   9    C       -1.239841319     1.428206756    -0.306637066
  10    H        1.002474547    -0.581000815    -1.431083221
  11    H       -1.439833288    -1.012414848    -1.311888178
  12    H       -2.143336135    -1.843912998     0.078710714
  13    H        0.010853967    -1.472558948     1.377144600
  14    H        0.122517495    -2.553316539    -0.012805236
  15    H        0.924018447     0.739357312     1.386695442
  16    H       -2.964034836     0.347072342     0.318911391
  17    H       -1.623622335     0.311720807     1.469205871
  18    H       -1.930377117     2.122661544    -0.799981411
  19    H        0.443567491     2.533249377    -0.915194605
  20    H        3.020127129    -0.845719922    -0.331412138
  21    H        2.449573941     2.135139357     0.557842642


           Empirical Formula: C7 H12 O2  =    21 atoms



      MOLECULAR POINT GROUP   :   C1  


                  EIGENVALUES  
 -41.78341 -36.91870 -36.36232 -31.39418 -29.35986 -23.93016 -22.84193 -20.51551
 -18.68754 -17.95846 -17.72646 -16.90530 -16.21695 -15.56621 -15.00411 -14.59751
 -14.12994 -13.82212 -13.24306 -12.57410 -12.34309 -12.01037 -11.88262 -11.30847
 -10.95853 -10.04304   0.78291   2.88141   3.19711   3.24506   3.38099   3.48688
   3.63297   3.66631   3.73112   4.01869   4.12903   4.23549   4.31104   4.37751
   4.49145   4.84406   4.98452   5.02178   5.22543   5.51107   5.72755   5.95887


              NET ATOMIC CHARGES AND DIPOLE CONTRIBUTIONS

  ATOM NO.   TYPE          CHARGE      No. of ELECS.   s-Pop       p-Pop       
    1          O          -0.314272        6.3143     1.80913     4.50514
    2          O          -0.318935        6.3189     1.80834     4.51059
    3          C           0.086935        3.9131     1.17619     2.73688
    4          C          -0.116315        4.1163     1.16644     2.94987
    5          C           0.081908        3.9181     1.17116     2.74693
    6          C          -0.090142        4.0901     1.15925     2.93089
    7          C          -0.068702        4.0687     1.14887     2.91983
    8          C          -0.195489        4.1955     1.20820     2.98729
    9          C          -0.123152        4.1232     1.19467     2.92848
   10          H           0.051670        0.9483     0.94833
   11          H           0.056935        0.9431     0.94306
   12          H           0.049618        0.9504     0.95038
   13          H           0.060990        0.9390     0.93901
   14          H           0.066309        0.9337     0.93369
   15          H           0.057407        0.9426     0.94259
   16          H           0.051457        0.9485     0.94854
   17          H           0.060030        0.9400     0.93997
   18          H           0.096665        0.9033     0.90334
   19          H           0.108537        0.8915     0.89146
   20          H           0.202887        0.7971     0.79711
   21          H           0.195659        0.8043     0.80434
 DIPOLE           X         Y         Z       TOTAL
 POINT-CHG.    -1.312     0.620     0.180     1.463
 HYBRID        -0.017     1.059     0.085     1.062
 SUM           -1.329     1.679     0.265     2.157


          ATOMIC ORBITAL ELECTRON POPULATIONS

     Atom    s        px        py        pz   
    1  O   1.80913   1.16730   1.48714   1.85070
    2  O   1.80834   1.32310   1.43553   1.75197
    3  C   1.17619   0.87520   0.88930   0.97238
    4  C   1.16644   0.93819   1.00103   1.01065
    5  C   1.17116   0.83610   0.93499   0.97584
    6  C   1.15925   0.96391   0.96051   1.00647
    7  C   1.14887   0.99241   0.93675   0.99067
    8  C   1.20820   0.96114   1.00703   1.01912
    9  C   1.19467   0.95746   0.98083   0.99019
   10  H   0.94833
   11  H   0.94306
   12  H   0.95038
   13  H   0.93901
   14  H   0.93369
   15  H   0.94259
   16  H   0.94854
   17  H   0.93997
   18  H   0.90334
   19  H   0.89146
   20  H   0.79711
   21  H   0.80434
 *******************************************************************************
 ** Site#: 14399        For non-commercial use only    Version 18.184L 64BITS **
 *******************************************************************************
 ** Cite this program as: MOPAC2016, Version: 18.184L, James J. P. Stewart,   **
 ** Stewart Computational Chemistry, web: HTTP://OpenMOPAC.net. Days left:  18**
 *******************************************************************************
 **                                                                           **
 **                                MOPAC2016                                  **
 **                                                                           **
 *******************************************************************************

                              PM3 CALCULATION RESULTS

 *******************************************************************************
 *  CALCULATION DONE:                                Sat Jun 15 11:01:56 2019  *
 *  PM3        - The PM3 Hamiltonian to be used
 *  OLDGEO     - PREVIOUS GEOMETRY TO BE USED
 *  PRECISE    - CRITERIA TO BE INCREASED BY 100 TIMES
 *  NOSYM      - POINT-GROUP SYMMETRY SET TO C1
 *  THREADS=1  - MULTI-THREADING NOT USED
 *  T=         - A TIME OF 172800.0 SECONDS REQUESTED
 *  DUMP=N     - RESTART FILE WRITTEN EVERY  7200.000 SECONDS
 *  THERMO     - THERMODYNAMIC QUANTITIES TO BE CALCULATED
 *******************************************************************************
oldgeo thermo nosym precise THREADS=1  pm3
 InChI=1S/C7H12O2/c8-6-4-2-1-3-5-7(6)9/h2,4,6-9H,1,3,5H2

   ATOM   CHEMICAL          X               Y               Z
  NUMBER   SYMBOL      (ANGSTROMS)     (ANGSTROMS)     (ANGSTROMS)
 
     1       O          2.29022008  *  -1.35959310  *  -0.01252284  *
     2       O          2.40697340  *   1.33030193  *   0.06066701  *
     3       C          1.10700944  *  -0.64704613  *  -0.32020856  *
     4       C         -0.03478902  *  -1.49140660  *   0.26861799  *
     5       C          1.11361953  *   0.79199862  *   0.28446505  *
     6       C         -1.41200164  *  -1.06113186  *  -0.20518530  *
     7       C         -1.86142914  *   0.26851431  *   0.38588238  *
     8       C          0.07193560  *   1.65934669  *  -0.36345037  *
     9       C         -1.23984132  *   1.42820676  *  -0.30663707  *
    10       H          1.00247455  *  -0.58100081  *  -1.43108322  *
    11       H         -1.43983329  *  -1.01241485  *  -1.31188818  *
    12       H         -2.14333614  *  -1.84391300  *   0.07871071  *
    13       H          0.01085397  *  -1.47255895  *   1.37714460  *
    14       H          0.12251749  *  -2.55331654  *  -0.01280524  *
    15       H          0.92401845  *   0.73935731  *   1.38669544  *
    16       H         -2.96403484  *   0.34707234  *   0.31891139  *
    17       H         -1.62362233  *   0.31172081  *   1.46920587  *
    18       H         -1.93037712  *   2.12266154  *  -0.79998141  *
    19       H          0.44356749  *   2.53324938  *  -0.91519461  *
    20       H          3.02012713  *  -0.84571992  *  -0.33141214  *
    21       H          2.44957394  *   2.13513936  *   0.55784264  *
 


          CARTESIAN COORDINATES 

    NO.       ATOM           X           Y           Z

     1         O          2.2902     -1.3596     -0.0125
     2         O          2.4070      1.3303      0.0607
     3         C          1.1070     -0.6470     -0.3202
     4         C         -0.0348     -1.4914      0.2686
     5         C          1.1136      0.7920      0.2845
     6         C         -1.4120     -1.0611     -0.2052
     7         C         -1.8614      0.2685      0.3859
     8         C          0.0719      1.6593     -0.3635
     9         C         -1.2398      1.4282     -0.3066
    10         H          1.0025     -0.5810     -1.4311
    11         H         -1.4398     -1.0124     -1.3119
    12         H         -2.1433     -1.8439      0.0787
    13         H          0.0109     -1.4726      1.3771
    14         H          0.1225     -2.5533     -0.0128
    15         H          0.9240      0.7394      1.3867
    16         H         -2.9640      0.3471      0.3189
    17         H         -1.6236      0.3117      1.4692
    18         H         -1.9304      2.1227     -0.8000
    19         H          0.4436      2.5332     -0.9152
    20         H          3.0201     -0.8457     -0.3314
    21         H          2.4496      2.1351      0.5578

  H: (PM3): J. J. P. STEWART, J. COMP. CHEM. 10, 209 (1989).
  C: (PM3): J. J. P. STEWART, J. COMP. CHEM. 10, 209 (1989).
  O: (PM3): J. J. P. STEWART, J. COMP. CHEM. 10, 209 (1989).

           Empirical Formula: C7 H12 O2  =    21 atoms



      MOLECULAR POINT GROUP   :   C1  


      RHF CALCULATION, NO. OF DOUBLY OCCUPIED LEVELS = 26



          HEAT OF FORMATION =     -86.593997 KCALS/MOLE


          CARTESIAN COORDINATE DERIVATIVES

   NUMBER  ATOM         X            Y            Z

     1       O      0.000200    -0.001154    -0.010858
     2       O     -0.014691    -0.002309    -0.010485
     3       C      0.002790    -0.005928     0.002499
     4       C     -0.004115    -0.006966    -0.000831
     5       C      0.003520     0.000413     0.000409
     6       C     -0.004067    -0.004224     0.001781
     7       C     -0.003068    -0.000033    -0.002057
     8       C      0.002452     0.002795     0.002148
     9       C     -0.002279    -0.000637    -0.000549
    10       H      0.002815     0.011950     0.003944
    11       H      0.000378    -0.000981     0.001239
    12       H     -0.006613     0.008848    -0.000281
    13       H     -0.000326    -0.000396     0.001026
    14       H      0.002864     0.004591     0.002273
    15       H      0.002339    -0.005799    -0.000749
    16       H     -0.000404    -0.003427    -0.001808
    17       H      0.000661     0.013733     0.005331
    18       H     -0.000829    -0.007473    -0.003456
    19       H      0.000966    -0.004953    -0.001397
    20       H      0.001816     0.003882     0.005181
    21       H      0.015591    -0.001932     0.006640
 


          GRADIENT NORM =   0.04105

          MOLECULAR WEIGHT =  128.17



          ROTATIONAL CONSTANTS IN CM(-1)

          A =    0.07709398   B =    0.05062217   C =    0.03290063



           PRINCIPAL MOMENTS OF INERTIA IN UNITS OF 10**(-40)*GRAM-CM**2

          A =      363.0993   B =      552.9747   C =      850.8278


          ORIENTATION OF MOLECULE IN FORCE CALCULATION

    NO.       ATOM         X         Y         Z

     1          O      -1.3582   -1.9349   -0.4785
     2          O       1.3352   -1.9349   -0.4785
     3          C      -0.7062   -0.6790   -0.4785
     4          C      -1.5830    0.2286    0.3996
     5          C       0.7477   -0.7716    0.0821
     6          C      -1.2258    1.7008    0.2939
     7          C       0.0987    2.0463    0.9616
     8          C       1.5511    0.4435   -0.2856
     9          C       1.2650    1.6828    0.1139
    10          H      -0.6750   -0.2871   -1.5248
    11          H      -1.2084    2.0168   -0.7680
    12          H      -2.0316    2.2945    0.7700
    13          H      -1.5320   -0.1018    1.4577
    14          H      -2.6443    0.0978    0.1029
    15          H       0.7168   -0.8769    1.1963
    16          H       0.1275    3.1311    1.1825
    17          H       0.1816    1.5383    1.9450
    18          H       1.9152    2.5107   -0.1932
    19          H       2.4250    0.2707   -0.9280
    20          H      -0.8220   -2.5312   -0.9839
    21          H       2.1544   -2.0654   -0.0216


    FIRST DERIVATIVES WILL BE USED IN THE CALCULATION OF SECOND DERIVATIVES

    FOR POINT-GROUP C1   THERE ARE   1 UNIQUE SYMMETRY FUNCTIONS.

 STEP:   1 TIME =     0.02 SECS, INTEGRAL =      0.02 TIME LEFT: 172799.98
 STEP:   2 TIME =     0.02 SECS, INTEGRAL =      0.04 TIME LEFT: 172799.96
 STEP:   3 TIME =     0.02 SECS, INTEGRAL =      0.05 TIME LEFT: 172799.95
 STEP:   4 TIME =     0.02 SECS, INTEGRAL =      0.07 TIME LEFT: 172799.93
 STEP:   5 TIME =     0.02 SECS, INTEGRAL =      0.09 TIME LEFT: 172799.91
 STEP:   6 TIME =     0.02 SECS, INTEGRAL =      0.11 TIME LEFT: 172799.89
 STEP:   7 TIME =     0.02 SECS, INTEGRAL =      0.13 TIME LEFT: 172799.87
 STEP:   8 TIME =     0.02 SECS, INTEGRAL =      0.14 TIME LEFT: 172799.86
 STEP:   9 TIME =     0.02 SECS, INTEGRAL =      0.16 TIME LEFT: 172799.84
 STEP:  10 TIME =     0.02 SECS, INTEGRAL =      0.18 TIME LEFT: 172799.82
 STEP:  11 TIME =     0.02 SECS, INTEGRAL =      0.20 TIME LEFT: 172799.80
 STEP:  12 TIME =     0.02 SECS, INTEGRAL =      0.21 TIME LEFT: 172799.79
 STEP:  13 TIME =     0.02 SECS, INTEGRAL =      0.23 TIME LEFT: 172799.77
 STEP:  14 TIME =     0.02 SECS, INTEGRAL =      0.25 TIME LEFT: 172799.75
 STEP:  15 TIME =     0.02 SECS, INTEGRAL =      0.27 TIME LEFT: 172799.73
 STEP:  16 TIME =     0.02 SECS, INTEGRAL =      0.29 TIME LEFT: 172799.71
 STEP:  17 TIME =     0.02 SECS, INTEGRAL =      0.30 TIME LEFT: 172799.70
 STEP:  18 TIME =     0.02 SECS, INTEGRAL =      0.32 TIME LEFT: 172799.68
 STEP:  19 TIME =     0.02 SECS, INTEGRAL =      0.34 TIME LEFT: 172799.66
 STEP:  20 TIME =     0.02 SECS, INTEGRAL =      0.36 TIME LEFT: 172799.64
 STEP:  21 TIME =     0.02 SECS, INTEGRAL =      0.38 TIME LEFT: 172799.62
 STEP:  22 TIME =     0.02 SECS, INTEGRAL =      0.39 TIME LEFT: 172799.61
 STEP:  23 TIME =     0.02 SECS, INTEGRAL =      0.41 TIME LEFT: 172799.59
 STEP:  24 TIME =     0.02 SECS, INTEGRAL =      0.43 TIME LEFT: 172799.57
 STEP:  25 TIME =     0.02 SECS, INTEGRAL =      0.45 TIME LEFT: 172799.55
 STEP:  26 TIME =     0.02 SECS, INTEGRAL =      0.47 TIME LEFT: 172799.53
 STEP:  27 TIME =     0.02 SECS, INTEGRAL =      0.48 TIME LEFT: 172799.52
 STEP:  28 TIME =     0.02 SECS, INTEGRAL =      0.50 TIME LEFT: 172799.50
 STEP:  29 TIME =     0.02 SECS, INTEGRAL =      0.52 TIME LEFT: 172799.48
 STEP:  30 TIME =     0.02 SECS, INTEGRAL =      0.54 TIME LEFT: 172799.46
 STEP:  31 TIME =     0.02 SECS, INTEGRAL =      0.55 TIME LEFT: 172799.45
 STEP:  32 TIME =     0.02 SECS, INTEGRAL =      0.57 TIME LEFT: 172799.43
 STEP:  33 TIME =     0.02 SECS, INTEGRAL =      0.59 TIME LEFT: 172799.41
 STEP:  34 TIME =     0.02 SECS, INTEGRAL =      0.61 TIME LEFT: 172799.39
 STEP:  35 TIME =     0.02 SECS, INTEGRAL =      0.63 TIME LEFT: 172799.37
 STEP:  36 TIME =     0.02 SECS, INTEGRAL =      0.65 TIME LEFT: 172799.35
 STEP:  37 TIME =     0.02 SECS, INTEGRAL =      0.66 TIME LEFT: 172799.34
 STEP:  38 TIME =     0.02 SECS, INTEGRAL =      0.68 TIME LEFT: 172799.32
 STEP:  39 TIME =     0.02 SECS, INTEGRAL =      0.70 TIME LEFT: 172799.30
 STEP:  40 TIME =     0.02 SECS, INTEGRAL =      0.72 TIME LEFT: 172799.28
 STEP:  41 TIME =     0.02 SECS, INTEGRAL =      0.74 TIME LEFT: 172799.26
 STEP:  42 TIME =     0.02 SECS, INTEGRAL =      0.76 TIME LEFT: 172799.24
 STEP:  43 TIME =     0.02 SECS, INTEGRAL =      0.78 TIME LEFT: 172799.22
 STEP:  44 TIME =     0.02 SECS, INTEGRAL =      0.79 TIME LEFT: 172799.21
 STEP:  45 TIME =     0.02 SECS, INTEGRAL =      0.81 TIME LEFT: 172799.19
 STEP:  46 TIME =     0.02 SECS, INTEGRAL =      0.83 TIME LEFT: 172799.17
 STEP:  47 TIME =     0.02 SECS, INTEGRAL =      0.85 TIME LEFT: 172799.15
 STEP:  48 TIME =     0.02 SECS, INTEGRAL =      0.87 TIME LEFT: 172799.13
 STEP:  49 TIME =     0.02 SECS, INTEGRAL =      0.89 TIME LEFT: 172799.11
 STEP:  50 TIME =     0.02 SECS, INTEGRAL =      0.90 TIME LEFT: 172799.10
 STEP:  51 TIME =     0.02 SECS, INTEGRAL =      0.92 TIME LEFT: 172799.08
 STEP:  52 TIME =     0.02 SECS, INTEGRAL =      0.94 TIME LEFT: 172799.06
 STEP:  53 TIME =     0.02 SECS, INTEGRAL =      0.96 TIME LEFT: 172799.04
 STEP:  54 TIME =     0.02 SECS, INTEGRAL =      0.98 TIME LEFT: 172799.02
 STEP:  55 TIME =     0.02 SECS, INTEGRAL =      1.00 TIME LEFT: 172799.00
 STEP:  56 TIME =     0.02 SECS, INTEGRAL =      1.01 TIME LEFT: 172798.99
 STEP:  57 TIME =     0.02 SECS, INTEGRAL =      1.03 TIME LEFT: 172798.97
 STEP:  58 TIME =     0.02 SECS, INTEGRAL =      1.05 TIME LEFT: 172798.95
 STEP:  59 TIME =     0.02 SECS, INTEGRAL =      1.07 TIME LEFT: 172798.93
 STEP:  60 TIME =     0.02 SECS, INTEGRAL =      1.08 TIME LEFT: 172798.92
 STEP:  61 TIME =     0.02 SECS, INTEGRAL =      1.10 TIME LEFT: 172798.90
 STEP:  62 TIME =     0.02 SECS, INTEGRAL =      1.12 TIME LEFT: 172798.88
 STEP:  63 TIME =     0.02 SECS, INTEGRAL =      1.14 TIME LEFT: 172798.86

(To convert to Hartree/Bohr^2, multiply by (10^(-21) x N x a0^2)/(4.184 x 627.51) =  0.0642)


           FORCE MATRIX IN MILLIDYNES/ANGSTROM


                  O  1       O  2       C  3       C  4       C  5       C  6
 ------------------------------------------------------------------------------
     O    1  12.036474
     O    2   0.093969  11.853099
     C    3   5.106068   0.787898  14.119064
     C    4   0.914131   0.056324   3.681472  14.226518
     C    5   0.811734   5.025075   2.951284   0.547394  14.435203
     C    6   0.067648   0.004084   0.575666   4.218704   0.038689  14.273092
     C    7   0.005894   0.004405   0.036445   0.620414   0.112749   4.068394
     C    8   0.070266   0.958427   0.571106   0.027138   4.399441   0.042438
     C    9   0.007726   0.077474   0.043549   0.027688   0.740403   0.677701
     H   10   0.414652   0.023736   4.140142   0.424636   0.441202   0.025826
     H   11   0.004172   0.001553   0.029389   0.444744   0.004419   4.459738
     H   12   0.011644   0.001692   0.049412   0.428640   0.004774   4.463051
     H   13   0.046525   0.004086   0.459383   4.415774   0.033874   0.445538
     H   14   0.098469   0.010131   0.458969   4.438334   0.045507   0.428634
     H   15   0.019457   0.414673   0.437417   0.039931   4.077839   0.005893
     H   16   0.001068   0.001410   0.003714   0.048176   0.003151   0.432269
     H   17   0.001768   0.003265   0.006999   0.034903   0.026240   0.454449
     H   18   0.004430   0.010909   0.013163   0.000909   0.124611   0.026459
     H   19   0.007455   0.076909   0.021669   0.001330   0.461126   0.014813
     H   20   8.305503   0.034674   0.780827   0.109612   0.101740   0.016787
     H   21   0.014700   8.374545   0.105237   0.014608   0.811090   0.002148


                  C  7       C  8       C  9       H 10       H 11       H 12
 ------------------------------------------------------------------------------
     C    7  14.610560
     C    8   0.787611  18.116697
     C    9   4.987620  10.705680  18.100993
     H   10   0.002838   0.031736   0.004334   4.566454
     H   11   0.443698   0.004822   0.033447   0.025026   5.077210
     H   12   0.433159   0.003078   0.047400   0.001610   0.567617   5.055293
     H   13   0.028639   0.002078   0.002719   0.042379   0.045055   0.025796
     H   14   0.049507   0.002082   0.002535   0.019529   0.024922   0.039632
     H   15   0.022435   0.411481   0.026993   0.040190   0.000889   0.000688
     H   16   4.489619   0.051499   0.438413   0.000312   0.018339   0.037044
     H   17   4.380398   0.026804   0.425460   0.000843   0.043801   0.017329
     H   18   0.433156   0.441405   4.806387   0.000640   0.002936   0.003892
     H   19   0.123299   4.762816   0.438987   0.002177   0.000900   0.002488
     H   20   0.001270   0.011120   0.004170   0.046118   0.000857   0.002817
     H   21   0.001436   0.071661   0.009152   0.002154   0.000436   0.000628


                  H 13       H 14       H 15       H 16       H 17       H 18
 ------------------------------------------------------------------------------
     H   13   5.052928
     H   14   0.573348   5.054837
     H   15   0.029844   0.001986   4.473317
     H   16   0.002666   0.007669   0.000585   5.064966
     H   17   0.029886   0.002702   0.014571   0.567413   4.992324
     H   18   0.000369   0.000522   0.011995   0.032953   0.025110   5.156265
     H   19   0.000515   0.000267   0.024750   0.006153   0.012316   0.076857
     H   20   0.002589   0.004138   0.004911   0.000366   0.000449   0.001083
     H   21   0.000825   0.002803   0.031242   0.000652   0.001137   0.002110


                  H 19       H 20       H 21
 ------------------------------------------
     H   19   5.143001
     H   20   0.001849   8.531388
     H   21   0.032745   0.011070   8.606515


          HEAT OF FORMATION =     -86.593997 KCALS/MOLE

          ZERO POINT ENERGY     113.173 KCAL/MOL


           NORMAL COORDINATE ANALYSIS (Total motion = 1 Angstrom)


   Root No.       1         2         3         4         5         6         7         8

                 1 A       2 A       3 A       4 A       5 A       6 A       7 A       8 A   

                  96.8     131.4     208.4     252.7     268.6     292.6     312.7     370.5
  
           1    0.0036   -0.0042    0.0115    0.0252    0.0292   -0.0622    0.0042   -0.0340
           2    0.0148    0.0106   -0.0057   -0.0010    0.0085    0.0279   -0.0256    0.0132
           3   -0.0604   -0.0305    0.0070   -0.0224    0.0213   -0.0011    0.0091    0.0061
           4   -0.0006   -0.0041    0.0220   -0.0481   -0.0132    0.0716   -0.0027    0.0153
           5   -0.0153   -0.0065    0.0307   -0.0034   -0.0117   -0.0040   -0.0022    0.0326
           6    0.0671   -0.0183   -0.0282   -0.0163   -0.0153   -0.0094    0.0094    0.0052
           7    0.0048    0.0049   -0.0057    0.0060    0.0178    0.0151   -0.0105   -0.0162
           8    0.0126    0.0050    0.0039    0.0105    0.0142   -0.0114   -0.0136    0.0041
           9   -0.0052    0.0123   -0.0012    0.0082    0.0067   -0.0049   -0.0307    0.0009
          10    0.0010    0.0183   -0.0086   -0.0120   -0.0160    0.0150    0.0034   -0.0342
          11   -0.0112   -0.0117    0.0001    0.0005    0.0119    0.0118   -0.0066   -0.0202
          12    0.0166    0.0417   -0.0007   -0.0039   -0.0249   -0.0213   -0.0240    0.0056
          13   -0.0012    0.0042   -0.0068    0.0030    0.0132    0.0147   -0.0174   -0.0027
          14    0.0089   -0.0156    0.0044    0.0119   -0.0111   -0.0342    0.0042    0.0249
          15    0.0119    0.0100   -0.0007    0.0089    0.0156    0.0037   -0.0200   -0.0058
          16   -0.0080   -0.0156   -0.0036   -0.0095   -0.0252   -0.0118   -0.0004   -0.0147
          17   -0.0065   -0.0067    0.0002    0.0013    0.0165    0.0190    0.0001   -0.0297
          18    0.0417   -0.0029    0.0119    0.0117    0.0225    0.0192    0.0376    0.0054
          19    0.0154   -0.0127    0.0056    0.0015   -0.0049   -0.0059    0.0125    0.0073
          20   -0.0099    0.0380   -0.0054   -0.0032   -0.0066    0.0108    0.0401   -0.0354
          21   -0.0022   -0.0342   -0.0036   -0.0077   -0.0104    0.0053   -0.0090   -0.0348
          22   -0.0069    0.0097    0.0028    0.0181    0.0182   -0.0135   -0.0067    0.0493
          23   -0.0007   -0.0124   -0.0045   -0.0015   -0.0149   -0.0131    0.0016    0.0004
          24   -0.0335    0.0335   -0.0021    0.0092    0.0204    0.0101    0.0006    0.0145
          25   -0.0096   -0.0015    0.0008    0.0034   -0.0154   -0.0271    0.0194    0.0369
          26    0.0021   -0.0042   -0.0020    0.0009   -0.0085   -0.0096    0.0017    0.0034
          27   -0.0434   -0.0002   -0.0125   -0.0082   -0.0245   -0.0126    0.0181   -0.0101
          28    0.0155    0.0068   -0.0099    0.0037    0.0366    0.0375   -0.0230   -0.0219
          29    0.0464    0.0356    0.0033    0.0020    0.0116   -0.0279   -0.0322    0.0061
          30    0.0077    0.0236   -0.0014    0.0050    0.0060   -0.0099   -0.0369    0.0020
          31   -0.0507   -0.0411   -0.0176   -0.0289   -0.0663   -0.0389   -0.0558   -0.0514
          32    0.0197   -0.0332    0.0112    0.0158    0.0629    0.0578    0.0484   -0.0246
          33    0.0488   -0.0112    0.0150    0.0159    0.0360    0.0307    0.0514    0.0067
          34    0.0066   -0.0188    0.0037   -0.0005   -0.0108   -0.0123    0.0061    0.0104
          35   -0.0232   -0.0104   -0.0038   -0.0052   -0.0091   -0.0128   -0.0417   -0.0228
          36    0.0874   -0.0036    0.0295    0.0355    0.0800    0.0591    0.1035    0.0403
          37    0.0083    0.0741   -0.0166   -0.0331   -0.0648   -0.0040   -0.0120   -0.0473
          38   -0.0305    0.0054   -0.0068   -0.0063   -0.0034    0.0017   -0.0370   -0.0312
          39    0.0101    0.0442   -0.0025   -0.0053   -0.0275   -0.0230   -0.0326    0.0026
          40    0.0001    0.0075   -0.0069   -0.0053   -0.0017    0.0191    0.0048   -0.0320
          41   -0.0114   -0.0407    0.0050    0.0005    0.0146    0.0155    0.0161   -0.0136
          42    0.0199    0.0930   -0.0088   -0.0279   -0.0790   -0.0415   -0.0404   -0.0074
          43   -0.0095    0.0074   -0.0129    0.0132    0.0120    0.0060   -0.0363   -0.0149
          44    0.0499   -0.0382    0.0088    0.0050   -0.0293   -0.0543    0.0130    0.0306
          45    0.0156    0.0077   -0.0018    0.0086    0.0131    0.0008   -0.0189   -0.0046
          46    0.0194   -0.0195    0.0082    0.0031    0.0115    0.0104    0.0037   -0.0084
          47   -0.0119    0.0526   -0.0062   -0.0033   -0.0091    0.0116    0.0574   -0.0383
          48    0.0070   -0.1033    0.0002   -0.0068    0.0004   -0.0003   -0.0880   -0.0187
          49    0.0493   -0.0084    0.0144    0.0099    0.0081    0.0003    0.0244    0.0248
          50   -0.0188    0.1007   -0.0086   -0.0041   -0.0180    0.0140    0.1090   -0.0491
          51   -0.0096   -0.0023   -0.0060   -0.0087   -0.0170    0.0062    0.0247   -0.0422
          52   -0.0345    0.0172   -0.0034   -0.0015   -0.0368   -0.0431    0.0621    0.0527
          53    0.0085   -0.0179   -0.0016    0.0034   -0.0035   -0.0113   -0.0182    0.0081
          54   -0.0780    0.0005   -0.0194   -0.0117   -0.0566   -0.0524    0.0531    0.0378
          55   -0.0279    0.0350    0.0043    0.0272    0.0343   -0.0161    0.0025    0.0930
          56   -0.0090   -0.0172   -0.0263   -0.0111   -0.0174    0.0018   -0.0030   -0.0232
          57   -0.0589    0.0683    0.0066    0.0249    0.0430    0.0012    0.0137    0.0801
          58    0.0235   -0.0052    0.0013    0.2943   -0.0407   -0.0028   -0.0053   -0.0423
          59    0.0257    0.0223    0.0144   -0.1243    0.0490   -0.0681   -0.0232   -0.0049
          60   -0.0521   -0.0454   -0.0283    0.4053   -0.1003    0.1761   -0.0038    0.0198
          61    0.0073   -0.0109   -0.3131   -0.0436    0.0098    0.0549    0.0028    0.0266
          62    0.0177   -0.0315   -0.3459   -0.0454   -0.0148    0.0109    0.0250    0.0607
          63    0.0625   -0.0132    0.4609   -0.0374   -0.0575    0.0256    0.0075   -0.0062


   Root No.       9        10        11        12        13        14        15        16

                 9 A      10 A      11 A      12 A      13 A      14 A      15 A      16 A   

                 385.0     440.5     474.2     557.5     566.7     657.3     761.0     856.6
  
           1   -0.0007    0.0258   -0.0194    0.0217   -0.0066   -0.0138    0.0030    0.0009
           2   -0.0333    0.0025    0.0178    0.0443   -0.0062   -0.0190    0.0072    0.0034
           3   -0.0277   -0.0076   -0.0031    0.0250   -0.0032   -0.0078   -0.0011   -0.0012
           4    0.0099    0.0358   -0.0153    0.0003   -0.0148   -0.0117   -0.0041   -0.0026
           5    0.0386   -0.0018   -0.0088    0.0278    0.0336    0.0350    0.0124    0.0019
           6   -0.0183   -0.0018   -0.0056   -0.0023   -0.0032    0.0059    0.0017    0.0029
           7   -0.0167   -0.0149    0.0252    0.0113    0.0173   -0.0034    0.0171   -0.0001
           8   -0.0218    0.0182   -0.0076    0.0332   -0.0139   -0.0125   -0.0042    0.0027
           9    0.0291    0.0296    0.0282   -0.0361    0.0038    0.0039    0.0152    0.0235
          10   -0.0226   -0.0409   -0.0139    0.0017    0.0341    0.0093    0.0247    0.0364
          11    0.0032    0.0208   -0.0183   -0.0227    0.0024    0.0084   -0.0012    0.0019
          12   -0.0031    0.0168   -0.0125   -0.0054   -0.0130   -0.0039    0.0042    0.0139
          13   -0.0202   -0.0025    0.0286   -0.0257   -0.0047    0.0144   -0.0124   -0.0157
          14   -0.0067   -0.0105    0.0021   -0.0005    0.0054    0.0274    0.0021    0.0045
          15    0.0447   -0.0086    0.0161    0.0190    0.0396   -0.0014   -0.0047   -0.0264
          16    0.0316   -0.0195    0.0056    0.0150   -0.0207    0.0029    0.0120    0.0229
          17   -0.0025    0.0182   -0.0271   -0.0394    0.0165    0.0114   -0.0024   -0.0126
          18    0.0038   -0.0026    0.0029    0.0011   -0.0102    0.0065    0.0086   -0.0208
          19    0.0298   -0.0050   -0.0024    0.0045   -0.0041   -0.0113   -0.0053   -0.0082
          20    0.0142   -0.0034    0.0127   -0.0054   -0.0189    0.0022    0.0033   -0.0100
          21    0.0016   -0.0145   -0.0002    0.0033   -0.0183    0.0267    0.0001   -0.0127
          22   -0.0233   -0.0123   -0.0016   -0.0234   -0.0149    0.0585   -0.0294   -0.0023
          23   -0.0085   -0.0219    0.0172   -0.0261   -0.0070   -0.0206   -0.0068   -0.0000
          24    0.0244   -0.0354   -0.0247    0.0030   -0.0147   -0.0228   -0.0250    0.0114
          25    0.0051    0.0153    0.0103   -0.0078    0.0193   -0.0365   -0.0335   -0.0046
          26    0.0111   -0.0379    0.0089   -0.0266   -0.0115   -0.0561   -0.0106   -0.0046
          27   -0.0249    0.0264    0.0154   -0.0007    0.0142    0.0048   -0.0252    0.0148
          28    0.0071   -0.0264    0.0564    0.0230    0.0506   -0.0087    0.0220   -0.0572
          29   -0.0129    0.0438   -0.0043    0.0296   -0.0293   -0.0268   -0.0003    0.0355
          30    0.0320    0.0376    0.0286   -0.0371   -0.0010   -0.0010    0.0150    0.0322
          31    0.0492   -0.0247    0.0132    0.0398   -0.0868    0.0508    0.0401   -0.0779
          32   -0.0138    0.0067   -0.0340   -0.0632    0.0707    0.0064   -0.0199    0.0456
          33   -0.0002   -0.0060    0.0000   -0.0072    0.0075    0.0047    0.0024   -0.0036
          34    0.0365   -0.0009   -0.0018    0.0054   -0.0096   -0.0162   -0.0078    0.0357
          35    0.0172    0.0422   -0.0277   -0.0278   -0.0297    0.0175   -0.0034   -0.0748
          36   -0.0129   -0.0006   -0.0084   -0.0315    0.0688   -0.0341   -0.0252    0.0839
          37   -0.0844   -0.0697   -0.0945    0.0165    0.0874    0.0107   -0.0478   -0.0907
          38    0.0040    0.0352   -0.0290   -0.0544    0.0239    0.0139   -0.0138    0.0134
          39   -0.0015    0.0212   -0.0135   -0.0153   -0.0065   -0.0024    0.0025    0.0220
          40   -0.0124   -0.0324    0.0051   -0.0018    0.0255    0.0085    0.0415    0.0604
          41    0.0441    0.0207    0.0013   -0.0216   -0.0367    0.0143    0.0228    0.0505
          42   -0.0568   -0.0125   -0.0956    0.0045    0.0374   -0.0018   -0.0702   -0.1028
          43   -0.0156    0.0135    0.0699   -0.0660    0.0128    0.0214    0.0192   -0.0305
          44   -0.0348   -0.0026    0.0207   -0.0215    0.0107    0.0757    0.0326   -0.0038
          45    0.0408   -0.0076    0.0176    0.0161    0.0403    0.0041    0.0009   -0.0264
          46    0.0249    0.0183   -0.0299   -0.0089    0.0124    0.0315    0.0050   -0.0185
          47    0.0152    0.0051    0.0256    0.0104   -0.0268    0.0264   -0.0035   -0.0095
          48   -0.0033   -0.0566   -0.0561   -0.0705    0.0152   -0.0876    0.0295   -0.0139
          49    0.0470   -0.0344   -0.0023    0.0093   -0.0287   -0.0396    0.0325   -0.0566
          50    0.0161    0.0321    0.0623    0.0587   -0.0488    0.1053   -0.0256   -0.0115
          51    0.0002    0.0060    0.0239    0.0340   -0.0298    0.0795   -0.0165   -0.0085
          52   -0.0113    0.0633    0.0159   -0.0206    0.0480   -0.1041    0.1119   -0.0650
          53   -0.0005   -0.0525    0.0116   -0.0347   -0.0195   -0.0245   -0.0518    0.0146
          54   -0.0892    0.0876    0.0331   -0.0479    0.0551   -0.0551    0.1739   -0.0603
          55   -0.0415   -0.0357   -0.0354   -0.0629   -0.0572    0.0682    0.1238   -0.0180
          56   -0.0291   -0.0138    0.0293   -0.0328   -0.0185    0.0039   -0.0367    0.0164
          57    0.0030   -0.0699   -0.0730   -0.0502   -0.0695   -0.0159    0.1915   -0.0136
          58    0.0240    0.0665   -0.0428    0.0020   -0.0181   -0.0139   -0.0004    0.0162
          59   -0.0001    0.0304    0.0031    0.0140   -0.0110   -0.0114    0.0027    0.0184
          60   -0.0413    0.0014   -0.0097    0.0402   -0.0095   -0.0165    0.0006   -0.0034
          61    0.0232    0.0368   -0.0213    0.0054   -0.0103   -0.0059   -0.0041   -0.0088
          62    0.0419    0.0375   -0.0580    0.0427    0.0018    0.0178    0.0209    0.0376
          63   -0.0411    0.0085   -0.0102   -0.0065   -0.0210   -0.0091    0.0046    0.0254


   Root No.      17        18        19        20        21        22        23        24

                17 A      18 A      19 A      20 A      21 A      22 A      23 A      24 A   

                 870.1     932.0     956.1     979.7    1016.7    1042.4    1061.9    1066.8
  
           1   -0.0021    0.0014   -0.0018    0.0019   -0.0024    0.0013   -0.0061    0.0030
           2   -0.0038    0.0084   -0.0061   -0.0002   -0.0046    0.0049   -0.0042    0.0043
           3    0.0002    0.0020    0.0012   -0.0004    0.0027   -0.0026    0.0030   -0.0021
           4   -0.0038    0.0004    0.0017   -0.0004    0.0084   -0.0018    0.0022    0.0120
           5    0.0064    0.0040    0.0000    0.0008   -0.0062    0.0044   -0.0003   -0.0160
           6    0.0011    0.0009    0.0011    0.0001   -0.0042    0.0035    0.0024   -0.0157
           7    0.0148   -0.0079   -0.0230    0.0060   -0.0315   -0.0083   -0.0198    0.0093
           8   -0.0044    0.0017    0.0081   -0.0058    0.0155   -0.0010    0.0141   -0.0100
           9   -0.0114    0.0070   -0.0238   -0.0213   -0.0095    0.0105   -0.0039   -0.0155
          10    0.0158   -0.0253    0.0021   -0.0092    0.0208    0.0068    0.0129   -0.0036
          11   -0.0108   -0.0258    0.0090   -0.0000    0.0098    0.0156   -0.0180    0.0046
          12    0.0222   -0.0110    0.0106    0.0168   -0.0024   -0.0149   -0.0062    0.0178
          13   -0.0058    0.0075    0.0229    0.0115    0.0030    0.0113    0.0199    0.0014
          14    0.0017    0.0043   -0.0025    0.0010   -0.0085    0.0100    0.0070    0.0126
          15   -0.0072   -0.0024    0.0230    0.0078    0.0328   -0.0179    0.0030    0.0124
          16   -0.0251    0.0147    0.0282    0.0082   -0.0039   -0.0028   -0.0116   -0.0019
          17    0.0167   -0.0100   -0.0085    0.0083   -0.0083   -0.0098    0.0083   -0.0011
          18    0.0171   -0.0261    0.0013    0.0009    0.0068    0.0175   -0.0069   -0.0101
          19   -0.0039    0.0109   -0.0127    0.0039   -0.0170   -0.0039    0.0131    0.0003
          20    0.0267    0.0576    0.0071   -0.0085    0.0064   -0.0013   -0.0133   -0.0021
          21   -0.0079    0.0112   -0.0180   -0.0149    0.0046   -0.0232    0.0053    0.0102
          22    0.0130    0.0032    0.0218   -0.0243    0.0025   -0.0192   -0.0164   -0.0053
          23   -0.0099   -0.0125    0.0003    0.0078   -0.0013   -0.0101    0.0014   -0.0072
          24    0.0047   -0.0104    0.0121   -0.0090   -0.0325    0.0207    0.0202    0.0103
          25    0.0128   -0.0078   -0.0352    0.0004    0.0291   -0.0027   -0.0029    0.0000
          26   -0.0062   -0.0191   -0.0051   -0.0031    0.0047   -0.0142    0.0044    0.0012
          27    0.0024    0.0103   -0.0121    0.0209    0.0045    0.0212   -0.0091   -0.0040
          28   -0.0027   -0.0041   -0.0376    0.0329   -0.0484   -0.0206   -0.1121   -0.0364
          29   -0.0052    0.0223    0.0022   -0.0331    0.0255   -0.0631    0.0760   -0.0277
          30   -0.0121    0.0143   -0.0245   -0.0294   -0.0060   -0.0124    0.0157   -0.0217
          31    0.0170   -0.0695   -0.0233   -0.0594    0.0204    0.0386    0.0187   -0.0191
          32   -0.0896    0.0462   -0.0176   -0.0574   -0.0030   -0.0439    0.0302    0.0304
          33   -0.0157   -0.0071   -0.0026   -0.0194    0.0078    0.0063   -0.0004   -0.0001
          34   -0.0549    0.0099    0.0605    0.0867   -0.0712   -0.0158   -0.0471   -0.0012
          35    0.0556   -0.0865    0.0010    0.0880   -0.0699    0.0057   -0.0209   -0.0176
          36   -0.0861    0.0610    0.0460    0.0344   -0.0277   -0.0250   -0.0337    0.0147
          37   -0.0887    0.0269   -0.0152   -0.0206    0.0012    0.0454   -0.0075   -0.0579
          38   -0.0658   -0.0122   -0.0530   -0.0615   -0.0480   -0.0061   -0.0494    0.0902
          39    0.0070   -0.0073   -0.0085   -0.0029   -0.0194   -0.0234   -0.0158    0.0469
          40    0.0426   -0.0399   -0.0112   -0.0143    0.0149   -0.0042    0.0249    0.0059
          41    0.0094   -0.0531    0.1137    0.0547    0.0830    0.0494   -0.0466   -0.0154
          42   -0.0890    0.0502    0.0131    0.0148   -0.0175    0.0126   -0.0441   -0.0094
          43   -0.0445    0.0444    0.0011    0.0343    0.0124    0.1405    0.0880   -0.1213
          44   -0.0014    0.0382   -0.0188    0.0380    0.0033    0.0830    0.0523    0.2890
          45   -0.0078    0.0022    0.0195    0.0119    0.0333   -0.0076    0.0088    0.0445
          46    0.0388    0.0500   -0.0232    0.0736   -0.0971   -0.0775    0.1441   -0.0550
          47    0.0026    0.0228   -0.0017   -0.0080    0.0030   -0.0075   -0.0069    0.0005
          48    0.0949    0.1711    0.0273   -0.0264    0.0312    0.0079   -0.0492    0.0064
          49   -0.0232   -0.0362   -0.0055   -0.0865   -0.0469    0.1357   -0.0481    0.0421
          50   -0.0678   -0.0751   -0.0388   -0.0080   -0.0046   -0.0462    0.0209    0.0138
          51   -0.0533   -0.0494   -0.0404   -0.0061    0.0016   -0.0579    0.0271    0.0155
          52    0.0164    0.0094    0.0440   -0.0581   -0.0328   -0.0029    0.0541    0.0288
          53   -0.0217   -0.0570   -0.0077    0.0129    0.0304   -0.0514   -0.0371   -0.0236
          54   -0.0317   -0.0533    0.1499   -0.0605   -0.0576   -0.0735   -0.0015   -0.0069
          55   -0.0411    0.0326   -0.0565    0.0479    0.0615   -0.0271   -0.0270   -0.0229
          56   -0.0140   -0.0057    0.0555    0.0209   -0.0696    0.0302    0.0195   -0.0347
          57   -0.0694    0.0264   -0.1079    0.0876    0.0637    0.0003    0.0023   -0.0059
          58   -0.0200    0.0021    0.0105   -0.0207    0.0401    0.0221    0.0227   -0.0270
          59   -0.0217    0.0082    0.0075   -0.0235    0.0397    0.0284    0.0264   -0.0259
          60    0.0031    0.0030   -0.0023    0.0038   -0.0061   -0.0100   -0.0030    0.0027
          61   -0.0043    0.0016    0.0085    0.0042    0.0162   -0.0020    0.0090    0.0225
          62    0.0124   -0.0005   -0.0447   -0.0299   -0.0388    0.0045   -0.0382   -0.0698
          63    0.0041   -0.0025   -0.0253   -0.0183   -0.0290    0.0043   -0.0220   -0.0545


   Root No.      25        26        27        28        29        30        31        32

                25 A      26 A      27 A      28 A      29 A      30 A      31 A      32 A   

                1086.6    1097.7    1113.4    1125.2    1146.7    1157.0    1173.0    1200.5
  
           1   -0.0065   -0.0099    0.0016    0.0089   -0.0036   -0.0056    0.0031   -0.0106
           2   -0.0156   -0.0233   -0.0052    0.0158    0.0019   -0.0101    0.0015   -0.0104
           3    0.0039    0.0077   -0.0005   -0.0031   -0.0002    0.0003    0.0002    0.0029
           4   -0.0042    0.0051   -0.0067   -0.0026    0.0008   -0.0021    0.0016    0.0033
           5    0.0102   -0.0104    0.0130    0.0043    0.0013    0.0050   -0.0019   -0.0075
           6    0.0068   -0.0091    0.0095    0.0023    0.0007    0.0042   -0.0019   -0.0033
           7    0.0027    0.0041    0.0109    0.0090    0.0049    0.0067   -0.0096   -0.0209
           8    0.0102    0.0154   -0.0046   -0.0195    0.0044    0.0058    0.0025    0.0285
           9   -0.0238    0.0050   -0.0230   -0.0004    0.0124    0.0011   -0.0217   -0.0058
          10   -0.0011    0.0002   -0.0103   -0.0146    0.0039   -0.0003    0.0009    0.0041
          11   -0.0041   -0.0059    0.0046   -0.0193   -0.0178    0.0233    0.0031   -0.0042
          12    0.0102   -0.0075    0.0221    0.0122   -0.0190   -0.0192    0.0039    0.0176
          13    0.0179   -0.0201    0.0152    0.0054    0.0032    0.0178   -0.0162   -0.0022
          14   -0.0091    0.0032    0.0018   -0.0026    0.0017    0.0031   -0.0071    0.0060
          15    0.0095   -0.0071   -0.0146   -0.0001    0.0023   -0.0050    0.0069    0.0068
          16   -0.0042    0.0129    0.0024    0.0189    0.0109    0.0075    0.0065    0.0066
          17    0.0042    0.0055    0.0037    0.0133    0.0137   -0.0267   -0.0082    0.0046
          18   -0.0093    0.0104   -0.0090    0.0157    0.0103    0.0315    0.0124   -0.0028
          19    0.0091   -0.0114   -0.0099   -0.0173   -0.0113   -0.0074   -0.0004   -0.0016
          20    0.0012   -0.0006   -0.0048   -0.0004    0.0037    0.0014    0.0082   -0.0030
          21   -0.0081   -0.0147    0.0180   -0.0349   -0.0015   -0.0128   -0.0096   -0.0025
          22   -0.0076    0.0029   -0.0073   -0.0060    0.0007   -0.0081    0.0048    0.0028
          23    0.0042   -0.0026   -0.0098    0.0014   -0.0065    0.0034   -0.0061    0.0051
          24   -0.0131    0.0079    0.0096   -0.0021   -0.0025    0.0001    0.0029   -0.0026
          25   -0.0056   -0.0008    0.0106    0.0034    0.0024    0.0001    0.0019   -0.0038
          26   -0.0101    0.0006    0.0046   -0.0027    0.0003    0.0000    0.0004   -0.0016
          27    0.0214    0.0004   -0.0171    0.0081   -0.0037   -0.0007   -0.0014    0.0013
          28   -0.0204    0.1888    0.0301   -0.0722   -0.1567   -0.0075    0.0070    0.1414
          29    0.1426    0.2169    0.0357   -0.0481    0.0196    0.0575   -0.0120   -0.1322
          30    0.0221    0.0773   -0.0084   -0.0097    0.0148    0.0182   -0.0284   -0.0604
          31    0.0049    0.0657   -0.0033    0.2238    0.0099    0.0327    0.0194    0.0414
          32    0.0372    0.0352    0.0577    0.2037   -0.0139   -0.0930   -0.0263    0.0510
          33   -0.0002    0.0188    0.0074    0.0762    0.0018    0.0132    0.0085    0.0128
          34    0.0053    0.0216    0.0052   -0.0415    0.1445   -0.0039    0.0039    0.0218
          35    0.0132    0.0271   -0.0080   -0.0441    0.1706   -0.0214   -0.0100    0.0069
          36   -0.0044   -0.0031    0.0161   -0.0155    0.0391    0.0036    0.0083    0.0179
          37   -0.0465    0.0451   -0.0453   -0.0176    0.0358    0.0238   -0.0387   -0.0365
          38    0.0635   -0.0811    0.0219   -0.0185   -0.0333    0.1661    0.1513   -0.0071
          39    0.0313   -0.0321    0.0277    0.0147   -0.0255    0.0250    0.0506    0.0199
          40    0.0181   -0.0092   -0.0099   -0.0240    0.0224   -0.0026    0.0250    0.0405
          41   -0.0573    0.0146    0.0434    0.0026   -0.1401   -0.0265   -0.0925   -0.1385
          42   -0.0386    0.0238    0.0055    0.0396   -0.0307    0.0124   -0.0432   -0.0583
          43   -0.0304    0.0216    0.1235   -0.0432   -0.0082   -0.0896    0.1775   -0.0021
          44   -0.0623    0.1303   -0.0487   -0.0151    0.0013   -0.0234    0.0285   -0.0139
          45    0.0021    0.0088   -0.0212   -0.0016    0.0030   -0.0094    0.0119    0.0037
          46   -0.0370   -0.0246   -0.1184    0.0199   -0.1425    0.0352    0.0403   -0.0394
          47    0.0013   -0.0025    0.0015   -0.0049    0.0049   -0.0065    0.0021   -0.0012
          48   -0.0034   -0.0021    0.0041   -0.0198    0.0225    0.0108    0.0200   -0.0090
          49    0.1700   -0.0430   -0.0598   -0.0655   -0.0437   -0.1396   -0.0370   -0.0224
          50   -0.0129   -0.0160    0.0251   -0.0409    0.0035   -0.0318   -0.0090   -0.0073
          51   -0.0304   -0.0196    0.0376   -0.0529    0.0021   -0.0164   -0.0143   -0.0032
          52   -0.0418   -0.0198    0.0942   -0.0358    0.0005    0.0634   -0.0971    0.0582
          53    0.0044    0.0177   -0.0761    0.0235    0.0020   -0.0702    0.1096   -0.0697
          54   -0.0154    0.0070   -0.0536   -0.0046    0.0001   -0.0546    0.0808   -0.0497
          55    0.0365   -0.0194   -0.0256    0.0039   -0.0079    0.0067   -0.0168    0.0202
          56    0.0676   -0.0121   -0.0684    0.0236   -0.0656    0.0444   -0.0662    0.0859
          57    0.0320   -0.0193   -0.0035    0.0066   -0.0007    0.0095   -0.0106    0.0010
          58   -0.0234   -0.0024   -0.0470   -0.0339    0.0108    0.0032   -0.0115    0.0730
          59   -0.0349   -0.0179   -0.0566   -0.0300    0.0181   -0.0009   -0.0138    0.0800
          60    0.0111    0.0115    0.0111    0.0065   -0.0041   -0.0010    0.0034   -0.0188
          61    0.0030   -0.0030   -0.0032    0.0004    0.0045    0.0051   -0.0035   -0.0005
          62   -0.0362    0.0369    0.0007   -0.0167   -0.0121   -0.0367    0.0321    0.0086
          63   -0.0203    0.0198    0.0009   -0.0098   -0.0100   -0.0219    0.0185    0.0081


   Root No.      33        34        35        36        37        38        39        40

                33 A      34 A      35 A      36 A      37 A      38 A      39 A      40 A   

                1220.4    1247.9    1260.4    1313.1    1330.8    1357.4    1385.0    1393.9
  
           1    0.0120   -0.0059   -0.0063    0.0143   -0.0069   -0.0116    0.0102   -0.0041
           2    0.0163   -0.0067   -0.0228    0.0204   -0.0043   -0.0032    0.0076    0.0004
           3    0.0001    0.0010   -0.0061   -0.0012    0.0015    0.0058   -0.0036    0.0022
           4   -0.0077   -0.0050    0.0021    0.0071    0.0050   -0.0104   -0.0106    0.0017
           5    0.0104    0.0209   -0.0159   -0.0108   -0.0181    0.0029   -0.0054   -0.0052
           6   -0.0005    0.0140   -0.0117   -0.0022   -0.0088   -0.0055   -0.0109   -0.0021
           7   -0.0103    0.0034    0.0399   -0.0306    0.0052    0.0139   -0.0346    0.0063
           8   -0.0219    0.0096    0.0367   -0.0360    0.0061   -0.0033   -0.0094   -0.0070
           9   -0.0036    0.0059    0.0017   -0.0010   -0.0008   -0.0111    0.0005   -0.0040
          10    0.0031   -0.0096   -0.0154    0.0002    0.0092   -0.0014   -0.0010    0.0017
          11   -0.0049    0.0113    0.0273   -0.0053   -0.0315   -0.0161    0.0086   -0.0092
          12   -0.0045    0.0042    0.0069   -0.0042   -0.0085   -0.0064    0.0069   -0.0063
          13   -0.0168    0.0255   -0.0115   -0.0093    0.0051    0.0221    0.0525    0.0004
          14   -0.0493   -0.0125    0.0150    0.0295    0.0507   -0.0238    0.0035    0.0202
          15    0.0071   -0.0268    0.0177    0.0072    0.0090    0.0018    0.0052    0.0025
          16   -0.0050    0.0084    0.0146    0.0274   -0.0168    0.0169   -0.0090    0.0177
          17    0.0077    0.0112    0.0041    0.0365   -0.0033    0.0185   -0.0021    0.0287
          18    0.0039    0.0013    0.0008    0.0138    0.0026    0.0072   -0.0039    0.0020
          19    0.0134    0.0213    0.0099    0.0137    0.0376   -0.0009    0.0050   -0.0394
          20   -0.0017    0.0005   -0.0029   -0.0096    0.0027   -0.0030   -0.0020   -0.0129
          21    0.0060   -0.0023   -0.0040   -0.0058   -0.0051    0.0020   -0.0069   -0.0138
          22    0.0088   -0.0196   -0.0018    0.0053   -0.0158    0.0014   -0.0129   -0.0088
          23   -0.0078   -0.0201    0.0013    0.0120   -0.0123    0.0081   -0.0042   -0.0130
          24   -0.0014    0.0114   -0.0015   -0.0005    0.0070   -0.0019    0.0031    0.0027
          25    0.0133    0.0088   -0.0049   -0.0162   -0.0005   -0.0068    0.0014    0.0192
          26    0.0010   -0.0064   -0.0054   -0.0042   -0.0170    0.0062   -0.0024   -0.0042
          27   -0.0155   -0.0111    0.0015    0.0091   -0.0061    0.0065   -0.0004   -0.0097
          28   -0.0363    0.0426   -0.1185    0.0415    0.0046   -0.0234    0.0348   -0.0042
          29    0.0353   -0.0281   -0.0341    0.0493   -0.0030    0.0072    0.0049    0.0171
          30    0.0164   -0.0065   -0.0246    0.0309   -0.0051   -0.0094    0.0094    0.0031
          31   -0.0242   -0.0305   -0.0189   -0.0703   -0.0190   -0.0516    0.0442    0.0258
          32   -0.0155   -0.0253   -0.0324   -0.0730    0.0515   -0.0143   -0.0182   -0.0888
          33   -0.0037   -0.0100   -0.0102   -0.0211    0.0155   -0.0056   -0.0046   -0.0271
          34   -0.0136   -0.0605   -0.0594   -0.0789   -0.0123   -0.0377    0.0134   -0.0036
          35    0.0163   -0.0643   -0.0911   -0.0629    0.0591   -0.0164   -0.0126   -0.0625
          36   -0.0180   -0.0212   -0.0081   -0.0407   -0.0571   -0.0364    0.0391    0.0653
          37   -0.0014    0.0035    0.0135   -0.0139   -0.0273   -0.0769    0.0684   -0.0738
          38    0.0112   -0.0594   -0.0788   -0.0079    0.0816    0.0312   -0.0154    0.0019
          39    0.0002   -0.0171   -0.0264   -0.0036    0.0287    0.0165   -0.0088    0.0051
          40    0.0007   -0.0017   -0.0068    0.0080   -0.0200   -0.0339    0.0330   -0.0232
          41    0.0054   -0.0608   -0.0607   -0.0824    0.1082    0.0091   -0.0225   -0.0207
          42   -0.0016    0.0015    0.0107   -0.0061    0.0366    0.0814   -0.0860    0.0688
          43    0.0463   -0.0524    0.0329    0.0059   -0.0043   -0.0211   -0.0773    0.0064
          44    0.0877    0.0254   -0.0060   -0.0514   -0.0573    0.0385    0.0137   -0.0251
          45    0.0249   -0.0248    0.0190   -0.0028   -0.0020    0.0094    0.0064   -0.0027
          46   -0.0906   -0.0758   -0.0339   -0.0758   -0.0865   -0.0125   -0.0021    0.0456
          47   -0.0002    0.0012   -0.0011    0.0008   -0.0007    0.0067   -0.0097   -0.0335
          48    0.0165    0.0113   -0.0152   -0.0664    0.0367   -0.0648    0.0519    0.1387
          49   -0.0729   -0.0523   -0.0231   -0.0224   -0.0653    0.0044   -0.0038    0.0662
          50    0.0179    0.0077   -0.0155   -0.0466    0.0170   -0.0475    0.0451    0.1477
          51    0.0242    0.0079   -0.0084   -0.0253    0.0125   -0.0257    0.0225    0.0732
          52    0.0240   -0.0842   -0.0008    0.0146   -0.0437    0.0103   -0.0120   -0.0002
          53   -0.0003    0.1007   -0.0094   -0.0401    0.0339   -0.0130    0.0128    0.0129
          54   -0.0039    0.0797    0.0011   -0.0169    0.0431   -0.0086    0.0141   -0.0052
          55    0.0596   -0.0174    0.0108   -0.0034    0.0009   -0.0091   -0.0115    0.0046
          56    0.2887    0.0035    0.0459   -0.0245    0.0580   -0.0701   -0.0433    0.0595
          57   -0.0056    0.0093    0.0060   -0.0024    0.0146    0.0021    0.0140    0.0028
          58   -0.0166    0.0310   -0.0779   -0.0436    0.0232    0.0935   -0.0575    0.0299
          59   -0.0184    0.0320   -0.0932   -0.0421    0.0297    0.1055   -0.0643    0.0364
          60    0.0107   -0.0069    0.0078    0.0123   -0.0079   -0.0174    0.0131   -0.0065
          61   -0.0208    0.0153   -0.0177    0.0121   -0.0056   -0.0309   -0.0411   -0.0005
          62    0.0638   -0.0822    0.0854   -0.0449    0.0310    0.1279    0.1690    0.0013
          63    0.0419   -0.0545    0.0564   -0.0248    0.0243    0.0758    0.1054    0.0029


   Root No.      41        42        43        44        45        46        47        48

                41 A      42 A      43 A      44 A      45 A      46 A      47 A      48 A   

                1400.9    1405.5    1415.7    1426.3    1886.9    2813.2    2840.9    2942.0
  
           1   -0.0061   -0.0087   -0.0048    0.0019    0.0008    0.0001   -0.0006   -0.0000
           2    0.0048    0.0032   -0.0050   -0.0040    0.0003    0.0001   -0.0003    0.0000
           3    0.0051    0.0060    0.0011   -0.0016    0.0001   -0.0002    0.0006   -0.0000
           4    0.0008    0.0000    0.0009   -0.0006   -0.0015    0.0002   -0.0000   -0.0000
           5   -0.0045   -0.0022    0.0007    0.0077   -0.0043    0.0007    0.0001    0.0000
           6   -0.0025   -0.0015    0.0009    0.0049    0.0005    0.0010    0.0001   -0.0000
           7    0.0143    0.0213    0.0098   -0.0013   -0.0024   -0.0014    0.0016   -0.0000
           8   -0.0335   -0.0304    0.0161    0.0226    0.0020   -0.0037    0.0205    0.0000
           9   -0.0147   -0.0166    0.0012    0.0078    0.0001    0.0097   -0.0573   -0.0003
          10    0.0001   -0.0252   -0.0223    0.0044    0.0002   -0.0005    0.0018   -0.0041
          11    0.0259    0.0168   -0.0440   -0.0206    0.0001    0.0004   -0.0007    0.0008
          12    0.0077    0.0202    0.0093   -0.0061   -0.0002   -0.0007    0.0019   -0.0058
          13   -0.0073   -0.0097   -0.0031   -0.0108   -0.0075    0.0015   -0.0007    0.0000
          14    0.0130    0.0033   -0.0001   -0.0322   -0.0302    0.0062    0.0013   -0.0002
          15    0.0045    0.0042   -0.0011   -0.0040    0.0016   -0.0617   -0.0113    0.0006
          16   -0.0357    0.0107    0.0066   -0.0132   -0.0002   -0.0000    0.0000   -0.0029
          17   -0.0010   -0.0102    0.0373    0.0157   -0.0023    0.0000   -0.0000    0.0004
          18   -0.0188    0.0054   -0.0042   -0.0018   -0.0019    0.0001   -0.0006    0.0070
          19    0.0273    0.0068   -0.0128    0.0426   -0.0262   -0.0002   -0.0001   -0.0018
          20    0.0071   -0.0072    0.0011   -0.0154    0.0186    0.0007    0.0001    0.0383
          21    0.0079   -0.0174    0.0132   -0.0312    0.0210   -0.0007   -0.0002   -0.0233
          22    0.0014    0.0043   -0.0020    0.0148   -0.0263   -0.0004   -0.0004    0.0001
          23    0.0015    0.0089   -0.0067    0.0299    0.2420    0.0011    0.0000    0.0003
          24    0.0006   -0.0009    0.0001   -0.0039    0.0576    0.0004   -0.0001   -0.0001
          25   -0.0067   -0.0088    0.0083   -0.0330    0.0852    0.0003    0.0000   -0.0009
          26   -0.0037   -0.0007    0.0005    0.0061   -0.2174   -0.0003   -0.0001   -0.0019
          27    0.0007    0.0059   -0.0053    0.0210   -0.0930   -0.0004   -0.0001    0.0003
          28   -0.0209   -0.0290   -0.0076   -0.0008   -0.0026    0.0063   -0.0092   -0.0004
          29    0.0555    0.0400   -0.0204   -0.0301   -0.0018    0.0432   -0.2398   -0.0009
          30    0.0143    0.0061   -0.0129   -0.0107   -0.0007   -0.1253    0.6912    0.0032
          31    0.1661   -0.0575    0.0454    0.0661   -0.0046   -0.0000    0.0003    0.0031
          32   -0.0827    0.0580   -0.0949   -0.0457   -0.0011    0.0005   -0.0033    0.0218
          33   -0.0257    0.0181   -0.0339   -0.0131   -0.0010   -0.0009    0.0052   -0.0698
          34    0.0446   -0.0324   -0.0047   -0.0168    0.0100   -0.0002    0.0006    0.0325
          35   -0.0625    0.0070   -0.0658   -0.0352    0.0053    0.0002   -0.0007   -0.0229
          36    0.1618   -0.0743    0.0875    0.0415    0.0080    0.0002   -0.0005   -0.0170
          37   -0.0388    0.1321    0.1753   -0.0114    0.0002   -0.0011   -0.0041    0.0016
          38   -0.0511   -0.0122    0.0908    0.0274    0.0001   -0.0026    0.0110   -0.0182
          39   -0.0117   -0.0071    0.0263    0.0097   -0.0002    0.0093   -0.0220    0.0578
          40   -0.0022    0.0266    0.0172   -0.0103   -0.0000    0.0005   -0.0148    0.0440
          41   -0.0259   -0.0018    0.1150    0.0459   -0.0001    0.0003   -0.0024    0.0053
          42    0.0264   -0.1199   -0.1451    0.0157    0.0004    0.0004   -0.0060    0.0112
          43    0.0180    0.0149   -0.0011    0.0081   -0.0065   -0.0056    0.0033    0.0004
          44   -0.0171   -0.0072    0.0043    0.0274    0.0235   -0.0889   -0.0152    0.0001
          45    0.0017    0.0038    0.0001    0.0017    0.0022    0.7390    0.1287   -0.0077
          46   -0.0392    0.0019   -0.0106   -0.0523   -0.0414   -0.0001   -0.0000   -0.0095
          47    0.0152   -0.0215    0.0140   -0.0323    0.0152   -0.0014   -0.0005   -0.2766
          48   -0.0439    0.0859   -0.0757    0.1108    0.0281   -0.0007   -0.0002   -0.0643
          49   -0.0332   -0.0084    0.0133   -0.0350    0.0112    0.0005    0.0002    0.0309
          50   -0.0489    0.0762   -0.0599    0.1098   -0.0212   -0.0047   -0.0010   -0.1786
          51   -0.0215    0.0352   -0.0263    0.0510   -0.0091    0.0118    0.0025    0.3497
          52   -0.0092    0.0065   -0.0006    0.0193   -0.1060   -0.0008   -0.0002    0.0121
          53    0.0021   -0.0192    0.0107   -0.0522   -0.0628    0.0002   -0.0000    0.0202
          54    0.0118   -0.0088    0.0015   -0.0202    0.0623   -0.0007   -0.0001   -0.0063
          55    0.0012   -0.0015    0.0039   -0.0100   -0.1203    0.0051    0.0002   -0.0004
          56    0.0022   -0.0129    0.0229   -0.0852   -0.0396   -0.0039   -0.0007   -0.0002
          57    0.0008   -0.0027    0.0003   -0.0080    0.0746   -0.0073   -0.0010   -0.0003
          58    0.0779    0.0920    0.0108   -0.0270    0.0008   -0.0010    0.0059   -0.0000
          59    0.0913    0.1071    0.0123   -0.0339   -0.0005   -0.0002    0.0035    0.0001
          60   -0.0149   -0.0177   -0.0027    0.0060    0.0013   -0.0001   -0.0022    0.0000
          61   -0.0015   -0.0011    0.0033    0.0076   -0.0015   -0.0015   -0.0003   -0.0000
          62    0.0057    0.0033   -0.0130   -0.0281   -0.0054   -0.0064   -0.0009    0.0001
          63    0.0039    0.0014   -0.0082   -0.0206   -0.0002   -0.0032   -0.0008    0.0000


   Root No.      49        50        51        52        53        54        55        56

                49 A      50 A      51 A      52 A      53 A      54 A      55 A      56 A   

                2945.5    2954.8    3024.4    3027.7    3028.5    3034.3    3050.1    3892.1
  
           1   -0.0001   -0.0001    0.0000    0.0001    0.0000   -0.0000    0.0000    0.0326
           2    0.0001    0.0000   -0.0001   -0.0002   -0.0001    0.0001    0.0000   -0.0365
           3   -0.0000    0.0000   -0.0000   -0.0001   -0.0000    0.0000   -0.0000   -0.0308
           4    0.0000    0.0000   -0.0000    0.0000   -0.0001   -0.0000   -0.0001   -0.0001
           5    0.0000    0.0000   -0.0000    0.0001   -0.0003   -0.0000   -0.0003   -0.0000
           6    0.0000    0.0000    0.0000   -0.0000    0.0000    0.0000    0.0000   -0.0000
           7   -0.0001   -0.0001    0.0001    0.0003    0.0002   -0.0002    0.0001    0.0000
           8    0.0005    0.0004   -0.0001   -0.0003   -0.0001   -0.0001    0.0001   -0.0018
           9   -0.0016   -0.0001   -0.0001   -0.0005   -0.0002    0.0003    0.0000   -0.0008
          10   -0.0263   -0.0080    0.0047    0.0154    0.0078   -0.0079    0.0003   -0.0000
          11    0.0049    0.0006    0.0023    0.0073    0.0036   -0.0026    0.0001    0.0003
          12   -0.0326   -0.0076   -0.0034   -0.0118   -0.0059    0.0037   -0.0000    0.0002
          13    0.0002    0.0000   -0.0001    0.0000   -0.0002    0.0000   -0.0001   -0.0002
          14   -0.0001   -0.0000   -0.0001    0.0001   -0.0001   -0.0000    0.0003   -0.0001
          15   -0.0001    0.0001    0.0004   -0.0000    0.0003   -0.0001    0.0004   -0.0001
          16   -0.0040    0.0217   -0.0029   -0.0031   -0.0004   -0.0160    0.0010   -0.0000
          17    0.0009   -0.0081    0.0039    0.0046    0.0008    0.0184   -0.0009    0.0000
          18    0.0084   -0.0379   -0.0051   -0.0042   -0.0005   -0.0121    0.0001    0.0000
          19    0.0005   -0.0000   -0.0018    0.0001    0.0006   -0.0001   -0.0001   -0.0000
          20   -0.0072    0.0060   -0.0147    0.0023    0.0057    0.0044   -0.0048   -0.0000
          21    0.0038   -0.0018   -0.0198    0.0036    0.0063    0.0030   -0.0025    0.0000
          22   -0.0000    0.0000   -0.0036    0.0093   -0.0207   -0.0018   -0.0222    0.0000
          23   -0.0000    0.0000    0.0007   -0.0021    0.0048    0.0005    0.0094   -0.0000
          24    0.0000   -0.0000    0.0026   -0.0068    0.0153    0.0014    0.0170   -0.0000
          25    0.0002   -0.0005    0.0043   -0.0052    0.0095   -0.0004   -0.0228    0.0000
          26    0.0003   -0.0002    0.0053   -0.0062    0.0110   -0.0008   -0.0354    0.0000
          27   -0.0000   -0.0000   -0.0020    0.0025   -0.0047    0.0001    0.0097   -0.0000
          28   -0.0022   -0.0007   -0.0001   -0.0002   -0.0001   -0.0001    0.0000   -0.0001
          29   -0.0049    0.0005    0.0004    0.0001   -0.0001    0.0012   -0.0001   -0.0023
          30    0.0184    0.0024    0.0001    0.0020    0.0015   -0.0028    0.0003    0.0026
          31   -0.0007   -0.0002   -0.0039   -0.0048   -0.0008   -0.0198    0.0008    0.0000
          32    0.0205   -0.0959   -0.0230   -0.0219   -0.0030   -0.0740    0.0019   -0.0000
          33   -0.0776    0.3051    0.0862    0.0825    0.0111    0.2947   -0.0089    0.0000
          34    0.0443   -0.2578    0.0344    0.0451    0.0074    0.2139   -0.0108    0.0000
          35   -0.0347    0.1911   -0.0250   -0.0290   -0.0034   -0.1523    0.0075    0.0000
          36   -0.0259    0.1490   -0.0275   -0.0313   -0.0044   -0.1458    0.0069    0.0000
          37    0.0100    0.0003    0.0071    0.0252    0.0128   -0.0113    0.0003   -0.0000
          38   -0.0968   -0.0228   -0.0196   -0.0652   -0.0326    0.0241   -0.0004    0.0002
          39    0.3131    0.0621    0.0647    0.2209    0.1110   -0.0842    0.0013    0.0005
          40    0.3044    0.0959   -0.0639   -0.2145   -0.1088    0.1095   -0.0035   -0.0009
          41    0.0370    0.0098   -0.0052   -0.0193   -0.0100    0.0131   -0.0004    0.0005
          42    0.0793    0.0256   -0.0224   -0.0747   -0.0378    0.0362   -0.0011   -0.0000
          43    0.0012    0.0003    0.0002    0.0004    0.0004   -0.0001    0.0002    0.0002
          44   -0.0003   -0.0001    0.0003   -0.0004    0.0013    0.0000    0.0017   -0.0002
          45   -0.0003   -0.0011   -0.0044    0.0001   -0.0036    0.0009   -0.0037   -0.0001
          46    0.0019    0.0001    0.0074   -0.0024   -0.0018   -0.0038   -0.0009    0.0000
          47    0.0592   -0.0554    0.2968   -0.0514   -0.1087   -0.0716    0.0669   -0.0000
          48    0.0132   -0.0111    0.0413   -0.0071   -0.0167   -0.0123    0.0126   -0.0000
          49   -0.0050    0.0054    0.0177   -0.0026   -0.0053   -0.0016    0.0024   -0.0000
          50    0.0297   -0.0142   -0.1222    0.0233    0.0389    0.0183   -0.0136    0.0000
          51   -0.0579    0.0319    0.1986   -0.0375   -0.0610   -0.0261    0.0165   -0.0000
          52   -0.0019    0.0006   -0.0495    0.0609   -0.1124    0.0050    0.2843   -0.0001
          53   -0.0033    0.0018   -0.0628    0.0760   -0.1394    0.0069    0.3619   -0.0000
          54    0.0010   -0.0003    0.0226   -0.0289    0.0540   -0.0022   -0.1343   -0.0000
[...]
 FREQ.      1313.14         O  1 -- C  3         +11.4% ( 47.6%)     96.4%
 T-DIPOLE    0.4364         C  6 -- H 12         +10.8% ( 46.3%)      0.2%
 TRAVEL      0.0831         C  6 -- H 11         +10.5% ( 45.8%)      0.1%
 RED. MASS   0.9721         C  3 -- C  5          +9.6% ( 43.8%)      7.4%
 EFF. MASS   7.4438

 VIBRATION   37   37A         ATOM PAIR      ENERGY CONTRIBUTION    RADIAL
 FREQ.      1330.78         O  2 -- C  5         +11.6% ( 48.5%)     80.7%
 T-DIPOLE    0.5979         C  5 -- C  8         +11.2% ( 47.7%)     86.1%
 TRAVEL      0.0841         C  5 -- H 15          +9.7% ( 44.3%)      0.2%
 RED. MASS   0.9556         C  4 -- H 14          +8.0% ( 40.3%)      0.1%
 EFF. MASS   7.1594

 VIBRATION   38   38A         ATOM PAIR      ENERGY CONTRIBUTION    RADIAL
 FREQ.      1357.39         O  2 -- H 21         +13.7% ( 42.9%)      7.0%
 T-DIPOLE    0.3655         O  1 -- H 20         +13.4% ( 42.4%)      2.0%
 TRAVEL      0.1113         O  2 -- C  5          +6.9% ( 30.5%)     55.9%
 RED. MASS   0.3319         C  5 -- H 15          +6.9% ( 30.4%)      0.1%
 EFF. MASS   4.0086

 VIBRATION   39   39A         ATOM PAIR      ENERGY CONTRIBUTION    RADIAL
 FREQ.      1385.01         O  2 -- H 21         +17.8% ( 51.6%)      3.7%
 T-DIPOLE    0.2637         C  3 -- C  5         +16.0% ( 49.0%)     86.6%
 TRAVEL      0.0964         C  5 -- H 15         +12.4% ( 43.1%)      0.0%
 RED. MASS   0.8967         C  5 -- C  8         +10.9% ( 40.4%)     38.1%
 EFF. MASS   5.2365         O  2 -- C  5         +10.1% ( 38.9%)      3.1%

 VIBRATION   40   40A         ATOM PAIR      ENERGY CONTRIBUTION    RADIAL
 FREQ.      1393.90         C  7 -- H 17         +18.4% ( 51.8%)      1.3%
 T-DIPOLE    0.2230         C  7 -- H 16         +14.1% ( 45.4%)      4.1%
 TRAVEL      0.1000         C  6 -- C  7         +13.3% ( 44.1%)     83.2%
 RED. MASS   0.5375         C  7 -- C  9         +10.3% ( 38.8%)     48.7%
 EFF. MASS   4.8370

 VIBRATION   41   41A         ATOM PAIR      ENERGY CONTRIBUTION    RADIAL
 FREQ.      1400.92         C  6 -- H 11         +15.7% ( 48.3%)      3.4%
 T-DIPOLE    0.0878         C  6 -- H 12         +14.3% ( 46.1%)      3.8%
 TRAVEL      0.0991         C  6 -- C  7         +10.2% ( 39.0%)     98.4%
 RED. MASS   0.5131         C  3 -- C  4          +8.5% ( 35.5%)     74.0%
 EFF. MASS   4.8963

 VIBRATION   42   42A         ATOM PAIR      ENERGY CONTRIBUTION    RADIAL
 FREQ.      1405.54         C  3 -- C  4         +14.6% ( 45.7%)     99.0%
 T-DIPOLE    0.2684         C  4 -- H 13         +12.1% ( 41.6%)      3.0%
 TRAVEL      0.1012         C  4 -- H 14         +10.6% ( 39.0%)      4.9%
 RED. MASS   0.5163         O  1 -- H 20          +9.6% ( 37.1%)      4.5%
 EFF. MASS   4.6848

 VIBRATION   43   43A         ATOM PAIR      ENERGY CONTRIBUTION    RADIAL
 FREQ.      1415.74         C  4 -- H 13         +20.5% ( 53.9%)      3.6%
 T-DIPOLE    0.2488         C  4 -- H 14         +18.3% ( 50.9%)      4.9%
 TRAVEL      0.1023         C  4 -- C  6         +16.7% ( 48.7%)     98.2%
 RED. MASS   0.6288         C  3 -- C  4          +9.4% ( 36.4%)      3.3%
 EFF. MASS   4.5520

 VIBRATION   44   44A         ATOM PAIR      ENERGY CONTRIBUTION    RADIAL
 FREQ.      1426.30         C  7 -- C  9         +16.5% ( 57.2%)     99.9%
 T-DIPOLE    0.2269         C  7 -- H 17         +11.1% ( 46.9%)      3.2%
 TRAVEL      0.0788         C  7 -- H 16         +11.1% ( 46.8%)      3.9%
 RED. MASS   0.9928         C  6 -- C  7          +8.5% ( 41.1%)     16.4%
 EFF. MASS   7.6205

 VIBRATION   45   45A         ATOM PAIR      ENERGY CONTRIBUTION    RADIAL
 FREQ.      1886.87         C  8 -- C  9         +44.4% ( 98.2%)    100.0%
 T-DIPOLE    0.3990         C  7 -- C  9         +14.3% ( 55.7%)     54.4%
 TRAVEL      0.0549         C  5 -- C  8         +14.0% ( 55.1%)     49.7%
 RED. MASS   5.4518         C  8 -- H 19         +13.2% ( 53.6%)      4.5%
 EFF. MASS  11.8596         C  9 -- H 18         +13.1% ( 53.4%)      3.9%

 VIBRATION   46   46A         ATOM PAIR      ENERGY CONTRIBUTION    RADIAL
 FREQ.      2813.20         C  5 -- H 15         +93.6% ( 98.4%)     99.9%
 T-DIPOLE    0.0160         C  3 -- H 10          +3.0% ( 17.6%)     99.8%
 TRAVEL      0.1282         C  3 -- C  5          +1.1% ( 10.8%)     10.7%
 RED. MASS   0.8734         O  2 -- C  5          +1.1% ( 10.5%)     11.0%
 EFF. MASS   1.4573

 VIBRATION   47   47A         ATOM PAIR      ENERGY CONTRIBUTION    RADIAL
 FREQ.      2840.94         C  3 -- H 10         +93.7% ( 98.3%)     99.9%
 T-DIPOLE    0.0635         C  5 -- H 15          +2.9% ( 17.3%)     99.6%
 TRAVEL      0.1279         C  3 -- C  4          +1.0% ( 10.4%)     11.4%
 RED. MASS   0.8714         O  1 -- C  3          +1.0% ( 10.4%)     10.0%
 EFF. MASS   1.4503

 VIBRATION   48   48A         ATOM PAIR      ENERGY CONTRIBUTION    RADIAL
 FREQ.      2941.95         C  7 -- H 17         +59.5% ( 80.1%)     97.8%
 T-DIPOLE    0.0356         C  7 -- H 16         +32.8% ( 59.5%)     94.3%
 TRAVEL      0.1219         C  6 -- H 11          +2.1% ( 14.9%)     98.0%
 RED. MASS   0.5004         C  4 -- H 13          +1.4% ( 12.4%)     97.6%
 EFF. MASS   1.5434

 VIBRATION   49   49A         ATOM PAIR      ENERGY CONTRIBUTION    RADIAL
 FREQ.      2945.51         C  4 -- H 13         +46.3% ( 70.7%)     96.7%
 T-DIPOLE    0.0844         C  4 -- H 14         +43.4% ( 68.5%)     96.3%
 TRAVEL      0.1219         C  6 -- H 11          +2.8% ( 17.3%)     97.3%
 RED. MASS   0.4384         C  7 -- H 17          +1.8% ( 14.0%)     96.9%
 EFF. MASS   1.5399

 VIBRATION   50   50A         ATOM PAIR      ENERGY CONTRIBUTION    RADIAL
 FREQ.      2954.85         C  6 -- H 12         +49.4% ( 73.0%)     97.0%
 T-DIPOLE    0.0406         C  6 -- H 11         +40.9% ( 66.4%)     95.9%
 TRAVEL      0.1215         C  4 -- H 14          +3.9% ( 20.4%)     98.1%
 RED. MASS   0.4489         C  4 -- H 13          +1.8% ( 13.8%)     93.8%
 EFF. MASS   1.5467

 VIBRATION   51   51A         ATOM PAIR      ENERGY CONTRIBUTION    RADIAL
 FREQ.      3024.41         C  7 -- H 16         +51.4% ( 70.8%)     98.9%
 T-DIPOLE    0.0560         C  7 -- H 17         +30.2% ( 54.3%)     95.5%
 TRAVEL      0.1313         C  6 -- H 11          +4.6% ( 21.2%)     99.2%
 RED. MASS   0.3569         C  9 -- H 18          +4.2% ( 20.4%)    100.0%
 EFF. MASS   1.2935

 VIBRATION   52   52A         ATOM PAIR      ENERGY CONTRIBUTION    RADIAL
 FREQ.      3027.74         C  4 -- H 13         +34.5% ( 58.1%)     97.8%
 T-DIPOLE    0.1743         C  4 -- H 14         +33.4% ( 57.2%)     97.7%
 TRAVEL      0.1305         C  8 -- H 19         +13.3% ( 36.2%)    100.0%
 RED. MASS   0.2578         C  9 -- H 18          +7.2% ( 26.6%)    100.0%
 EFF. MASS   1.3083

 VIBRATION   53   53A         ATOM PAIR      ENERGY CONTRIBUTION    RADIAL
 FREQ.      3028.46         C  8 -- H 19         +54.5% ( 74.3%)    100.0%
 T-DIPOLE    0.2749         C  9 -- H 18         +20.0% ( 45.0%)     99.9%
 TRAVEL      0.1255         C  4 -- H 13          +7.1% ( 26.9%)     97.8%
 RED. MASS   0.3356         C  4 -- H 14          +7.0% ( 26.7%)     97.8%
 EFF. MASS   1.4135

 VIBRATION   54   54A         ATOM PAIR      ENERGY CONTRIBUTION    RADIAL
 FREQ.      3034.26         C  6 -- H 11         +43.4% ( 64.8%)     97.8%
 T-DIPOLE    0.0828         C  6 -- H 12         +42.1% ( 63.9%)     97.6%
 TRAVEL      0.1321         C  4 -- H 14          +6.3% ( 24.7%)     98.8%
 RED. MASS   0.3683         C  4 -- H 13          +3.6% ( 18.6%)     95.9%
 EFF. MASS   1.2738

 VIBRATION   55   55A         ATOM PAIR      ENERGY CONTRIBUTION    RADIAL
 FREQ.      3050.14         C  9 -- H 18         +66.3% ( 82.5%)     99.9%
 T-DIPOLE    0.3148         C  8 -- H 19         +28.8% ( 54.4%)     99.9%
 TRAVEL      0.1187         C  8 -- C  9          +1.9% ( 13.9%)     92.8%
 RED. MASS   0.5208         C  7 -- H 16          +1.3% ( 11.4%)     99.7%
 EFF. MASS   1.5688

 VIBRATION   56   56A         ATOM PAIR      ENERGY CONTRIBUTION    RADIAL
 FREQ.      3892.10         O  1 -- H 20         +99.6% (100.0%)    100.0%
 T-DIPOLE    0.3355         O  1 -- C  3          +0.4% (  6.4%)      8.0%
 TRAVEL      0.1116
 RED. MASS   0.9481
 EFF. MASS   1.3918

 VIBRATION   57   57A         ATOM PAIR      ENERGY CONTRIBUTION    RADIAL
 FREQ.      3909.55         O  2 -- H 21         +99.6% (100.0%)    100.0%
 T-DIPOLE    0.2712         O  2 -- C  5          +0.4% (  6.3%)      6.9%
 TRAVEL      0.1114
 RED. MASS   0.9481
 EFF. MASS   1.3892

      SYMMETRY NUMBER FOR POINT-GROUP C1  =  1


          SYSTEM IS A GROUND STATE



 InChI=1S/C7H12O2/c8-6-4-2-1-3-5-7(6)9/h2,4,6-9H,1,3,5H2


          MOLECULE IS NOT LINEAR

          THERE ARE 57 GENUINE VIBRATIONS IN THIS SYSTEM
          THIS THERMODYNAMICS CALCULATION IS LIMITED TO
          MOLECULES WHICH HAVE NO INTERNAL ROTATIONS




                    CALCULATED THERMODYNAMIC PROPERTIES
                                          *
   TEMP. (K)   PARTITION FUNCTION   H.O.F.    ENTHALPY  HEAT CAPACITY ENTROPY
                                   KCAL/MOL   CAL/MOLE    CAL/K/MOL  CAL/K/MOL


 298.00  VIB.     0.7561D+02                  3871.1080    29.3828    21.5863
         ROT.     0.4663D+06                   888.2813     2.9808    28.9188
         INT.     0.3526D+08                  4759.3893    32.3636    50.5051
         TRA.     0.1403D+28                  1480.4688     4.9680    40.4556
         TOT.                      -86.594    6239.8581    37.3316    90.9607

 200.00  VIB.     0.9819D+01                  1549.9135    18.1964    12.2889
         ROT.     0.2564D+06                   596.1620     2.9808    27.7301
         INT.     0.2517D+07                  2146.0755    21.1773    40.0190
         TRA.     0.7713D+27                   993.6033     4.9680    38.4745
         TOT.                      -89.694    3139.6787    26.1453    78.4935

 210.00  VIB.     0.1195D+02                  1737.2614    19.2754    13.2027
         ROT.     0.2758D+06                   625.9700     2.9808    27.8756
         INT.     0.3297D+07                  2363.2314    22.2562    41.0783
         TRA.     0.8299D+27                  1043.2834     4.9680    38.7168
         TOT.                      -89.427    3406.5148    27.2243    79.7952

 220.00  VIB.     0.1459D+02                  1935.4718    20.3692    14.1246
         ROT.     0.2958D+06                   655.7781     2.9808    28.0142
         INT.     0.4316D+07                  2591.2500    23.3500    42.1389
         TRA.     0.8899D+27                  1092.9636     4.9680    38.9480
         TOT.                      -89.150    3684.2135    28.3181    81.0868

 230.00  VIB.     0.1787D+02                  2144.6993    21.4789    15.0545
         ROT.     0.3162D+06                   685.5862     2.9808    28.1467
         INT.     0.5651D+07                  2830.2856    24.4598    43.2012
         TRA.     0.9512D+27                  1142.6437     4.9680    39.1688
         TOT.                      -88.861    3972.9293    29.4278    82.3700

 240.00  VIB.     0.2195D+02                  2365.1045    22.6047    15.9924
         ROT.     0.3370D+06                   715.3943     2.9808    28.2736
         INT.     0.7396D+07                  3080.4988    25.5855    44.2660
         TRA.     0.1014D+28                  1192.3239     4.9680    39.3802
         TOT.                      -88.561    4272.8227    30.5535    83.6462

 250.00  VIB.     0.2702D+02                  2596.8451    23.7459    16.9382
         ROT.     0.3583D+06                   745.2024     2.9808    28.3953
         INT.     0.9680D+07                  3342.0476    26.7267    45.3335
         TRA.     0.1078D+28                  1242.0041     4.9680    39.5830
         TOT.                      -88.250    4584.0516    31.6947    84.9165

 260.00  VIB.     0.3334D+02                  2840.0691    24.9011    17.8920
         ROT.     0.3800D+06                   775.0105     2.9808    28.5122
         INT.     0.1267D+08                  3615.0797    27.8819    46.4042
         TRA.     0.1143D+28                  1291.6842     4.9680    39.7779
         TOT.                      -87.927    4906.7639    32.8499    86.1821

 270.00  VIB.     0.4124D+02                  3094.9083    26.0686    18.8536
         ROT.     0.4021D+06                   804.8186     2.9808    28.6247
         INT.     0.1658D+08                  3899.7270    29.0494    47.4783
         TRA.     0.1210D+28                  1341.3644     4.9680    39.9654
         TOT.                      -87.593    5241.0913    34.0174    87.4437

 280.00  VIB.     0.5111D+02                  3361.4741    27.2460    19.8229
         ROT.     0.4247D+06                   834.6267     2.9808    28.7331
         INT.     0.2170D+08                  4196.1008    30.2269    48.5560
         TRA.     0.1278D+28                  1391.0445     4.9680    40.1461
         TOT.                      -87.247    5587.1453    35.1949    88.7021

 290.00  VIB.     0.6348D+02                  3639.8543    28.4311    20.7997
         ROT.     0.4476D+06                   864.4348     2.9808    28.8377
         INT.     0.2842D+08                  4504.2892    31.4119    49.6374
         TRA.     0.1347D+28                  1440.7247     4.9680    40.3204
         TOT.                      -86.889    5945.0139    36.3799    89.9578

 300.00  VIB.     0.7901D+02                  3930.1118    29.6210    21.7836
         ROT.     0.4710D+06                   894.2429     2.9808    28.9388
         INT.     0.3721D+08                  4824.3547    32.6019    50.7223
         TRA.     0.1417D+28                  1490.4049     4.9680    40.4888
         TOT.                      -86.519    6314.7596    37.5699    91.2112

 310.00  VIB.     0.9852D+02                  4232.2830    30.8134    22.7743
         ROT.     0.4947D+06                   924.0510     2.9808    29.0365
         INT.     0.4874D+08                  5156.3340    33.7942    51.8108
         TRA.     0.1488D+28                  1540.0850     4.9680    40.6517
         TOT.                      -86.137    6696.4190    38.7622    92.4625

 320.00  VIB.     0.1231D+03                  4546.3783    32.0054    23.7714
         ROT.     0.5188D+06                   953.8591     2.9808    29.1311
         INT.     0.6385D+08                  5500.2374    34.9863    52.9025
         TRA.     0.1561D+28                  1589.7652     4.9680    40.8094
         TOT.                      -85.744    7090.0026    39.9543    93.7120

 330.00  VIB.     0.1540D+03                  4872.3828    33.1948    24.7745
         ROT.     0.5433D+06                   983.6672     2.9808    29.2229
         INT.     0.8368D+08                  5856.0500    36.1756    53.9973
         TRA.     0.1635D+28                  1639.4454     4.9680    40.9623
         TOT.                      -85.338    7495.4954    41.1436    94.9597

 340.00  VIB.     0.1931D+03                  5210.2574    34.3791    25.7831
         ROT.     0.5682D+06                  1013.4753     2.9808    29.3118
         INT.     0.1097D+09                  6223.7327    37.3599    55.0949
         TRA.     0.1710D+28                  1689.1255     4.9680    41.1106
         TOT.                      -84.921    7912.8582    42.3279    96.2055

 350.00  VIB.     0.2424D+03                  5559.9402    35.5561    26.7966
         ROT.     0.5935D+06                  1043.2834     2.9808    29.3982
         INT.     0.1439D+09                  6603.2237    38.5369    56.1949
         TRA.     0.1786D+28                  1738.8057     4.9680    41.2546
         TOT.                      -84.492    8342.0293    43.5049    97.4495

 360.00  VIB.     0.3049D+03                  5921.3488    36.7239    27.8147
         ROT.     0.6191D+06                  1073.0915     2.9808    29.4822
         INT.     0.1887D+09                  6994.4403    39.7047    57.2969
         TRA.     0.1863D+28                  1788.4859     4.9680    41.3946
         TOT.                      -84.051    8782.9262    44.6727    98.6915

 370.00  VIB.     0.3839D+03                  6294.3817    37.8807    28.8367
         ROT.     0.6451D+06                  1102.8996     2.9808    29.5639
         INT.     0.2477D+09                  7397.2813    40.8615    58.4006
         TRA.     0.1941D+28                  1838.1660     4.9680    41.5307
         TOT.                      -83.598    9235.4473    45.8295    99.9313

 380.00  VIB.     0.4842D+03                  6678.9208    39.0249    29.8621
         ROT.     0.6714D+06                  1132.7077     2.9808    29.6434
         INT.     0.3251D+09                  7811.6286    42.0057    59.5055
         TRA.     0.2020D+28                  1887.8462     4.9680    41.6632
         TOT.                      -83.134    9699.4747    46.9737   101.1687

 390.00  VIB.     0.6115D+03                  7074.8334    40.1552    30.8904
         ROT.     0.6981D+06                  1162.5158     2.9808    29.7208
         INT.     0.4269D+09                  8237.3492    43.1360    60.6112
         TRA.     0.2100D+28                  1937.5263     4.9680    41.7923
         TOT.                      -82.659   10174.8755    48.1040   102.4035

 400.00  VIB.     0.7733D+03                  7481.9738    41.2703    31.9212
         ROT.     0.7251D+06                  1192.3239     2.9808    29.7963
         INT.     0.5607D+09                  8674.2977    44.2511    61.7174
         TRA.     0.2182D+28                  1987.2065     4.9680    41.9180
         TOT.                      -82.172   10661.5042    49.2191   103.6355

   *: NOTE: HEATS OF FORMATION ARE RELATIVE TO THE
            ELEMENTS IN THEIR STANDARD STATE AT 298K
              (=  Standard Enthalpy of Formation).

            Hvib:  Zero-point energy is not included.
                   frequencies of less than zero cm-1 are not included.
            Hrot = (3/2)RT
            Htra = (3/2)RT + pV = (5/2)RT

            Heat capacity is Cp, not Cv

          For more information, see: HTTP://OpenMOPAC.net/Manual/thermochemistry.html


           FORCE CONSTANT IN CARTESIAN COORDINATES (Millidynes/A)

    ATOM   CHEMICAL       X               Y               Z
   NUMBER   SYMBOL  FORCE CONSTANT  FORCE CONSTANT  FORCE CONSTANT

      1       O        5.570451        8.294301        3.164353
      2       O        8.092129        4.975846        3.849200
      3       C        7.558713        8.737306        8.062451
      4       C        8.195930        8.371717        8.054409
      5       C        7.740684        8.932505        8.245618
      6       C        8.256106        8.210228        8.249531
      7       C        8.387349        8.633471        8.241403
      8       C        7.344800       14.399749        5.241953
      9       C        7.671227       14.324115        5.183506
     10       H        0.717277        1.113698        4.049299
     11       H        0.724633        1.034779        4.656508
     12       H        2.934568        1.892714        1.549714
     13       H        0.741155        1.108176        4.573042
     14       H        4.554743        0.819752        1.046660
     15       H        0.693661        0.714343        4.317438
     16       H        0.733292        4.834021        0.803949
     17       H        0.712256        1.657444        3.912567
     18       H        2.165918        3.210004        0.820810
     19       H        3.366211        0.921799        1.952032
     20       H        2.956056        4.029358        2.444284
     21       H        6.471975        0.836126        2.170313

 **********************
 *                    *
 * JOB ENDED NORMALLY *
 *                    *
 **********************



 TOTAL JOB TIME:             2.18 SECONDS

 == MOPAC DONE ==
